Membrane in water
40347
    1TMC1    C1    1   4.031   1.392  11.124  0.6864 -0.8324 -0.2839
    1TMC1    C2    2   3.912   1.357  11.072  0.0779 -0.6507 -0.3555
    1TMC1    C3    3   3.876   1.403  10.947  0.3353 -0.2246  0.2492
    1TMC1    C4    4   4.126   1.460  11.052  0.1230  0.2989  0.2744
    1TMC1    C5    5   4.077   1.520  10.938  0.0544 -0.5781 -0.5387
    1TMC1    C6    6   3.955   1.496  10.883 -1.3851  0.0437 -0.0352
    1TMC1     C    7   4.039   1.385  11.268 -0.3568 -0.5958  0.9849
    1TMC1     O    8   3.986   1.283  11.317  0.4443  0.1754  0.5626
    1TMC1     H    9   3.836   1.320  11.139  0.4028 -2.1333 -0.8062
    1TMC1    H1   10   4.228   1.466  11.087 -0.1437  0.6812  0.9892
    1TMC1    H2   11   3.924   1.552  10.796 -0.3278 -1.0791 -1.1465
    1TMC1    C7   12   4.176   1.580  10.849 -0.5622  0.1393  0.3148
    1TMC1    C8   13   3.735   1.428  10.917  0.0641  0.8382 -0.2234
    1TMC1    O1   14   4.278   1.628  10.895 -0.9679 -0.0461 -0.0710
    1TMC1    O2   15   3.697   1.524  10.850 -0.2545  0.1256 -0.2187
    1TMC1    O3   16   4.170   1.495  10.742  0.0782  0.1870 -0.6246
    1TMC1    H3   17   4.084   1.451  10.729 -0.0021 -0.3642  1.7972
    1TMC1    O5   18   3.660   1.323  10.961  0.4104  0.4753 -0.0815
    1TMC1    H5   19   3.697   1.243  11.005  2.7988  0.9448 -1.2917
    2MPD2     C   20   4.164   1.554  11.722 -0.2617 -0.1518 -0.1649
    2MPD2    C1   21   4.103   1.438  11.683 -0.4743 -0.1367  0.2214
    2MPD2    C2   22   4.085   1.416  11.553 -0.1852 -0.2133 -0.2531
    2MPD2    C3   23   4.130   1.503  11.461 -0.1879 -0.5523  0.2220
    2MPD2    C4   24   4.211   1.609  11.501 -0.0441 -0.2907 -0.0383
    2MPD2    C5   25   4.231   1.633  11.634 -0.2225 -0.0914 -0.2447
    2MPD2     H   26   4.022   1.333  11.526  1.1403 -0.5186 -2.4445
    2MPD2    H1   27   4.257   1.677  11.429 -0.7586  1.5937  1.2848
    2MPD2    H2   28   4.171   1.588  11.825 -0.3240 -0.3268 -0.1027
    2MPD2    H3   29   4.300   1.712  11.661 -1.2698  0.5984  0.4435
    2MPD2     N   30   4.100   1.495  11.323 -0.2066  0.5104  0.7561
    2MPD2    H5   31   4.129   1.571  11.262  0.0920 -0.7805 -0.7199
    2MPD2    N1   32   4.053   1.340  11.771  0.1423 -0.0298  0.3752
    2MPD2    H7   33   4.012   1.259  11.726  2.8732 -2.1007  1.6159
    3TMC1    C1   34   3.829   1.804  10.143 -0.4050  0.1259 -0.0001
    3TMC1    C2   35   3.911   1.716  10.083  0.7087 -0.0732  0.1846
    3TMC1    C3   36   3.852   1.607  10.025  0.1360 -0.2160 -0.1185
    3TMC1    C4   37   3.687   1.795  10.140  0.5523 -0.1471 -0.8074
    3TMC1    C5   38   3.632   1.682  10.087 -1.1823 -0.0888  0.3386
    3TMC1    C6   39   3.715   1.581  10.037 -0.1840  0.1686 -0.3518
    3TMC1     C   40   3.893   1.928  10.192 -0.7781 -0.3904  0.1095
    3TMC1     O   41   4.007   1.946  10.162 -0.0193  0.0285 -0.1082
    3TMC1     H   42   4.018   1.734  10.083  1.1211 -2.5067 -0.2378
    3TMC1    H1   43   3.622   1.869  10.184  0.5095 -0.3355 -0.5537
    3TMC1    H2   44   3.685   1.490   9.988  0.5220 -0.3637  0.1987
    3TMC1    C7   45   3.495   1.691  10.028 -0.3776  0.3283 -0.1898
    3TMC1    C8   46   3.907   1.560   9.902 -0.3924  0.1141  0.6152
    3TMC1    O1   47   3.433   1.593   9.983  0.1480  0.1405  0.3693
    3TMC1    O2   48   3.836   1.519   9.815 -0.2808 -0.1205 -0.0373
    3TMC1    O3   49   3.457   1.819  10.026  0.1241 -0.0127  0.1624
    3TMC1    H3   50   3.521   1.890  10.049  1.9182 -1.2165 -1.0978
    3TMC1    O5   51   4.023   1.620   9.889  0.0879  0.1100 -0.4719
    3TMC1    H5   52   4.067   1.624   9.977 -0.1846  0.6720 -0.3610
    4MPD2     C   53   3.875   2.327  10.518 -0.5422 -0.4622 -0.0365
    4MPD2    C1   54   3.765   2.251  10.538 -0.5535 -1.1176  0.5197
    4MPD2    C2   55   3.755   2.138  10.465 -0.5358 -0.3653 -0.7534
    4MPD2    C3   56   3.848   2.098  10.374  0.3377 -0.5741  0.4396
    4MPD2    C4   57   3.965   2.175  10.355 -0.5808  0.1459 -0.1154
    4MPD2    C5   58   3.975   2.285  10.435 -0.2535  0.0716 -0.5268
    4MPD2     H   59   3.662   2.083  10.474 -2.9379  3.6012 -1.1059
    4MPD2    H1   60   4.043   2.153  10.283  0.0205  2.4140 -0.1822
    4MPD2    H2   61   3.877   2.423  10.569  1.3740 -0.8094  0.5498
    4MPD2    H3   62   4.057   2.355  10.423  1.1811 -1.4892  0.1000
    4MPD2     N   63   3.821   1.977  10.297  0.3034 -0.2405 -0.1843
    4MPD2    H5   64   3.734   1.931  10.320  0.1209 -1.2765 -2.9315
    4MPD2    N1   65   3.658   2.280  10.626  0.3573  0.7426  0.3820
    4MPD2    H7   66   3.579   2.217  10.629  1.1299 -0.4196 -3.3429
    5TCq1    O1   67   4.368   3.804  11.230 -0.5838  0.0883 -0.6422
    5TCq1    C1   68   4.459   3.708  11.193 -0.3529 -0.1590  0.0858
    5TCq1    O2   69   4.533   3.722  11.096 -0.4114 -0.4633  0.1430
    5TCq1    C2   70   4.390   3.576  11.214 -0.4803  0.3743  0.1465
    5TCq1    C3   71   4.293   3.552  11.311 -0.8956  0.2469 -0.4368
    5TCq1    C4   72   4.229   3.431  11.309 -0.3094 -0.2332 -0.0367
    5TCq1    C5   73   4.248   3.340  11.213 -0.1415  0.5247  0.0768
    5TCq1    C6   74   4.352   3.363  11.127  0.3636  0.0276  0.6014
    5TCq1    C7   75   4.427   3.479  11.126 -0.1718 -0.3938  0.0488
    5TCq1    C8   76   4.381   3.260  11.033  0.7364 -0.2837 -0.2154
    5TCq1    O4   77   4.479   3.276  10.960  0.3186  0.4096  0.0403
    5TCq1    C9   78   4.118   3.412  11.406 -0.3618  0.3481  0.2197
    5TCq1    O5   79   4.087   3.515  11.481 -0.1287  0.2720 -0.2026
    5TCq1    O6   80   4.037   3.322  11.373  0.0253  0.5012 -0.4307
    5TCq1    H1   81   4.337   3.798  11.323 -0.8767 -0.7980 -0.7932
    5TCq1    H2   82   4.260   3.628  11.381 -1.1929 -0.7109  0.4657
    5TCq1    H3   83   4.204   3.244  11.236  0.3074  0.6765  1.5773
    5TCq1    H4   84   4.502   3.495  11.050 -0.6656 -0.6216 -0.4906
    6MPD2     C   85   4.186   2.957  10.950  0.0785  1.1658 -0.6128
    6MPD2    C1   86   4.297   3.036  10.958 -0.5141  0.1275  0.0632
    6MPD2    C2   87   4.417   2.993  10.902 -0.4163  1.0209 -0.1716
    6MPD2    C3   88   4.420   2.879  10.827 -0.2007  0.7957 -0.4563
    6MPD2    C4   89   4.313   2.796  10.826  0.0343 -0.0324 -0.1193
    6MPD2    C5   90   4.196   2.831  10.885  0.6332 -0.2491 -0.0525
    6MPD2     H   91   4.501   3.061  10.900  2.4411 -2.5647 -2.5345
    6MPD2    H1   92   4.320   2.692  10.796  0.3916 -0.8268  2.7320
    6MPD2    H2   93   4.087   2.976  10.989  0.7024 -0.6873  1.8113
    6MPD2    H3   94   4.110   2.765  10.892 -0.0674  0.7910  1.1424
    6MPD2     N   95   4.536   2.851  10.748 -0.2429  0.4279 -0.0370
    6MPD2    H5   96   4.607   2.923  10.747  0.0742  0.1346  1.3301
    6MPD2    N1   97   4.291   3.158  11.028  0.1368  0.0718 -0.0303
    6MPD2    H7   98   4.205   3.170  11.080 -0.4668 -1.3753 -0.7077
    7TCq1    O1   99   1.847   3.333  12.344  0.2373  0.0537 -0.0627
    7TCq1    C1  100   1.857   3.254  12.232 -0.3067  0.1859  0.3447
    7TCq1    O2  101   1.855   3.304  12.121  0.1402  0.2850  0.1301
    7TCq1    C2  102   1.790   3.130  12.264  0.5690  0.1272 -0.1878
    7TCq1    C3  103   1.694   3.085  12.178 -0.4566 -0.2073  0.1963
    7TCq1    C4  104   1.645   2.959  12.176 -0.0169 -0.2973  0.5672
    7TCq1    C5  105   1.686   2.877  12.282 -0.0077 -0.4128  0.3225
    7TCq1    C6  106   1.755   2.940  12.380 -0.2220 -0.0771 -0.6454
    7TCq1    C7  107   1.815   3.062  12.374  0.2567  0.1054  0.1892
    7TCq1    C8  108   1.794   2.858  12.499 -0.0508  0.2843 -0.1199
    7TCq1    O4  109   1.767   2.737  12.496 -0.5039 -0.1403  0.3024
    7TCq1    C9  110   1.555   2.915  12.068 -0.4529  0.1104  0.8968
    7TCq1    O5  111   1.528   2.791  12.065 -0.3880 -0.1946  0.4759
    7TCq1    O6  112   1.524   3.004  11.982  0.1949  0.4337 -0.2787
    7TCq1    H1  113   1.806   3.286  12.420 -0.8160 -1.1072 -1.3494
    7TCq1    H2  114   1.672   3.146  12.091 -0.0478 -1.4828 -0.8093
    7TCq1    H3  115   1.647   2.776  12.291 -1.3281 -0.0786 -1.6244
    7TCq1    H4  116   1.905   3.084  12.429 -1.1902  0.4712  2.4274
    8MPD2     C  117   2.060   2.866  12.942 -0.1921 -0.4436  0.0931
    8MPD2    C1  118   2.004   2.761  12.873 -0.3695  0.2363 -0.1292
    8MPD2    C2  119   1.929   2.777  12.757  0.0903 -0.7855 -0.6526
    8MPD2    C3  120   1.904   2.907  12.716  0.5505 -0.0561  0.2781
    8MPD2    C4  121   1.961   3.018  12.783 -0.1517  0.5976 -0.7011
    8MPD2    C5  122   2.040   2.995  12.892 -0.3956  0.2462  0.0096
    8MPD2     H  123   1.872   2.697  12.711 -2.3047  0.3666  0.3106
    8MPD2    H1  124   1.946   3.119  12.747  0.6211  0.7907 -0.4780
    8MPD2    H2  125   2.138   2.867  13.017  0.2634 -0.1356 -0.3871
    8MPD2    H3  126   2.094   3.076  12.939  1.5376 -1.1840  0.2172
    8MPD2     N  127   1.829   2.942  12.601 -0.2076  0.1149 -0.4181
    8MPD2    H5  128   1.811   3.040  12.585  0.1389 -0.1229 -2.3291
    8MPD2    N1  129   2.022   2.639  12.939  0.2473  0.3604 -0.0769
    8MPD2    H7  130   2.084   2.643  13.020  1.8145 -0.0698 -1.2489
    9TMC1    C1  131   3.475   2.291  11.568 -0.3029  0.8469  0.1242
    9TMC1    C2  132   3.552   2.381  11.628  0.7891 -0.5605  0.2374
    9TMC1    C3  133   3.612   2.473  11.541  0.0597 -0.1746 -0.1527
    9TMC1    C4  134   3.436   2.286  11.438  0.3022 -0.4352  0.1728
    9TMC1    C5  135   3.480   2.385  11.361 -0.4875 -0.0628  0.0015
    9TMC1    C6  136   3.575   2.478  11.410  0.0854 -0.2576  0.8891
    9TMC1     C  137   3.443   2.180  11.656 -0.5082 -0.0457  0.0023
    9TMC1     O  138   3.468   2.188  11.771 -0.0830  0.0872 -0.0696
    9TMC1     H  139   3.587   2.359  11.728  0.3108  0.6119  0.6579
    9TMC1    H1  140   3.382   2.213  11.379  0.0376 -0.8954  0.9957
    9TMC1    H2  141   3.596   2.571  11.358  1.3153  0.0766  1.9960
    9TMC1    C7  142   3.415   2.401  11.226 -0.9477  0.0945 -0.3082
    9TMC1    C8  143   3.683   2.584  11.583  0.1849 -0.0562 -0.5291
    9TMC1    O1  144   3.306   2.358  11.188  0.4825 -0.4053  0.1550
    9TMC1    O2  145   3.761   2.645  11.506 -0.2557 -0.3044 -0.4714
    9TMC1    O3  146   3.503   2.466  11.147 -0.7478 -0.0408 -0.6319
    9TMC1    H3  147   3.598   2.464  11.169 -0.4867 -0.8630 -1.8021
    9TMC1    O5  148   3.666   2.610  11.713  0.5772 -0.0718  0.0025
    9TMC1    H5  149   3.638   2.537  11.773  2.7199 -1.4007 -0.6101
   10MPD2     C  150   3.459   1.838  11.541  0.0329 -0.0735 -0.4844
   10MPD2    C1  151   3.427   1.935  11.628 -0.8701  0.5112 -0.0460
   10MPD2    C2  152   3.391   1.892  11.757 -0.3782 -0.2608  0.0639
   10MPD2    C3  153   3.372   1.757  11.788 -0.0868 -0.4477  0.3539
   10MPD2    C4  154   3.390   1.664  11.689 -0.4666  0.7569 -0.6037
   10MPD2    C5  155   3.432   1.708  11.565 -0.0652  0.0156 -0.1415
   10MPD2     H  156   3.369   1.967  11.832 -1.2942 -2.1248  1.6519
   10MPD2    H1  157   3.394   1.556  11.699  0.0611  0.7681 -0.6521
   10MPD2    H2  158   3.487   1.869  11.442  2.1917 -1.2904 -0.2521
   10MPD2    H3  159   3.447   1.633  11.488  0.9309 -0.9346  0.9899
   10MPD2     N  160   3.344   1.706  11.916 -1.3561  0.5779  0.0096
   10MPD2    H5  161   3.324   1.607  11.919  1.3601  0.0344  0.4231
   10MPD2    N1  162   3.428   2.065  11.579 -0.3192 -0.6119  0.4837
   10MPD2    H7  163   3.432   2.074  11.478 -0.3160  0.4786  0.5757
   11TCq1    O1  164   4.484   2.172  14.802  0.0782  0.2138  0.1239
   11TCq1    C1  165   4.594   2.186  14.719 -0.3759  0.6715 -0.4521
   11TCq1    O2  166   4.701   2.228  14.755 -0.1304  0.1486 -0.0752
   11TCq1    C2  167   4.573   2.099  14.602  0.0312 -0.4617 -0.0895
   11TCq1    C3  168   4.689   2.047  14.548  0.3384  0.0184 -0.3386
   11TCq1    C4  169   4.695   1.993  14.422  0.4271 -0.1533  0.2650
   11TCq1    C5  170   4.576   1.971  14.353 -0.0438  0.5783 -0.3616
   11TCq1    C6  171   4.460   2.014  14.419 -0.0333 -0.2922  0.3016
   11TCq1    C7  172   4.453   2.095  14.535 -0.3681 -0.4511 -0.3013
   11TCq1    C8  173   4.332   1.946  14.376 -0.3492 -0.1479 -0.7078
   11TCq1    O4  174   4.231   1.983  14.435  0.4791 -0.6476 -0.3621
   11TCq1    C9  175   0.080   1.943  14.368 -0.8309 -0.2089  1.2530
   11TCq1    O5  176   0.190   1.996  14.408  0.0654 -0.6297 -0.1439
   11TCq1    O6  177   0.064   1.874  14.265 -0.1370 -0.1712 -0.7991
   11TCq1    H1  178   4.409   2.118  14.769 -0.9158  1.1445  0.8338
   11TCq1    H2  179   0.045   2.060  14.604  0.3338 -4.1777  0.6031
   11TCq1    H3  180   4.580   1.927  14.255 -1.1504 -0.1012 -0.0929
   11TCq1    H4  181   4.363   2.133  14.583  0.6913 -0.8646  2.0047
   12MPD2     C  182   4.107   1.807  14.249 -0.1641 -0.1348  0.3445
   12MPD2    C1  183   4.234   1.809  14.199  0.1908 -0.0914  0.2419
   12MPD2    C2  184   4.267   1.741  14.091  0.5164  0.2465 -0.0725
   12MPD2    C3  185   4.166   1.689  14.011 -0.7327  0.6701 -0.0159
   12MPD2    C4  186   4.035   1.680  14.063 -0.4153  0.4702 -0.3576
   12MPD2    C5  187   4.003   1.745  14.181  0.2307 -0.3391  0.2439
   12MPD2     H  188   4.371   1.745  14.062  1.0818 -0.5211  1.8393
   12MPD2    H1  189   3.962   1.625  14.005  0.6809 -0.1391 -1.1604
   12MPD2    H2  190   4.071   1.866  14.333  2.1382 -1.3926  2.1863
   12MPD2    H3  191   3.905   1.742  14.226  1.1680 -0.4165  2.2856
   12MPD2     N  192   4.190   1.592  13.911 -0.4790 -0.9659  0.1167
   12MPD2    H5  193   4.119   1.536  13.866 -0.0465 -1.4764  0.0685
   12MPD2    N1  194   4.341   1.869  14.267  0.5480  0.3232 -0.1690
   12MPD2    H7  195   4.431   1.870  14.221  1.1419  2.5850  1.0265
   13TCq1    O1  196   4.488   1.341  10.569  0.2059  0.2007 -0.0330
   13TCq1    C1  197   4.413   1.244  10.512  0.8099  0.1533 -0.0513
   13TCq1    O2  198   4.393   1.128  10.556 -0.7646  0.0754 -0.2183
   13TCq1    C2  199   4.305   1.313  10.446  0.1857 -0.0410  0.3363
   13TCq1    C3  200   4.342   1.386  10.340  0.4601  0.1336 -0.4654
   13TCq1    C4  201   4.242   1.434  10.263 -0.5807  0.6165 -0.6459
   13TCq1    C5  202   4.109   1.424  10.297 -0.1455 -0.2285 -0.1127
   13TCq1    C6  203   4.080   1.351  10.405  0.0163 -1.3746 -0.0475
   13TCq1    C7  204   4.178   1.285  10.484  0.7371 -0.0308 -0.3382
   13TCq1    C8  205   3.948   1.359  10.457 -0.2158  0.8585  0.0481
   13TCq1    O4  206   3.942   1.364  10.576  0.1177 -0.0418  0.0565
   13TCq1    C9  207   4.279   1.514  10.146  0.9730 -0.4165  0.6001
   13TCq1    O5  208   4.189   1.578  10.090  0.5054 -0.1866  0.2427
   13TCq1    O6  209   4.399   1.536  10.128 -0.0409 -0.4260 -0.4339
   13TCq1    H1  210   4.489   1.431  10.529 -1.0376  1.1935  2.1676
   13TCq1    H2  211   4.446   1.402  10.314  0.8395 -0.9772  0.3462
   13TCq1    H3  212   4.035   1.476  10.236 -0.2390  1.5595  1.5447
   13TCq1    H4  213   4.152   1.229  10.573  1.5120  1.3679  0.7606
   14MPD2     C  214   3.637   1.343  10.285  0.2241 -0.0742  0.2954
   14MPD2    C1  215   3.717   1.380  10.387 -0.1862  0.0633  0.9923
   14MPD2    C2  216   3.664   1.438  10.504  0.1558 -0.4078 -0.1934
   14MPD2    C3  217   3.525   1.449  10.515 -0.7454 -0.0514  0.0071
   14MPD2    C4  218   3.443   1.418  10.407  0.2144 -0.2014 -0.1440
   14MPD2    C5  219   3.501   1.369  10.295  0.3010  0.0690 -0.8360
   14MPD2     H  220   3.732   1.470  10.581 -0.7678 -1.3298  1.0017
   14MPD2    H1  221   3.336   1.425  10.418  0.6006  2.5396  1.7779
   14MPD2    H2  222   3.684   1.306  10.194 -1.0063 -2.4869  0.6417
   14MPD2    H3  223   3.437   1.325  10.219 -2.5770  0.9027  1.0956
   14MPD2     N  224   3.488   1.513  10.636  0.3597 -0.0132  0.3991
   14MPD2    H5  225   3.559   1.535  10.705 -0.1678 -0.6449  1.1344
   14MPD2    N1  226   3.851   1.360  10.367  0.6013 -0.0099  0.1353
   14MPD2    H7  227   3.878   1.321  10.277  2.9653  0.6950  0.5550
   15TCq1    O1  228   1.083   0.410   1.331  0.3264  0.0792  0.1835
   15TCq1    C1  229   1.101   0.542   1.361  0.5760 -0.7589  0.2895
   15TCq1    O2  230   1.200   0.585   1.415 -0.0807 -0.4977  0.1791
   15TCq1    C2  231   1.064   0.600   1.239  0.3987 -0.5719  0.7353
   15TCq1    C3  232   0.942   0.565   1.182 -0.2693  0.1618 -0.8518
   15TCq1    C4  233   0.923   0.559   1.048 -0.6654  0.3608 -0.8691
   15TCq1    C5  234   1.029   0.597   0.965  0.0382 -0.6909  0.0571
   15TCq1    C6  235   1.148   0.620   1.022 -0.0776 -0.0781 -0.3502
   15TCq1    C7  236   1.167   0.626   1.157 -0.2312  0.4940  0.4109
   15TCq1    C8  237   1.262   0.594   0.944  0.4631  0.7604  0.2033
   15TCq1    O4  238   1.372   0.629   0.982  0.0038  0.1602  0.0156
   15TCq1    C9  239   0.794   0.542   0.990  0.3561  0.2499 -0.0996
   15TCq1    O5  240   0.704   0.506   1.065  0.1829 -0.4663 -0.5627
   15TCq1    O6  241   0.785   0.592   0.873  0.2361 -0.0912  0.3907
   15TCq1    H1  242   0.993   0.392   1.296  0.6658  0.1354 -0.7141
   15TCq1    H2  243   0.858   0.550   1.249  1.6057 -1.2588  1.1541
   15TCq1    H3  244   1.010   0.606   0.858  0.4891 -1.2054 -0.0612
   15TCq1    H4  245   1.267   0.633   1.198  0.8926 -0.4817 -2.1378
   16MPD2     C  246   1.242   0.328   0.693 -0.3185 -0.3394  0.4330
   16MPD2    C1  247   1.301   0.402   0.787 -0.2564 -0.7191 -0.2540
   16MPD2    C2  248   1.438   0.394   0.806  0.6949  0.3147 -1.2364
   16MPD2    C3  249   1.521   0.326   0.718 -0.4860 -0.9424  0.0555
   16MPD2    C4  250   1.457   0.245   0.627  0.0078  0.0852  0.6798
   16MPD2    C5  251   1.321   0.243   0.616  0.3905  0.4586 -0.2168
   16MPD2     H  252   1.478   0.444   0.894  1.1147  0.1089 -1.3131
   16MPD2    H1  253   1.512   0.182   0.558 -0.7871  0.6669 -0.4723
   16MPD2    H2  254   1.135   0.338   0.679 -0.3367  0.9339  1.5031
   16MPD2    H3  255   1.277   0.179   0.540 -1.3772  1.9864 -0.4717
   16MPD2     N  256   1.667   0.322   0.730 -0.0349 -0.0200 -0.4805
   16MPD2    H5  257   1.713   0.369   0.807 -2.4789  3.8529 -1.3708
   16MPD2    N1  258   1.218   0.493   0.858  0.0499  0.0926  0.4724
   16MPD2    H7  259   1.119   0.468   0.860 -0.2205  1.1499  0.0103
   17TMC1    C1  260   2.958   0.866  10.849  0.2364  0.2210 -0.3873
   17TMC1    C2  261   2.876   0.798  10.930 -0.8989 -0.0241 -0.1778
   17TMC1    C3  262   2.865   0.838  11.065 -0.1331 -0.0622  0.2610
   17TMC1    C4  263   3.020   0.973  10.905 -0.9105 -0.2358  0.2463
   17TMC1    C5  264   3.004   1.009  11.042 -0.7985 -0.5077  0.4685
   17TMC1    C6  265   2.926   0.944  11.126  0.3555 -0.1487 -0.1930
   17TMC1     C  266   3.000   0.802  10.727 -0.3364 -0.2839 -0.2412
   17TMC1     O  267   2.917   0.718  10.690 -0.4702 -0.4409  0.2360
   17TMC1     H  268   2.830   0.706  10.896  1.5232 -1.7113  1.0724
   17TMC1    H1  269   3.092   1.032  10.849  0.5010 -1.6599  0.5286
   17TMC1    H2  270   2.915   0.966  11.232 -0.1277 -0.9214 -0.0857
   17TMC1    C7  271   3.075   1.120  11.100 -0.0972  0.0208  0.5534
   17TMC1    C8  272   2.761   0.785  11.147  0.1916  0.0012 -0.0858
   17TMC1    O1  273   3.084   1.151  11.218 -0.5637 -0.4441 -0.2750
   17TMC1    O2  274   2.777   0.774  11.265  0.0214  0.4943 -0.3917
   17TMC1    O3  275   3.109   1.205  11.002  0.0216  0.5244 -0.3602
   17TMC1    H3  276   3.113   1.180  10.908 -1.3580 -0.7971 -0.0754
   17TMC1    O5  277   2.689   0.707  11.069  0.1567 -0.5649  0.1013
   17TMC1    H5  278   2.674   0.723  10.974  2.8257  3.0731  0.2654
   18MPD2     C  279   3.130   0.779  10.454 -0.1885 -0.2661  0.3480
   18MPD2    C1  280   3.192   0.823  10.569 -0.0739 -0.7133  0.3841
   18MPD2    C2  281   3.320   0.872  10.559 -0.2220 -0.3975 -0.3523
   18MPD2    C3  282   3.396   0.873  10.443 -0.5592 -0.6388 -0.0808
   18MPD2    C4  283   3.341   0.802  10.341  0.2512  0.7398  0.2297
   18MPD2    C5  284   3.207   0.760  10.341 -0.1828 -0.0803 -0.3513
   18MPD2     H  285   3.362   0.914  10.650  0.7472 -0.2187 -0.8725
   18MPD2    H1  286   3.392   0.809  10.246  0.8339  0.1292  0.4978
   18MPD2    H2  287   3.024   0.755  10.450  0.1466 -1.9525  1.3288
   18MPD2    H3  288   3.164   0.713  10.254  0.6484 -0.9993 -0.2646
   18MPD2     N  289   3.526   0.926  10.426 -0.9821  0.4162  0.8803
   18MPD2    H5  290   3.579   0.892  10.347 -0.2667 -0.9214  1.9207
   18MPD2    N1  291   3.122   0.851  10.684  0.3894  0.0166  0.7658
   18MPD2    H7  292   3.176   0.886  10.763 -0.1287  0.8936  0.7289
   19TMC2    C1  293   0.979   2.129  13.780  0.0134  0.4811 -0.1333
   19TMC2    C2  294   0.910   2.247  13.799  0.3298 -0.7704 -0.3690
   19TMC2    C3  295   0.776   2.236  13.807 -0.3447 -0.0603 -0.5890
   19TMC2    C4  296   0.919   2.010  13.777  0.0117 -0.0246  0.0091
   19TMC2    C5  297   0.788   2.007  13.812 -0.0132 -0.1476 -0.8432
   19TMC2    C6  298   0.710   2.119  13.819 -0.1231 -0.5608 -0.1814
   19TMC2     C  299   1.120   2.150  13.782 -0.2052 -0.5678 -0.6443
   19TMC2     O  300   1.151   2.258  13.741 -0.5110 -0.1594  0.0303
   19TMC2     H  301   0.961   2.342  13.808 -0.7065 -0.3426  0.9136
   19TMC2    H1  302   0.973   1.917  13.761 -1.8582 -0.9631 -0.9219
   19TMC2    H2  303   0.602   2.117  13.832 -0.0565 -3.7230 -0.1837
   19TMC2    C7  304   0.726   1.878  13.811 -0.7811  0.2199  0.0029
   19TMC2    C8  305   0.700   2.363  13.796 -0.1062 -0.1636 -0.6979
   19TMC2    O1  306   0.799   1.782  13.813 -0.0836  0.0748  0.2254
   19TMC2    O2  307   0.753   2.469  13.784 -0.1043 -0.1585  0.6595
   19TMC2    O5  308   0.572   2.342  13.768  0.0418 -0.2602  0.3976
   19TMC2    H5  309   0.554   2.251  13.736 -2.5420  0.9231 -1.4949
   20MPD2     C  310   1.410   2.126  13.803  0.5203 -0.0067  1.0051
   20MPD2    C1  311   1.325   2.038  13.865 -0.5720  0.2017  0.6728
   20MPD2    C2  312   1.370   1.936  13.951 -0.0027 -0.2791  0.4327
   20MPD2    C3  313   1.504   1.925  13.974  0.2613 -0.3158 -0.3754
   20MPD2    C4  314   1.591   2.010  13.914 -0.9241 -0.3980 -0.1244
   20MPD2    C5  315   1.545   2.112  13.830 -0.8926  0.7589 -0.0963
   20MPD2     H  316   1.299   1.860  13.981  2.5058 -1.4475  3.3414
   20MPD2    H1  317   1.698   2.016  13.930 -0.8685  1.0205 -1.0095
   20MPD2    H2  318   1.384   2.208  13.737  0.6964  0.6971  1.8031
   20MPD2    H3  319   1.603   2.186  13.777  0.8367 -1.0676 -0.7466
   20MPD2     N  320   1.560   1.833  14.068 -0.1917  0.3173 -0.9070
   20MPD2    H5  321   1.660   1.835  14.082 -0.5144 -1.3883  1.5180
   20MPD2    N1  322   1.186   2.047  13.842  0.5612  0.4566  0.0466
   20MPD2    H7  323   1.136   1.960  13.857 -0.8294  1.0181 -1.3531
   21TMC2    C1  324   3.116   1.590  14.692 -0.7916 -0.4318 -0.0493
   21TMC2    C2  325   3.127   1.455  14.680  0.0892 -0.3499 -0.0055
   21TMC2    C3  326   3.022   1.384  14.732 -0.3009  0.0886  0.5034
   21TMC2    C4  327   3.008   1.653  14.754  0.2925  0.4763  0.6350
   21TMC2    C5  328   2.907   1.572  14.803 -0.5005 -0.3647 -0.5562
   21TMC2    C6  329   2.910   1.434  14.795 -0.2175 -0.1882 -0.2770
   21TMC2     C  330   3.247   1.655  14.690 -0.1369  0.3681 -0.1500
   21TMC2     O  331   3.335   1.596  14.633 -0.4428 -0.0005 -1.2173
   21TMC2     H  332   3.208   1.405  14.629 -1.5152 -0.4801 -2.4065
   21TMC2    H1  333   2.994   1.760  14.759  1.1184  0.5765  0.8640
   21TMC2    H2  334   2.834   1.368  14.837 -1.3400  1.1478 -0.1918
   21TMC2    C7  335   2.788   1.630  14.859 -0.4656 -0.2638  0.2444
   21TMC2    C8  336   3.022   1.245  14.699  0.7353  0.6791  0.4770
   21TMC2    O1  337   2.700   1.560  14.908  0.2847  0.1280 -0.1799
   21TMC2    O2  338   2.920   1.180  14.676  1.0048  0.0602  0.2976
   21TMC2    O5  339   3.150   1.203  14.692 -0.3224  0.1187 -0.4534
   21TMC2    H5  340   3.211   1.264  14.740  0.6397 -0.2260 -1.2192
   22MPD2     C  341   3.573   2.030  14.817  0.5998  0.1283 -0.4099
   22MPD2    C1  342   3.588   1.910  14.753 -0.5254 -0.0352  0.1500
   22MPD2    C2  343   3.489   1.819  14.736 -0.2356  0.7432 -0.3220
   22MPD2    C3  344   3.362   1.848  14.785 -0.5951 -0.1466  0.2107
   22MPD2    C4  345   3.344   1.976  14.838 -0.2421  0.3091  1.6417
   22MPD2    C5  346   3.449   2.060  14.869  0.1771  0.2775  0.3668
   22MPD2     H  347   3.517   1.727  14.688 -1.7591 -0.4142  0.9905
   22MPD2    H1  348   3.242   1.996  14.868 -0.0371  1.4516  1.6005
   22MPD2    H2  349   3.651   2.103  14.837  1.3146 -0.7360 -0.0953
   22MPD2    H3  350   3.436   2.154  14.920 -0.6174 -0.4581  1.5163
   22MPD2     N  351   3.245   1.769  14.766  0.0733  0.0012 -0.6708
   22MPD2    H5  352   3.159   1.802  14.808  1.0581 -1.3477  2.4145
   22MPD2    N1  353   3.707   1.864  14.699  0.3385 -0.0083  0.2968
   22MPD2    H7  354   3.720   1.765  14.680 -2.0609 -0.1176 -0.7243
   23TMC2    C1  355   0.077   3.061  14.589 -1.0856 -0.9416 -0.3229
   23TMC2    C2  356   0.100   3.136  14.478 -0.4449 -0.0403  0.3410
   23TMC2    C3  357   0.005   3.159  14.389  0.4129 -0.0432  0.0860
   23TMC2    C4  358   4.689   3.011  14.616 -0.2048 -0.1814 -0.1251
   23TMC2    C5  359   4.595   3.034  14.524 -0.2164 -0.5850  0.3250
   23TMC2    C6  360   4.615   3.114  14.411  0.8380 -0.3971  0.4195
   23TMC2     C  361   0.176   3.040  14.692 -0.1226  0.7823  0.0090
   23TMC2     O  362   0.157   2.960  14.787  0.5341 -1.1557 -0.5181
   23TMC2     H  363   0.198   3.152  14.433 -1.3283  3.7087 -0.2668
   23TMC2    H1  364   4.664   2.962  14.709 -1.0702 -0.0459 -0.2824
   23TMC2    H2  365   4.539   3.126  14.334 -0.1840  0.6229  1.5847
   23TMC2    C7  366   4.471   2.961  14.535 -0.5641  0.6368  0.1541
   23TMC2    C8  367   0.026   3.230  14.270  0.6289 -0.4886  0.8396
   23TMC2    O1  368   4.486   2.840  14.564 -0.4111  0.0814  0.4252
   23TMC2    O2  369   4.676   3.248  14.185 -0.0595  0.0268  0.3543
   23TMC2    O5  370   0.125   3.321  14.288 -0.1575  0.3490 -0.1568
   23TMC2    H5  371   0.173   3.314  14.373 -0.6097  2.5002  0.2938
   24MPD2     C  372   0.615   3.188  14.916  0.5694  0.2224 -0.0616
   24MPD2    C1  373   0.540   3.078  14.945 -0.1857 -0.7061  0.6359
   24MPD2    C2  374   0.432   3.051  14.862 -0.6139  0.1833  0.2532
   24MPD2    C3  375   0.394   3.138  14.749 -0.1589  0.4119 -0.3112
   24MPD2    C4  376   0.479   3.243  14.729 -0.4484 -0.3593  0.5036
   24MPD2    C5  377   0.589   3.264  14.807  0.7506 -0.1169  0.0655
   24MPD2     H  378   0.372   2.962  14.878 -1.4360  0.9317  1.2760
   24MPD2    H1  379   0.466   3.317  14.651 -0.3349 -1.7535 -0.8393
   24MPD2    H2  380   0.711   3.205  14.965  2.0694 -0.4165 -2.8042
   24MPD2    H3  381   0.655   3.350  14.794 -0.2004  0.1867 -2.7006
   24MPD2     N  382   0.284   3.125  14.667  0.7269  0.1769  0.2256
   24MPD2    H5  383   0.273   3.195  14.594 -0.7795  0.5886  0.8439
   24MPD2    N1  384   0.569   2.988  15.052 -0.0519 -0.4188 -0.2853
   24MPD2    H7  385   0.534   2.894  15.038  0.5812 -0.7145  0.1181
   25TMC2    C1  386   4.536   0.044  11.627 -0.3698 -0.1783  0.0847
   25TMC2    C2  387   4.556   0.176  11.655 -0.1192  0.8026  0.2975
   25TMC2    C3  388   4.497   0.224  11.771 -0.1696  0.1962 -0.2988
   25TMC2    C4  389   4.456   4.693  11.699 -0.8640 -0.0359 -0.9612
   25TMC2    C5  390   4.400   0.009  11.807  1.0201 -0.2326  0.2242
   25TMC2    C6  391   4.419   0.141  11.846  0.4850  0.2961  0.1894
   25TMC2     C  392   4.575   0.001  11.499  0.4960  0.3983 -0.0004
   25TMC2     O  393   4.675   0.048  11.445 -0.4829  0.6643  0.1982
   25TMC2     H  394   4.616   0.232  11.585  3.4203 -2.4181  0.7173
   25TMC2    H1  395   4.456   4.587  11.677 -0.3485 -0.1666 -0.3518
   25TMC2    H2  396   4.352   0.174  11.925 -0.1765 -1.0298  0.1865
   25TMC2    C7  397   4.294   4.671  11.871 -0.3544 -0.3586 -0.5286
   25TMC2    C8  398   4.510   0.366  11.800  0.3673  0.1894  0.5823
   25TMC2    O1  399   4.254   4.730  11.968  0.1986  0.2398 -0.7291
   25TMC2    O2  400   4.560   0.439  11.719  0.0936  0.2242  0.4646
   25TMC2    O5  401   4.520   0.383  11.931 -0.0881  0.1506  0.5006
   25TMC2    H5  402   4.479   0.312  11.986  1.9728 -1.8899 -0.5714
   26MPD2     C  403   4.460   4.567  11.031 -0.8529  0.9854 -0.0263
   26MPD2    C1  404   4.339   4.577  11.095 -0.2587 -0.0872  0.3865
   26MPD2    C2  405   4.349   4.617  11.232 -0.6312 -0.2534  0.1401
   26MPD2    C3  406   4.470   4.635  11.302  0.9088 -0.3210  0.4839
   26MPD2    C4  407   4.587   4.618  11.232  0.1387 -0.6493  0.8741
   26MPD2    C5  408   4.582   4.569  11.096 -0.4600 -0.2144  0.2815
   26MPD2     H  409   4.260   4.622  11.294 -1.7623 -1.7523 -1.3862
   26MPD2    H1  410   4.686   4.617  11.275 -0.3745 -0.8431  2.0681
   26MPD2    H2  411   4.463   4.538  10.926 -0.3040  0.8579  0.0195
   26MPD2    H3  412   4.671   4.534  11.044 -1.0975  2.1071 -2.3713
   26MPD2     N  413   4.469   4.672  11.440 -0.1218  0.3582 -0.0053
   26MPD2    H5  414   4.382   4.675  11.492 -0.1934 -3.2556  0.0873
   26MPD2    N1  415   4.222   4.550  11.029  0.2831  0.2815 -0.3606
   26MPD2    H7  416   4.236   4.532  10.930 -0.6096  0.8483 -0.5985
   27TMC2    C1  417   2.834   2.381  11.840 -0.7990  1.0394  0.3572
   27TMC2    C2  418   2.790   2.444  11.728 -0.6734  0.2433 -0.9336
   27TMC2    C3  419   2.816   2.575  11.716  0.2905  0.1368  0.5446
   27TMC2    C4  420   2.902   2.446  11.937 -0.3317 -0.5055 -0.5084
   27TMC2    C5  421   2.934   2.575  11.914  0.4291  0.2236 -0.1269
   27TMC2    C6  422   2.898   2.641  11.802 -0.1934  0.5311  0.3622
   27TMC2     C  423   2.763   2.268  11.886  1.0245 -0.1090 -0.0555
   27TMC2     O  424   2.736   2.186  11.798 -0.7431 -0.0584  0.0847
   27TMC2     H  425   2.735   2.389  11.652 -0.1825 -1.1108 -0.3127
   27TMC2    H1  426   2.931   2.388  12.024 -0.4998 -0.1500 -0.2152
   27TMC2    H2  427   2.922   2.746  11.791  0.5036  0.4390  1.0044
   27TMC2    C7  428   2.968   2.642  12.041  0.0494  0.1799  0.6066
   27TMC2    C8  429   2.805   2.636  11.581  0.0908  0.2880  0.8383
   27TMC2    O1  430   3.014   2.572  12.127  0.1738  0.2430 -0.2791
   27TMC2    O2  431   2.734   2.591  11.493 -0.1966  0.4587 -0.1338
   27TMC2    O5  432   2.915   2.715  11.561 -0.0731 -0.1224  0.4374
   27TMC2    H5  433   2.970   2.742  11.638 -0.9539  0.8725  0.7300
   28MPD2     C  434   2.592   1.996  12.286  0.3153 -0.6804  0.1139
   28MPD2    C1  435   2.597   2.127  12.324 -0.2919  0.6129 -0.4563
   28MPD2    C2  436   2.637   2.225  12.232  0.0172 -0.0821 -0.3427
   28MPD2    C3  437   2.682   2.189  12.105  1.1094 -0.4560 -0.1885
   28MPD2    C4  438   2.671   2.054  12.072 -0.0415  0.3768  0.8017
   28MPD2    C5  439   2.620   1.963  12.160  0.0627  0.1480  0.0653
   28MPD2     H  440   2.648   2.331  12.256 -1.3519 -0.0070 -0.0139
   28MPD2    H1  441   2.706   2.022  11.974  0.8216 -0.7571  1.4844
   28MPD2    H2  442   2.559   1.914  12.349 -0.6637 -1.6558 -1.6880
   28MPD2    H3  443   2.614   1.858  12.134 -0.8417 -0.3338  2.2801
   28MPD2     N  444   2.737   2.285  12.017  0.3142 -0.5492  0.0963
   28MPD2    H5  445   2.735   2.380  12.052 -2.4423 -0.7587  0.5091
   28MPD2    N1  446   2.529   2.162  12.450 -0.2593 -0.1314 -0.9184
   28MPD2    H7  447   2.517   2.085  12.515  0.9708  1.3385  1.0282
   29TMC2    C1  448   2.753   0.481  13.747  0.7296 -0.5902 -1.1068
   29TMC2    C2  449   2.627   0.485  13.790 -0.4704 -0.4127 -0.3890
   29TMC2    C3  450   2.601   0.569  13.898 -0.1889  1.1200  0.1377
   29TMC2    C4  451   2.856   0.550  13.811 -0.3066  0.5599  0.2588
   29TMC2    C5  452   2.828   0.625  13.923 -0.4485 -0.6187  0.0723
   29TMC2    C6  453   2.693   0.644  13.963 -0.5561  0.8098 -0.3282
   29TMC2     C  454   2.788   0.389  13.632  0.1055 -0.9213 -0.7234
   29TMC2     O  455   2.876   0.435  13.562 -0.2489 -0.1056  0.1037
   29TMC2     H  456   2.550   0.441  13.728  1.3937  1.2015 -3.8808
   29TMC2    H1  457   2.958   0.525  13.785  0.1380  0.8334  1.6968
   29TMC2    H2  458   2.670   0.720  14.036  0.9108  0.0928  0.8970
   29TMC2    C7  459   2.937   0.673  14.006 -0.4032  0.0775  0.2336
   29TMC2    C8  460   2.458   0.597  13.915 -0.0703  0.0049  0.4809
   29TMC2    O1  461   3.045   0.696  13.951 -0.0324  0.0373  0.0347
   29TMC2    O2  462   2.384   0.580  13.825 -0.2693 -0.5472 -0.9658
   29TMC2    O5  463   2.436   0.586  14.057  0.4378 -0.2342 -0.5314
   29TMC2    H5  464   2.518   0.608  14.106 -0.9898  0.9675  1.2592
   30MPD2     C  465   2.781   4.648  13.425  0.3068  0.3349 -0.5152
   30MPD2    C1  466   2.684   4.651  13.530  0.6972 -0.5101  0.1432
   30MPD2    C2  467   2.665   0.036  13.596 -0.2321  0.5123  0.4174
   30MPD2    C3  468   2.756   0.142  13.576  0.6363 -0.3045  0.1407
   30MPD2    C4  469   2.854   0.134  13.481 -0.2204  0.3843  0.4077
   30MPD2    C5  470   2.862   0.022  13.393 -0.1622 -0.1089 -0.6370
   30MPD2     H  471   2.581   0.053  13.662 -0.0975  0.7630  0.5227
   30MPD2    H1  472   2.930   0.210  13.465 -1.2960  1.4130  0.1523
   30MPD2    H2  473   2.790   4.559  13.364 -2.0247  0.3851 -0.9309
   30MPD2    H3  474   2.929   0.032  13.309  1.8635  0.5964  1.0546
   30MPD2     N  475   2.734   0.260  13.652 -0.5983 -0.3118 -0.3934
   30MPD2    H5  476   2.664   0.243  13.724 -0.9661 -1.5045 -1.0498
   30MPD2    N1  477   2.613   4.536  13.568 -0.1117 -0.1430 -0.3336
   30MPD2    H7  478   2.550   4.541  13.647 -0.8732 -2.2480 -0.8121
   31TMC2    C1  479   0.262   3.332  15.124  0.3049 -0.4489  0.8669
   31TMC2    C2  480   0.125   3.323  15.085 -0.6259 -0.1633  0.5327
   31TMC2    C3  481   0.046   3.230  15.142  0.5712  1.0044  0.1682
   31TMC2    C4  482   0.309   3.240  15.218 -0.1377  0.6859  0.5699
   31TMC2    C5  483   0.218   3.149  15.273  0.6659 -0.3125 -0.1272
   31TMC2    C6  484   0.086   3.145  15.246 -0.1142 -0.1612  0.1950
   31TMC2     C  485   0.343   3.421  15.053  0.4671  0.7815  0.0867
   31TMC2     O  486   0.287   3.471  14.958  0.9412  0.0820  0.6442
   31TMC2     H  487   0.092   3.388  15.004  4.1651  0.2242 -1.1314
   31TMC2    H1  488   0.410   3.240  15.257 -0.1814 -1.8591  0.6750
   31TMC2    H2  489   0.018   3.084  15.305 -2.2812  2.1068  0.0437
   31TMC2    C7  490   0.254   3.115  15.407 -0.4039 -1.4971  1.2717
   31TMC2    C8  491   4.638   3.247  15.118 -1.0115  0.2864 -1.0914
   31TMC2    O1  492   0.330   3.023  15.434 -0.0916  0.3508 -0.7954
   31TMC2    O2  493   4.597   3.344  15.064 -0.5238 -0.2223  0.2306
   31TMC2    O5  494   4.575   3.127  15.115 -0.3832  0.4189  0.3603
   31TMC2    H5  495   4.642   3.062  15.144  0.2655  1.3632  0.9707
   32MPD2     C  496   0.822   3.585  14.911 -0.3363  0.0176  0.2984
   32MPD2    C1  497   0.697   3.617  14.862  0.2521  0.4653  0.1560
   32MPD2    C2  498   0.587   3.565  14.929  0.5624 -0.0888  0.2427
   32MPD2    C3  499   0.590   3.488  15.046 -0.7066  0.1250 -0.2933
   32MPD2    C4  500   0.716   3.472  15.097 -0.8038 -0.3309 -0.4114
   32MPD2    C5  501   0.827   3.518  15.030  0.3475  0.3133 -0.4443
   32MPD2     H  502   0.482   3.576  14.906  0.5598 -2.3442 -0.8167
   32MPD2    H1  503   0.734   3.415  15.188 -0.6886  1.2349  0.5528
   32MPD2    H2  504   0.920   3.616  14.876  0.1181 -1.9773 -0.2185
   32MPD2    H3  505   0.925   3.507  15.076 -1.0484 -1.1097  2.1790
   32MPD2     N  506   0.476   3.423  15.099  0.0177  0.0757 -0.1299
   32MPD2    H5  507   0.497   3.379  15.188 -1.9600  0.4426  0.5050
   32MPD2    N1  508   0.683   3.707  14.753  0.2089  0.3924 -0.2928
   32MPD2    H7  509   0.769   3.753  14.722  2.0337 -1.4244  2.1125
   33TMC2    C1  510   4.267   1.379   9.766  0.2306  0.0230  0.0381
   33TMC2    C2  511   4.166   1.433   9.695 -0.4663 -0.8091 -0.2066
   33TMC2    C3  512   4.194   1.537   9.614  0.7539 -1.3315 -0.4987
   33TMC2    C4  513   4.394   1.440   9.761  0.5747  0.4577  1.0233
   33TMC2    C5  514   4.415   1.551   9.687 -0.1541 -0.3624 -0.2816
   33TMC2    C6  515   4.318   1.594   9.599  0.9007  0.7122 -0.3198
   33TMC2     C  516   4.228   1.300   9.881 -0.0549  0.8835  0.8767
   33TMC2     O  517   4.111   1.258   9.891 -0.0067  0.3809  0.7642
   33TMC2     H  518   4.060   1.408   9.698 -0.5638 -0.3768  0.0009
   33TMC2    H1  519   4.474   1.423   9.832 -0.2935 -4.9888  0.6516
   33TMC2    H2  520   4.328   1.683   9.538  0.2917 -0.6312 -2.4013
   33TMC2    C7  521   4.547   1.586   9.653 -0.0243 -0.3192  0.1185
   33TMC2    C8  522   4.088   1.580   9.526 -0.3986 -0.1461  0.3005
   33TMC2    O1  523   4.634   1.555   9.731 -0.4073 -1.1602  0.4993
   33TMC2    O2  524   4.000   1.515   9.473  0.5653 -0.0297 -0.0768
   33TMC2    O5  525   4.077   1.711   9.555 -0.0526  0.3239  0.2892
   33TMC2    H5  526   4.132   1.739   9.630 -0.2464  0.3332  0.4283
   34MPD2     C  527   4.374   1.001  10.276  0.6137  0.6792  0.6971
   34MPD2    C1  528   4.246   1.020  10.220 -0.1255  0.3400 -0.0548
   34MPD2    C2  529   4.232   1.107  10.113 -0.4908  0.5806 -0.4347
   34MPD2    C3  530   4.345   1.166  10.052  0.5289 -0.8941  0.1100
   34MPD2    C4  531   4.470   1.142  10.105  0.4867 -0.4899 -0.5199
   34MPD2    C5  532   4.481   1.064  10.220 -0.4412 -0.5952  1.1044
   34MPD2     H  533   4.132   1.130  10.076 -0.1572  1.0990 -1.0106
   34MPD2    H1  534   4.562   1.176  10.058 -0.4414  1.4217 -0.9847
   34MPD2    H2  535   4.395   0.943  10.366  0.4973  0.7745  0.7853
   34MPD2    H3  536   4.579   1.034  10.254  0.4591  0.5840 -0.4666
   34MPD2     N  537   4.337   1.257   9.945 -0.5428 -0.2344  0.4830
   34MPD2    H5  538   4.422   1.305   9.918  0.2202 -1.0100  1.4882
   34MPD2    N1  539   4.137   0.980  10.299 -0.2620  0.0543 -0.3895
   34MPD2    H7  540   4.156   0.910  10.371  1.1540  1.2363  0.3875
   35TMC2    C1  541   1.598   2.604  11.629 -0.5316  0.0224  0.0954
   35TMC2    C2  542   1.664   2.598  11.751  0.2111  0.5768 -0.2971
   35TMC2    C3  543   1.584   2.575  11.861  0.2198  0.0711 -0.0095
   35TMC2    C4  544   1.465   2.615  11.616  0.1128 -0.2915 -0.2605
   35TMC2    C5  545   1.393   2.577  11.728 -0.5087  0.0511 -0.0187
   35TMC2    C6  546   1.449   2.554  11.850  0.6821  0.6082  0.0620
   35TMC2     C  547   1.672   2.605  11.499  0.7440 -1.0788 -0.0016
   35TMC2     O  548   1.622   2.646  11.397 -0.4947  0.1770 -0.1371
   35TMC2     H  549   1.771   2.608  11.760  0.1130  0.5796  0.8521
   35TMC2    H1  550   1.420   2.620  11.517  1.4547 -1.2749 -0.9304
   35TMC2    H2  551   1.388   2.521  11.933 -3.4424  1.4486 -2.6454
   35TMC2    C7  552   1.275   2.504  11.704 -0.3241  0.0640  0.0351
   35TMC2    C8  553   1.648   2.499  11.961 -0.1911 -0.1283 -0.6765
   35TMC2    O1  554   1.249   2.409  11.778  0.1912  0.6769  0.2869
   35TMC2    O2  555   1.725   2.411  11.922  0.3262  0.0005  0.4352
   35TMC2    O5  556   1.658   2.570  12.072 -0.2093  0.1469 -0.1932
   35TMC2    H5  557   1.604   2.652  12.073 -1.0085 -0.3765 -0.6141
   36MPD2     C  558   2.157   2.682  11.354  0.1280 -0.5092 -0.5948
   36MPD2    C1  559   2.154   2.572  11.441 -0.1617 -0.2367 -1.0806
   36MPD2    C2  560   2.035   2.521  11.476  0.1261  0.5577  0.2922
   36MPD2    C3  561   1.915   2.588  11.443 -0.1107 -0.8673 -0.7009
   36MPD2    C4  562   1.915   2.686  11.342  0.9208 -0.3924  0.2736
   36MPD2    C5  563   2.041   2.732  11.295 -0.5068  0.3044  0.4755
   36MPD2     H  564   2.029   2.435  11.541 -1.6833 -0.6215 -1.4598
   36MPD2    H1  565   1.819   2.718  11.306  1.6086 -0.9784 -2.0667
   36MPD2    H2  566   2.248   2.732  11.322  1.1241 -0.3862  2.3679
   36MPD2    H3  567   2.039   2.798  11.209  1.1093  0.4514  0.5504
   36MPD2     N  568   1.801   2.556  11.519 -0.4165 -0.4759  0.0988
   36MPD2    H5  569   1.828   2.509  11.605 -0.2522  2.1381  1.4875
   36MPD2    N1  570   2.279   2.523  11.496 -0.0345 -0.4699  0.5325
   36MPD2    H7  571   2.356   2.588  11.490 -0.6941  0.1687 -0.7864
   37TMC2    C1  572   3.728   3.163  11.745 -0.0866 -0.6445  0.2704
   37TMC2    C2  573   3.685   3.226  11.629  0.1036 -0.1805  0.1373
   37TMC2    C3  574   3.766   3.221  11.516  0.0643 -0.3154 -0.0310
   37TMC2    C4  575   3.837   3.089  11.751 -0.3069 -0.6113 -0.0190
   37TMC2    C5  576   3.898   3.068  11.633  0.4604  0.3652  0.5229
   37TMC2    C6  577   3.869   3.134  11.512  1.2304 -0.1579  0.2930
   37TMC2     C  578   3.663   3.196  11.875  0.0212  0.0310  0.4637
   37TMC2     O  579   3.561   3.261  11.865  0.5998  0.6614 -0.2992
   37TMC2     H  580   3.594   3.285  11.629 -0.5422 -1.1809  1.2179
   37TMC2    H1  581   3.863   3.028  11.837 -2.7326 -0.7474  0.6011
   37TMC2    H2  582   3.927   3.115  11.423  0.9762 -0.7523  0.2579
   37TMC2    C7  583   4.023   2.980  11.647  0.3108  1.0570  0.3646
   37TMC2    C8  584   3.696   3.257  11.396 -0.7278 -0.3329 -0.3378
   37TMC2    O1  585   4.053   2.955  11.763 -0.2886 -0.1924 -0.4435
   37TMC2    O2  586   3.573   3.273  11.391 -0.5649  0.1894 -0.0090
   37TMC2    O5  587   3.773   3.349  11.335 -0.3698 -0.3747 -0.3715
   37TMC2    H5  588   3.869   3.350  11.358 -0.4927 -0.8877  0.1755
   38MPD2     C  589   3.575   3.062  12.373  0.0516  0.1670 -0.2006
   38MPD2    C1  590   3.708   3.038  12.337  0.4645 -0.2122 -0.0093
   38MPD2    C2  591   3.752   3.069  12.207  0.0998 -0.0626  0.0946
   38MPD2    C3  592   3.673   3.134  12.119  0.2102 -0.6446 -0.2550
   38MPD2    C4  593   3.541   3.163  12.151 -0.7904 -0.0103  0.1660
   38MPD2    C5  594   3.491   3.117  12.274  0.1807 -0.4403  0.0850
   38MPD2     H  595   3.854   3.054  12.174  0.8875  1.6648  1.7959
   38MPD2    H1  596   3.469   3.204  12.081 -1.7398 -0.9994  0.5720
   38MPD2    H2  597   3.533   3.035  12.469  0.9219 -0.8493 -0.1089
   38MPD2    H3  598   3.385   3.125  12.293 -0.1587 -1.0396 -1.6045
   38MPD2     N  599   3.730   3.145  11.984  0.1539  0.6873  0.0766
   38MPD2    H5  600   3.822   3.106  11.966  0.1211 -0.1686  1.7654
   38MPD2    N1  601   3.795   2.975  12.428 -0.6476 -0.1661 -0.2989
   38MPD2    H7  602   3.887   2.954  12.392 -0.2700 -1.5658  1.5143
   39TMC2    C1  603   2.081   0.681   1.284 -0.2460 -0.4365  0.4006
   39TMC2    C2  604   1.972   0.757   1.264  0.2359 -0.3561 -0.6396
   39TMC2    C3  605   1.978   0.896   1.276 -0.1788 -0.5838  0.4056
   39TMC2    C4  606   2.199   0.750   1.310 -0.3726 -0.4705  0.5848
   39TMC2    C5  607   2.206   0.890   1.313  0.1456  0.1463  0.0779
   39TMC2    C6  608   2.093   0.966   1.292  0.5488  0.1727  0.2457
   39TMC2     C  609   2.076   0.535   1.264  0.0310 -0.3485  0.0356
   39TMC2     O  610   1.962   0.489   1.261 -0.5300 -0.7065  1.1082
   39TMC2     H  611   1.875   0.711   1.250 -0.8186  1.2555  1.3331
   39TMC2    H1  612   2.291   0.693   1.321 -0.9408 -1.4019  0.5182
   39TMC2    H2  613   2.090   1.070   1.320  1.0259  0.5847 -1.2238
   39TMC2    C7  614   2.341   0.941   1.306 -0.2795  0.5143 -0.5513
   39TMC2    C8  615   1.857   0.977   1.273  0.1364 -0.1016 -0.3934
   39TMC2    O1  616   2.426   0.867   1.256 -0.9457 -0.6756 -0.3011
   39TMC2    O2  617   1.840   1.086   1.325  0.0311 -0.6017  0.0981
   39TMC2    O5  618   1.804   0.937   1.154 -0.5178  0.0369 -0.4944
   39TMC2    H5  619   1.841   0.849   1.133  0.6265 -0.2161  2.5940
   40MPD2     C  620   2.364   0.326   1.192  0.4214 -0.5989 -0.2237
   40MPD2    C1  621   2.233   0.346   1.223  0.4193 -0.1937  0.3438
   40MPD2    C2  622   2.145   0.242   1.221 -0.2787 -0.3426  0.4564
   40MPD2    C3  623   2.189   0.112   1.213  0.7032  0.3060  0.5006
   40MPD2    C4  624   2.325   0.086   1.197  0.8926  0.5688  0.1148
   40MPD2    C5  625   2.411   0.195   1.184  0.0770 -0.2813 -0.2334
   40MPD2     H  626   2.038   0.251   1.238 -0.5559 -0.6849 -1.1468
   40MPD2    H1  627   2.369   4.724   1.183  1.1543  1.0609 -2.6158
   40MPD2    H2  628   2.429   0.412   1.182  0.6004 -1.0721 -3.1592
   40MPD2    H3  629   2.509   0.163   1.151  0.4902  2.0331 -1.2363
   40MPD2     N  630   2.102   4.730   1.214  0.0357 -0.3972  0.5534
   40MPD2    H5  631   2.144   4.640   1.192  1.1318  0.6668 -1.7360
   40MPD2    N1  632   2.200   0.482   1.254 -0.1721 -0.1804  0.7365
   40MPD2    H7  633   2.283   0.538   1.272 -0.2804  0.7695 -1.7128
   41TMC2    C1  634   0.844   3.133  13.506 -0.5343  0.5900  0.1675
   41TMC2    C2  635   0.783   3.222  13.589 -0.3634 -0.0472  0.0114
   41TMC2    C3  636   0.731   3.334  13.538  1.0405 -0.0088 -0.1576
   41TMC2    C4  637   0.871   3.171  13.372 -0.4481 -0.8239 -0.6158
   41TMC2    C5  638   0.817   3.290  13.324 -0.0307  0.4589 -0.0588
   41TMC2    C6  639   0.744   3.366  13.410 -0.2189  0.9221 -0.2965
   41TMC2     C  640   0.928   3.030  13.563  0.4149  0.4559  0.6663
   41TMC2     O  641   1.039   3.018  13.516  0.4736 -0.6582  1.1033
   41TMC2     H  642   0.772   3.198  13.694  1.7777  1.7544  0.6278
   41TMC2    H1  643   0.910   3.092  13.309 -0.5875 -0.3386 -1.3031
   41TMC2    H2  644   0.711   3.460  13.367  0.6306  2.1703  1.7891
   41TMC2    C7  645   0.838   3.327  13.185  0.2283  0.0184  0.3620
   41TMC2    C8  646   0.736   3.453  13.624 -0.2189  0.4291  0.2183
   41TMC2    O1  647   0.752   3.389  13.130 -0.4692  0.2869  0.8377
   41TMC2    O2  648   0.707   3.566  13.597 -0.5434 -0.3468  0.7255
   41TMC2    O5  649   0.837   3.433  13.711 -0.1461 -0.4059 -0.4528
   41TMC2    H5  650   0.872   3.342  13.720 -1.1060 -0.5256  2.0535
   42MPD2     C  651   1.095   2.885  13.769  0.4415  0.0916 -0.6670
   42MPD2    C1  652   0.960   2.923  13.787  0.0571 -0.2461 -0.5741
   42MPD2    C2  653   0.908   2.902  13.918  0.1029 -0.6819  0.5393
   42MPD2    C3  654   0.987   2.845  14.021  0.3794 -0.0133  0.4679
   42MPD2    C4  655   1.120   2.813  13.999 -0.0331 -0.3948 -0.2446
   42MPD2    C5  656   1.171   2.835  13.876 -0.5385  0.4188  0.2242
   42MPD2     H  657   0.801   2.917  13.926  0.1589  0.1634 -0.4208
   42MPD2    H1  658   1.185   2.803  14.086  1.1123  0.6439 -0.9944
   42MPD2    H2  659   1.144   2.901  13.674  0.7732  4.4067  0.2147
   42MPD2    H3  660   1.272   2.801  13.852 -0.7013 -0.9332  1.4448
   42MPD2     N  661   0.945   2.835  14.156  0.2501 -0.1241 -0.6346
   42MPD2    H5  662   1.013   2.816  14.228 -0.1947  1.5213  0.2048
   42MPD2    N1  663   0.877   2.986  13.684  0.0810  0.5240  0.2076
   42MPD2    H7  664   0.778   3.001  13.700  0.2903  2.8026 -0.7059
   43TMC2    C1  665   2.774   1.322   0.456  0.3798  0.3008 -0.3286
   43TMC2    C2  666   2.645   1.371   0.473  0.0775  0.1064 -0.4061
   43TMC2    C3  667   2.637   1.467   0.569  0.6820 -0.0305 -0.1882
   43TMC2    C4  668   2.884   1.366   0.529 -0.3107  0.4542  0.4398
   43TMC2    C5  669   2.866   1.459   0.625 -0.7865 -0.0250 -0.3764
   43TMC2    C6  670   2.740   1.512   0.646  0.2116  0.6875  0.7220
   43TMC2     C  671   2.803   1.273   0.322 -0.1671  0.3301  0.1622
   43TMC2     O  672   2.900   1.197   0.321 -0.2319  0.0558 -0.1760
   43TMC2     H  673   2.559   1.328   0.424  0.2254  0.2474 -0.7861
   43TMC2    H1  674   2.987   1.346   0.500  0.3294  1.9933  1.6177
   43TMC2    H2  675   2.716   1.576   0.730 -0.0981 -2.6780  3.2121
   43TMC2    C7  676   2.969   1.563   0.618 -0.2306 -0.5375 -0.6036
   43TMC2    C8  677   2.505   1.509   0.622  0.5310 -0.3908 -0.6287
   43TMC2    O1  678   3.034   1.561   0.516 -0.1098  0.3973 -0.3030
   43TMC2    O2  679   2.472   1.526   0.736 -0.1343  0.4665  0.1229
   43TMC2    O5  680   2.417   1.531   0.517 -0.0972  0.9527 -0.0553
   43TMC2    H5  681   2.479   1.540   0.442  2.0438 -0.3401  1.5567
   44MPD2     C  682   2.695   1.213  17.561 -0.2497  0.2711 -0.3917
   44MPD2    C1  683   2.792   1.153  17.640  0.4664  0.8704  0.6935
   44MPD2    C2  684   2.799   1.180   0.035 -0.0795  0.3703 -0.6617
   44MPD2    C3  685   2.721   1.283   0.087  0.0894 -0.2623 -0.1447
   44MPD2    C4  686   2.633   1.350   0.002  0.1267  0.4082 -0.1230
   44MPD2    C5  687   2.608   1.304  17.616 -0.0058  0.0841 -0.2430
   44MPD2     H  688   2.864   1.122   0.100 -0.7114  0.9734  0.5128
   44MPD2    H1  689   2.568   1.425   0.045  2.2468  3.2107 -1.7857
   44MPD2    H2  690   2.671   1.186  17.459 -0.0867  0.6900 -0.5392
   44MPD2    H3  691   2.531   1.340  17.549 -1.4194  0.1263  1.4105
   44MPD2     N  692   2.728   1.327   0.221 -0.4123 -0.0745 -0.5022
   44MPD2    H5  693   2.675   1.409   0.247  1.1065  0.6233  0.4537
   44MPD2    N1  694   2.866   1.047  17.595 -0.5227  0.8731 -0.3982
   44MPD2    H7  695   2.926   1.000  17.662  1.6502  0.8013 -2.3764
   45TMC2    C1  696   3.368   2.848   9.384 -0.6652  0.3226  0.2129
   45TMC2    C2  697   3.500   2.812   9.403 -0.7103 -0.3100  0.4017
   45TMC2    C3  698   3.567   2.864   9.510  0.3810  0.6920 -0.2261
   45TMC2    C4  699   3.308   2.939   9.468 -0.5073 -0.5992 -0.7541
   45TMC2    C5  700   3.381   2.987   9.568 -0.8476 -0.3966 -0.6132
   45TMC2    C6  701   3.506   2.950   9.598  0.7522 -0.4098  0.8224
   45TMC2     C  702   3.289   2.761   9.295 -0.3426  0.9139  0.3460
   45TMC2     O  703   3.337   2.648   9.267 -0.0445  0.3294 -0.0796
   45TMC2     H  704   3.551   2.754   9.328 -0.0110 -0.2026  0.7907
   45TMC2    H1  705   3.203   2.966   9.472 -0.8452 -2.2777  1.4116
   45TMC2    H2  706   3.563   2.999   9.676  2.5834 -0.1191 -0.7099
   45TMC2    C7  707   3.351   3.126   9.611  1.1536 -0.4619  0.1441
   45TMC2    C8  708   3.711   2.866   9.518 -0.0486  0.8629 -0.2863
   45TMC2    O1  709   3.403   3.149   9.717 -0.1932  0.5841 -0.8195
   45TMC2    O2  710   3.781   2.961   9.552  0.5237  0.4365 -0.7121
   45TMC2    O5  711   3.754   2.762   9.443  0.0251  0.0570 -0.1245
   45TMC2    H5  712   3.694   2.684   9.441  0.5055 -0.2349 -2.7905
   46MPD2     C  713   3.072   2.611   9.168  0.7458  0.8276  0.0442
   46MPD2    C1  714   3.075   2.747   9.185  0.2746 -0.0100 -0.0721
   46MPD2    C2  715   2.962   2.818   9.134  0.2428 -0.5022  0.4855
   46MPD2    C3  716   2.862   2.753   9.066 -0.5126 -0.4009  0.6983
   46MPD2    C4  717   2.869   2.612   9.055 -0.1810  0.4103 -0.4491
   46MPD2    C5  718   2.973   2.543   9.099 -0.6018  0.2784  0.7712
   46MPD2     H  719   2.973   2.925   9.150  1.0924 -0.2495 -1.7076
   46MPD2    H1  720   2.796   2.552   9.001  1.8995 -0.5247 -2.2119
   46MPD2    H2  721   3.146   2.540   9.203 -0.5823 -0.2086  0.7706
   46MPD2    H3  722   2.988   2.438   9.077  1.0314  0.2453  2.1016
   46MPD2     N  723   2.748   2.832   9.018  0.7860  0.2951 -0.4961
   46MPD2    H5  724   2.760   2.932   9.032  0.6629  0.4440 -1.4612
   46MPD2    N1  725   3.175   2.818   9.249  0.2501  0.5938  0.5074
   46MPD2    H7  726   3.165   2.919   9.256  1.9641  0.8495 -0.5412
   47TMC2    C1  727   0.693   3.607   9.315  0.0214  0.0288 -0.1772
   47TMC2    C2  728   0.770   3.533   9.237  0.2396 -0.5788 -0.1799
   47TMC2    C3  729   0.706   3.478   9.129 -0.6600  0.5686  0.0659
   47TMC2    C4  730   0.563   3.646   9.285  0.1405 -0.1097 -0.6703
   47TMC2    C5  731   0.508   3.605   9.165  0.4918  0.3085  0.3040
   47TMC2    C6  732   0.574   3.515   9.088 -0.3870 -0.2337  0.0087
   47TMC2     C  733   0.731   3.620   9.455 -1.1434 -0.5678 -0.8875
   47TMC2     O  734   0.687   3.720   9.512 -0.4759 -0.0157 -0.0016
   47TMC2     H  735   0.872   3.511   9.264  0.6181 -0.1661 -1.2917
   47TMC2    H1  736   0.494   3.700   9.350  3.2188  2.3790  0.5102
   47TMC2    H2  737   0.538   3.470   8.997 -0.4743 -1.8862  0.8615
   47TMC2    C7  738   0.362   3.606   9.159  0.0863 -0.6560  0.4587
   47TMC2    C8  739   0.801   3.430   9.027  0.0270  0.3382 -0.5631
   47TMC2    O1  740   0.299   3.703   9.200 -0.1388 -0.5012  0.0215
   47TMC2    O2  741   0.811   3.483   8.918  0.0118  0.5114  0.3557
   47TMC2    O5  742   0.865   3.326   9.079  0.4464 -0.7326 -0.3218
   47TMC2    H5  743   0.817   3.278   9.149  1.3449 -1.2916 -0.0905
   48MPD2     C  744   0.822   3.575   9.734 -0.0586  0.5306 -0.3957
   48MPD2    C1  745   0.843   3.480   9.632  0.2680 -0.7791  0.0352
   48MPD2    C2  746   0.900   3.361   9.665  0.6060 -0.1764 -0.5376
   48MPD2    C3  747   0.945   3.333   9.793 -0.4347  0.2550  0.3885
   48MPD2    C4  748   0.928   3.430   9.891  0.3237  0.2858  0.1318
   48MPD2    C5  749   0.865   3.547   9.862 -0.6609  0.2379  1.1094
   48MPD2     H  750   0.922   3.284   9.592  1.9058  0.0450 -0.3803
   48MPD2    H1  751   0.960   3.432   9.995 -1.7768 -3.5762  0.8197
   48MPD2    H2  752   0.790   3.678   9.720  0.0612  0.5011 -0.9032
   48MPD2    H3  753   0.855   3.617   9.944 -0.3499  0.7777  0.6839
   48MPD2     N  754   1.010   3.212   9.804  0.6431  0.2132  0.1913
   48MPD2    H5  755   1.029   3.157   9.721 -2.5297 -0.2825 -0.2380
   48MPD2    N1  756   0.804   3.504   9.498  0.2384  0.4875 -0.2327
   48MPD2    H7  757   0.823   3.429   9.431 -0.3592  1.2648 -1.2720
   49TMC2    C1  758   3.368   0.923   9.765  0.0383 -0.4613  0.1322
   49TMC2    C2  759   3.443   0.949   9.876 -0.6021 -0.6430 -0.4109
   49TMC2    C3  760   3.568   1.000   9.865 -0.0961 -0.7444 -0.0111
   49TMC2    C4  761   3.424   0.925   9.639 -0.5680 -0.0277  0.4450
   49TMC2    C5  762   3.550   0.984   9.631 -0.0390  0.0361  0.7385
   49TMC2    C6  763   3.621   1.022   9.743 -0.4222  0.9210 -0.4947
   49TMC2     C  764   3.250   0.849   9.793  0.4968  0.2394 -0.4250
   49TMC2     O  765   3.218   0.764   9.714  0.4672  0.3361  0.1690
   49TMC2     H  766   3.420   0.926   9.979  0.4568 -1.6092 -0.3987
   49TMC2    H1  767   3.368   0.894   9.551  1.9905 -1.1544 -0.7980
   49TMC2    H2  768   3.724   1.056   9.746 -0.9297  2.3329  0.9821
   49TMC2    C7  769   3.608   0.989   9.497 -0.1664 -0.2822 -0.4331
   49TMC2    C8  770   3.619   1.068   9.987 -0.2037 -0.4212  0.4504
   49TMC2    O1  771   3.552   0.921   9.409 -0.0720  0.6057 -0.8420
   49TMC2    O2  772   3.576   1.040  10.103  0.8450  0.3047 -0.3731
   49TMC2    O5  773   3.655   1.191   9.947 -0.5913  0.1195  0.2641
   49TMC2    H5  774   3.668   1.199   9.851  1.9366  1.6515  0.7477
   50MPD2     C  775   3.002   0.722   9.907  0.4270  0.2783  0.4552
   50MPD2    C1  776   3.072   0.823   9.968  0.1472  0.4624  0.3705
   50MPD2    C2  777   3.014   0.867  10.077  0.0323 -0.2754  0.0908
   50MPD2    C3  778   2.885   0.818  10.122 -0.0838  0.4307 -0.1814
   50MPD2    C4  779   2.820   0.718  10.055  0.4941  0.0335 -0.0861
   50MPD2    C5  780   2.890   0.664   9.952 -0.2491  0.4589  0.6344
   50MPD2     H  781   3.065   0.944  10.133  1.4327  0.2823 -1.9513
   50MPD2    H1  782   2.722   0.681  10.082 -0.3291  2.0211 -0.3348
   50MPD2    H2  783   3.033   0.679   9.812 -2.0304  0.3678 -0.3754
   50MPD2    H3  784   2.845   0.581   9.899 -1.7412  1.3566  0.4934
   50MPD2     N  785   2.816   0.865  10.238  0.0301 -0.6791  0.3617
   50MPD2    H5  786   2.726   0.826  10.262 -0.9263  0.4802 -1.3228
   50MPD2    N1  787   3.195   0.876   9.920 -0.1667 -0.0039  0.4111
   50MPD2    H7  788   3.233   0.955   9.971  1.2314  0.5393 -1.4957
   51TMC2    C1  789   4.385   0.743   1.302 -0.0476 -0.8235  0.1697
   51TMC2    C2  790   4.315   0.847   1.248 -0.0614  0.1036 -0.4959
   51TMC2    C3  791   4.377   0.966   1.242  0.4403 -0.1824 -0.2644
   51TMC2    C4  792   4.515   0.761   1.345  0.1944 -0.8949 -0.7672
   51TMC2    C5  793   4.567   0.890   1.343 -0.2338 -0.1666  0.6888
   51TMC2    C6  794   4.499   0.994   1.294  0.8953  0.2710  1.0000
   51TMC2     C  795   4.308   0.620   1.320  0.0651  1.4180  0.1176
   51TMC2     O  796   4.219   0.602   1.238 -0.1397 -0.2741 -0.3105
   51TMC2     H  797   4.211   0.833   1.221 -0.5056 -1.0549  1.8321
   51TMC2    H1  798   4.578   0.678   1.374  0.8516 -0.0304  0.2674
   51TMC2    H2  799   4.534   1.096   1.285 -1.3115  1.0278  1.2190
   51TMC2    C7  800   4.706   0.915   1.382 -0.0924  0.1783  0.3796
   51TMC2    C8  801   4.316   1.058   1.138 -0.4886  0.0304  0.4929
   51TMC2    O1  802   0.014   0.830   1.458  0.0056  0.3145  0.1197
   51TMC2    O2  803   4.257   0.996   1.050 -0.0096 -0.0398 -0.3092
   51TMC2    O5  804   4.271   1.171   1.195 -0.1405 -0.4958  0.0717
   51TMC2    H5  805   4.339   1.202   1.259 -1.9702  0.0992  1.7352
   52MPD2     C  806   4.055   0.332   1.657  1.2622 -0.4983  0.4552
   52MPD2    C1  807   4.049   0.318   1.519 -0.2915 -0.1822  0.3002
   52MPD2    C2  808   4.136   0.400   1.444  0.2988  0.4330 -0.0323
   52MPD2    C3  809   4.239   0.475   1.503  0.9845  0.2705  0.1284
   52MPD2    C4  810   4.252   0.471   1.638  0.4159 -0.1796 -0.8208
   52MPD2    C5  811   4.155   0.403   1.714  0.5405 -0.0594 -0.0729
   52MPD2     H  812   4.122   0.398   1.336  2.5848  2.6444 -0.3721
   52MPD2    H1  813   4.327   0.526   1.694 -1.7020  0.1031  1.7615
   52MPD2    H2  814   3.992   0.270   1.719  1.1075 -1.1746 -0.3843
   52MPD2    H3  815   4.167   0.392   1.821  2.2445 -2.6404 -0.5421
   52MPD2     N  816   4.331   0.552   1.437  0.3009 -0.5106 -0.6100
   52MPD2    H5  817   4.397   0.592   1.503 -1.1999  1.4525 -0.3004
   52MPD2    N1  818   3.954   0.241   1.447  0.2034 -0.1495 -0.4136
   52MPD2    H7  819   3.959   0.248   1.346 -0.1010 -0.1683 -0.4286
   53TMC2    C1  820   4.713   2.973  11.892 -0.1601 -0.1421  0.2716
   53TMC2    C2  821   0.110   2.948  11.913  0.2831  0.0723 -0.1360
   53TMC2    C3  822   0.157   2.953  12.043  0.3997 -0.3610  0.2315
   53TMC2    C4  823   4.623   2.987  11.997  0.2107  0.1713  0.0082
   53TMC2    C5  824   4.676   2.980  12.127 -0.1422  0.7215  0.2028
   53TMC2    C6  825   0.073   2.970  12.148 -0.5276  0.0675  0.2839
   53TMC2     C  826   4.665   2.963  11.753  0.3145  0.1852 -0.4559
   53TMC2     O  827   0.006   2.922  11.669 -0.7030  0.0555 -0.8563
   53TMC2     H  828   0.178   2.959  11.829  1.0772  1.0054  0.6421
   53TMC2    H1  829   4.516   2.986  11.981  0.1431 -0.0168  0.4862
   53TMC2    H2  830   0.112   2.976  12.249  0.6166  1.6904 -0.2525
   53TMC2    C7  831   4.581   3.010  12.233 -0.0613  0.5779 -1.1130
   53TMC2    C8  832   0.296   2.944  12.073  0.3013  1.1134  0.1347
   53TMC2    O1  833   4.470   3.044  12.195 -0.2300 -0.1702  1.0580
   53TMC2    O2  834   0.344   3.009  12.158 -0.2892  0.0854 -0.5024
   53TMC2    O5  835   0.321   2.806  12.064  0.9233 -0.1365  0.1912
   53TMC2    H5  836   0.258   2.767  12.000  0.9021  0.6573 -0.2803
   54MPD2     C  837   4.517   3.000  11.490  0.1290  0.4402 -0.6504
   54MPD2    C1  838   4.457   2.999  11.614 -0.3151  0.2102  0.0251
   54MPD2    C2  839   4.320   2.989  11.630 -0.6271  0.0445  0.3985
   54MPD2    C3  840   4.230   2.983  11.517 -0.0647 -0.6593  0.3093
   54MPD2    C4  841   4.295   2.982  11.393  0.8412 -0.4086  0.0565
   54MPD2    C5  842   4.431   2.995  11.383 -0.2637 -0.0447 -0.0107
   54MPD2     H  843   4.281   2.996  11.732  0.8777  0.1055  0.9667
   54MPD2    H1  844   4.241   2.973  11.299 -0.5439 -1.6418  0.9599
   54MPD2    H2  845   4.625   3.003  11.487  0.2400 -1.4190  0.8272
   54MPD2    H3  846   4.480   2.988  11.287  0.6076  0.6737  0.3892
   54MPD2     N  847   4.097   2.977  11.528  0.2619  0.0047 -0.1961
   54MPD2    H5  848   4.053   2.998  11.439  2.2504  0.9723 -0.9643
   54MPD2    N1  849   4.530   2.999  11.737 -0.2190 -0.2736  0.6636
   54MPD2    H7  850   4.473   3.017  11.819  0.1623  0.2780  0.8030
   55TMC2    C1  851   0.584   0.479   0.352  1.3149 -0.5438 -0.2992
   55TMC2    C2  852   0.596   0.436   0.221  0.0640 -0.7380  0.1172
   55TMC2    C3  853   0.590   0.300   0.208  0.3795  0.1474  0.5095
   55TMC2    C4  854   0.555   0.398   0.456 -0.2843  0.0349  0.1881
   55TMC2    C5  855   0.551   0.264   0.436  0.0178  0.3977  1.4467
   55TMC2    C6  856   0.571   0.215   0.315  0.1180 -0.2405  0.4693
   55TMC2     C  857   0.602   0.620   0.372 -0.3880  0.8328  0.5963
   55TMC2     O  858   0.541   0.670   0.465  0.5256  0.5252 -0.0135
   55TMC2     H  859   0.576   0.501   0.137  0.2667 -0.3361  0.3826
   55TMC2    H1  860   0.518   0.442   0.548  4.1636  1.9394  1.0967
   55TMC2    H2  861   0.555   0.108   0.304 -0.8880 -0.0043 -0.4059
   55TMC2    C7  862   0.511   0.175   0.538 -0.3649  0.0329  0.2872
   55TMC2    C8  863   0.590   0.233   0.079 -0.6163 -0.5334  0.6363
   55TMC2    O1  864   0.491   0.058   0.522  0.2895  0.3490  0.7487
   55TMC2    O2  865   0.566   0.113   0.066 -0.0216 -0.3950 -0.3547
   55TMC2    O5  866   0.582   0.327  17.732  0.2208 -0.1713 -0.1478
   55TMC2    H5  867   0.543   0.295  17.648 -2.0458 -1.2395  1.3186
   56MPD2     C  868   0.868   0.828   0.233  0.0449  0.5149 -0.3893
   56MPD2    C1  869   0.749   0.804   0.297 -0.5777 -0.1526 -0.6371
   56MPD2    C2  870   0.689   0.907   0.365 -0.6022 -0.1023 -0.2268
   56MPD2    C3  871   0.751   1.033   0.375 -0.2891 -0.5986  0.1511
   56MPD2    C4  872   0.866   1.048   0.304  0.1572  0.1817  0.1383
   56MPD2    C5  873   0.921   0.947   0.236 -0.2631 -0.1028 -0.2551
   56MPD2     H  874   0.598   0.901   0.423  0.6758  0.7202  1.8772
   56MPD2    H1  875   0.911   1.143   0.279 -1.9074  0.4998 -2.3607
   56MPD2    H2  876   0.910   0.745   0.177  0.3148 -0.5934  1.4645
   56MPD2    H3  877   1.005   0.967   0.170 -0.8302 -2.2385 -1.6024
   56MPD2     N  878   0.694   1.137   0.455  0.2882  0.3914  0.0642
   56MPD2    H5  879   0.599   1.118   0.486  0.2771 -1.8498 -1.3540
   56MPD2    N1  880   0.707   0.669   0.294 -0.0756  0.2816  0.1187
   56MPD2    H7  881   0.764   0.605   0.240  1.4086  1.3885  0.3814
   57TMC2    C1  882   4.339   2.011  13.862 -0.2093  0.4367 -0.6285
   57TMC2    C2  883   4.467   2.006  13.918 -0.1787  0.2765 -0.1942
   57TMC2    C3  884   4.562   1.944  13.846 -0.4568  1.1681  0.2670
   57TMC2    C4  885   4.313   1.944  13.745  0.0942  1.0357 -0.4099
   57TMC2    C5  886   4.418   1.891  13.672  0.0541 -0.2467 -0.1338
   57TMC2    C6  887   4.542   1.882  13.725  0.2240 -0.3896  0.2877
   57TMC2     C  888   4.223   2.054  13.943  0.9765  0.0297 -0.2344
   57TMC2     O  889   4.256   2.085  14.055  0.4885  0.3214  0.7199
   57TMC2     H  890   4.485   2.042  14.019 -0.4717 -1.6998  0.5609
   57TMC2    H1  891   4.212   1.950  13.705 -0.0468 -0.7351 -0.2797
   57TMC2    H2  892   4.632   1.855  13.671 -1.5411 -2.0227 -1.8763
   57TMC2    C7  893   4.382   1.831  13.548  1.0082  0.3551 -0.3898
   57TMC2    C8  894   4.697   1.953  13.892  0.5916 -0.0637 -0.0842
   57TMC2    O1  895   4.280   1.871  13.496  0.0083  0.1646 -0.3134
   57TMC2    O2  896   0.041   1.872  13.850  0.6309  0.0919 -0.2057
   57TMC2    O5  897   4.725   2.083  13.917  0.1945  0.4074  0.0373
   57TMC2    H5  898   4.650   2.146  13.922 -0.4417 -0.6639  3.9385
   58MPD2     C  899   3.714   2.075  14.013 -0.0195 -0.4503 -0.0171
   58MPD2    C1  900   3.812   2.047  14.106 -0.0902 -0.3713 -0.0184
   58MPD2    C2  901   3.939   2.055  14.064 -0.3725 -0.0439  0.1513
   58MPD2    C3  902   3.972   2.076  13.929  0.1632  0.1324  0.0132
   58MPD2    C4  903   3.869   2.070  13.839 -0.2336 -0.3345 -0.3036
   58MPD2    C5  904   3.737   2.076  13.880  0.1268 -0.5756  0.0652
   58MPD2     H  905   4.020   2.057  14.135 -1.0411 -0.0111  0.9153
   58MPD2    H1  906   3.891   2.066  13.733  0.3989 -0.2333 -0.1714
   58MPD2    H2  907   3.614   2.077  14.054 -1.0327 -2.1763 -2.3880
   58MPD2    H3  908   3.651   2.076  13.813  1.6165 -1.0375 -1.8470
   58MPD2     N  909   4.103   2.061  13.872  0.1826 -0.8220  0.4508
   58MPD2    H5  910   4.111   2.048  13.772  0.0790  1.4883  0.1404
   58MPD2    N1  911   3.782   2.038  14.242 -0.2039 -0.4600  0.0305
   58MPD2    H7  912   3.854   2.052  14.312  0.7075 -2.0210 -0.6061
   59TMC2    C1  913   2.367   1.710  12.625 -0.3629 -0.0343  0.0776
   59TMC2    C2  914   2.340   1.598  12.697 -1.4283 -0.0030  0.4531
   59TMC2    C3  915   2.307   1.487  12.630  0.4836  0.5847 -0.7154
   59TMC2    C4  916   2.339   1.715  12.494  0.5023  0.0511 -0.1475
   59TMC2    C5  917   2.292   1.605  12.426  0.0647 -0.2419 -0.4732
   59TMC2    C6  918   2.273   1.489  12.497 -0.2370 -0.2108 -0.3421
   59TMC2     C  919   2.412   1.836  12.693 -0.5958 -0.1449  0.4657
   59TMC2     O  920   2.425   1.931  12.615  0.2034  0.1650 -0.3678
   59TMC2     H  921   2.367   1.596  12.802 -0.8731  1.7460  0.3304
   59TMC2    H1  922   2.383   1.796  12.436  2.3053 -0.8379 -0.0087
   59TMC2    H2  923   2.228   1.401  12.453 -0.3790 -0.5665  0.5170
   59TMC2    C7  924   2.284   1.593  12.276 -0.8751  0.5284 -0.7126
   59TMC2    C8  925   2.303   1.366  12.700 -0.3758 -0.4197 -0.9520
   59TMC2    O1  926   2.271   1.482  12.230  0.0441 -0.6292 -0.1703
   59TMC2    O2  927   2.382   1.352  12.790  0.5568 -0.0894 -0.7590
   59TMC2    O5  928   2.196   1.291  12.671  0.0984 -0.0539 -0.1499
   59TMC2    H5  929   2.130   1.326  12.607  1.0930  4.6199  1.3729
   60MPD2     C  930   2.396   2.078  12.867  0.1042 -0.7952 -0.4093
   60MPD2    C1  931   2.445   1.957  12.906 -0.8880 -0.3779  0.4830
   60MPD2    C2  932   2.498   1.942  13.031  0.7535 -0.3277  0.2386
   60MPD2    C3  933   2.497   2.047  13.122  0.4886  0.2175 -0.3358
   60MPD2    C4  934   2.455   2.175  13.072 -0.1114  0.6270  0.7797
   60MPD2    C5  935   2.408   2.185  12.951 -0.0291 -0.1379  0.3038
   60MPD2     H  936   2.539   1.846  13.058  2.5768  0.5760  0.7204
   60MPD2    H1  937   2.450   2.264  13.133  2.2778  1.9029 -0.8900
   60MPD2    H2  938   2.337   2.083  12.776  0.1037 -1.4347 -0.4436
   60MPD2    H3  939   2.372   2.285  12.928  0.9635 -0.0538 -0.9126
   60MPD2     N  940   2.549   2.035  13.254 -0.4608 -0.4393 -0.2991
   60MPD2    H5  941   2.570   2.118  13.309 -0.3862 -0.4420 -0.3230
   60MPD2    N1  942   2.422   1.837  12.827  0.5011 -0.6009  0.1083
   60MPD2    H7  943   2.429   1.746  12.872 -1.4066 -0.3387  0.9419
   61TMC2    C1  944   1.590   3.308  15.295 -0.0536  0.0555  0.4660
   61TMC2    C2  945   1.600   3.254  15.420 -0.2644  0.2311 -0.8887
   61TMC2    C3  946   1.584   3.345  15.526 -0.6373  0.7222  0.0904
   61TMC2    C4  947   1.561   3.443  15.270 -0.0965  0.2979  0.7114
   61TMC2    C5  948   1.550   3.527  15.380 -0.7650  0.4596  0.6242
   61TMC2    C6  949   1.558   3.479  15.509 -0.2997 -0.7873 -0.4503
   61TMC2     C  950   1.655   3.234  15.191 -0.3387  0.4304  0.1432
   61TMC2     O  951   1.726   3.144  15.233 -0.1059  0.1666 -0.0556
   61TMC2     H  952   1.616   3.147  15.415  0.1041  0.1203  2.9965
   61TMC2    H1  953   1.571   3.488  15.171  0.8929  0.3508  0.8326
   61TMC2    H2  954   1.541   3.545  15.593  0.9919  1.9298 -2.3461
   61TMC2    C7  955   1.530   3.671  15.357 -0.2440 -0.2375 -0.1816
   61TMC2    C8  956   1.603   3.295  15.657  0.2478 -0.3043  0.1413
   61TMC2    O1  957   1.523   3.710  15.243 -0.6521  0.3094 -0.5086
   61TMC2    O2  958   1.651   3.186  15.684 -0.1975 -0.4322 -0.3363
   61TMC2    O5  959   1.529   3.373  15.738  0.1639  0.6455 -0.3882
   61TMC2    H5  960   1.484   3.444  15.688  0.4496  0.5463 -0.7891
   62MPD2     C  961   1.749   3.086  14.959  0.7122  0.1592 -0.5671
   62MPD2    C1  962   1.676   3.203  14.951 -0.0805  0.5111  0.7142
   62MPD2    C2  963   1.668   3.273  14.838  0.0108  0.1132  0.1118
   62MPD2    C3  964   1.717   3.216  14.722  0.4492  0.0840  0.1628
   62MPD2    C4  965   1.789   3.098  14.720  0.0506  0.5331 -0.6944
   62MPD2    C5  966   1.807   3.037  14.843 -0.5884  0.7734  0.2270
   62MPD2     H  967   1.616   3.368  14.838  1.8179  1.1011 -1.1862
   62MPD2    H1  968   1.828   3.058  14.627  0.7476  0.2014 -0.2616
   62MPD2    H2  969   1.756   3.020  15.045  0.8881 -0.5686 -1.1404
   62MPD2    H3  970   1.859   2.942  14.848  0.0725  1.2314  2.2384
   62MPD2     N  971   1.695   3.297  14.610  0.0293  0.0711  0.0952
   62MPD2    H5  972   1.635   3.378  14.619 -0.1193 -0.2130  1.5683
   62MPD2    N1  973   1.623   3.264  15.062  0.2744 -0.3843  0.8912
   62MPD2    H7  974   1.557   3.339  15.043  0.8662 -0.2332 -0.6100
   63TMC2    C1  975   0.715   3.041  10.922 -0.3748 -0.1704 -0.6112
   63TMC2    C2  976   0.799   3.083  11.024 -0.3528 -0.3157  0.9279
   63TMC2    C3  977   0.906   3.170  10.995 -0.4084  0.6127  0.3680
   63TMC2    C4  978   0.725   3.097  10.799 -0.0225 -0.1174 -0.1357
   63TMC2    C5  979   0.830   3.176  10.780  0.3959  0.2453  0.1872
   63TMC2    C6  980   0.924   3.208  10.870  0.2015  0.0300 -0.6531
   63TMC2     C  981   0.621   2.928  10.941  0.2235 -0.9002 -0.6937
   63TMC2     O  982   0.593   2.893  11.057  0.0714 -0.5447  0.1310
   63TMC2     H  983   0.812   3.017  11.109  1.5829 -1.2169 -0.0662
   63TMC2    H1  984   0.643   3.083  10.729  0.1907 -0.6048 -0.2949
   63TMC2    H2  985   1.012   3.269  10.849  1.1352 -0.5324  1.6312
   63TMC2    C7  986   0.829   3.220  10.645 -0.4118  0.1110  0.0241
   63TMC2    C8  987   1.013   3.193  11.087 -0.0245 -0.8723 -0.1530
   63TMC2    O1  988   0.800   3.132  10.564  0.0906  0.1011  0.0872
   63TMC2    O2  989   1.115   3.240  11.050  0.0038  0.1573  0.2217
   63TMC2    O5  990   0.954   3.230  11.196  0.3898  0.1795  0.6503
   63TMC2    H5  991   0.879   3.173  11.223  2.2626 -2.4236  0.3948
   64MPD2     C  992   0.335   2.546  10.744  1.1750 -0.4673 -0.6267
   64MPD2    C1  993   0.428   2.579  10.652 -0.4079 -0.6683  0.1277
   64MPD2    C2  994   0.515   2.683  10.687  0.2759  0.3095 -0.0649
   64MPD2    C3  995   0.505   2.748  10.808  0.2584  0.6504  0.5750
   64MPD2    C4  996   0.403   2.722  10.897  0.5762  0.1260 -0.0344
   64MPD2    C5  997   0.313   2.621  10.861  1.1842 -0.1865 -0.3337
   64MPD2     H  998   0.595   2.706  10.617  0.5664  0.0414  0.1818
   64MPD2    H1  999   0.390   2.778  10.989  2.2494 -1.9709  1.4735
   64MPD2    H2 1000   0.269   2.463  10.723 -1.5746  1.9445 -1.5554
   64MPD2    H3 1001   0.231   2.587  10.922 -0.2010  2.1344 -0.8957
   64MPD2     N 1002   0.592   2.859  10.823  0.1138 -0.0066  0.3290
   64MPD2    H5 1003   0.647   2.884  10.741  0.8755  0.0443  0.8489
   64MPD2    N1 1004   0.453   2.508  10.532 -0.1188 -0.0633  0.0434
   64MPD2    H7 1005   0.522   2.553  10.474 -1.1721 -0.4355 -1.4888
   65TMC2    C1 1006   2.237   2.970  15.636  0.4563 -0.3157  0.2762
   65TMC2    C2 1007   2.316   3.017  15.737 -0.3636  0.3995 -0.2806
   65TMC2    C3 1008   2.296   3.137  15.787  0.3515 -0.0810  0.4429
   65TMC2    C4 1009   2.125   3.037  15.597 -0.0368 -0.1214  0.1933
   65TMC2    C5 1010   2.095   3.153  15.666  0.2924 -0.1517 -0.4417
   65TMC2    C6 1011   2.184   3.205  15.755  0.1424  0.6331 -0.2590
   65TMC2     C 1012   2.233   2.821  15.646 -0.6980  0.3491  0.5505
   65TMC2     O 1013   2.323   2.768  15.711  0.3454 -0.0541  0.6834
   65TMC2     H 1014   2.406   2.960  15.758  0.9186  2.1732 -0.8985
   65TMC2    H1 1015   2.055   3.002  15.522  2.0291 -0.9469 -1.3489
   65TMC2    H2 1016   2.175   3.309  15.784  2.0467  0.4764  0.9356
   65TMC2    C7 1017   2.028   3.263  15.594  0.8038 -0.4720 -0.1411
   65TMC2    C8 1018   2.399   3.211  15.858 -0.3694  0.7135 -0.6305
   65TMC2    O1 1019   2.030   3.264  15.473  0.2696  0.1723  0.8160
   65TMC2    O2 1020   2.387   3.333  15.873  0.5038  0.0134  0.2400
   65TMC2    O5 1021   2.513   3.140  15.863 -0.1052  0.0364  0.0268
   65TMC2    H5 1022   2.501   3.043  15.875  0.1340 -0.0074 -0.0925
   66MPD2     C 1023   2.130   2.545  15.678 -0.5661 -0.1452 -0.3360
   66MPD2    C1 1024   2.072   2.643  15.601  0.2417 -0.0518 -0.1166
   66MPD2    C2 1025   1.971   2.611  15.517 -0.2975  0.0830  0.6411
   66MPD2    C3 1026   1.906   2.492  15.521 -0.5586  0.4761  0.1774
   66MPD2    C4 1027   1.953   2.393  15.610  0.4780 -0.1912 -0.8660
   66MPD2    C5 1028   2.066   2.424  15.680  0.0047 -0.0983 -0.2758
   66MPD2     H 1029   1.940   2.693  15.453  2.3023  0.3634 -0.2606
   66MPD2    H1 1030   1.911   2.293  15.610  3.4394 -1.4248 -0.6893
   66MPD2    H2 1031   2.218   2.558  15.740 -0.6528  1.5040 -0.5428
   66MPD2    H3 1032   2.096   2.337  15.738 -0.0430  0.0075 -0.0910
   66MPD2     N 1033   1.805   2.449  15.438  0.7155  0.1575 -0.2163
   66MPD2    H5 1034   1.764   2.358  15.458  0.6603  0.4042  0.7768
   66MPD2    N1 1035   2.117   2.775  15.589  0.7490  0.8511 -0.4146
   66MPD2    H7 1036   2.056   2.830  15.529 -1.7333 -0.9291  0.4481
   67TMC2    C1 1037   2.166   2.142  13.915 -0.1532  0.1715  0.2062
   67TMC2    C2 1038   2.198   2.023  13.977 -0.2422  0.4869 -0.1098
   67TMC2    C3 1039   2.205   2.033  14.111  0.0537  0.2861  0.6291
   67TMC2    C4 1040   2.144   2.263  13.983  0.0592  0.4953  0.3180
   67TMC2    C5 1041   2.154   2.259  14.115  0.3762  0.5856  0.0154
   67TMC2    C6 1042   2.188   2.144  14.183 -0.3910 -0.2613 -0.3908
   67TMC2     C 1043   2.137   2.129  13.773  0.1896 -0.6579  0.4874
   67TMC2     O 1044   2.202   2.044  13.710 -0.2992  0.5310 -0.3954
   67TMC2     H 1045   2.218   1.931  13.923  2.4524 -0.0949  1.9015
   67TMC2    H1 1046   2.132   2.357  13.930  0.2777  1.3089  1.7382
   67TMC2    H2 1047   2.186   2.132  14.291  2.6774 -2.5055 -0.5705
   67TMC2    C7 1048   2.134   2.384  14.186 -0.0811 -0.0039 -0.1417
   67TMC2    C8 1049   2.264   1.928  14.193  0.5483  0.2032  0.1755
   67TMC2    O1 1050   2.151   2.485  14.119  0.3693 -0.1575 -0.1099
   67TMC2    O2 1051   2.320   1.948  14.297  0.0386 -0.6026 -0.3097
   67TMC2    O5 1052   2.197   1.817  14.162 -0.2453  0.1687  0.6294
   67TMC2    H5 1053   2.129   1.820  14.091  0.0892 -1.0086  0.2497
   68MPD2     C 1054   1.974   2.078  13.535 -0.5304  0.2490  0.7198
   68MPD2    C1 1055   1.945   2.171  13.633  0.5058 -0.2077 -0.2571
   68MPD2    C2 1056   1.826   2.240  13.628 -0.2450  0.3104  0.2326
   68MPD2    C3 1057   1.738   2.233  13.520  0.1116  0.0309  0.1330
   68MPD2    C4 1058   1.772   2.146  13.421  0.4057 -0.2794 -0.6380
   68MPD2    C5 1059   1.889   2.070  13.432 -1.0213  0.8449  0.3169
   68MPD2     H 1060   1.810   2.315  13.704 -0.4419 -0.4290  0.9184
   68MPD2    H1 1061   1.702   2.137  13.339 -1.5630  0.9528  0.9210
   68MPD2    H2 1062   2.058   2.010  13.535  1.3444  2.5469  1.9340
   68MPD2    H3 1063   1.917   1.998  13.357 -1.8252  0.7143  0.1374
   68MPD2     N 1064   1.633   2.322  13.498 -0.3444 -0.6716  0.3773
   68MPD2    H5 1065   1.594   2.331  13.404 -1.6499 -0.2953  0.9490
   68MPD2    N1 1066   2.023   2.199  13.743  1.0392  0.0582  0.5849
   68MPD2    H7 1067   1.996   2.275  13.804  1.0856  0.9094 -0.4669
   69TMC2    C1 1068   4.432   3.427  12.244 -0.9088 -0.1043 -0.2296
   69TMC2    C2 1069   4.331   3.501  12.202 -0.0350 -0.5165 -0.7223
   69TMC2    C3 1070   4.336   3.532  12.067 -0.4545 -0.0964  0.3351
   69TMC2    C4 1071   4.538   3.394  12.166  1.0916 -0.0805 -0.4547
   69TMC2    C5 1072   4.534   3.413  12.031  0.0107 -0.1524 -0.3055
   69TMC2    C6 1073   4.425   3.478  11.983  0.2811  0.2264 -0.1682
   69TMC2     C 1074   4.439   3.416  12.388 -0.1710  0.2066  0.5011
   69TMC2     O 1075   4.334   3.400  12.444 -0.4422  0.0994 -0.2445
   69TMC2     H 1076   4.245   3.531  12.261  1.6393 -0.8950  1.9077
   69TMC2    H1 1077   4.625   3.342  12.204  0.8475 -0.5956 -0.6090
   69TMC2    H2 1078   4.410   3.505  11.879  1.4491  1.5605  0.0088
   69TMC2    C7 1079   4.635   3.363  11.944  0.5768 -0.2990 -0.4289
   69TMC2    C8 1080   4.272   3.649  12.023 -0.3576 -0.4644 -0.3159
   69TMC2    O1 1081   4.619   3.340  11.824  0.0580 -0.1865 -0.6619
   69TMC2    O2 1082   4.227   3.672  11.911 -0.1885 -0.5672 -0.2958
   69TMC2    O5 1083   4.288   3.742  12.116  0.3427 -0.9642  0.3208
   69TMC2    H5 1084   4.355   3.735  12.187  1.5553 -2.2266 -0.9523
   70MPD2     C 1085   0.002   3.508  12.580  0.0506 -0.0569  0.1052
   70MPD2    C1 1086   4.613   3.449  12.565 -0.4607 -0.3953 -0.1657
   70MPD2    C2 1087   4.550   3.378  12.661 -0.0446 -0.3238 -0.0358
   70MPD2    C3 1088   4.604   3.381  12.787 -0.3174 -0.3769 -0.1835
   70MPD2    C4 1089   4.726   3.446  12.809  0.1074  0.5191  0.1533
   70MPD2    C5 1090   0.064   3.496  12.707 -0.0942  0.2694  0.4110
   70MPD2     H 1091   4.458   3.325  12.640 -0.1331  0.0064 -0.4897
   70MPD2    H1 1092   0.030   3.465  12.909  0.6786 -0.8861  0.1935
   70MPD2    H2 1093   0.052   3.555  12.496 -0.8618  1.5070  0.4504
   70MPD2    H3 1094   0.161   3.541  12.726  1.9699 -4.2073  0.2764
   70MPD2     N 1095   4.551   3.304  12.890  0.1019  0.0677  0.2637
   70MPD2    H5 1096   4.611   3.286  12.970  0.5477 -0.6079 -0.2211
   70MPD2    N1 1097   4.567   3.456  12.430 -0.1255 -0.4436 -0.3196
   70MPD2    H7 1098   4.629   3.500  12.364 -1.7530  1.0353 -0.8763
   71TMC2    C1 1099   2.154   4.533   1.544  0.4010  0.1545 -0.4792
   71TMC2    C2 1100   2.187   4.662   1.540  0.2466  0.1434  0.2093
   71TMC2    C3 1101   2.097   0.015   1.597 -0.4956  0.3517  0.4867
   71TMC2    C4 1102   2.036   4.490   1.600 -0.4551  0.4345  0.1284
   71TMC2    C5 1103   1.947   4.580   1.656 -0.3585  0.5401 -0.0312
   71TMC2    C6 1104   1.976   4.716   1.654 -0.1292 -0.8043  0.1924
   71TMC2     C 1105   2.218   4.455   1.438 -0.1333  0.6691 -0.6338
   71TMC2     O 1106   2.262   4.498   1.333  0.1020 -0.6788 -0.3376
   71TMC2     H 1107   2.268   4.693   1.475  0.5350 -0.1916  0.4029
   71TMC2    H1 1108   2.006   4.387   1.589  2.1808 -0.2832 -0.2963
   71TMC2    H2 1109   1.902   0.052   1.686  0.9087  0.1936  0.3416
   71TMC2    C7 1110   1.815   4.544   1.691 -0.8333  0.4480 -0.5970
   71TMC2    C8 1111   2.102   0.155   1.551 -0.3571  1.0876 -0.7351
   71TMC2    O1 1112   1.758   4.621   1.767  0.2875 -0.2788 -0.7430
   71TMC2    O2 1113   2.003   0.227   1.571  0.2419 -0.2813  0.2963
   71TMC2    O5 1114   2.231   0.198   1.565  0.5983 -0.4183 -0.5416
   71TMC2    H5 1115   2.290   0.129   1.602 -0.3877  0.2659  2.2663
   72MPD2     C 1116   2.294   3.959   1.302  0.0729 -0.4666  0.3130
   72MPD2    C1 1117   2.304   4.076   1.230 -0.0508 -0.2485 -0.7447
   72MPD2    C2 1118   2.264   4.192   1.289 -0.0094  0.1494  0.0822
   72MPD2    C3 1119   2.234   4.206   1.423  0.5155 -0.4188 -0.4678
   72MPD2    C4 1120   2.234   4.087   1.497  0.2481 -0.4877 -0.0936
   72MPD2    C5 1121   2.261   3.968   1.434  0.1667  0.0717  0.2058
   72MPD2     H 1122   2.259   4.280   1.225 -2.0628  0.4902  0.7240
   72MPD2    H1 1123   2.199   4.089   1.600 -0.9811  0.8286 -0.5397
   72MPD2    H2 1124   2.331   3.864   1.263  1.6989 -1.4392  4.2562
   72MPD2    H3 1125   2.262   3.882   1.500  0.9832 -1.1067 -1.3538
   72MPD2     N 1126   2.209   4.329   1.490 -0.1031  0.4098  0.0378
   72MPD2    H5 1127   2.179   4.327   1.586  2.2926  1.6116  0.8176
   72MPD2    N1 1128   2.343   4.082   1.091 -0.6094 -0.5682 -0.1237
   72MPD2    H7 1129   2.337   4.172   1.044 -2.8048 -1.2634 -1.1801
   73TMC2    C1 1130   1.080   1.280  13.835 -0.5616  0.0647  0.1175
   73TMC2    C2 1131   0.994   1.308  13.935 -0.1172  0.1056 -0.1578
   73TMC2    C3 1132   1.024   1.251  14.060 -0.3079  0.1509  0.0026
   73TMC2    C4 1133   1.200   1.225  13.864 -0.3986 -0.5835 -0.7490
   73TMC2    C5 1134   1.229   1.185  13.992 -0.0899 -0.0041 -0.1616
   73TMC2    C6 1135   1.139   1.191  14.092 -0.5603  0.5156 -0.6810
   73TMC2     C 1136   1.098   1.396  13.755 -0.5918 -0.3288  0.5938
   73TMC2     O 1137   1.218   1.403  13.724 -0.7627 -0.4281  0.4584
   73TMC2     H 1138   0.896   1.349  13.914 -0.5814 -1.1259 -0.3727
   73TMC2    H1 1139   1.260   1.195  13.778  1.4756 -0.2125  0.4492
   73TMC2    H2 1140   1.167   1.168  14.194 -1.4120  0.1364 -0.5317
   73TMC2    C7 1141   1.360   1.242  14.031 -0.1896  0.6636 -0.6915
   73TMC2    C8 1142   0.928   1.258  14.167  0.2428  0.1419  0.1259
   73TMC2    O1 1143   1.386   1.231  14.149  0.3102 -0.9087 -0.3120
   73TMC2    O2 1144   0.937   1.181  14.261 -0.2944  0.2919 -0.0597
   73TMC2    O5 1145   0.854   1.369  14.150  0.0918 -0.1104  0.2820
   73TMC2    H5 1146   0.883   1.421  14.072 -2.1087  1.4861  0.5247
   74MPD2     C 1147   1.025   1.776  13.429 -0.0851 -0.2613 -0.0981
   74MPD2    C1 1148   1.143   1.720  13.486  0.6892 -0.0683  0.1142
   74MPD2    C2 1149   1.130   1.621  13.575 -0.1913  0.0227  0.3431
   74MPD2    C3 1150   1.002   1.574  13.619 -1.0806  0.2391 -0.8828
   74MPD2    C4 1151   0.894   1.635  13.563  0.3722  0.0664  0.3671
   74MPD2    C5 1152   0.901   1.735  13.466 -0.0822  0.5392  0.0842
   74MPD2     H 1153   1.227   1.591  13.612  1.0925  2.0421 -1.4385
   74MPD2    H1 1154   0.794   1.613  13.597 -0.1948  0.4752 -1.0429
   74MPD2    H2 1155   1.028   1.851  13.350 -1.7228 -1.2369 -1.0762
   74MPD2    H3 1156   0.817   1.796  13.432 -0.2134  0.5795  0.4797
   74MPD2     N 1157   0.987   1.467  13.708 -0.3461  0.5192 -0.3651
   74MPD2    H5 1158   0.892   1.440  13.730 -0.3056 -0.4896 -1.4474
   74MPD2    N1 1159   1.267   1.772  13.446 -0.1360  0.0348  0.1478
   74MPD2    H7 1160   1.271   1.828  13.362  2.0808 -1.8425 -0.9997
   75TMC2    C1 1161   1.532   2.533  13.527 -0.4427 -0.3732  0.2625
   75TMC2    C2 1162   1.561   2.653  13.585  0.2340  0.3410  0.1888
   75TMC2    C3 1163   1.539   2.765  13.510 -0.0103 -0.3304 -0.6068
   75TMC2    C4 1164   1.480   2.527  13.400  0.1842 -0.6109 -0.2643
   75TMC2    C5 1165   1.478   2.643  13.324  0.0549  0.1897 -0.0619
   75TMC2    C6 1166   1.495   2.766  13.383 -0.3397  0.0284  0.1510
   75TMC2     C 1167   1.587   2.412  13.583  0.2563  0.0222 -0.4656
   75TMC2     O 1168   1.606   2.421  13.707 -0.0241  0.2334  0.8178
   75TMC2     H 1169   1.606   2.651  13.684 -1.0310  0.2675  0.7616
   75TMC2    H1 1170   1.438   2.435  13.361  1.3422 -2.0276  1.8128
   75TMC2    H2 1171   1.497   2.860  13.327 -1.6211  0.4045  0.7272
   75TMC2    C7 1172   1.400   2.623  13.201 -0.3466 -0.3928 -0.1548
   75TMC2    C8 1173   1.530   2.872  13.601 -0.0912 -0.1947 -0.0270
   75TMC2    O1 1174   1.353   2.512  13.171  0.2807  0.5274  0.4528
   75TMC2    O2 1175   1.604   2.882  13.701 -0.3004  0.4318 -0.2984
   75TMC2    O5 1176   1.393   2.893  13.616 -0.2301  0.3836 -0.1760
   75TMC2    H5 1177   1.349   2.871  13.531  0.0099  0.5844 -0.3528
   76TMC2    C1 1178   0.878   2.486  11.899  0.0775 -0.1302  0.3626
   76TMC2    C2 1179   0.801   2.376  11.873  0.3533  0.5774 -0.5665
   76TMC2    C3 1180   0.851   2.259  11.907  0.0005  0.3271  0.2747
   76TMC2    C4 1181   0.994   2.482  11.976  0.0411  0.4638  0.1639
   76TMC2    C5 1182   1.032   2.356  12.013  0.0702 -0.3688  0.3751
   76TMC2    C6 1183   0.969   2.245  11.976  1.1074 -0.1567 -0.2552
   76TMC2     C 1184   0.840   2.610  11.846 -0.7892 -0.7195  0.0620
   76TMC2     O 1185   0.722   2.607  11.808 -0.1714 -0.0281  0.2239
   76TMC2     H 1186   0.711   2.388  11.812 -0.2806  0.9507  0.4433
   76TMC2    H1 1187   1.051   2.566  12.013 -0.5294  1.6900 -1.7542
   76TMC2    H2 1188   0.989   2.146  12.017  1.0526 -0.4706 -0.9908
   76TMC2    C7 1189   1.146   2.331  12.105  0.3003  0.4829 -0.5619
   76TMC2    C8 1190   0.783   2.125  11.888  0.5243 -0.1158  0.1883
   76TMC2    O1 1191   1.197   2.222  12.110 -0.0276 -0.3433 -0.2222
   76TMC2    O2 1192   0.826   2.020  11.923 -0.2330 -0.1709  0.0199
   76TMC2    O5 1193   0.683   2.129  11.797  0.5103  0.2423  0.3980
   76TMC2    H5 1194   0.665   2.217  11.757  2.4756 -0.4572 -2.0389
   77MPD2     C 1195   0.932   3.027  11.585 -0.7218  0.1045  0.3277
   77MPD2    C1 1196   0.824   2.941  11.588  0.6562  0.1921 -0.8030
   77MPD2    C2 1197   0.828   2.832  11.672 -0.8669 -0.1578 -0.0096
   77MPD2    C3 1198   0.933   2.816  11.758 -0.5488  0.2152  0.0530
   77MPD2    C4 1199   1.039   2.901  11.762  0.4743  0.2736  0.1992
   77MPD2    C5 1200   1.038   3.012  11.679  0.4409 -0.0816 -0.2650
   77MPD2     H 1201   0.747   2.763  11.654  1.8482 -3.1950 -0.5548
   77MPD2    H1 1202   1.129   2.902  11.823 -0.4323  1.6023  1.5262
   77MPD2    H2 1203   0.944   3.119  11.529 -1.9184 -0.2713 -0.5645
   77MPD2    H3 1204   1.115   3.088  11.676  0.2701  0.1924  2.8085
   77MPD2     N 1205   0.939   2.706  11.839  0.1587  0.6548 -0.0769
   77MPD2    H5 1206   1.025   2.696  11.892 -0.4863  1.1987  1.0871
   77MPD2    N1 1207   0.707   2.961  11.519  0.8685  0.1431 -0.0219
   77MPD2    H7 1208   0.636   2.896  11.549  2.5913 -1.1999  1.1911
   78TMC2    C1 1209   1.074   2.926   1.245  0.1078 -0.0883 -0.1362
   78TMC2    C2 1210   1.016   3.013   1.160  0.1749 -0.5173  0.8247
   78TMC2    C3 1211   1.038   3.152   1.167 -0.1207 -0.7389 -0.6486
   78TMC2    C4 1212   1.164   2.973   1.330  0.0637  0.1433 -0.3713
   78TMC2    C5 1213   1.191   3.109   1.338  0.0146  0.1908  0.6275
   78TMC2    C6 1214   1.131   3.209   1.258 -0.1118 -0.1358 -0.1408
   78TMC2     C 1215   1.087   2.784   1.209 -0.2060 -0.0085 -0.1387
   78TMC2     O 1216   1.169   2.713   1.269  0.5366  0.0894 -0.5553
   78TMC2     H 1217   0.948   2.972   1.086  2.0091  1.4953 -1.9168
   78TMC2    H1 1218   1.215   2.899   1.391 -0.8509 -1.9215 -2.1422
   78TMC2    H2 1219   1.140   3.317   1.259 -0.4918 -0.0967 -1.3427
   78TMC2    C7 1220   1.318   3.142   1.407 -0.1112 -0.7646 -0.4099
   78TMC2    C8 1221   0.926   3.239   1.159 -0.7572  0.0713 -0.4954
   78TMC2    O1 1222   1.403   3.053   1.417 -0.0616  0.1190  0.0480
   78TMC2    O2 1223   0.931   3.356   1.191  0.2754  0.0733  0.1951
   78TMC2    O5 1224   0.815   3.165   1.151 -0.0906 -0.4063  0.1871
   78TMC2    H5 1225   0.817   3.068   1.138 -0.1984 -0.3444 -0.3117
   79MPD1     C 1226   0.967   2.376   0.930  0.1075  0.1027 -0.0848
   79MPD1    C1 1227   1.092   2.400   0.981  0.2257  0.1707  0.1345
   79MPD1    C2 1228   1.118   2.531   1.034 -0.2659  0.0534  0.5179
   79MPD1    C3 1229   1.017   2.628   1.036  0.2572 -0.0137 -0.0503
   79MPD1    C4 1230   0.894   2.594   0.983  0.8400 -0.5675  0.0454
   79MPD1    C5 1231   0.871   2.472   0.936  0.6279  0.5336  0.2117
   79MPD1     H 1232   1.215   2.555   1.077  0.5996  0.6971 -1.7720
   79MPD1    H1 1233   0.806   2.658   0.978  1.4283  0.1350 -1.3604
   79MPD1    H2 1234   0.944   2.276   0.896 -0.4085  0.0248  0.4915
   79MPD1    H3 1235   0.772   2.447   0.901  0.4336  0.6391  0.6975
   79MPD1     N 1236   1.021   2.752   1.090 -0.4099 -0.3250  0.4776
   79MPD1    H5 1237   0.941   2.809   1.062 -0.0645 -0.0508  0.0374
   79MPD1    N1 1238   1.179   2.289   1.001  0.8972 -0.5956 -0.6878
   79MPD1    H6 1239   1.157   2.212   0.938 -0.2719 -0.0728 -0.9114
   79MPD1    H7 1240   1.274   2.325   1.000 -0.2095  2.3264  0.8465
   80TMC2    C1 1241   4.439   2.655  11.781 -0.1439  0.0392  0.4654
   80TMC2    C2 1242   4.522   2.666  11.674 -0.4001 -0.0289 -0.6129
   80TMC2    C3 1243   4.467   2.663  11.547 -0.2982 -0.0213 -0.0451
   80TMC2    C4 1244   4.304   2.615  11.761 -0.6241  0.7478 -0.7254
   80TMC2    C5 1245   4.261   2.610  11.632 -0.0690 -0.0004  0.0726
   80TMC2    C6 1246   4.338   2.642  11.522  0.4850  0.2314  0.0178
   80TMC2     C 1247   4.506   2.631  11.910  0.5011  0.1747 -0.0031
   80TMC2     O 1248   4.615   2.578  11.908 -0.2365  0.1888 -0.1140
   80TMC2     H 1249   4.629   2.683  11.681 -0.3114 -0.2022 -1.4585
   80TMC2    H1 1250   4.245   2.589  11.847  0.8333  1.5865  0.5311
   80TMC2    H2 1251   4.303   2.635  11.420  1.1923  1.6635 -0.3156
   80TMC2    C7 1252   4.133   2.538  11.602  0.0310 -0.0815 -0.2057
   80TMC2    C8 1253   4.559   2.652  11.432 -0.6474 -0.3802  0.1975
   80TMC2    O1 1254   4.111   2.524  11.478 -0.9371 -0.1812  0.0107
   80TMC2    O2 1255   4.527   2.671  11.315 -0.3384 -0.2673  0.4120
   80TMC2    O5 1256   4.645   2.558  11.468  0.5293 -0.2933  0.4359
   80TMC2    H5 1257   4.634   2.524  11.560 -0.6094 -1.6070 -0.1821
   81MPD2     C 1258   4.584   2.609  12.196  0.8924 -0.4696  0.2042
   81MPD2    C1 1259   4.461   2.648  12.152 -0.4014 -0.2882 -0.2053
   81MPD2    C2 1260   4.361   2.665  12.244 -0.4158  0.5398  0.2930
   81MPD2    C3 1261   4.383   2.656  12.380  0.2890  0.2232 -0.1643
   81MPD2    C4 1262   4.508   2.610  12.422 -0.0937  0.6852 -0.2627
   81MPD2    C5 1263   4.607   2.590  12.329 -0.0815 -0.3480 -0.2266
   81MPD2     H 1264   4.266   2.696  12.203 -0.5923 -1.4670 -0.8356
   81MPD2    H1 1265   4.529   2.577  12.523  0.6723 -1.7271 -1.2143
   81MPD2    H2 1266   4.663   2.600  12.123  0.9599 -1.4043  0.3809
   81MPD2    H3 1267   4.700   2.556  12.373 -1.2414 -4.0107 -0.6091
   81MPD2     N 1268   4.286   2.680  12.475  0.1920  0.6414  0.3542
   81MPD2    H5 1269   4.304   2.670  12.575  2.9014  0.8533 -0.1148
   81MPD2    N1 1270   4.420   2.657  12.016  0.1506 -0.8326  0.1543
   81MPD2    H7 1271   4.329   2.700  12.006 -0.5612 -1.5495  3.3145
   82TMC2    C1 1272   1.896   1.368  10.789  0.3947  0.1822 -0.0197
   82TMC2    C2 1273   1.802   1.389  10.692  0.2717 -0.5193 -0.4367
   82TMC2    C3 1274   1.715   1.289  10.671 -0.6685 -0.3490  0.5989
   82TMC2    C4 1275   1.897   1.261  10.869 -0.0984 -0.9098  0.1462
   82TMC2    C5 1276   1.799   1.169  10.853  0.1813 -0.1358  0.2558
   82TMC2    C6 1277   1.712   1.179  10.748 -0.5492  0.2066  0.8780
   82TMC2     C 1278   1.972   1.480  10.820 -0.5939 -0.5003  0.1839
   82TMC2     O 1279   1.973   1.565  10.733  0.8036  0.4566  0.2471
   82TMC2     H 1280   1.803   1.481  10.634 -1.8798 -1.8472 -2.5739
   82TMC2    H1 1281   1.972   1.236  10.943  0.3680 -0.6512 -0.2449
   82TMC2    H2 1282   1.621   1.119  10.748  0.8288 -1.8810  0.5966
   82TMC2    C7 1283   1.811   1.038  10.913 -1.3688 -0.4640  0.1350
   82TMC2    C8 1284   1.604   1.306  10.586 -0.3086  0.6293  0.0361
   82TMC2    O1 1285   1.861   1.038  11.025  0.1633  0.2560 -0.1013
   82TMC2    O2 1286   1.543   1.205  10.546 -0.4469 -0.0912 -0.1790
   82TMC2    O5 1287   1.629   1.412  10.502  0.4367  0.1180  0.1390
   82TMC2    H5 1288   1.686   1.486  10.533  1.2378 -1.6021  2.7935
   83MPD2     C 1289   2.205   1.821  11.080  0.2951  0.5231  0.0669
   83MPD2    C1 1290   2.212   1.794  10.949 -0.3996 -0.4701 -0.1029
   83MPD2    C2 1291   2.166   1.674  10.900 -0.4361 -0.5745 -0.7502
   83MPD2    C3 1292   2.109   1.585  10.990 -0.6534  0.4218  0.7293
   83MPD2    C4 1293   2.111   1.606  11.127 -0.6769 -0.6155 -0.6714
   83MPD2    C5 1294   2.161   1.728  11.172 -0.2250  0.6472 -0.3726
   83MPD2     H 1295   2.171   1.650  10.794 -0.0440 -0.1457 -0.8310
   83MPD2    H1 1296   2.072   1.535  11.199 -2.0793  1.0281  0.1961
   83MPD2    H2 1297   2.232   1.918  11.121  2.2423  0.2313 -0.5243
   83MPD2    H3 1298   2.166   1.759  11.276  0.8425  1.0949 -0.5620
   83MPD2     N 1299   2.029   1.480  10.945 -0.6536 -0.0323  0.1315
   83MPD2    H5 1300   2.006   1.404  11.009 -2.0460 -0.5171 -0.9599
   83MPD2    N1 1301   2.256   1.899  10.862 -0.0091  0.3892 -0.1079
   83MPD2    H7 1302   2.274   1.991  10.899  0.0249 -0.2160  1.3885
   84TMC2    C1 1303   2.729   1.116  10.619 -0.5338 -0.4909 -0.6665
   84TMC2    C2 1304   2.667   1.005  10.676  0.2682 -0.7272  0.1392
   84TMC2    C3 1305   2.653   0.893  10.602 -0.3172  0.0187  0.1207
   84TMC2    C4 1306   2.789   1.110  10.495 -0.4010  0.0891  0.1421
   84TMC2    C5 1307   2.768   0.995  10.428 -1.7187  0.4733  0.8303
   84TMC2    C6 1308   2.711   0.883  10.477  0.9043 -1.0739 -0.1098
   84TMC2     C 1309   2.765   1.229  10.707  0.7433  0.2931 -0.6218
   84TMC2     O 1310   2.821   1.208  10.816 -0.3785 -0.1283 -0.7299
   84TMC2     H 1311   2.625   1.019  10.775  0.5018 -0.8226  0.2512
   84TMC2    H1 1312   2.841   1.195  10.452 -1.7263  1.5646  1.4518
   84TMC2    H2 1313   2.727   0.783  10.438  0.0678 -0.2721 -2.4994
   84TMC2    C7 1314   2.860   0.976  10.316 -0.1447 -0.2358  0.9168
   84TMC2    C8 1315   2.614   0.779  10.680 -0.6249  1.0274  0.4508
   84TMC2    O1 1316   2.950   1.055  10.294  0.0064  0.2584 -0.6608
   84TMC2    O2 1317   2.622   0.783  10.803  0.4956  0.1304 -0.0143
   84TMC2    O5 1318   2.602   0.668  10.598 -0.0741  0.5495 -0.0305
   84TMC2    H5 1319   2.584   0.688  10.504  2.3853  2.8923 -0.0080
   85TMC2    C1 1320   4.479   4.131  16.039 -0.0902  0.4822 -0.1749
   85TMC2    C2 1321   4.572   4.190  16.120  0.0487  0.0669 -0.0398
   85TMC2    C3 1322   4.688   4.233  16.059  0.0415 -0.2737 -0.5293
   85TMC2    C4 1323   4.497   4.092  15.912 -0.0859 -0.2706 -0.8081
   85TMC2    C5 1324   4.614   4.140  15.848 -0.0931  0.1166 -0.0577
   85TMC2    C6 1325   4.712   4.211  15.920 -0.1494  0.3477  0.5677
   85TMC2     C 1326   4.352   4.085  16.098 -0.2157  0.6943 -0.2775
   85TMC2     O 1327   4.304   4.153  16.186 -0.3605 -0.7405  0.1488
   85TMC2     H 1328   4.556   4.222  16.222 -1.8551  1.6582 -0.8436
   85TMC2    H1 1329   4.425   4.033  15.855 -0.6941 -1.6575  1.3869
   85TMC2    H2 1330   0.066   4.245  15.870 -0.3686 -0.1306 -0.1509
   85TMC2    C7 1331   4.642   4.094  15.717 -0.0818 -0.0627  0.0739
   85TMC2    C8 1332   0.048   4.306  16.138  0.1452 -0.1950 -0.7821
   85TMC2    O1 1333   4.572   4.006  15.677  0.2775 -0.7952  0.5706
   85TMC2    O2 1334   0.073   4.268  16.252 -0.1611 -0.3520  0.1065
   85TMC2    O5 1335   0.026   4.436  16.100 -0.9370  0.1408  0.2236
   85TMC2    H5 1336   4.704   4.453  16.022 -0.2219  1.6769  0.0234
   86MPD2     C 1337   3.921   3.809  16.098  0.6954 -0.4017 -0.2351
   86MPD2    C1 1338   4.028   3.730  16.063 -0.3617 -0.6217  0.3703
   86MPD2    C2 1339   4.153   3.783  16.057 -1.0801  0.7372 -0.1307
   86MPD2    C3 1340   4.176   3.918  16.078  0.1052 -0.3984  0.5399
   86MPD2    C4 1341   4.075   3.999  16.115  0.4319 -0.9901 -0.0771
   86MPD2    C5 1342   3.954   3.943  16.118  0.4356 -0.0141  0.0645
   86MPD2     H 1343   4.239   3.725  16.026 -0.9888  0.1577  1.2032
   86MPD2    H1 1344   4.086   4.101  16.150 -1.7567 -0.6565 -0.3463
   86MPD2    H2 1345   3.814   3.793  16.089  0.6794 -0.2348 -0.3435
   86MPD2    H3 1346   3.872   4.009  16.146  0.6258  0.1230  0.2912
   86MPD2     N 1347   4.302   3.964  16.057  0.5236  0.3080  0.0157
   86MPD2    H5 1348   4.364   3.898  16.010  1.1091 -2.0225  4.1369
   86MPD2    N1 1349   4.016   3.597  16.018 -0.3218  0.1705 -0.1261
   86MPD2    H7 1350   4.106   3.552  16.004 -0.3552  0.4553 -1.2134
   87TMC2    C1 1351   2.080   2.220   0.856 -0.0318  0.1983 -0.5057
   87TMC2    C2 1352   2.210   2.251   0.876  0.5075 -0.7291  0.3256
   87TMC2    C3 1353   2.240   2.346   0.967 -0.1587  0.2770  0.6688
   87TMC2    C4 1354   1.981   2.290   0.920 -0.0118  0.0262 -0.1160
   87TMC2    C5 1355   2.019   2.391   1.012 -0.8213 -0.1738  0.2071
   87TMC2    C6 1356   2.156   2.422   1.042 -0.0640  0.0479 -0.4823
   87TMC2     C 1357   2.046   2.105   0.769 -0.0952 -0.2112 -0.6129
   87TMC2     O 1358   2.140   2.056   0.717  0.0333  0.1374  0.0076
   87TMC2     H 1359   2.285   2.187   0.831  1.0116  0.5096 -0.6089
   87TMC2    H1 1360   1.878   2.275   0.892  0.0767 -2.4363  0.8789
   87TMC2    H2 1361   2.190   2.499   1.109  1.0453 -0.9148  0.0658
   87TMC2    C7 1362   1.916   2.465   1.073 -0.1464  1.0788  0.1153
   87TMC2    C8 1363   2.381   2.351   1.006 -0.3942  0.0484  0.3068
   87TMC2    O1 1364   1.803   2.461   1.024 -0.1635 -0.9271  0.6575
   87TMC2    O2 1365   2.460   2.285   0.946  0.5362 -0.5405 -0.5490
   87TMC2    O5 1366   2.391   2.390   1.132 -0.4313  0.0940  0.3267
   87TMC2    H5 1367   2.310   2.423   1.175  0.4107  0.8735  1.3009
   88MPD2     C 1368   1.938   2.668   1.385  0.2110 -0.1253 -0.3804
   88MPD2    C1 1369   1.876   2.619   1.266 -0.5861 -0.1900  0.6267
   88MPD2    C2 1370   1.749   2.665   1.234  0.2226 -0.1326  1.0244
   88MPD2    C3 1371   1.693   2.770   1.310 -0.4550 -0.0656 -0.7211
   88MPD2    C4 1372   1.758   2.814   1.427  0.1326  0.2922 -0.1671
   88MPD2    C5 1373   1.879   2.766   1.458 -0.1321  0.1057  0.3598
   88MPD2     H 1374   1.706   2.637   1.138 -1.2650 -1.3234  2.0403
   88MPD2    H1 1375   1.715   2.900   1.477  0.3051  0.4503 -0.2915
   88MPD2    H2 1376   2.034   2.633   1.419 -0.3784 -2.1906 -0.8371
   88MPD2    H3 1377   1.934   2.822   1.533  1.9020  1.4543 -2.1432
   88MPD2     N 1378   1.583   2.844   1.259 -0.3862 -0.1725 -0.1454
   88MPD2    H5 1379   1.566   2.932   1.306 -1.4584  0.2848 -1.3921
   88MPD2    N1 1380   1.955   2.524   1.192 -0.3452 -0.9782  0.2290
   88MPD2    H7 1381   2.048   2.510   1.230  0.6253  0.1082 -1.7932
   89TMC2    C1 1382   2.695   1.685   1.511  0.1870  0.0434  0.0945
   89TMC2    C2 1383   2.609   1.700   1.615  0.3668  0.5480 -0.5934
   89TMC2    C3 1384   2.623   1.802   1.707 -0.1194 -0.0601  0.3722
   89TMC2    C4 1385   2.807   1.760   1.504 -0.1630 -0.0008  0.1816
   89TMC2    C5 1386   2.830   1.848   1.607  0.5888  0.0130  0.1064
   89TMC2    C6 1387   2.745   1.868   1.711 -0.2436  0.8173 -0.5353
   89TMC2     C 1388   2.692   1.575   1.415 -0.5466  0.4391  0.6867
   89TMC2     O 1389   2.765   1.581   1.322 -1.4667 -0.5876 -0.2792
   89TMC2     H 1390   2.517   1.642   1.609 -0.1399  1.3397 -0.3625
   89TMC2    H1 1391   2.885   1.727   1.436  1.2452  0.9576  1.3080
   89TMC2    H2 1392   2.760   1.946   1.785  0.0388 -1.7297  2.1074
   89TMC2    C7 1393   2.943   1.950   1.593 -0.7546  0.2352 -0.7137
   89TMC2    C8 1394   2.554   1.787   1.834  0.2456  0.1194 -1.3569
   89TMC2    O1 1395   2.963   2.022   1.686 -0.4928 -0.9505 -0.1741
   89TMC2    O2 1396   2.534   1.887   1.895  0.5320 -0.1925  0.2338
   89TMC2    O5 1397   2.606   1.668   1.876 -0.4745 -0.0125 -0.7017
   89TMC2    H5 1398   2.632   1.604   1.807  0.6713  1.4511 -1.6341
   90MPD2     C 1399   2.553   1.124   1.236 -0.1210  0.3386 -0.6616
   90MPD2    C1 1400   2.460   1.153   1.333  0.4040 -0.1200 -0.2049
   90MPD2    C2 1401   2.483   1.267   1.408 -0.4494 -1.0422  0.2215
   90MPD2    C3 1402   2.587   1.355   1.385  0.2909  0.0688 -0.1626
   90MPD2    C4 1403   2.683   1.316   1.297  0.3713  0.6594  0.1522
   90MPD2    C5 1404   2.670   1.193   1.233 -0.1007  0.8423 -0.0735
   90MPD2     H 1405   2.423   1.304   1.491 -2.5284  1.7173 -2.5015
   90MPD2    H1 1406   2.775   1.371   1.281 -1.3012  3.1023 -1.2467
   90MPD2    H2 1407   2.545   1.036   1.173 -0.6498 -0.3243  0.3316
   90MPD2    H3 1408   2.743   1.167   1.157 -0.4807  2.1557 -0.8891
   90MPD2     N 1409   2.612   1.474   1.457 -0.0360 -0.3343  0.7109
   90MPD2    H5 1410   2.564   1.492   1.545  0.3356 -0.1042  0.8672
   90MPD2    N1 1411   2.346   1.072   1.350  0.5234  0.2348  0.3287
   90MPD2    H7 1412   2.265   1.102   1.404 -0.0697 -2.4429  0.9498
   91TMC2    C1 1413   3.695   0.288  15.761 -1.2603  0.4896 -0.2676
   91TMC2    C2 1414   3.731   0.362  15.871  0.2763  0.7208 -0.0269
   91TMC2    C3 1415   3.638   0.388  15.967 -0.1272 -0.1263 -0.8386
   91TMC2    C4 1416   3.570   0.228  15.755  0.3803  0.1787 -0.5626
   91TMC2    C5 1417   3.482   0.240  15.861  0.5394  0.8736  0.4987
   91TMC2    C6 1418   3.510   0.331  15.962  0.0394  0.6409  0.2339
   91TMC2     C 1419   3.794   0.237  15.666  0.3255  0.6214 -0.6648
   91TMC2     O 1420   3.758   0.178  15.566  0.0603  0.4480  0.1256
   91TMC2     H 1421   3.818   0.426  15.868  0.2884  0.6775 -0.5215
   91TMC2    H1 1422   3.542   0.159  15.677  0.7003  0.8903 -1.3111
   91TMC2    H2 1423   3.446   0.332  16.049  1.9077 -0.8759  1.6283
   91TMC2    C7 1424   3.336   0.205  15.843  0.2302  0.3600 -0.3502
   91TMC2    C8 1425   3.670   0.475  16.083  0.0033 -0.6616  0.1907
   91TMC2    O1 1426   3.261   0.242  15.934  0.0931 -0.6117 -0.5887
   91TMC2    O2 1427   3.785   0.515  16.107 -0.2824  0.0081 -0.0593
   91TMC2    O5 1428   3.561   0.554  16.092 -0.0502  0.0968 -0.0908
   91TMC2    H5 1429   3.472   0.526  16.060 -0.6717  2.6926 -0.6161
   92MPD2     C 1430   4.045   0.240  15.504  0.6077 -0.5208 -0.4656
   92MPD2    C1 1431   4.035   0.258  15.642 -0.1304 -0.4107 -0.1960
   92MPD2    C2 1432   4.143   0.300  15.712 -0.4225  0.0018 -0.1435
   92MPD2    C3 1433   4.258   0.320  15.647 -0.2526 -0.7475  0.4277
   92MPD2    C4 1434   4.269   0.299  15.510 -0.1297  0.1248 -0.8512
   92MPD2    C5 1435   4.161   0.255  15.434  0.6408 -0.3898 -0.4407
   92MPD2     H 1436   4.138   0.340  15.813 -2.3150  2.5061 -1.2570
   92MPD2    H1 1437   4.362   0.316  15.458  0.1663  0.5720 -0.1717
   92MPD2    H2 1438   3.956   0.219  15.444  0.9044 -0.1451 -1.0406
   92MPD2    H3 1439   4.164   0.250  15.326  0.1330  1.2440 -0.5334
   92MPD2     N 1440   4.367   0.373  15.722  0.5447  0.4543 -0.6184
   92MPD2    H5 1441   4.345   0.380  15.821 -0.9358 -0.1492 -0.8999
   92MPD2    N1 1442   3.913   0.270  15.708 -0.3725  0.0900  0.2133
   92MPD2    H7 1443   3.919   0.321  15.795  3.1049  0.6421 -0.3680
   93TMC2    C1 1444   1.576   4.587  13.404  0.0356  0.2013 -0.0106
   93TMC2    C2 1445   1.579   4.501  13.299  0.0556 -0.0642 -0.1298
   93TMC2    C3 1446   1.664   4.533  13.197 -0.2896  0.8054 -0.1094
   93TMC2    C4 1447   1.672   4.684  13.434  0.8205  0.0675 -0.6203
   93TMC2    C5 1448   1.764   4.698  13.333  0.6259 -0.8012 -0.8237
   93TMC2    C6 1449   1.760   4.630  13.214 -1.0650  0.3945  0.2376
   93TMC2     C 1450   1.507   4.541  13.520 -0.3690  0.5915 -0.0827
   93TMC2     O 1451   1.522   4.426  13.550 -0.0672  0.3055 -0.2836
   93TMC2     H 1452   1.513   4.415  13.307 -1.2119  0.9960  0.8647
   93TMC2    H1 1453   1.669   0.002  13.527  0.0227 -0.5993 -0.2609
   93TMC2    H2 1454   1.817   4.652  13.124 -1.0365 -0.5567  0.0177
   93TMC2    C7 1455   1.861   0.061  13.339 -0.7089 -0.1850 -0.1980
   93TMC2    C8 1456   1.696   4.426  13.114  0.1002 -0.3076  0.1657
   93TMC2    O1 1457   1.936   0.077  13.243  0.6918  0.0680 -0.2552
   93TMC2    O2 1458   1.809   4.383  13.113 -0.2408 -0.2734  0.0272
   93TMC2    O5 1459   1.594   4.385  13.036  0.7653  0.6540 -0.0954
   93TMC2    H5 1460   1.527   4.456  13.046  0.7686  0.8217 -1.2674
   94MPD2     C 1461   1.255   4.458  13.626 -1.0017  0.2273  0.2194
   94MPD2    C1 1462   1.291   4.589  13.621 -0.4054  0.0080  0.4882
   94MPD2    C2 1463   1.194   4.678  13.655  0.0931 -0.3887 -0.4523
   94MPD2    C3 1464   1.067   4.644  13.704 -0.0687 -0.1171  1.3868
   94MPD2    C4 1465   1.039   4.515  13.704  0.0106  0.0338  0.2692
   94MPD2    C5 1466   1.130   4.424  13.673 -0.1827  0.1155 -0.4675
   94MPD2     H 1467   1.229   0.044  13.642 -2.0336  0.3801 -0.1476
   94MPD2    H1 1468   0.944   4.475  13.738  0.5439  1.2258  3.1548
   94MPD2    H2 1469   1.318   4.374  13.600 -2.8515 -1.3538  0.8644
   94MPD2    H3 1470   1.117   4.319  13.695 -0.7659  0.5011  1.0803
   94MPD2     N 1471   0.968   0.002  13.751 -0.2627  0.7805 -0.3190
   94MPD2    H5 1472   0.873   4.705  13.761 -0.1012  0.3694 -0.1467
   94MPD2    N1 1473   1.412   4.631  13.561 -0.1286  0.0510  0.6411
   94MPD2    H7 1474   1.423   4.730  13.540  1.5492 -0.3787 -0.5115
   95TMC2    C1 1475   1.138   2.759  16.051  0.1422 -0.0088  0.0733
   95TMC2    C2 1476   1.199   2.696  16.161 -0.2046 -0.0859  0.3247
   95TMC2    C3 1477   1.197   2.763  16.278 -0.3091  0.8799 -0.1694
   95TMC2    C4 1478   1.087   2.880  16.063 -0.7857 -0.9474 -0.2645
   95TMC2    C5 1479   1.084   2.943  16.177 -0.5412 -0.0705  0.5190
   95TMC2    C6 1480   1.131   2.884  16.294  0.0457  0.1469  0.6023
   95TMC2     C 1481   1.145   2.699  15.917  0.3573  0.5134 -0.4073
   95TMC2     O 1482   1.182   2.582  15.911 -0.0300 -0.2639  0.3335
   95TMC2     H 1483   1.244   2.601  16.135  3.0038  1.4629  0.2696
   95TMC2    H1 1484   1.042   2.935  15.982  0.8694 -1.1780 -1.3505
   95TMC2    H2 1485   1.120   2.938  16.387 -1.4953 -1.5589  1.4211
   95TMC2    C7 1486   1.060   3.088  16.173 -0.0422 -0.3926  0.4263
   95TMC2    C8 1487   1.245   2.693  16.397  0.0340 -0.8924  1.2131
   95TMC2    O1 1488   0.971   3.125  16.093  0.5727  0.1533 -0.5717
   95TMC2    O2 1489   1.238   2.570  16.421  0.0408  0.2357  0.2352
   95TMC2    O5 1490   1.269   2.785  16.491 -0.1280  0.0534 -0.0393
   95TMC2    H5 1491   1.283   2.872  16.448 -0.0837 -0.1474 -0.4363
   96MPD2     C 1492   1.045   2.675  15.404 -0.0171  0.2457 -0.7201
   96MPD2    C1 1493   1.138   2.604  15.476 -0.0315  0.5687  0.1315
   96MPD2    C2 1494   1.144   2.626  15.615  0.0355 -0.3051 -0.0003
   96MPD2    C3 1495   1.083   2.736  15.678 -0.2363  0.1329  0.3380
   96MPD2    C4 1496   0.995   2.811  15.604 -0.6763  0.1216  0.0798
   96MPD2    C5 1497   0.977   2.771  15.473  0.4248  0.4123 -0.0181
   96MPD2     H 1498   1.211   2.561  15.671  1.9762  1.4031 -0.3137
   96MPD2    H1 1499   0.940   2.897  15.640  0.3148  1.3976 -1.4462
   96MPD2    H2 1500   1.014   2.658  15.301  1.4565 -1.1395 -0.9371
   96MPD2    H3 1501   0.911   2.831  15.410  1.0050  1.0547 -0.0092
   96MPD2     N 1502   1.088   2.771  15.815  0.2639 -0.6093  0.6773
   96MPD2    H5 1503   1.036   2.854  15.843 -1.1471 -1.8116  1.6127
   96MPD2    N1 1504   1.215   2.517  15.401 -0.0456  0.3952 -0.0229
   96MPD2    H7 1505   1.206   2.525  15.300 -0.1162  3.2663  0.2302
   97TMC2    C1 1506   3.800   4.703   0.056  0.6009 -0.3800  0.4375
   97TMC2    C2 1507   3.787   4.672  17.664 -0.3121 -0.8575 -0.0811
   97TMC2    C3 1508   3.829   0.030  17.572 -0.4673  0.1986 -0.2522
   97TMC2    C4 1509   3.864   0.090   0.097  0.2023 -0.3268 -0.3403
   97TMC2    C5 1510   3.911   0.170  17.739 -0.2359  0.1162 -0.2247
   97TMC2    C6 1511   3.899   0.140  17.608  0.2030  0.0238  0.4401
   97TMC2     C 1512   3.721   4.628   0.156  0.6896 -0.1066 -1.0220
   97TMC2     O 1513   3.735   4.668   0.269 -0.0524 -0.4370 -0.0958
   97TMC2     H 1514   3.717   4.593  17.641 -2.2861  0.4149  1.5474
   97TMC2    H1 1515   3.881   0.122   0.199  0.5706  1.6441 -1.0102
   97TMC2    H2 1516   3.949   0.197  17.530 -0.8864 -0.3678 -0.5484
   97TMC2    C7 1517   3.981   0.291   0.034 -0.2604  0.3251 -0.0025
   97TMC2    C8 1518   3.798   0.004  17.433 -0.0335  0.4547 -0.6348
   97TMC2    O1 1519   4.011   0.297   0.151 -0.0749 -0.1704 -0.0929
   97TMC2    O2 1520   3.706   4.664  17.408  0.1550 -0.7031 -0.0951
   97TMC2    O5 1521   3.907   0.034  17.359  0.4503  0.3659  0.3416
   97TMC2    H5 1522   3.988   0.047  17.412  1.0257  0.1419 -0.4813
   98MPD2     C 1523   3.404   4.260   0.319 -0.5573  0.0117  0.0983
   98MPD2    C1 1524   3.462   4.359   0.390  0.3800 -0.6193 -0.3192
   98MPD2    C2 1525   3.548   4.449   0.325  0.1103 -0.0942  0.3427
   98MPD2    C3 1526   3.564   4.445   0.185 -0.0783 -0.5740  0.0089
   98MPD2    C4 1527   3.498   4.345   0.116 -0.0329  0.0937 -0.2502
   98MPD2    C5 1528   3.429   4.250   0.189 -0.3524  0.3239  0.3618
   98MPD2     H 1529   3.616   4.510   0.384  1.3097 -0.1608 -0.9687
   98MPD2    H1 1530   3.510   4.330   0.009 -4.2358  1.5747 -0.9323
   98MPD2    H2 1531   3.352   4.173   0.358 -1.0529  0.3256  0.1418
   98MPD2    H3 1532   3.391   4.162   0.138  0.7470  0.8421 -1.3442
   98MPD2     N 1533   3.640   4.534   0.107  0.6536 -0.3992 -0.1363
   98MPD2    H5 1534   3.643   4.520   0.007 -2.8124  0.9427 -0.4164
   98MPD2    N1 1535   3.439   4.356   0.526  0.3364 -0.1758 -0.2742
   98MPD2    H7 1536   3.402   4.270   0.565  0.1535  0.2845  0.5805
   99TMC2    C1 1537   3.120   2.238   1.101  0.6571 -0.2376  0.4885
   99TMC2    C2 1538   3.168   2.363   1.121  0.9878  0.2156 -0.2056
   99TMC2    C3 1539   3.113   2.445   1.216  0.2998  1.0080  0.4151
   99TMC2    C4 1540   3.007   2.199   1.166  0.3814 -0.1269 -0.6196
   99TMC2    C5 1541   2.953   2.279   1.260 -0.0685  0.1162  0.2513
   99TMC2    C6 1542   3.003   2.401   1.287 -0.1729  1.3406  0.0166
   99TMC2     C 1543   3.179   2.164   0.994 -0.5018  0.0743 -0.5128
   99TMC2     O 1544   3.278   2.209   0.939 -0.0684 -0.6227  0.3199
   99TMC2     H 1545   3.248   2.402   1.060  1.2564  1.4056  0.8898
   99TMC2    H1 1546   2.963   2.102   1.145 -1.0766  0.3059  0.3674
   99TMC2    H2 1547   2.966   2.468   1.364 -3.2413 -0.1862 -0.1240
   99TMC2    C7 1548   2.840   2.233   1.344  0.0060  0.5208  0.1981
   99TMC2    C8 1549   3.151   2.584   1.218 -0.9741  0.2398 -0.2328
   99TMC2    O1 1550   2.819   2.292   1.445 -0.1822  0.5495  0.0466
   99TMC2    O2 1551   3.208   2.644   1.128 -0.4875 -0.0163 -0.2609
   99TMC2    O5 1552   3.146   2.634   1.343  0.3534 -0.3821 -0.1141
   99TMC2    H5 1553   3.112   2.563   1.402  0.1333  0.4583  0.7716
  100MPD2     C 1554   3.232   1.975   0.763  0.6255 -0.2632  0.4275
  100MPD2    C1 1555   3.140   1.949   0.860  0.9448  0.6164 -0.1458
  100MPD2    C2 1556   3.052   1.844   0.844 -0.0921  0.3529 -0.0489
  100MPD2    C3 1557   3.060   1.763   0.730  0.0947  0.0245 -0.2493
  100MPD2    C4 1558   3.149   1.796   0.632 -0.0790  0.4902 -0.5876
  100MPD2    C5 1559   3.234   1.901   0.655  0.3755 -0.4148 -0.1214
  100MPD2     H 1560   2.978   1.818   0.918 -0.9106 -0.5601 -1.1873
  100MPD2    H1 1561   3.158   1.747   0.535  2.3161 -1.2171  0.4934
  100MPD2    H2 1562   3.308   2.052   0.777 -1.3931  1.2630  3.0480
  100MPD2    H3 1563   3.309   1.931   0.582 -2.3708 -0.7922 -3.0877
  100MPD2     N 1564   2.968   1.655   0.715  0.0119  0.1394 -0.3225
  100MPD2    H5 1565   2.916   1.641   0.802  2.0552  0.8912  1.0145
  100MPD2    N1 1566   3.114   2.038   0.971 -0.4931 -0.4370 -0.4921
  100MPD2    H7 1567   3.033   2.011   1.027  0.5552 -0.4723  0.9973
  101TMC2    C1 1568   3.069   2.805  13.103  0.0877 -0.2044 -0.1153
  101TMC2    C2 1569   2.950   2.861  13.111 -0.1587  0.6020  0.2190
  101TMC2    C3 1570   2.924   2.951  13.014  0.4025 -1.0039  0.5370
  101TMC2    C4 1571   3.164   2.856  13.020 -0.2289 -0.1772  0.1285
  101TMC2    C5 1572   3.139   2.959  12.928  0.0970 -0.6030  0.1311
  101TMC2    C6 1573   3.012   3.007  12.928 -0.8462 -0.0072 -0.5771
  101TMC2     C 1574   3.071   2.677  13.163  0.0815 -0.2028  0.6678
  101TMC2     O 1575   2.968   2.639  13.213 -1.3417 -0.1160  1.2412
  101TMC2     H 1576   2.866   2.820  13.166  1.3393 -0.2370  1.8609
  101TMC2    H1 1577   3.261   2.808  13.013  0.7526  1.6473  1.2395
  101TMC2    H2 1578   2.995   3.106  12.888 -2.1052 -0.4228 -1.0920
  101TMC2    C7 1579   3.246   3.013  12.848  0.4066  0.0340  0.4005
  101TMC2    C8 1580   2.797   3.007  13.022  0.6530 -0.1562  0.3568
  101TMC2    O1 1581   3.359   3.006  12.897  0.9523  0.1276  0.0818
  101TMC2    O2 1582   2.700   2.932  13.022 -0.1849  0.0391  0.3358
  101TMC2    O5 1583   2.800   3.114  13.105  0.3284  0.1790 -0.0158
  101TMC2    H5 1584   2.878   3.173  13.092  0.7411 -0.0311  1.5032
  102MPD2     C 1585   3.344   2.438  13.175  0.5445  1.0868  0.1267
  102MPD2    C1 1586   3.215   2.485  13.181 -0.4247  0.7454  0.0718
  102MPD2    C2 1587   3.123   2.398  13.232  0.3970  0.0148 -1.1080
  102MPD2    C3 1588   3.149   2.276  13.279  0.4552  0.7928  0.2633
  102MPD2    C4 1589   3.274   2.228  13.276 -0.2380 -0.3229  0.4543
  102MPD2    C5 1590   3.372   2.312  13.234  0.3889  1.0608  1.3270
  102MPD2     H 1591   3.018   2.424  13.226 -0.4155 -3.0755 -0.5243
  102MPD2    H1 1592   3.294   2.127  13.312 -1.5735 -0.6127  0.4014
  102MPD2    H2 1593   3.426   2.498  13.137  0.5724  0.8825 -0.1420
  102MPD2    H3 1594   3.474   2.275  13.233  0.2643  0.7551 -0.5575
  102MPD2     N 1595   3.041   2.211  13.345  0.0848 -0.3493  0.1764
  102MPD2    H5 1596   2.951   2.256  13.350 -0.2677 -1.0184 -0.0908
  102MPD2    N1 1597   3.187   2.615  13.137  0.2450 -0.2195  0.1696
  102MPD2    H7 1598   3.270   2.670  13.116  1.7471 -3.2100 -1.6934
  103TMC2    C1 1599   1.456   2.818  12.650 -0.6278  0.0880  0.3570
  103TMC2    C2 1600   1.551   2.760  12.728  1.2213 -0.0236  0.0662
  103TMC2    C3 1601   1.589   2.816  12.844  0.3021  0.4781 -0.7268
  103TMC2    C4 1602   1.396   2.937  12.687  0.3921  0.2244 -0.5386
  103TMC2    C5 1603   1.437   2.993  12.805 -0.4606  0.3575  0.4546
  103TMC2    C6 1604   1.532   2.932  12.887 -0.1882 -0.0206  0.3316
  103TMC2     C 1605   1.402   2.747  12.534  0.1312 -0.7888 -0.8418
  103TMC2     O 1606   1.289   2.777  12.492  0.5642 -0.1218 -0.0465
  103TMC2     H 1607   1.593   2.663  12.702  0.0881 -0.9198  1.5754
  103TMC2    H1 1608   1.298   2.961  12.646  0.3770  2.6349  0.9036
  103TMC2    H2 1609   1.587   2.995  12.955 -0.9087 -0.1255  1.0051
  103TMC2    C7 1610   1.364   3.095  12.869  0.4597 -0.3739 -0.4960
  103TMC2    C8 1611   1.655   2.733  12.944 -0.1838 -0.8087  0.4107
  103TMC2    O1 1612   1.387   3.110  12.985  1.0912  0.0468 -0.3508
  103TMC2    O2 1613   1.672   2.793  13.049  0.0902 -0.4103 -0.5708
  103TMC2    O5 1614   1.618   2.603  12.938  0.4112  0.4926  0.7695
  103TMC2    H5 1615   1.591   2.573  12.849  1.7232 -0.6510  0.7463
  104MPD2     C 1616   1.562   2.473  12.350  0.9582  0.1650 -0.7989
  104MPD2    C1 1617   1.463   2.568  12.371  0.1271 -0.4234 -0.2245
  104MPD2    C2 1618   1.342   2.563  12.296 -0.1344 -0.1983 -0.2529
  104MPD2    C3 1619   1.319   2.454  12.224 -0.4041 -0.2734  0.2557
  104MPD2    C4 1620   1.417   2.361  12.210 -0.5199 -0.3102  0.2883
  104MPD2    C5 1621   1.536   2.361  12.273  0.3862 -0.1174  0.3124
  104MPD2     H 1622   1.269   2.643  12.298  0.5976  0.5434 -3.2110
  104MPD2    H1 1623   1.415   2.288  12.129 -1.2202 -1.4053  1.2868
  104MPD2    H2 1624   1.652   2.489  12.408  0.1912  0.5807  0.2879
  104MPD2    H3 1625   1.610   2.284  12.254 -0.5032 -0.7401 -0.6439
  104MPD2     N 1626   1.193   2.444  12.161 -0.1319  1.1993 -0.3195
  104MPD2    H5 1627   1.121   2.514  12.172 -0.1042  1.0278  0.9878
  104MPD2    N1 1628   1.491   2.658  12.477  0.6691  0.1962 -0.5319
  104MPD2    H7 1629   1.587   2.657  12.509  0.3989  0.7587  0.2885
  105TMC2    C1 1630   2.123   1.362   0.151  0.5909  0.4920  0.5296
  105TMC2    C2 1631   2.146   1.268   0.244  0.5843 -0.4268 -0.1313
  105TMC2    C3 1632   2.134   1.306   0.372 -0.5766 -0.1059 -0.0657
  105TMC2    C4 1633   2.066   1.483   0.183  0.7988 -0.7398 -0.1195
  105TMC2    C5 1634   2.031   1.503   0.315 -0.1091  0.5960  0.0672
  105TMC2    C6 1635   2.067   1.416   0.413 -0.6588  0.0147  0.0443
  105TMC2     C 1636   2.172   1.329   0.026 -0.2704 -0.1344 -0.4183
  105TMC2     O 1637   2.194   1.210   0.004  0.3539  0.1797  0.2106
  105TMC2     H 1638   2.176   1.168   0.215 -1.3565 -0.9221 -0.4277
  105TMC2    H1 1639   2.019   1.532   0.098  1.2996 -1.1014 -0.6076
  105TMC2    H2 1640   2.051   1.431   0.519  0.4396  1.7313 -0.0344
  105TMC2    C7 1641   1.937   1.610   0.345 -0.0699 -1.0083  0.2105
  105TMC2    C8 1642   2.157   1.203   0.471 -0.4165  0.2415  0.1439
  105TMC2    O1 1643   1.859   1.634   0.251  0.7677 -0.0869  0.3387
  105TMC2    O2 1644   2.103   1.211   0.579  0.2655  0.2127 -0.1854
  105TMC2    O5 1645   2.254   1.116   0.443 -0.4315  0.9893  0.1701
  105TMC2    H5 1646   2.303   1.123   0.358 -0.5854  0.0006 -0.0084
  106MPD2     C 1647   2.366   1.455  17.311 -0.5841 -0.4319 -0.0901
  106MPD2    C1 1648   2.396   1.552  17.401  0.2870 -0.4689 -0.0664
  106MPD2    C2 1649   2.340   1.544  17.527  0.3368  0.4969 -0.5742
  106MPD2    C3 1650   2.271   1.432  17.572  0.7527  0.5094  0.4153
  106MPD2    C4 1651   2.259   1.328  17.479 -0.1223  0.4207  0.5878
  106MPD2    C5 1652   2.301   1.342  17.349 -0.4082  1.0949  0.2588
  106MPD2     H 1653   2.356   1.620  17.602  0.4154  0.4343 -0.5275
  106MPD2    H1 1654   2.213   1.236  17.514 -0.8505  1.0236  1.2099
  106MPD2    H2 1655   2.406   1.464  17.210 -2.2268 -0.4698 -0.7445
  106MPD2    H3 1656   2.304   1.260  17.279 -1.2202  2.0539 -0.8986
  106MPD2     N 1657   2.213   1.438  17.694 -0.0665  0.1748 -0.1903
  106MPD2    H5 1658   2.214   1.527   0.000 -1.2609 -0.2044  0.5409
  106MPD2    N1 1659   2.501   1.639  17.365 -0.0962  0.4999  0.4543
  106MPD2    H7 1660   2.547   1.620  17.277 -0.1732 -1.2514  0.7786
  107TMC2    C1 1661   2.753   1.725  11.383  0.5614 -0.3680  0.2695
  107TMC2    C2 1662   2.806   1.839  11.448 -0.1728  0.6169 -0.1779
  107TMC2    C3 1663   2.890   1.920  11.385  0.3558 -0.1809 -0.2511
  107TMC2    C4 1664   2.794   1.696  11.257  0.1927  0.4692 -0.1710
  107TMC2    C5 1665   2.871   1.785  11.194  0.7044 -0.0262  0.2573
  107TMC2    C6 1666   2.930   1.890  11.255  0.0554  0.4403  0.4755
  107TMC2     C 1667   2.640   1.654  11.445 -0.1112  0.1145  0.0861
  107TMC2     O 1668   2.625   1.670  11.568 -0.1935  0.2553 -0.6346
  107TMC2     H 1669   2.786   1.855  11.553 -1.2580 -2.0634  0.0216
  107TMC2    H1 1670   2.762   1.605  11.208 -1.0643  1.3431 -0.9499
  107TMC2    H2 1671   2.992   1.963  11.203  0.5610  0.2118  0.7576
  107TMC2    C7 1672   2.909   1.780  11.049  0.2620  0.4617  0.3871
  107TMC2    C8 1673   2.944   2.030  11.458 -0.2578 -0.7875 -0.3584
  107TMC2    O1 1674   2.947   1.882  10.992 -0.7320 -0.1910 -0.0376
  107TMC2    O2 1675   2.899   2.066  11.569  0.1227  0.2197  0.0588
  107TMC2    O5 1676   3.069   2.061  11.419 -0.4284 -0.4247 -0.2228
  107TMC2    H5 1677   3.098   2.012  11.339 -0.5730 -2.8119  1.2116
  108MPD2     C 1678   2.383   1.435  11.313  0.2873  0.3346 -0.4038
  108MPD2    C1 1679   2.462   1.493  11.407 -0.1591  0.4929  0.7057
  108MPD2    C2 1680   2.454   1.454  11.538  0.1757 -0.8816  1.0233
  108MPD2    C3 1681   2.366   1.360  11.576  0.1653 -0.8511 -0.1059
  108MPD2    C4 1682   2.283   1.309  11.477 -0.3742  0.3290 -0.2075
  108MPD2    C5 1683   2.292   1.343  11.351 -0.2470 -0.2848 -0.3712
  108MPD2     H 1684   2.517   1.495  11.616 -0.0416  1.1651  0.1212
  108MPD2    H1 1685   2.204   1.237  11.495 -2.5613  2.5060 -1.0735
  108MPD2    H2 1686   2.376   1.481  11.215 -1.1493 -1.3077 -1.0779
  108MPD2    H3 1687   2.218   1.310  11.279  1.2282 -0.1599 -1.9541
  108MPD2     N 1688   2.360   1.303  11.703  0.3985  0.6669  0.0430
  108MPD2    H5 1689   2.286   1.236  11.727  0.7854  0.9244  1.9820
  108MPD2    N1 1690   2.558   1.585  11.361  0.3049  0.2163 -0.0262
  108MPD2    H7 1691   2.563   1.587  11.259 -0.0611  3.4959  0.0109
  109TMC2    C1 1692   2.561   4.109   1.552  0.2174 -0.4510  0.7203
  109TMC2    C2 1693   2.544   4.221   1.626  0.0193 -0.1862 -0.0154
  109TMC2    C3 1694   2.563   4.335   1.550 -0.4260 -0.6372  0.3470
  109TMC2    C4 1695   2.602   4.102   1.420 -0.0853  0.0130 -0.2025
  109TMC2    C5 1696   2.627   4.223   1.354  0.6473 -0.1844  0.0069
  109TMC2    C6 1697   2.599   4.342   1.414  0.9875 -0.1584 -0.0079
  109TMC2     C 1698   2.557   3.990   1.630  0.2701 -0.3637  0.1598
  109TMC2     O 1699   2.549   4.021   1.750 -0.3958 -0.3062  0.5191
  109TMC2     H 1700   2.502   4.228   1.726 -2.4107  2.5047 -1.2198
  109TMC2    H1 1701   2.649   4.014   1.378 -0.8022  0.0192 -1.0387
  109TMC2    H2 1702   2.602   4.434   1.357  0.5556  0.2680  0.6522
  109TMC2    C7 1703   2.706   4.220   1.234  0.3479  0.4966 -0.3946
  109TMC2    C8 1704   2.528   4.458   1.623 -0.4641 -0.3798  0.4524
  109TMC2    O1 1705   2.744   4.332   1.204 -0.1302 -0.3513 -0.1296
  109TMC2    O2 1706   2.497   4.466   1.738 -0.2637 -0.3712 -0.2865
  109TMC2    O5 1707   2.559   4.570   1.545  0.2901  0.3145  0.2430
  109TMC2    H5 1708   2.623   4.555   1.472 -1.1375  1.7817 -1.2857
  110MPD2     C 1709   2.338   3.555   1.725  0.0908 -0.4436  0.0589
  110MPD2    C1 1710   2.342   3.563   1.586 -1.1343 -0.7563 -0.5402
  110MPD2    C2 1711   2.427   3.659   1.525 -0.1280 -0.1738 -0.4066
  110MPD2    C3 1712   2.488   3.753   1.608 -0.1351  0.7395 -0.4229
  110MPD2    C4 1713   2.476   3.747   1.746 -0.2298 -0.7603  0.6122
  110MPD2    C5 1714   2.402   3.643   1.803 -0.0390  0.8494 -0.8097
  110MPD2     H 1715   2.407   3.687   1.422  0.1981 -0.9275 -0.6694
  110MPD2    H1 1716   2.510   3.819   1.820 -1.5148  1.6835 -1.1731
  110MPD2    H2 1717   2.271   3.485   1.774 -2.0688  1.2215 -0.4911
  110MPD2    H3 1718   2.390   3.631   1.910  0.8893 -2.3230 -1.0523
  110MPD2     N 1719   2.545   3.870   1.554  0.0791 -0.3573 -0.2550
  110MPD2    H5 1720   2.561   3.882   1.454 -0.1576 -2.0014 -0.4859
  110MPD2    N1 1721   2.268   3.476   1.503  0.1586 -0.9301  0.2930
  110MPD2    H7 1722   2.204   3.418   1.555  1.0751 -0.2829  2.1742
  111TMC2    C1 1723   3.606   3.609  11.418  0.7033 -0.5441 -0.0189
  111TMC2    C2 1724   3.700   3.661  11.340  0.7891 -0.0303 -0.2585
  111TMC2    C3 1725   3.822   3.693  11.392 -0.7202 -0.0957 -0.6348
  111TMC2    C4 1726   3.646   3.579  11.549  0.4452  0.3474 -0.6953
  111TMC2    C5 1727   3.763   3.619  11.605  0.1078 -0.0424 -0.2194
  111TMC2    C6 1728   3.852   3.667  11.520 -0.2414  0.8844  0.4120
  111TMC2     C 1729   3.465   3.621  11.380  0.8072 -0.2183  0.0691
  111TMC2     O 1730   3.453   3.649  11.261 -0.3851 -0.2075  0.1497
  111TMC2     H 1731   3.670   3.696  11.242  0.8468  0.1447 -0.2146
  111TMC2    H1 1732   3.573   3.523  11.607  1.9435 -0.9899 -0.0835
  111TMC2    H2 1733   3.943   3.707  11.564 -0.2476  2.8786 -1.4117
  111TMC2    C7 1734   3.805   3.559  11.725 -0.2583 -0.0036  0.1515
  111TMC2    C8 1735   3.915   3.775  11.316 -0.3167  0.9329 -0.6355
  111TMC2    O1 1736   3.716   3.537  11.802  0.5043 -0.3507 -0.1914
  111TMC2    O2 1737   3.895   3.849  11.220  0.5092  0.8247 -0.8306
  111TMC2    O5 1738   4.035   3.723  11.345  0.3786 -0.0133 -0.1496
  111TMC2    H5 1739   4.036   3.636  11.390 -2.1051 -0.5475 -1.1035
  112MPD2     C 1740   2.959   3.622  11.434 -0.1926 -0.4645  0.1296
  112MPD2    C1 1741   3.047   3.650  11.326 -0.2078  0.1104 -0.4548
  112MPD2    C2 1742   3.181   3.640  11.342  0.4008 -0.8772  0.3288
  112MPD2    C3 1743   3.233   3.606  11.465 -0.5462  0.3126  0.0311
  112MPD2    C4 1744   3.146   3.576  11.571 -0.2183 -0.3895 -0.0242
  112MPD2    C5 1745   3.009   3.586  11.554  0.2594  0.1556  0.1265
  112MPD2     H 1746   3.238   3.675  11.257 -1.3512  0.6282 -0.2187
  112MPD2    H1 1747   3.181   3.535  11.665 -0.3206  0.3138  0.3192
  112MPD2    H2 1748   2.850   3.624  11.431 -0.1738 -2.3066 -2.0631
  112MPD2    H3 1749   2.941   3.560  11.633  0.1903  1.0463  0.3604
  112MPD2     N 1750   3.373   3.594  11.478  0.4662  0.2449  0.1379
  112MPD2    H5 1751   3.406   3.567  11.570 -2.5244  2.1976  1.7717
  112MPD2    N1 1752   2.996   3.692  11.202  0.7409 -0.0651 -0.1266
  112MPD2    H7 1753   3.053   3.697  11.117 -0.3079 -0.4384 -0.8544
  113TMC2    C1 1754   0.983   0.959   0.731 -0.1503 -0.1091  0.8443
  113TMC2    C2 1755   0.860   0.966   0.780  0.0364 -0.7218 -0.4683
  113TMC2    C3 1756   0.769   0.869   0.753  0.4116 -0.2113 -0.4456
  113TMC2    C4 1757   1.020   0.857   0.644 -0.4633  0.1952 -0.6131
  113TMC2    C5 1758   0.924   0.763   0.622  0.4798 -0.5442 -0.7166
  113TMC2    C6 1759   0.799   0.763   0.670 -0.0381  0.1237  0.2957
  113TMC2     C 1760   1.084   1.046   0.791  0.3546  0.2745  0.2080
  113TMC2     O 1761   1.047   1.152   0.836  0.1082  0.7493 -0.1326
  113TMC2     H 1762   0.829   1.054   0.837  0.4831 -0.2608 -0.9361
  113TMC2    H1 1763   1.113   0.848   0.590 -0.9876  0.5250 -1.5533
  113TMC2    H2 1764   0.731   0.681   0.647  0.2056 -0.1601  0.5854
  113TMC2    C7 1765   0.969   0.638   0.565 -0.2454 -0.2146 -0.2515
  113TMC2    C8 1766   0.635   0.866   0.824  0.1928  0.0449  0.4282
  113TMC2    O1 1767   1.057   0.644   0.478 -0.5637 -0.1072  0.2303
  113TMC2    O2 1768   0.555   0.957   0.833  0.6249  0.2677 -0.2586
  113TMC2    O5 1769   0.599   0.744   0.868 -0.0013  0.5979 -0.0139
  113TMC2    H5 1770   0.675   0.685   0.850 -0.0936  1.0558 -1.9295
  114MPD2     C 1771   1.568   1.140   0.952 -0.2583  0.7449 -0.4626
  114MPD2    C1 1772   1.460   1.224   0.943  0.5065 -0.1622 -0.3940
  114MPD2    C2 1773   1.346   1.181   0.881  0.8724 -0.0197  0.5128
  114MPD2    C3 1774   1.329   1.047   0.850 -0.2651 -0.1151 -0.0382
  114MPD2    C4 1775   1.445   0.970   0.853  0.6722 -0.2380  0.4846
  114MPD2    C5 1776   1.560   1.016   0.905  0.2400  0.5689 -0.2395
  114MPD2     H 1777   1.267   1.254   0.868 -0.0776 -0.9788  0.8843
  114MPD2    H1 1778   1.437   0.867   0.822 -0.7085 -0.3770  1.3212
  114MPD2    H2 1779   1.670   1.162   0.983 -0.7559  0.7912  1.1083
  114MPD2    H3 1780   1.647   0.952   0.909 -0.8625 -0.8552  0.7775
  114MPD2     N 1781   1.208   0.994   0.800  0.3985 -0.7163 -0.6715
  114MPD2    H5 1782   1.227   0.900   0.765  0.7259  0.3904 -3.4897
  114MPD2    N1 1783   1.465   1.360   0.981 -0.2134 -0.5906  0.1384
  114MPD2    H7 1784   1.387   1.419   0.951 -0.4009 -1.2236 -0.6303
  115TMC2    C1 1785   2.109   4.452  17.611  0.4612  0.9139 -0.6413
  115TMC2    C2 1786   2.035   4.475  17.720  0.0808 -0.6229 -0.1882
  115TMC2    C3 1787   2.032   4.599   0.028  0.0311 -0.4237 -0.1641
  115TMC2    C4 1788   2.174   4.554  17.541 -0.2016 -0.1628 -0.1964
  115TMC2    C5 1789   2.146   4.683  17.584  0.5972 -0.3400 -0.2222
  115TMC2    C6 1790   2.080   4.708  17.704 -0.5684 -0.1818  0.2692
  115TMC2     C 1791   2.114   4.313  17.555 -0.2412 -0.0164 -0.7382
  115TMC2     O 1792   2.147   4.299  17.435  0.2863 -0.1991 -0.8837
  115TMC2     H 1793   1.966   4.402   0.018  0.5324 -0.8230  0.2232
  115TMC2    H1 1794   2.240   4.541  17.456  1.4620  0.4126  0.9901
  115TMC2    H2 1795   2.072   0.071   0.005 -1.3506  1.0761 -2.7589
  115TMC2    C7 1796   2.193   0.052  17.496  0.0642  0.3229  0.2242
  115TMC2    C8 1797   1.959   4.622   0.152  0.8011  0.2763  0.7574
  115TMC2    O1 1798   2.220   0.030  17.379 -0.0929  0.4335 -0.7801
  115TMC2    O2 1799   1.937   0.003   0.190 -0.1887 -0.7283 -0.4391
  115TMC2    O5 1800   1.994   4.521   0.227 -0.2567  0.2728 -0.2102
  115TMC2    H5 1801   2.034   4.439   0.190 -0.0014  0.9645 -1.4450
  116MPD2     C 1802   2.076   3.801  17.678 -0.5141  0.6489 -0.1632
  116MPD2    C1 1803   2.060   3.868  17.556  0.1712 -0.3000 -0.2146
  116MPD2    C2 1804   2.072   4.007  17.547 -0.1914 -0.8042  0.4118
  116MPD2    C3 1805   2.104   4.083  17.653  0.3228 -0.3468  0.0569
  116MPD2    C4 1806   2.126   4.017   0.030 -0.0388 -0.3361  0.1111
  116MPD2    C5 1807   2.109   3.881   0.042 -0.4293 -0.8503 -1.2587
  116MPD2     H 1808   2.065   4.057  17.451 -1.4119 -0.2694  0.7706
  116MPD2    H1 1809   2.149   4.076   0.118 -0.2247 -0.1926  0.0641
  116MPD2    H2 1810   2.060   3.696  17.699  0.8109  0.4284 -0.2727
  116MPD2    H3 1811   2.128   3.842   0.142 -0.6641  0.8425 -0.5572
  116MPD2     N 1812   2.120   4.222  17.656  0.0812  0.0687  0.3361
  116MPD2    H5 1813   2.120   4.260   0.008 -1.0033 -0.4225  0.5415
  116MPD2    N1 1814   2.061   3.793  17.440  0.5983  0.5383  0.3473
  116MPD2    H7 1815   2.035   3.849  17.360  0.2984 -0.5217 -0.2905
  117TMC2    C1 1816   0.490   0.989  13.640  0.0049 -0.8807 -0.0182
  117TMC2    C2 1817   0.603   0.932  13.596 -0.4303 -0.1593 -0.3336
  117TMC2    C3 1818   0.712   1.015  13.592 -0.5310 -0.1771 -0.0795
  117TMC2    C4 1819   0.479   1.124  13.673 -0.4032 -0.1714 -1.0308
  117TMC2    C5 1820   0.596   1.199  13.664  0.5276 -0.4699  0.2366
  117TMC2    C6 1821   0.717   1.145  13.636 -0.5357 -0.1919  0.2317
  117TMC2     C 1822   0.373   0.917  13.615 -0.7507  1.0447 -0.2055
  117TMC2     O 1823   0.383   0.795  13.595  0.6725 -0.0894  0.2273
  117TMC2     H 1824   0.606   0.830  13.557  1.6478  0.7987 -2.7287
  117TMC2    H1 1825   0.388   1.173  13.705 -0.5100 -0.9691 -0.1375
  117TMC2    H2 1826   0.803   1.208  13.619 -0.9896  0.2633 -0.3567
  117TMC2    C7 1827   0.609   1.336  13.712  0.2789 -0.3412 -1.1106
  117TMC2    C8 1828   0.837   0.963  13.533  0.4068  0.3340  0.9535
  117TMC2    O1 1829   0.719   1.385  13.728  0.1772  0.1118  0.3398
  117TMC2    O2 1830   0.837   0.896  13.434 -0.1110 -0.1428  0.3642
  117TMC2    O5 1831   0.942   1.034  13.584 -0.2458  0.1138 -0.2746
  117TMC2    H5 1832   0.928   1.035  13.681  0.7098 -0.3289 -0.1398
  118MPD2     C 1833   0.327   1.572  13.730  0.2732  0.0972 -0.5037
  118MPD2    C1 1834   0.456   1.532  13.732 -0.0673  0.1437  0.2570
  118MPD2    C2 1835   0.546   1.637  13.768 -0.1729 -0.1340 -0.1013
  118MPD2    C3 1836   0.505   1.768  13.790 -0.5244  0.3766  0.7353
  118MPD2    C4 1837   0.375   1.793  13.783 -0.4168 -0.3600 -0.0053
  118MPD2    C5 1838   0.284   1.695  13.750 -0.0046 -0.7263  0.5130
  118MPD2     H 1839   0.649   1.604  13.770 -0.2781 -0.4586  0.0146
  118MPD2    H1 1840   0.336   1.889  13.815 -0.6726 -0.9430  1.4187
  118MPD2    H2 1841   0.252   1.499  13.701 -1.4392  1.0019  1.6495
  118MPD2    H3 1842   0.179   1.719  13.744  1.0317  3.2408 -1.8953
  118MPD2     N 1843   0.590   1.877  13.809 -0.4011 -0.4258  0.3943
  118MPD2    H5 1844   0.548   1.968  13.825  1.6635  0.5687  0.2293
  118MPD2    N1 1845   0.487   1.402  13.700 -0.1732  0.4835 -0.5486
  118MPD2    H7 1846   0.408   1.349  13.665 -1.7970  2.4313  0.2028
  119TMC2    C1 1847   3.427   2.247  13.952  0.8354 -0.5856  0.2774
  119TMC2    C2 1848   3.473   2.280  13.830 -0.3883 -0.7943 -0.1056
  119TMC2    C3 1849   3.402   2.249  13.715 -1.2481 -0.0058 -0.6567
  119TMC2    C4 1850   3.318   2.164  13.966  0.1539  0.3273 -0.4287
  119TMC2    C5 1851   3.248   2.133  13.850 -0.6423  0.0191 -0.2307
  119TMC2    C6 1852   3.284   2.178  13.724  0.0445  0.7868 -0.5110
  119TMC2     C 1853   3.471   2.312  14.068 -0.0647 -0.6276  0.1777
  119TMC2     O 1854   3.417   2.270  14.173 -0.3241  0.1019  0.2976
  119TMC2     H 1855   3.571   2.326  13.821 -2.1092  3.0793  1.2244
  119TMC2    H1 1856   3.279   2.126  14.060 -0.0445  0.6997 -0.3562
  119TMC2    H2 1857   3.239   2.142  13.633 -0.2805 -0.0041 -0.0405
  119TMC2    C7 1858   3.125   2.062  13.859  0.3380 -0.2650  0.2368
  119TMC2    C8 1859   3.482   2.230  13.594 -0.4299  0.0976  0.7061
  119TMC2    O1 1860   3.042   2.101  13.779  0.2804  0.2595 -0.7721
  119TMC2    O2 1861   3.584   2.295  13.577 -0.7780  0.3037 -0.2110
  119TMC2    O5 1862   3.463   2.104  13.551 -0.1491  0.2769  0.0445
  119TMC2    H5 1863   3.384   2.057  13.584  0.0022  0.8612  1.2248
  120MPD2     C 1864   3.829   2.516  14.360  0.0303  0.5460  0.6445
  120MPD2    C1 1865   3.707   2.463  14.402  0.6549  0.0617 -0.0212
  120MPD2    C2 1866   3.619   2.431  14.298 -0.5693  0.0186 -0.0562
  120MPD2    C3 1867   3.659   2.443  14.166 -0.1101 -0.6951  0.5379
  120MPD2    C4 1868   3.775   2.502  14.133  0.7998  0.4385 -0.0556
  120MPD2    C5 1869   3.864   2.539  14.231 -0.1408 -0.7426 -0.9288
  120MPD2     H 1870   3.528   2.382  14.331 -0.5004 -0.9606 -1.2931
  120MPD2    H1 1871   3.798   2.528  14.030  1.6936 -0.8832 -0.1790
  120MPD2    H2 1872   3.903   2.552  14.431 -1.0188  1.9080  1.0420
  120MPD2    H3 1873   3.961   2.585  14.215  1.0699 -2.3520  1.8965
  120MPD2     N 1874   3.584   2.383  14.059 -0.1804  0.0671  0.3901
  120MPD2    H5 1875   3.636   2.391  13.972 -2.5685  0.9261 -0.9498
  120MPD2    N1 1876   3.680   2.449  14.539  0.6292  0.1659 -0.1328
  120MPD2    H7 1877   3.735   2.509  14.599 -1.9390  1.6301  0.7534
  121TMC2    C1 1878   0.804   3.549  14.084 -0.6649 -0.1107  0.7114
  121TMC2    C2 1879   0.756   3.522  14.203 -0.4081  0.1885  0.0782
  121TMC2    C3 1880   0.638   3.569  14.247  0.3586  0.3001  0.3075
  121TMC2    C4 1881   0.723   3.611  13.987  0.5292  0.1838  0.0623
  121TMC2    C5 1882   0.596   3.638  14.029  0.2754 -0.6478 -0.4959
  121TMC2    C6 1883   0.552   3.622  14.156  0.1182  0.1106 -0.8331
  121TMC2     C 1884   0.940   3.509  14.060  0.6733 -0.1719  0.3835
  121TMC2     O 1885   0.999   3.433  14.137  0.2287 -0.4389 -0.5272
  121TMC2     H 1886   0.811   3.468  14.280  1.7511  2.6762  0.2893
  121TMC2    H1 1887   0.750   3.633  13.884  0.1787 -0.2586 -0.1199
  121TMC2    H2 1888   0.460   3.660  14.199  0.2920 -0.6030  0.1682
  121TMC2    C7 1889   0.512   3.715  13.944  0.0478  0.4206  0.7046
  121TMC2    C8 1890   0.593   3.531  14.382 -0.2009  1.0195  0.4464
  121TMC2    O1 1891   0.558   3.823  13.910  0.5028  0.1947  0.0717
  121TMC2    O2 1892   0.489   3.482  14.419 -0.4334 -0.1405 -0.2919
  121TMC2    O5 1893   0.698   3.585  14.455 -0.1355  0.5177 -0.2039
  121TMC2    H5 1894   0.773   3.627  14.408  0.0725 -0.1532 -0.4711
  122MPD2     C 1895   1.219   3.463  13.962  0.4432 -0.5216 -0.2266
  122MPD2    C1 1896   1.128   3.555  13.909 -0.4248 -0.2656  0.0854
  122MPD2    C2 1897   1.158   3.618  13.792  0.2514  0.0870 -0.1812
  122MPD2    C3 1898   1.281   3.608  13.741 -0.1305 -0.7066 -0.7473
  122MPD2    C4 1899   1.371   3.520  13.799  0.9874  0.0149 -0.2097
  122MPD2    C5 1900   1.338   3.452  13.907 -0.2876 -0.4787 -0.0823
  122MPD2     H 1901   1.082   3.680  13.747 -0.2588 -0.1778  0.3047
  122MPD2    H1 1902   1.474   3.513  13.764  0.9614 -0.5942 -0.1614
  122MPD2    H2 1903   1.195   3.408  14.052  2.0738  1.0837  1.1832
  122MPD2    H3 1904   1.406   3.380  13.952  1.8867  0.9082 -1.1290
  122MPD2     N 1905   1.310   3.689  13.632 -0.0210 -0.4220 -0.6008
  122MPD2    H5 1906   1.240   3.757  13.603  0.1292 -0.6806 -1.5967
  122MPD2    N1 1907   1.000   3.581  13.955 -0.2994 -0.7697 -0.8528
  122MPD2    H7 1908   0.941   3.646  13.905 -0.1758  0.2330  0.2959
  123TMC2    C1 1909   3.414   2.302  10.306 -0.2884 -0.4582 -0.5414
  123TMC2    C2 1910   3.479   2.419  10.352  0.1029 -0.3026  0.0380
  123TMC2    C3 1911   3.586   2.464  10.271 -0.0418 -0.6399 -0.1521
  123TMC2    C4 1912   3.467   2.234  10.196  0.4275  0.2926 -0.5107
  123TMC2    C5 1913   3.574   2.280  10.127  0.5201 -0.4057 -0.1328
  123TMC2    C6 1914   3.637   2.400  10.157  0.4041  0.3724 -0.4773
  123TMC2     C 1915   3.347   2.226  10.410  0.3105  0.2336 -0.0588
  123TMC2     O 1916   3.381   2.255  10.525  0.0444 -0.2006 -0.6176
  123TMC2     H 1917   3.456   2.461  10.449 -0.2213 -1.4062  0.4404
  123TMC2    H1 1918   3.411   2.151  10.155  1.8478 -1.3166  0.8173
  123TMC2    H2 1919   3.723   2.437  10.102 -2.1386  3.2360 -2.5739
  123TMC2    C7 1920   3.623   2.185  10.026 -0.1577 -0.0383 -0.3517
  123TMC2    C8 1921   3.649   2.580  10.307 -0.1470 -0.7372 -0.3636
  123TMC2    O1 1922   3.584   2.065  10.031  0.2562 -0.1012 -0.4700
  123TMC2    O2 1923   3.760   2.615  10.264  0.2774 -0.1252 -0.0954
  123TMC2    O5 1924   3.561   2.665  10.358  0.1829  0.2712  0.8178
  123TMC2    H5 1925   3.470   2.629  10.357 -0.1268  1.1951 -3.2412
  124MPD2     C 1926   3.112   1.790  10.576 -0.6929 -0.1143 -0.6339
  124MPD2    C1 1927   3.106   1.797  10.441 -0.3027  0.0711  0.7388
  124MPD2    C2 1928   3.157   1.911  10.379 -0.5449  0.8914 -0.1451
  124MPD2    C3 1929   3.228   2.006  10.444 -0.3338  0.6588  0.3459
  124MPD2    C4 1930   3.222   2.002  10.584 -0.4332  0.5656 -0.4525
  124MPD2    C5 1931   3.166   1.897  10.652  0.3312  0.3750  0.1875
  124MPD2     H 1932   3.154   1.918  10.270 -2.5498  1.2181 -0.0674
  124MPD2    H1 1933   3.267   2.078  10.646 -0.4166  0.5816 -0.4840
  124MPD2    H2 1934   3.073   1.704  10.629 -1.6558  0.8841  0.2905
  124MPD2    H3 1935   3.178   1.890  10.759  0.1237 -0.8224  0.1400
  124MPD2     N 1936   3.278   2.115  10.366  0.1382 -0.4457  0.1990
  124MPD2    H5 1937   3.274   2.108  10.265 -0.7351  0.3589  0.1790
  124MPD2    N1 1938   3.034   1.692  10.380 -0.0481  0.4335 -0.7606
  124MPD2    H7 1939   3.023   1.607  10.434 -0.1339  0.0528 -1.3896
  125TMC2    C1 1940   4.155   3.744   9.322  0.2084  0.1819 -0.2890
  125TMC2    C2 1941   4.191   3.864   9.269  0.4179 -0.0379  0.5402
  125TMC2    C3 1942   4.316   3.873   9.219 -0.5787  0.0746 -0.4900
  125TMC2    C4 1943   4.239   3.634   9.324 -0.1290  0.4032  0.3196
  125TMC2    C5 1944   4.357   3.644   9.254  0.0279 -0.0297 -0.2498
  125TMC2    C6 1945   4.397   3.763   9.200 -0.0863  0.1070  0.7221
  125TMC2     C 1946   4.031   3.733   9.389  0.0043  0.0122  0.8411
  125TMC2     O 1947   3.960   3.834   9.391 -0.0046 -0.3166 -0.4251
  125TMC2     H 1948   4.117   3.942   9.258  0.2826 -0.2820 -0.2921
  125TMC2    H1 1949   4.226   3.546   9.386  2.4537 -0.5445 -0.5318
  125TMC2    H2 1950   4.483   3.775   9.136  1.2510  1.1983  2.7363
  125TMC2    C7 1951   4.438   3.521   9.246 -0.2006 -0.4360 -0.4804
  125TMC2    C8 1952   4.340   3.997   9.143 -0.1423  0.0150  0.2487
  125TMC2    O1 1953   4.398   3.415   9.283 -0.4701 -0.5444  0.6019
  125TMC2    O2 1954   4.392   3.992   9.029  0.2766  0.3744 -0.5741
  125TMC2    O5 1955   4.317   4.099   9.224  0.6036  0.0543  0.2384
  125TMC2    H5 1956   4.264   4.077   9.304 -2.0594  2.4429 -0.8723
  126MPD1     C 1957   3.691   3.473   9.662 -0.0792  0.2881  0.3698
  126MPD1    C1 1958   3.720   3.401   9.553  0.3044 -0.6967 -0.3497
  126MPD1    C2 1959   3.829   3.444   9.477 -0.1988 -0.2965 -0.2677
  126MPD1    C3 1960   3.879   3.574   9.491 -0.3903  0.1793  0.3636
  126MPD1    C4 1961   3.833   3.648   9.597 -0.5636 -0.2436 -0.4438
  126MPD1    C5 1962   3.742   3.595   9.684  0.9351  0.2228  0.1843
  126MPD1     H 1963   3.870   3.384   9.396  1.8420  0.5015  0.1808
  126MPD1    H1 1964   3.875   3.747   9.609 -0.6427 -0.5935  2.8239
  126MPD1    H2 1965   3.617   3.436   9.733  1.4932  0.2044  1.9665
  126MPD1    H3 1966   3.699   3.656   9.762  0.3702 -1.8321  1.4871
  126MPD1     N 1967   3.983   3.609   9.400 -0.2773 -0.1575 -0.1719
  126MPD1    H5 1968   4.030   3.532   9.354  3.5654  1.5500  0.8658
  126MPD1    N1 1969   3.669   3.267   9.536 -0.0082 -0.1290  0.2740
  126MPD1    H6 1970   3.579   3.253   9.583 -0.0719 -0.8435 -0.0653
  126MPD1    H7 1971   3.651   3.240   9.440 -0.3076 -1.2289  0.6377
  127TMC2    C1 1972   0.615   2.021   9.753  0.5228 -0.1372  1.1740
  127TMC2    C2 1973   0.614   1.938   9.856 -0.5409  0.0513  0.2806
  127TMC2    C3 1974   0.539   1.827   9.833  0.5371 -0.2194  0.3922
  127TMC2    C4 1975   0.551   1.992   9.635  0.6743 -0.0992  0.2485
  127TMC2    C5 1976   0.470   1.880   9.627 -0.0371 -0.6034  0.1749
  127TMC2    C6 1977   0.471   1.789   9.723  0.5807 -0.7102 -0.2549
  127TMC2     C 1978   0.682   2.143   9.761  0.1584  0.1035  0.3098
  127TMC2     O 1979   0.737   2.158   9.868  0.0800 -0.5984 -0.1266
  127TMC2     H 1980   0.673   1.953   9.946  0.3973  0.5942 -0.4281
  127TMC2    H1 1981   0.524   2.076   9.573 -0.1912 -0.9431 -0.5056
  127TMC2    H2 1982   0.426   1.691   9.713 -0.3147 -0.5048  1.7935
  127TMC2    C7 1983   0.393   1.853   9.505  0.1063 -0.4185  0.3820
  127TMC2    C8 1984   0.568   1.710   9.912 -0.0598  0.7085  0.6606
  127TMC2    O1 1985   0.417   1.923   9.410  0.1638 -0.0739 -0.2379
  127TMC2    O2 1986   0.563   1.596   9.869  0.1745  0.1532 -0.5135
  127TMC2    O5 1987   0.583   1.744  10.044 -0.1930  0.0316 -0.2164
  127TMC2    H5 1988   0.557   1.836  10.065  2.9004  0.3782  2.1378
  128MPD2     C 1989   0.823   2.319   9.469  0.2909 -0.2905  0.7671
  128MPD2    C1 1990   0.779   2.314   9.598  0.2144  0.1703  0.0295
  128MPD2    C2 1991   0.817   2.409   9.690  0.3714 -0.3145  0.6237
  128MPD2    C3 1992   0.883   2.524   9.650 -0.0875 -0.4232  0.8645
  128MPD2    C4 1993   0.915   2.534   9.518  0.5054  0.2181 -0.2113
  128MPD2    C5 1994   0.896   2.431   9.430 -0.4393 -0.4400 -0.1328
  128MPD2     H 1995   0.778   2.408   9.791  0.6250 -3.2435  0.6860
  128MPD2    H1 1996   0.970   2.621   9.483  0.8475  0.2380  0.3934
  128MPD2    H2 1997   0.784   2.255   9.390  0.5239 -0.5269  0.8416
  128MPD2    H3 1998   0.935   2.437   9.329  0.4130  1.3672  0.2940
  128MPD2     N 1999   0.931   2.619   9.750  0.6644 -0.1470  0.8864
  128MPD2    H5 2000   0.925   2.586   9.846 -0.6611 -1.2537  0.4361
  128MPD2    N1 2001   0.705   2.194   9.632  0.5151  0.8866 -0.7993
  128MPD2    H7 2002   0.679   2.133   9.556  1.3316 -0.9782  0.4044
  129TMC2    C1 2003   3.168   3.937   1.167  0.2413  0.0949 -0.7194
  129TMC2    C2 2004   3.235   3.957   1.056 -0.6172  0.3248  0.3324
  129TMC2    C3 2005   3.231   3.856   0.968  0.6147  0.0183 -0.1504
  129TMC2    C4 2006   3.114   3.819   1.206  0.7174  0.1974  0.1807
  129TMC2    C5 2007   3.111   3.718   1.115 -0.7419  0.5498  0.2952
  129TMC2    C6 2008   3.179   3.732   1.002  0.7068  0.8848  0.0187
  129TMC2     C 2009   3.132   4.050   1.247  0.0200 -0.6301  0.2833
  129TMC2     O 2010   3.044   4.039   1.330  0.0009  0.4214  1.0170
  129TMC2     H 2011   3.251   4.055   1.014  0.8434  0.1480  0.4789
  129TMC2    H1 2012   3.060   3.813   1.300 -1.8074 -1.3604 -1.3752
  129TMC2    H2 2013   3.189   3.655   0.927 -1.1334  0.6712 -0.0159
  129TMC2    C7 2014   3.032   3.597   1.139  0.3746  0.2416 -0.4315
  129TMC2    C8 2015   3.289   3.878   0.841  0.6462  0.3176 -0.3791
  129TMC2    O1 2016   3.029   3.503   1.059  0.4886 -0.0881 -0.3154
  129TMC2    O2 2017   3.262   3.976   0.771 -0.0110  0.2385  0.5913
  129TMC2    O5 2018   3.415   3.822   0.853  0.8189 -0.1697 -0.7403
  129TMC2    H5 2019   3.421   3.744   0.913  0.9879  0.8871  0.6256
  130MPD2     C 2020   3.086   4.333   1.343 -0.1852 -0.3694  0.1499
  130MPD2    C1 2021   3.198   4.285   1.275 -0.2363 -0.5049  0.1587
  130MPD2    C2 2022   3.302   4.376   1.259 -0.4980 -0.1946  0.4117
  130MPD2    C3 2023   3.299   4.496   1.322 -0.4318  0.2965 -0.1737
  130MPD2    C4 2024   3.186   4.545   1.382  0.8149 -0.2959  0.5429
  130MPD2    C5 2025   3.083   4.459   1.389 -0.0237  0.5932  0.1083
  130MPD2     H 2026   3.394   4.351   1.207 -1.9171  1.0158 -2.6614
  130MPD2    H1 2027   3.184   4.640   1.434 -1.4903 -0.1684  0.1870
  130MPD2    H2 2028   2.996   4.276   1.360 -1.1277  0.0009 -3.4956
  130MPD2    H3 2029   2.996   4.492   1.443 -0.2022 -0.5346  0.5199
  130MPD2     N 2030   3.409   4.587   1.317 -0.0232  0.0383  0.1040
  130MPD2    H5 2031   3.493   4.546   1.275 -1.1238 -3.3162  1.1284
  130MPD2    N1 2032   3.213   4.153   1.224 -0.4086  0.2109 -0.0861
  130MPD2    H7 2033   3.295   4.139   1.166 -0.7253  2.0157 -0.9433
  131TMC2    C1 2034   3.176   2.289   9.741  0.3676 -0.5742  0.2771
  131TMC2    C2 2035   3.099   2.367   9.663  0.5548  0.3083  0.4776
  131TMC2    C3 2036   3.145   2.486   9.632  0.7260  0.1626 -1.0305
  131TMC2    C4 2037   3.294   2.338   9.791 -0.4065  0.4868  0.1950
  131TMC2    C5 2038   3.328   2.467   9.768 -0.5599 -0.4311 -0.2693
  131TMC2    C6 2039   3.253   2.545   9.689 -0.3246 -0.2814 -0.0667
  131TMC2     C 2040   3.133   2.146   9.763  0.6865 -0.0253 -0.2213
  131TMC2     O 2041   3.214   2.075   9.822 -0.2051 -0.0362 -0.4835
  131TMC2     H 2042   2.999   2.345   9.628  1.6231 -1.7290 -1.2979
  131TMC2    H1 2043   3.356   2.273   9.852  2.4260  0.9219 -2.2094
  131TMC2    H2 2044   3.279   2.646   9.660  0.3392 -0.6020 -0.5989
  131TMC2    C7 2045   3.468   2.499   9.798 -0.2920 -0.3841 -0.1026
  131TMC2    C8 2046   3.078   2.574   9.530 -0.4211  0.4030  0.2164
  131TMC2    O1 2047   3.533   2.399   9.791  0.1456  0.1880  0.3504
  131TMC2    O2 2048   3.090   2.695   9.540 -0.3834  0.1641  0.1949
  131TMC2    O5 2049   2.968   2.511   9.476 -0.3878  0.6353 -0.1240
  131TMC2    H5 2050   2.979   2.417   9.452  0.4245  0.4329  1.0643
  132MPD2     C 2051   2.927   1.941   9.535  0.6123 -0.1908  0.4968
  132MPD2    C1 2052   2.984   1.975   9.657  0.0247 -0.0256 -0.1080
  132MPD2    C2 2053   2.994   1.883   9.763 -0.2438 -0.0017  0.0884
  132MPD2    C3 2054   2.938   1.757   9.750 -0.6792  0.2749  0.3724
  132MPD2    C4 2055   2.867   1.736   9.634  0.2540 -0.1308 -0.4276
  132MPD2    C5 2056   2.867   1.822   9.526  0.0639  0.7230 -0.0346
  132MPD2     H 2057   3.045   1.914   9.853 -1.1122  0.2276  0.5004
  132MPD2    H1 2058   2.819   1.639   9.625 -0.5665  0.1001  1.5124
  132MPD2    H2 2059   2.922   2.005   9.448  0.3334 -0.7113  0.1283
  132MPD2    H3 2060   2.820   1.790   9.433  0.1067  0.6760 -0.0399
  132MPD2     N 2061   2.954   1.665   9.856  0.8550 -0.4710  0.1701
  132MPD2    H5 2062   3.000   1.698   9.941  1.1069 -0.7789  0.1558
  132MPD2    N1 2063   3.040   2.105   9.667  0.0539 -0.1559  0.1440
  132MPD2    H7 2064   3.010   2.172   9.597  0.5893  2.9116  2.8723
  133TMC2    C1 2065   2.184   3.925   9.122  0.6493  0.2255  0.6273
  133TMC2    C2 2066   2.257   3.999   9.204  0.3384  0.6013  0.4889
  133TMC2    C3 2067   2.198   4.115   9.256  0.3611  0.2108 -0.8601
  133TMC2    C4 2068   2.054   3.943   9.091  0.0616 -0.2785  0.3204
  133TMC2    C5 2069   1.996   4.051   9.151  0.3779 -0.4547  1.1922
  133TMC2    C6 2070   2.063   4.138   9.235  1.0770 -0.4665 -0.0438
  133TMC2     C 2071   2.239   3.807   9.050 -0.3312 -0.0776  0.6383
  133TMC2     O 2072   2.158   3.721   9.017 -0.0773  0.0281  0.6283
  133TMC2     H 2073   2.363   3.979   9.207 -0.0841 -1.9628 -2.1047
  133TMC2    H1 2074   1.996   3.877   9.027  0.2285  2.3963 -2.5904
  133TMC2    H2 2075   2.022   4.220   9.293  0.9997  0.2430 -1.0892
  133TMC2    C7 2076   1.857   4.085   9.111 -0.2556 -0.7717  0.3502
  133TMC2    C8 2077   2.285   4.226   9.300  0.4448 -0.7887  0.9545
  133TMC2    O1 2078   1.807   3.992   9.052  0.0263  0.0605  0.1813
  133TMC2    O2 2079   2.384   4.208   9.365 -0.2852 -0.5272  0.8981
  133TMC2    O5 2080   2.244   4.336   9.241  0.2721 -0.6038  0.7085
  133TMC2    H5 2081   2.177   4.321   9.171 -1.3841 -1.5364  2.5080
  134MPD2     C 2082   2.554   3.750   8.888  0.5721  0.8145  0.9607
  134MPD2    C1 2083   2.438   3.709   8.953  0.2407  0.6177  0.1017
  134MPD2    C2 2084   2.392   3.581   8.954  0.0928 -0.6125 -0.3040
  134MPD2    C3 2085   2.474   3.485   8.907  0.7733  0.3206  0.1297
  134MPD2    C4 2086   2.587   3.524   8.840  0.3491  0.2482  0.1320
  134MPD2    C5 2087   2.628   3.657   8.822 -0.4245 -0.3856 -0.3316
  134MPD2     H 2088   2.306   3.556   9.016 -1.1230  0.0617 -1.7106
  134MPD2    H1 2089   2.657   3.452   8.800  1.4907  1.4919 -0.1134
  134MPD2    H2 2090   2.575   3.856   8.886 -0.2706  0.9768  0.9628
  134MPD2    H3 2091   2.726   3.681   8.783 -0.5618 -1.7211 -1.5493
  134MPD2     N 2092   2.451   3.349   8.930 -0.8111  0.7771  0.1380
  134MPD2    H5 2093   2.357   3.325   8.957 -0.6345 -1.4943 -1.2433
  134MPD2    N1 2094   2.373   3.815   9.015 -0.2096 -0.4644 -0.2335
  134MPD2    H7 2095   2.417   3.907   9.014 -1.0309 -0.0725 -1.1312
  135TMC2    C1 2096   4.697   4.157   9.668 -0.1023  0.5109 -0.6256
  135TMC2    C2 2097   4.619   4.198   9.776 -0.1375 -0.0525  0.6290
  135TMC2    C3 2098   4.626   4.121   9.893  0.8856  0.3431  0.0291
  135TMC2    C4 2099   0.044   4.051   9.685  0.1241 -0.6979 -0.2965
  135TMC2    C5 2100   0.021   3.970   9.794  0.3059 -0.3506  0.4409
  135TMC2    C6 2101   4.691   4.005   9.904 -0.8456  0.7342 -0.1963
  135TMC2     C 2102   4.651   4.184   9.536  0.0723 -0.2790  0.0535
  135TMC2     O 2103   4.529   4.208   9.529 -0.0866 -0.1229  0.6249
  135TMC2     H 2104   4.537   4.268   9.768 -0.2850 -0.2405  0.4912
  135TMC2    H1 2105   0.108   4.013   9.607  0.8309  0.4097 -0.2503
  135TMC2    H2 2106   4.686   3.952   9.999  1.3305 -2.1428 -1.7082
  135TMC2    C7 2107   0.089   3.837   9.798  0.0086 -0.7020 -0.9964
  135TMC2    C8 2108   4.514   4.129   9.988  0.0443 -0.1395 -0.0911
  135TMC2    O1 2109   0.169   3.815   9.710  0.0111  0.1358  0.0524
  135TMC2    O2 2110   4.471   4.035  10.052 -0.3121  0.0325  0.3505
  135TMC2    O5 2111   4.468   4.254  10.001  0.0608 -0.1187 -0.4323
  135TMC2    H5 2112   4.527   4.320   9.958 -1.9028  1.4466 -0.6987
  136MPD2     C 2113   4.638   4.244   9.242  0.1172  0.0516  0.0484
  136MPD2    C1 2114   0.020   4.219   9.310  0.1941 -0.3840  0.4765
  136MPD2    C2 2115   0.136   4.191   9.247 -0.0463 -0.3620  0.0093
  136MPD2    C3 2116   0.151   4.195   9.105  0.2434 -0.3158 -0.4755
  136MPD2    C4 2117   0.038   4.217   9.034 -0.0551 -0.5057  0.2356
  136MPD2    C5 2118   4.652   4.239   9.101 -0.5937  0.5248  0.2035
  136MPD2     H 2119   0.218   4.169   9.315  0.3403  0.2320 -0.2689
  136MPD2    H1 2120   0.039   4.222   8.926  0.0743 -0.1539  0.2522
  136MPD2    H2 2121   4.541   4.258   9.290  0.8523 -0.2313  1.6134
  136MPD2    H3 2122   4.563   4.253   9.040  0.0127  1.0642 -0.5686
  136MPD2     N 2123   0.267   4.155   9.037  0.6395 -0.0514  0.6474
  136MPD2    H5 2124   0.262   4.145   8.936  1.7735 -2.4970  0.8337
  136MPD2    N1 2125   0.022   4.201   9.452  0.1051 -0.1086  0.4712
  136MPD2    H7 2126   0.110   4.178   9.498  0.7135 -0.8466 -1.0515
  137TMC2    C1 2127   0.055   3.316   9.538 -0.2408  0.1359  0.2814
  137TMC2    C2 2128   0.188   3.355   9.538  0.2650  0.4098 -0.1314
  137TMC2    C3 2129   0.199   3.491   9.523 -0.3937 -0.0825 -0.1475
  137TMC2    C4 2130   4.686   3.397   9.540 -0.3293 -0.2426 -0.3896
  137TMC2    C5 2131   4.706   3.527   9.521 -0.4594 -0.3154  0.1644
  137TMC2    C6 2132   0.098   3.576   9.510 -0.1894 -0.3146 -0.5074
  137TMC2     C 2133   0.029   3.172   9.543 -0.3953 -0.5830 -0.6356
  137TMC2     O 2134   4.660   3.138   9.595  0.0199 -0.5461 -0.2659
  137TMC2     H 2135   0.269   3.283   9.547 -0.2957  0.0765  2.1579
  137TMC2    H1 2136   4.589   3.351   9.529 -0.4116  0.4566 -2.6158
  137TMC2    H2 2137   0.118   3.682   9.514  1.2894 -0.6361  0.6225
  137TMC2    C7 2138   4.605   3.626   9.567  0.1885 -0.0613 -0.3120
  137TMC2    C8 2139   0.336   3.533   9.507 -0.0954 -0.0905  0.3642
  137TMC2    O1 2140   4.635   3.744   9.547  0.1395  0.4708 -0.3163
  137TMC2    O2 2141   0.421   3.449   9.476 -0.0290 -0.0336 -0.0378
  137TMC2    O5 2142   0.348   3.638   9.588  0.0533  0.2481  0.4319
  137TMC2    H5 2143   0.262   3.670   9.624  0.3766  1.2453  0.3198
  138MPD2     C 2144   0.218   2.904   9.361  0.7236  0.4728 -0.1447
  138MPD2    C1 2145   0.145   2.959   9.469 -0.4264  0.7494 -0.7720
  138MPD2    C2 2146   0.084   2.873   9.562 -0.2695 -0.1614  0.3684
  138MPD2    C3 2147   0.092   2.736   9.550 -0.0585 -0.0845  0.2145
  138MPD2    C4 2148   0.153   2.684   9.443 -0.5266 -0.1725 -0.4428
  138MPD2    C5 2149   0.217   2.768   9.358 -0.6854 -0.2504 -0.3868
  138MPD2     H 2150   0.025   2.917   9.641 -2.7783 -4.0263  0.6805
  138MPD2    H1 2151   0.164   2.578   9.423  0.3297 -0.3438  0.9338
  138MPD2    H2 2152   0.260   2.957   9.277  0.0305  1.6499  0.2624
  138MPD2    H3 2153   0.263   2.727   9.269 -1.1139  0.6399 -1.0125
  138MPD2     N 2154   0.029   2.659   9.650  0.0793 -0.3211 -0.3570
  138MPD2    H5 2155   4.717   2.720   9.715  0.2068 -0.3541 -0.2307
  138MPD2    N1 2156   0.123   3.101   9.474  0.6866 -0.5339  0.3326
  138MPD2    H7 2157   0.186   3.157   9.417 -0.7444 -1.5040 -2.2254
  139TMC2    C1 2158   0.074   1.745  13.042 -0.1760  0.1994 -0.0917
  139TMC2    C2 2159   4.713   1.678  12.973  0.2210 -0.1245 -0.4335
  139TMC2    C3 2160   4.585   1.710  12.995 -0.0717  0.6499 -0.0258
  139TMC2    C4 2161   0.044   1.833  13.142  0.0395 -0.2464  0.3285
  139TMC2    C5 2162   4.648   1.855  13.164 -0.2095 -0.5400 -0.0318
  139TMC2    C6 2163   4.543   1.796  13.097  0.2255 -0.7547  0.0562
  139TMC2     C 2164   0.207   1.686  13.048  0.0817  0.8460 -0.5361
  139TMC2     O 2165   0.261   1.645  12.945 -0.6580  0.6939 -0.3469
  139TMC2     H 2166   4.732   1.626  12.880  1.3945 -0.4095 -0.0442
  139TMC2    H1 2167   0.128   1.894  13.172  0.6316 -1.2031  0.6194
  139TMC2    H2 2168   4.439   1.809  13.126 -0.1231  0.4613 -1.7344
  139TMC2    C7 2169   4.608   1.951  13.271 -0.2018 -0.4724 -1.2144
  139TMC2    C8 2170   4.488   1.625  12.929  1.0025  0.2258 -0.0896
  139TMC2    O1 2171   4.503   2.016  13.253  0.0433 -0.0508 -0.1352
  139TMC2    O2 2172   4.525   1.525  12.867  0.5702  0.1670 -0.1583
  139TMC2    O5 2173   4.369   1.693  12.922 -0.3062  0.4300 -0.0618
  139TMC2    H5 2174   4.374   1.785  12.955 -1.5387  0.9718 -1.3733
  140MPD2     C 2175   0.405   1.672  13.356  0.4394  0.2063  0.1838
  140MPD2    C1 2176   0.362   1.629  13.230  0.1341 -0.2901  0.6953
  140MPD2    C2 2177   0.440   1.533  13.164 -0.1374  0.5019  0.0588
  140MPD2    C3 2178   0.557   1.483  13.220  0.8107 -0.4750 -0.5434
  140MPD2    C4 2179   0.593   1.524  13.346  0.0497  0.1154  0.3482
  140MPD2    C5 2180   0.516   1.613  13.410  0.6491  0.3441  0.0281
  140MPD2     H 2181   0.399   1.502  13.068  2.2320 -1.4262 -0.3198
  140MPD2    H1 2182   0.674   1.483  13.405  0.8070  1.3489  0.1615
  140MPD2    H2 2183   0.346   1.744  13.411 -0.3492  0.7983 -1.4445
  140MPD2    H3 2184   0.537   1.631  13.515  0.9759  1.6659 -0.2539
  140MPD2     N 2185   0.625   1.385  13.148 -0.0471 -0.4222  0.1629
  140MPD2    H5 2186   0.610   1.389  13.047  2.0958 -0.5467 -0.1487
  140MPD2    N1 2187   0.248   1.688  13.177  0.0458 -0.3493 -0.4231
  140MPD2    H7 2188   0.196   1.746  13.242  0.1323 -0.3011 -0.3961
  141TMC2    C1 2189   0.801   2.886  14.340  0.2026  0.1335 -0.3003
  141TMC2    C2 2190   0.672   2.877  14.378  0.2902 -0.1734  0.1362
  141TMC2    C3 2191   0.656   2.900  14.515 -0.4973 -0.0624 -0.2152
  141TMC2    C4 2192   0.890   2.968  14.412  0.1636 -0.0619  0.3815
  141TMC2    C5 2193   0.840   3.035  14.523  0.0648  0.0792 -0.6408
  141TMC2    C6 2194   0.720   3.000  14.584 -0.3052  0.3233 -0.6393
  141TMC2     C 2195   0.819   2.886  14.200  0.0625  0.2431  0.5786
  141TMC2     O 2196   0.718   2.921  14.141  0.6143 -0.0793 -0.3590
  141TMC2     H 2197   0.600   2.807  14.338  0.8814  0.4839 -2.0840
  141TMC2    H1 2198   0.984   2.993  14.366 -0.1264  0.9299  0.3295
  141TMC2    H2 2199   0.685   3.053  14.673 -3.0805 -2.1936 -0.2378
  141TMC2    C7 2200   0.897   3.161  14.564  0.0323  0.4796 -0.2140
  141TMC2    C8 2201   0.539   2.854  14.588 -0.6324 -0.2951  0.4047
  141TMC2    O1 2202   0.875   3.201  14.678  0.1355 -0.4666 -0.1665
  141TMC2    O2 2203   0.437   2.815  14.537 -0.3753 -0.3617  0.1438
  141TMC2    O5 2204   0.581   2.819  14.708  0.2542  0.0638 -0.1873
  141TMC2    H5 2205   0.667   2.860  14.730 -0.3078  0.9594  0.3565
  142TMC2    C1 2206   3.573   1.442   9.578  0.2970  0.9192  0.0503
  142TMC2    C2 2207   3.617   1.420   9.456  1.0644 -0.1638 -0.0651
  142TMC2    C3 2208   3.683   1.521   9.395  0.2544  0.0653 -0.2267
  142TMC2    C4 2209   3.588   1.561   9.642 -0.0988  0.5650 -0.1954
  142TMC2    C5 2210   3.662   1.656   9.587  0.0754  0.3476 -0.2492
  142TMC2    C6 2211   3.705   1.641   9.457  0.9267  0.0935 -0.4583
  142TMC2     C 2212   3.470   1.352   9.625  0.5588  0.2894  0.0428
  142TMC2     O 2213   3.432   1.276   9.537 -0.5056 -0.8009 -0.9377
  142TMC2     H 2214   3.617   1.321   9.412  0.4803 -0.1649 -0.0563
  142TMC2    H1 2215   3.547   1.574   9.741  1.0236 -1.6459  0.5654
  142TMC2    H2 2216   3.751   1.727   9.410  0.6437  0.4094 -0.1574
  142TMC2    C7 2217   3.681   1.776   9.664 -0.1628 -0.2293  0.7827
  142TMC2    C8 2218   3.701   1.510   9.253  0.1220 -0.2224 -0.1063
  142TMC2    O1 2219   3.617   1.792   9.766 -0.1761 -0.3286 -0.1864
  142TMC2    O2 2220   3.795   1.555   9.190  0.3691  0.4577  0.6579
  142TMC2    O5 2221   3.595   1.444   9.194 -0.7097  0.2909 -0.6313
  142TMC2    H5 2222   3.528   1.432   9.264 -0.0631  0.8344  0.0871
  143MPD2     C 2223   3.124   1.189   9.963 -0.1003  0.1035 -0.2475
  143MPD2    C1 2224   3.126   1.173   9.830  0.1023 -0.2125 -0.8238
  143MPD2    C2 2225   3.231   1.227   9.756 -0.6201 -0.4937  0.2573
  143MPD2    C3 2226   3.337   1.290   9.821 -0.4675 -0.9062 -0.3572
  143MPD2    C4 2227   3.332   1.305   9.960 -0.2366 -0.6276  0.1409
  143MPD2    C5 2228   3.228   1.251  10.028 -0.3054 -0.1778 -0.1638
  143MPD2     H 2229   3.221   1.222   9.648 -0.7237 -2.3982  0.3504
  143MPD2    H1 2230   3.409   1.354  10.018 -0.2906 -1.1027  0.6209
  143MPD2    H2 2231   3.028   1.171  10.009 -0.3538 -1.1333 -1.2641
  143MPD2    H3 2232   3.211   1.263  10.135  1.9397 -0.6542  0.2466
  143MPD2     N 2233   3.453   1.346   9.759  0.4560 -0.4182 -0.6036
  143MPD2    H5 2234   3.515   1.405   9.813  0.7366 -0.8658 -0.4322
  143MPD2    N1 2235   3.012   1.106   9.770 -0.1088  0.0821 -0.1275
  143MPD2    H7 2236   2.937   1.074   9.831 -0.3866 -1.6580 -1.3557
  144TMC2    C1 2237   2.253   0.577   0.507 -0.2493  0.3247 -0.0629
  144TMC2    C2 2238   2.303   0.495   0.411  0.0620 -0.4201  0.1767
  144TMC2    C3 2239   2.405   0.550   0.340  0.1581  0.1241 -0.2023
  144TMC2    C4 2240   2.322   0.684   0.552 -0.6157 -1.3019 -0.5183
  144TMC2    C5 2241   2.422   0.731   0.483  0.0315 -0.1337 -0.8947
  144TMC2    C6 2242   2.470   0.662   0.380  0.2199  0.3805  0.3722
  144TMC2     C 2243   2.112   0.554   0.546 -0.0323  0.2331  0.2395
  144TMC2     O 2244   2.056   0.459   0.496 -0.1940 -0.2668 -0.0502
  144TMC2     H 2245   2.256   0.401   0.384  2.0033 -1.5092  0.5751
  144TMC2    H1 2246   2.283   0.755   0.624 -1.1952 -4.3343  2.1415
  144TMC2    H2 2247   2.544   0.700   0.311  2.0275  0.2764  2.2793
  144TMC2    C7 2248   2.520   0.829   0.543  0.7685 -0.3079  0.4229
  144TMC2    C8 2249   2.410   0.500   0.204 -0.2662 -0.0232 -1.1617
  144TMC2    O1 2250   2.633   0.822   0.501 -0.3460 -0.2397  0.0665
  144TMC2    O2 2251   2.309   0.446   0.168 -0.2790 -0.0825  0.6628
  144TMC2    O5 2252   2.528   0.440   0.188  0.2514  0.2655 -0.1220
  144TMC2    H5 2253   2.603   0.498   0.213 -2.4564  3.5069  0.4933
  145MPD2     C 2254   1.650   0.773   0.557 -0.0643  0.1987  0.0828
  145MPD2    C1 2255   1.686   0.647   0.516  0.0142  0.3157 -0.3398
  145MPD2    C2 2256   1.817   0.617   0.543  0.4469 -0.1435  0.0802
  145MPD2    C3 2257   1.911   0.700   0.601 -0.1013  0.1338 -0.8094
  145MPD2    C4 2258   1.866   0.819   0.647  0.2633  0.3899 -0.6056
  145MPD2    C5 2259   1.734   0.849   0.630 -0.0878 -0.7391 -0.6494
  145MPD2     H 2260   1.840   0.515   0.518 -0.2224 -0.4445  0.6790
  145MPD2    H1 2261   1.925   0.885   0.709  1.0738  0.3554 -1.3342
  145MPD2    H2 2262   1.555   0.816   0.529  0.4803  1.2512 -0.1531
  145MPD2    H3 2263   1.695   0.944   0.666 -0.9460 -1.6104  0.7315
  145MPD2     N 2264   2.053   0.666   0.598  0.8770 -0.0727 -0.3186
  145MPD2    H5 2265   2.112   0.747   0.614  0.3324  0.3939 -0.6659
  145MPD2    N1 2266   1.594   0.556   0.445  0.2889 -0.2960  0.0390
  145MPD2    H7 2267   1.626   0.463   0.417  0.6995  0.3122 -1.5096
  146TMC2    C1 2268   2.726   4.213  12.445  0.2861  0.1451 -0.4752
  146TMC2    C2 2269   2.731   4.272  12.324  0.3835 -0.0639 -0.2747
  146TMC2    C3 2270   2.692   4.209  12.211  0.3915  0.0496 -0.0510
  146TMC2    C4 2271   2.666   4.090  12.461  0.5498 -0.1554 -0.2650
  146TMC2    C5 2272   2.628   4.027  12.340 -0.7938 -0.1874  0.5963
  146TMC2    C6 2273   2.645   4.080  12.211  0.1779  0.3368  0.1100
  146TMC2     C 2274   2.766   4.291  12.557 -0.3064  0.4838  0.0855
  146TMC2     O 2275   2.812   4.399  12.538  0.4685  0.1184  0.4764
  146TMC2     H 2276   2.794   4.360  12.309 -2.5280  1.9755 -0.5738
  146TMC2    H1 2277   2.641   4.056  12.561 -0.7446 -0.6588 -0.7518
  146TMC2    H2 2278   2.620   4.022  12.123  1.9833 -0.8183  0.3585
  146TMC2    C7 2279   2.631   3.877  12.338 -0.9135 -0.1713  0.2365
  146TMC2    C8 2280   2.729   4.266  12.084  0.3350 -0.4958 -0.1094
  146TMC2    O1 2281   2.596   3.819  12.237  0.2370 -0.6663  0.4354
  146TMC2    O2 2282   2.842   4.288  12.049 -0.2542  0.4716 -0.3763
  146TMC2    O5 2283   2.624   4.242  12.003 -0.4851 -0.0741 -0.4327
  146TMC2    H5 2284   2.544   4.242  12.060  1.8939 -0.9311  2.8861
  147MPD2     C 2285   2.816   3.426  12.494  0.2027  0.1087  0.3318
  147MPD2    C1 2286   2.876   3.527  12.564  0.0337 -0.0183  0.3669
  147MPD2    C2 2287   2.835   3.660  12.541 -0.5102  0.0967 -0.0076
  147MPD2    C3 2288   2.733   3.685  12.453  0.0275  0.3639  0.1595
  147MPD2    C4 2289   2.674   3.587  12.381 -0.7288  0.9585 -0.0424
  147MPD2    C5 2290   2.719   3.463  12.403 -0.3737  0.7709  0.2137
  147MPD2     H 2291   2.866   3.736  12.612 -0.2173  0.0143 -0.0456
  147MPD2    H1 2292   2.581   3.598  12.325 -0.6151 -0.3061 -0.4725
  147MPD2    H2 2293   2.850   3.324  12.509  1.0934 -0.0209 -2.7261
  147MPD2    H3 2294   2.669   3.391  12.340  0.5107  0.1256  0.2477
  147MPD2     N 2295   2.695   3.822  12.445  0.6567  0.2949 -0.3391
  147MPD2    H5 2296   2.741   3.880  12.514  1.4393 -0.8955  0.1274
  147MPD2    N1 2297   2.971   3.493  12.661 -0.4948 -0.1107 -0.4432
  147MPD2    H7 2298   3.001   3.397  12.668  1.3363  0.5423  0.6465
  148TMC2    C1 2299   2.929   2.913  10.438  0.4908 -0.0016  0.0208
  148TMC2    C2 2300   3.054   2.950  10.465 -0.1789  0.2929 -0.1712
  148TMC2    C3 2301   3.144   2.856  10.503  0.2534  0.1796  0.3583
  148TMC2    C4 2302   2.889   2.781  10.438  0.8291 -0.0800 -0.6423
  148TMC2    C5 2303   2.977   2.693  10.494  0.4134  1.3901  0.1085
  148TMC2    C6 2304   3.105   2.726  10.522  0.3183  0.6021  0.7002
  148TMC2     C 2305   2.850   3.001  10.355 -0.0229  0.5530 -0.2861
  148TMC2     O 2306   2.848   3.124  10.374  0.1309  0.4425  0.1359
  148TMC2     H 2307   3.084   3.053  10.445  3.8217 -0.8123  0.1163
  148TMC2    H1 2308   2.789   2.750  10.409  0.3270  0.8990  0.0544
  148TMC2    H2 2309   3.176   2.644  10.527  2.6380  2.5103 -0.7975
  148TMC2    C7 2310   2.946   2.559  10.467  0.5533 -0.3057 -0.1600
  148TMC2    C8 2311   3.291   2.869  10.504 -0.0710 -0.3981 -0.9726
  148TMC2    O1 2312   2.900   2.547  10.354 -0.1941 -0.1939 -0.0388
  148TMC2    O2 2313   3.366   2.784  10.541 -0.1955 -0.5410 -0.1768
  148TMC2    O5 2314   3.323   2.994  10.476  0.3606 -0.4632  0.5026
  148TMC2    H5 2315   3.261   3.042  10.417 -0.0586  0.0531  1.3779
  149MPD2     C 2316   2.637   3.086  10.175  0.4511 -0.4358 -0.7554
  149MPD2    C1 2317   2.710   2.965  10.160 -0.3456  0.6400  0.3397
  149MPD2    C2 2318   2.682   2.869  10.070  0.5721  0.1978 -0.2559
  149MPD2    C3 2319   2.567   2.888   9.993 -0.2384 -0.3287 -0.1419
  149MPD2    C4 2320   2.497   3.010  10.004 -0.1484  0.2242  0.1634
  149MPD2    C5 2321   2.524   3.102  10.098  0.6648 -0.5323 -0.0624
  149MPD2     H 2322   2.743   2.779  10.066 -1.1723 -0.9679 -0.3398
  149MPD2    H1 2323   2.407   3.024   9.944  0.2690  2.4879  0.0850
  149MPD2    H2 2324   2.659   3.154  10.257  2.2149 -0.1440 -1.4576
  149MPD2    H3 2325   2.455   3.184  10.115 -0.3662 -0.9170 -2.4244
  149MPD2     N 2326   2.523   2.790   9.905 -0.1921  0.4191  0.3095
  149MPD2    H5 2327   2.434   2.815   9.864 -0.3813 -0.9596 -0.0971
  149MPD2    N1 2328   2.810   2.927  10.244  0.0833  0.1876 -0.6181
  149MPD2    H7 2329   2.845   2.832  10.232 -0.6466 -0.2803  0.9042
  150TMC2    C1 2330   4.259   1.593  12.169 -0.0746  0.1106  0.6137
  150TMC2    C2 2331   4.212   1.704  12.103  0.4815 -0.0343 -0.4943
  150TMC2    C3 2332   4.299   1.771  12.019 -0.1195  0.5272  0.8686
  150TMC2    C4 2333   4.393   1.554  12.163 -0.4381  0.8912  0.0558
  150TMC2    C5 2334   4.464   1.615  12.069 -0.2860  0.5050  0.2201
  150TMC2    C6 2335   4.427   1.727  11.999 -0.1256  0.1401  0.2192
  150TMC2     C 2336   4.163   1.532  12.264 -0.3045 -0.1611  0.2442
  150TMC2     O 2337   4.208   1.447  12.343  0.0527 -0.1471 -0.1348
  150TMC2     H 2338   4.115   1.754  12.110  0.8140  0.5627 -0.1233
  150TMC2    H1 2339   4.431   1.472  12.223  0.9066  0.6155 -1.1635
  150TMC2    H2 2340   4.482   1.751  11.909  1.6582 -1.0443  1.0057
  150TMC2    C7 2341   4.577   1.539  12.008  0.0909  0.2615 -0.0326
  150TMC2    C8 2342   4.242   1.849  11.906  0.0570 -0.5990  0.1500
  150TMC2    O1 2343   4.594   1.550  11.885  0.1423  0.1542 -0.3834
  150TMC2    O2 2344   4.123   1.852  11.891  0.4463 -0.1963 -0.2357
  150TMC2    O5 2345   4.331   1.920  11.835  0.0874 -0.3884  0.6601
  150TMC2    H5 2346   4.420   1.931  11.875 -0.3769 -3.2880  2.4328
  151MPD2     C 2347   3.740   1.562  12.550 -0.6640  0.1081  0.4752
  151MPD2    C1 2348   3.713   1.587  12.418 -0.3929  0.4822  0.9335
  151MPD2    C2 2349   3.809   1.592  12.323 -0.3809 -0.6006 -0.0191
  151MPD2    C3 2350   3.943   1.567  12.347 -0.1589 -0.1720  0.7046
  151MPD2    C4 2351   3.969   1.537  12.485  0.7151 -0.1218  0.5111
  151MPD2    C5 2352   3.867   1.529  12.578  0.1648 -0.4107 -0.5795
  151MPD2     H 2353   3.773   1.609  12.222  3.0027  2.1710 -0.7527
  151MPD2    H1 2354   4.072   1.525  12.517  0.3024 -2.1792  1.1024
  151MPD2    H2 2355   3.672   1.550  12.633  1.5988  0.2139  2.3514
  151MPD2    H3 2356   3.900   1.519  12.681 -3.7663 -1.8710  0.5480
  151MPD2     N 2357   4.037   1.575  12.249  0.2139 -0.5705 -0.1013
  151MPD2    H5 2358   4.000   1.611  12.162  0.4560 -0.2410 -0.0699
  151MPD2    N1 2359   3.586   1.630  12.372 -0.4776  0.3936 -0.1822
  151MPD2    H7 2360   3.582   1.635  12.270 -0.1931 -2.8716 -0.3432
  152TMC2    C1 2361   0.172   1.788  12.091 -0.3320  0.4647 -0.0788
  152TMC2    C2 2362   0.258   1.708  12.166  0.3211 -0.5504 -0.3056
  152TMC2    C3 2363   0.397   1.725  12.153 -0.0038 -0.3290 -0.4043
  152TMC2    C4 2364   0.214   1.890  12.010 -0.1520 -0.2974  0.3309
  152TMC2    C5 2365   0.347   1.922  12.025 -0.1987 -0.1432  0.7905
  152TMC2    C6 2366   0.439   1.839  12.084  0.5831 -0.0080  0.4396
  152TMC2     C 2367   0.051   1.816  12.165 -0.1169 -0.8947  0.8322
  152TMC2     O 2368   4.699   1.871  12.099  0.6873 -0.0209  0.3923
  152TMC2     H 2369   0.211   1.635  12.230  0.1156  0.2725  0.4746
  152TMC2    H1 2370   0.146   1.962  11.965 -0.6104 -1.9903 -1.6676
  152TMC2    H2 2371   0.542   1.866  12.104 -0.4988  1.8840  3.3914
  152TMC2    C7 2372   0.388   2.062  11.996 -0.2351 -0.0487  0.3706
  152TMC2    C8 2373   0.487   1.664  12.252 -0.8879 -0.3368  0.3035
  152TMC2    O1 2374   0.326   2.138  11.920 -0.6569 -0.3053  0.4357
  152TMC2    O2 2375   0.439   1.631  12.359  0.0290 -0.2301 -0.4251
  152TMC2    O5 2376   0.602   1.617  12.196 -0.5278 -0.0741  0.6816
  152TMC2    H5 2377   0.607   1.631  12.099 -2.8278 -0.3432  0.5313
  153MPD2     C 2378   4.688   1.808  12.521  0.1551  0.5493 -0.6117
  153MPD2    C1 2379   4.671   1.818  12.380 -0.3962 -0.4813  0.0004
  153MPD2    C2 2380   4.540   1.847  12.330 -0.4052  0.0238  0.6064
  153MPD2    C3 2381   4.432   1.869  12.412 -0.7386 -0.5470  0.9899
  153MPD2    C4 2382   4.453   1.866  12.550  0.9173 -0.0966 -0.3462
  153MPD2    C5 2383   4.578   1.833  12.599 -0.2738  0.0173  0.4059
  153MPD2     H 2384   4.516   1.856  12.225 -1.8573 -1.2500  0.8216
  153MPD2    H1 2385   4.382   1.891  12.628 -1.5881 -0.5078 -2.4872
  153MPD2    H2 2386   0.052   1.797  12.562 -1.0473  0.1276  2.2021
  153MPD2    H3 2387   4.596   1.821  12.706  2.3185  0.9066  0.0713
  153MPD2     N 2388   4.305   1.887  12.352  0.3457  0.1052  0.4404
  153MPD2    H5 2389   4.302   1.903  12.252  1.8974 -2.6202 -0.0434
  153MPD2    N1 2390   0.049   1.786  12.297  0.0174 -0.7410  0.0250
  153MPD2    H7 2391   0.142   1.782  12.337  0.7830 -1.0827 -1.7870
  154TMC2    C1 2392   1.760   1.846  17.740 -0.2338 -0.2600 -0.2260
  154TMC2    C2 2393   1.851   1.899   0.089 -0.2986 -0.1484 -0.6591
  154TMC2    C3 2394   1.981   1.911   0.052 -0.2254  0.0559 -0.4482
  154TMC2    C4 2395   1.799   1.806  17.617  0.0921  0.6820 -0.3545
  154TMC2    C5 2396   1.931   1.818  17.587  0.0947 -0.1652  0.4288
  154TMC2    C6 2397   2.023   1.866  17.671 -0.1355  0.1131 -0.1415
  154TMC2     C 2398   1.623   1.838   0.040  0.6354  0.2350  0.0235
  154TMC2     O 2399   1.608   1.858   0.161  0.6599  0.1719  0.0557
  154TMC2     H 2400   1.826   1.925   0.190 -0.5383 -0.1681 -0.7142
  154TMC2    H1 2401   1.739   1.751  17.546  0.0759 -0.2830  0.4215
  154TMC2    H2 2402   2.125   1.831  17.657 -0.1007 -0.1060  0.6554
  154TMC2    C7 2403   1.981   1.741  17.477 -0.7112 -0.2030 -0.7730
  154TMC2    C8 2404   2.079   1.953   0.153 -0.0616  0.2359 -0.2699
  154TMC2    O1 2405   1.932   1.628  17.460 -0.4701  0.0807 -0.0420
  154TMC2    O2 2406   2.050   1.975   0.268  0.1792  0.1040 -0.1944
  154TMC2    O5 2407   2.184   2.008   0.089  0.0454 -0.0071  0.0448
  154TMC2    H5 2408   2.197   1.976  17.739 -0.5400  3.2523 -1.1695
  155MPD2     C 2409   1.326   1.839  17.562  0.0980 -0.0206  0.2882
  155MPD2    C1 2410   1.397   1.855  17.678 -0.4689 -0.2387 -0.3193
  155MPD2    C2 2411   1.332   1.908   0.050 -0.5574  0.2300 -0.6802
  155MPD2    C3 2412   1.203   1.950   0.043 -0.1416  0.5291 -0.3991
  155MPD2    C4 2413   1.129   1.931  17.671  1.2353 -0.6428  0.1610
  155MPD2    C5 2414   1.196   1.879  17.556 -0.1123  0.0221  0.3456
  155MPD2     H 2415   1.385   1.923   0.144 -0.2369 -0.5102 -0.7455
  155MPD2    H1 2416   1.021   1.940  17.672  1.0740 -2.6004  0.1080
  155MPD2    H2 2417   1.375   1.794  17.476  2.0448  2.2717  0.1879
  155MPD2    H3 2418   1.140   1.870  17.464  0.7700 -4.1992  0.2250
  155MPD2     N 2419   1.157   2.011   0.172 -0.4726 -0.1764 -0.4995
  155MPD2    H5 2420   1.201   1.983   0.259  2.2588 -0.4758 -1.9891
  155MPD2    N1 2421   1.531   1.813  17.681 -0.1692  0.0283 -0.0717
  155MPD2    H7 2422   1.572   1.784  17.593 -0.9251 -0.0639 -0.3956
  156TMC2    C1 2423   0.857   3.824  12.139 -0.5177 -0.0209 -0.2866
  156TMC2    C2 2424   0.966   3.734  12.158 -0.6393 -0.3449  0.4360
  156TMC2    C3 2425   1.017   3.697  12.033  0.8008  0.5799 -0.3245
  156TMC2    C4 2426   0.801   3.871  12.025  0.7281  1.0108  0.0652
  156TMC2    C5 2427   0.863   3.838  11.914 -0.3275 -0.1732 -0.6202
  156TMC2    C6 2428   0.967   3.749  11.909 -0.0036  0.8458  0.0888
  156TMC2     C 2429   0.788   3.867  12.257 -0.3767 -0.1650  0.3742
  156TMC2     O 2430   0.666   3.881  12.243 -0.0171  0.1390  0.1049
  156TMC2     H 2431   1.010   3.714  12.255  0.6327 -1.2026 -0.3194
  156TMC2    H1 2432   0.721   3.944  12.028  0.2273  0.5942 -3.6173
  156TMC2    H2 2433   1.000   3.705  11.816 -0.3614  0.7183  0.0239
  156TMC2    C7 2434   0.813   3.900  11.794  0.6613 -0.7124  0.3899
  156TMC2    C8 2435   1.120   3.594  12.026 -0.5647 -0.0391  0.3004
  156TMC2    O1 2436   0.709   3.962  11.792  0.4101 -0.8237 -1.0234
  156TMC2    O2 2437   1.204   3.582  11.939  0.0813  0.4536 -0.3796
  156TMC2    O5 2438   1.048   3.482  12.039 -0.5203 -0.0900 -0.2647
  156TMC2    H5 2439   0.966   3.493  12.091 -0.4705  0.6421 -0.3342
  157MPD2     C 2440   0.895   4.015  12.580 -0.8825 -0.1365  0.0029
  157MPD2    C1 2441   0.819   3.996  12.470 -0.6923 -0.3554 -0.2855
  157MPD2    C2 2442   0.696   4.059  12.472  0.6465 -0.1568 -0.2599
  157MPD2    C3 2443   0.641   4.139  12.569 -0.0608 -0.9868 -0.1023
  157MPD2    C4 2444   0.717   4.155  12.681 -0.1962 -0.7997 -0.4749
  157MPD2    C5 2445   0.845   4.102  12.680 -1.8175  0.7734  0.1747
  157MPD2     H 2446   0.631   4.050  12.386  0.7579 -2.6769 -0.0813
  157MPD2    H1 2447   0.679   4.204  12.770 -1.5257 -2.5181 -0.0898
  157MPD2    H2 2448   0.992   3.972  12.603  0.0624  0.9943 -1.8194
  157MPD2    H3 2449   0.906   4.129  12.766 -1.6793  0.2044  0.2590
  157MPD2     N 2450   0.511   4.178  12.546  0.7764  0.7228 -0.3380
  157MPD2    H5 2451   0.466   4.163  12.456  0.1661  0.0769  0.0724
  157MPD2    N1 2452   0.865   3.912  12.361  0.3569 -0.2579  0.0780
  157MPD2    H7 2453   0.964   3.893  12.369  1.3361  4.3268 -1.2664
  158TMC2    C1 2454   0.512   3.125  13.126 -0.1336  0.0925  0.0010
  158TMC2    C2 2455   0.556   3.192  13.009  0.4738  0.2812 -0.5627
  158TMC2    C3 2456   0.473   3.287  12.955  0.2826  0.0758 -0.3781
  158TMC2    C4 2457   0.381   3.123  13.166  0.0285  0.5218  0.0761
  158TMC2    C5 2458   0.294   3.204  13.091  0.2577  0.0372 -0.5442
  158TMC2    C6 2459   0.345   3.288  12.991  0.4557  0.7051 -0.1194
  158TMC2     C 2460   0.607   3.021  13.170  0.7097 -1.0235 -0.1632
  158TMC2     O 2461   0.698   2.991  13.090 -0.2614 -0.0192 -0.1047
  158TMC2     H 2462   0.657   3.184  12.971  0.2845  0.9009 -1.1905
  158TMC2    H1 2463   0.338   3.055  13.239  1.1904 -0.3968 -0.0834
  158TMC2    H2 2464   0.275   3.352  12.939  1.4830  1.6338 -0.3459
  158TMC2    C7 2465   0.171   3.237  13.155 -0.5289 -0.8494  0.0820
  158TMC2    C8 2466   0.521   3.405  12.892  0.2869 -0.2298  0.3506
  158TMC2    O1 2467   0.124   3.346  13.116 -0.0846  0.5250  0.1499
  158TMC2    O2 2468   0.471   3.511  12.931  0.0419 -0.1518 -0.1912
  158TMC2    O5 2469   0.598   3.389  12.784  0.4017 -0.2169 -0.5828
  158TMC2    H5 2470   0.626   3.302  12.749 -1.6392 -2.1249  2.5101
  159MPD2     C 2471   0.733   2.654  13.491 -0.0398  1.0475  0.1357
  159MPD2    C1 2472   0.668   2.749  13.569  0.4841 -0.2114 -0.2431
  159MPD2    C2 2473   0.614   2.857  13.493 -0.3805  0.0782  0.1817
  159MPD2    C3 2474   0.634   2.869  13.359  0.0143  0.2961  0.4596
  159MPD2    C4 2475   0.706   2.777  13.289 -0.1891  0.8179 -0.5580
  159MPD2    C5 2476   0.745   2.663  13.357 -0.0335  0.7789 -0.4297
  159MPD2     H 2477   0.548   2.934  13.533 -1.1034 -1.1072  1.2571
  159MPD2    H1 2478   0.721   2.781  13.181 -3.6188 -0.0168 -1.0861
  159MPD2    H2 2479   0.776   2.569  13.542 -0.0187  0.4878 -0.8300
  159MPD2    H3 2480   0.802   2.584  13.311 -1.5697 -0.8955  0.5411
  159MPD2     N 2481   0.587   2.991  13.300 -0.2900 -0.2683  0.1529
  159MPD2    H5 2482   0.520   3.045  13.354  0.7594  0.4020  0.8036
  159MPD2    N1 2483   0.646   2.740  13.713 -0.7366 -0.2238  0.8738
  159MPD2    H7 2484   0.669   2.649  13.752  0.6083  0.1765  1.0006
  160TMC2    C1 2485   0.082   1.268   1.585  0.5612  0.4900  0.6156
  160TMC2    C2 2486   4.717   1.188   1.614 -0.3591 -0.0336 -0.3209
  160TMC2    C3 2487   4.733   1.093   1.714 -0.2495 -1.0655  0.0312
  160TMC2    C4 2488   0.199   1.259   1.649 -0.4615  0.1179 -0.0255
  160TMC2    C5 2489   0.213   1.161   1.738  0.2505 -0.3132 -0.4957
  160TMC2    C6 2490   0.115   1.073   1.776  0.2374  0.4994  0.2110
  160TMC2     C 2491   0.044   1.400   1.533 -0.1394 -0.3443 -0.0165
  160TMC2     O 2492   4.661   1.414   1.500  0.4136  0.5429 -0.0275
  160TMC2     H 2493   4.619   1.205   1.570 -0.8248  2.9819  1.9411
  160TMC2    H1 2494   0.286   1.303   1.601 -1.2152  2.4089  0.6921
  160TMC2    H2 2495   0.136   0.986   1.837 -3.6062  0.6969  1.8239
  160TMC2    C7 2496   0.339   1.145   1.819  0.0579 -0.0418  0.0415
  160TMC2    C8 2497   4.627   0.993   1.746  0.6907 -0.2391  0.5826
  160TMC2    O1 2498   0.325   1.082   1.923  0.2230  0.4153  0.0284
  160TMC2    O2 2499   4.655   0.880   1.788 -0.1960  0.1411  0.0481
  160TMC2    O5 2500   4.507   1.031   1.708 -0.2042  0.2392 -0.5797
  160TMC2    H5 2501   4.496   1.128   1.707  0.7768  0.3520  1.0111
  161MPD2     C 2502   0.154   1.715   1.687 -0.0325  0.4446  0.2836
  161MPD2    C1 2503   0.090   1.636   1.595 -0.1053  0.0441 -0.0763
  161MPD2    C2 2504   0.021   1.692   1.485 -0.5331  0.1421  0.5139
  161MPD2    C3 2505   4.728   1.826   1.479 -0.3503  0.3167  0.1596
  161MPD2    C4 2506   0.039   1.907   1.584 -0.1713  0.5810  0.2323
  161MPD2    C5 2507   0.126   1.848   1.674 -0.0514  0.1652 -0.0957
  161MPD2     H 2508   4.721   1.628   1.405 -0.0877 -0.3560  0.7123
  161MPD2    H1 2509   0.019   2.014   1.579 -0.5742  0.5420  1.0671
  161MPD2    H2 2510   0.215   1.680   1.770 -1.5064 -0.9784  0.7580
  161MPD2    H3 2511   0.162   1.921   1.745 -1.3945  1.1520 -0.4357
  161MPD2     N 2512   4.649   1.890   1.376 -0.0560  0.4349 -0.0770
  161MPD2    H5 2513   4.620   1.987   1.376 -0.5837  0.2785 -0.7663
  161MPD2    N1 2514   0.110   1.493   1.609  0.9397 -0.3259 -0.3528
  161MPD2    H7 2515   0.184   1.478   1.677  1.3471 -2.8603 -1.3579
  162TMC2    C1 2516   1.919   2.611   0.318  0.4565  0.1711 -0.5690
  162TMC2    C2 2517   1.810   2.589   0.248  0.0416  0.6508 -0.1456
  162TMC2    C3 2518   1.688   2.615   0.307 -0.1500  0.1334  0.2969
  162TMC2    C4 2519   1.914   2.659   0.443 -1.2046  0.6088  0.5169
  162TMC2    C5 2520   1.800   2.684   0.503  1.1028  0.3064 -0.1278
  162TMC2    C6 2521   1.679   2.666   0.433 -0.0107  0.1760 -0.5025
  162TMC2     C 2522   2.045   2.586   0.251 -0.2582 -0.9878 -0.1548
  162TMC2     O 2523   2.138   2.650   0.301  0.1850 -0.8529  0.0382
  162TMC2     H 2524   1.815   2.537   0.153 -1.7387 -0.0842  0.1762
  162TMC2    H1 2525   2.010   2.654   0.493 -0.4893 -3.7054 -1.2797
  162TMC2    H2 2526   1.581   2.687   0.474 -0.2628 -0.9298 -0.5446
  162TMC2    C7 2527   1.799   2.756   0.630  0.4105  0.1442  0.8693
  162TMC2    C8 2528   1.572   2.582   0.227 -0.4002 -0.0729 -0.0798
  162TMC2    O1 2529   1.696   2.814   0.663 -0.1589 -0.7242  0.3186
  162TMC2    O2 2530   1.557   2.584   0.107  0.5270 -0.2460 -0.6479
  162TMC2    O5 2531   1.509   2.493   0.309 -0.2813  0.3884  0.0230
  162TMC2    H5 2532   1.551   2.479   0.397  1.9258  1.1059 -0.9144
  163MPD2     C 2533   2.373   2.344  17.679  0.2397  0.1355 -0.1993
  163MPD2    C1 2534   2.400   2.454   0.020  0.3977  1.0006 -0.4941
  163MPD2    C2 2535   2.290   2.509   0.088  0.8508  0.4688  0.7177
  163MPD2    C3 2536   2.163   2.451   0.082 -0.2035  0.5625 -0.4339
  163MPD2    C4 2537   2.139   2.351  17.737  0.6694  0.3642 -0.0813
  163MPD2    C5 2538   2.244   2.302  17.661 -0.8647  0.5162  0.1616
  163MPD2     H 2539   2.312   2.593   0.154  0.8268  1.6304 -0.7423
  163MPD2    H1 2540   2.041   2.310  17.713  0.3261 -0.1618  2.1947
  163MPD2    H2 2541   2.449   2.292  17.623  2.0838  1.5404  0.9964
  163MPD2    H3 2542   2.228   2.216  17.597  1.6636 -0.7211  1.1944
  163MPD2     N 2543   2.043   2.496   0.152  0.1737 -0.5025  0.5131
  163MPD2    H5 2544   1.954   2.449   0.141 -0.7163  1.3640 -0.1246
  163MPD2    N1 2545   2.530   2.504   0.030  0.0765 -0.4240 -0.5586
  163MPD2    H7 2546   2.610   2.446   0.006  1.4082 -0.2790  3.6588
  164TMC2    C1 2547   3.520   2.396  10.781 -0.5617  0.2296 -0.6809
  164TMC2    C2 2548   3.465   2.272  10.823  0.0946  0.3089 -0.7375
  164TMC2    C3 2549   3.342   2.263  10.872  0.5802 -0.3657 -1.5106
  164TMC2    C4 2550   3.448   2.512  10.802  1.1318 -0.1162  0.2081
  164TMC2    C5 2551   3.318   2.495  10.850  0.2492  0.0188 -0.6032
  164TMC2    C6 2552   3.261   2.375  10.886  0.1054 -0.6947  0.1009
  164TMC2     C 2553   3.639   2.396  10.703 -0.4358 -1.1814  0.6868
  164TMC2     O 2554   3.707   2.499  10.696 -0.4086  0.1266 -0.1674
  164TMC2     H 2555   3.529   2.185  10.819  0.9043  1.0024 -2.6363
  164TMC2    H1 2556   3.487   2.609  10.773  0.3853  0.1675  0.1591
  164TMC2    H2 2557   3.156   2.364  10.909  0.1741 -2.6874 -0.4955
  164TMC2    C7 2558   3.222   2.608  10.845  1.1604  0.3832  0.2728
  164TMC2    C8 2559   3.300   2.128  10.913  0.2689  0.3291  0.1331
  164TMC2    O1 2560   3.105   2.589  10.815 -0.4330 -0.4267  0.2611
  164TMC2    O2 2561   3.337   2.024  10.865  0.4484 -0.1004 -0.4733
  164TMC2    O5 2562   3.238   2.152  11.036 -0.2474  0.5855  0.4028
  164TMC2    H5 2563   3.247   2.246  11.060 -3.2951  1.1174 -0.4720
  165TMC2    C1 2564   0.605   0.832   1.636  0.0524 -0.3475  0.5210
  165TMC2    C2 2565   0.718   0.915   1.637  0.5472 -0.1268  0.8813
  165TMC2    C3 2566   0.837   0.861   1.636 -1.0531  0.4758 -0.5172
  165TMC2    C4 2567   0.615   0.699   1.649  0.4864 -0.8392 -0.2094
  165TMC2    C5 2568   0.739   0.652   1.641 -0.1072 -0.1210 -0.4962
  165TMC2    C6 2569   0.848   0.727   1.623  0.1999  0.2697 -0.2591
  165TMC2     C 2570   0.474   0.879   1.586 -0.4069  0.2274 -0.2611
  165TMC2     O 2571   0.377   0.809   1.609 -1.3492  0.1311 -0.0611
  165TMC2     H 2572   0.710   1.023   1.636  1.0357 -0.0963 -1.6298
  165TMC2    H1 2573   0.530   0.633   1.651 -0.3880  0.2583 -0.9418
  165TMC2    H2 2574   0.945   0.679   1.621 -0.0253 -0.1685 -0.5061
  165TMC2    C7 2575   0.755   0.520   1.596 -0.1907  0.7411 -0.2045
  165TMC2    C8 2576   0.957   0.930   1.662  0.1969  0.0036 -0.0416
  165TMC2    O1 2577   0.847   0.498   1.519 -0.2939  0.0262  0.5516
  165TMC2    O2 2578   1.062   0.871   1.680 -0.1775  0.0913 -0.1536
  165TMC2    O5 2579   0.948   1.037   1.578 -0.1009  0.0223 -0.0618
  165TMC2    H5 2580   0.859   1.051   1.539 -1.1872 -0.9003  2.0901
  166MPD2     C 2581   0.185   1.190   1.274 -0.2260  0.1854  0.0600
  166MPD2    C1 2582   0.154   1.077   1.343  0.0842  0.2035  0.8944
  166MPD2    C2 2583   0.255   1.004   1.421 -0.3053  1.0008  1.0469
  166MPD2    C3 2584   0.379   1.055   1.435 -0.9067  0.6018 -0.5559
  166MPD2    C4 2585   0.411   1.171   1.362  0.3486 -0.0514  0.2395
  166MPD2    C5 2586   0.311   1.236   1.292  0.0302 -0.3128  0.2722
  166MPD2     H 2587   0.227   0.916   1.478  1.0736  1.1453  1.9463
  166MPD2    H1 2588   0.508   1.220   1.357  0.8533 -0.8251  2.5001
  166MPD2    H2 2589   0.117   1.245   1.210 -2.0915 -0.1163  1.7544
  166MPD2    H3 2590   0.337   1.325   1.237 -0.3607 -1.1039 -1.1968
  166MPD2     N 2591   0.486   0.994   1.508  0.2464  0.3575 -0.0435
  166MPD2    H5 2592   0.573   1.046   1.502  2.0816 -2.4297  1.9972
  166MPD2    N1 2593   0.023   1.029   1.326 -0.6438 -0.4261  0.2280
  166MPD2    H7 2594   4.710   1.079   1.253 -0.4432 -0.8052 -0.1673
  167TMC2    C1 2595   2.761   2.683  12.740 -0.7980  0.0641  0.2335
  167TMC2    C2 2596   2.677   2.720  12.837 -0.2420  0.8509 -0.6383
  167TMC2    C3 2597   2.661   2.627  12.939 -0.4039 -0.2140 -0.2322
  167TMC2    C4 2598   2.820   2.562  12.735  0.2974  0.1011  0.2448
  167TMC2    C5 2599   2.804   2.479  12.841 -0.2418 -0.5415 -0.2688
  167TMC2    C6 2600   2.723   2.511  12.945 -0.1531 -0.6155 -0.4574
  167TMC2     C 2601   2.808   2.791  12.656  0.1067  0.0705 -0.2216
  167TMC2     O 2602   2.787   2.902  12.699 -0.2746 -0.8545  0.4047
  167TMC2     H 2603   2.606   2.800  12.822 -0.3629  0.9772  0.5572
  167TMC2    H1 2604   2.891   2.540  12.656  0.7359 -0.9628  0.9378
  167TMC2    H2 2605   2.694   2.435  13.017 -0.5248 -1.9322 -1.9641
  167TMC2    C7 2606   2.841   2.340  12.835  0.5895 -0.2202 -0.0152
  167TMC2    C8 2607   2.536   2.624  13.005 -1.0147 -0.3158 -0.1624
  167TMC2    O1 2608   2.866   2.279  12.935 -0.0429  0.3018 -0.3667
  167TMC2    O2 2609   2.468   2.524  13.020 -0.1357  0.0289 -0.6176
  167TMC2    O5 2610   2.507   2.753  13.050 -0.7539 -0.2552 -0.4947
  167TMC2    H5 2611   2.575   2.818  13.024 -0.3068 -0.9410 -1.0594
  168MPD2     C 2612   2.877   2.974  12.430  0.6380 -0.2501  0.1598
  168MPD2    C1 2613   2.863   2.841  12.424  0.5121  0.7198 -0.0128
  168MPD2    C2 2614   2.893   2.770  12.309 -0.3759  0.3376 -0.2047
  168MPD2    C3 2615   2.918   2.838  12.188 -0.4126  0.2600  0.5442
  168MPD2    C4 2616   2.906   2.975  12.194 -0.6894  0.5513  0.0455
  168MPD2    C5 2617   2.900   3.043  12.313  0.1585 -0.0757  0.1132
  168MPD2     H 2618   2.881   2.663  12.315 -2.2412  0.5675  0.1898
  168MPD2    H1 2619   2.923   3.039  12.108 -1.8551  0.5950 -0.1403
  168MPD2    H2 2620   2.851   3.021  12.524  1.2681  0.4458 -0.0185
  168MPD2    H3 2621   2.900   3.151  12.319  2.5032 -0.0958  0.9350
  168MPD2     N 2622   2.927   2.773  12.058  0.7783  0.0832 -0.4065
  168MPD2    H5 2623   2.903   2.832  11.979  1.1546 -0.8263 -1.2005
  168MPD2    N1 2624   2.842   2.757  12.532  0.1957 -0.2109 -0.1209
  168MPD2    H7 2625   2.847   2.656  12.521 -0.3280 -0.5388  2.5269
  169MPD1     C 2626   4.502   1.430   9.089 -0.4380  0.2437 -0.8883
  169MPD1    C1 2627   4.515   1.379   9.217 -0.2670 -0.5109 -0.2892
  169MPD1    C2 2628   4.638   1.385   9.286  0.9983  0.1293 -0.1443
  169MPD1    C3 2629   0.016   1.427   9.221  0.2265  0.1728  0.2544
  169MPD1    C4 2630   0.002   1.462   9.085 -0.0059 -0.0777  0.4051
  169MPD1    C5 2631   4.611   1.474   9.030 -0.4561  0.2956 -0.6531
  169MPD1     H 2632   4.637   1.354   9.390 -0.2593  0.3581 -0.0924
  169MPD1    H1 2633   0.083   1.500   9.024  1.1604 -1.7149  0.9190
  169MPD1    H2 2634   4.408   1.439   9.035 -1.5322 -0.0392  0.9662
  169MPD1    H3 2635   4.606   1.503   8.925  1.5312 -0.4368 -0.9500
  169MPD1     N 2636   0.136   1.428   9.292  0.0816 -0.0460 -0.0506
  169MPD1    H5 2637   0.124   1.404   9.390 -1.3305  1.1103  0.0497
  169MPD1    N1 2638   4.401   1.351   9.290 -0.3103  0.5571 -0.5390
  169MPD1    H6 2639   4.320   1.318   9.238 -1.9481  1.4961  1.4376
  169MPD1    H7 2640   4.421   1.288   9.368 -2.7366 -0.0115 -0.3719
  170MPD1     C 2641   3.599   4.008  12.991 -0.2215 -0.3467 -0.7547
  170MPD1    C1 2642   3.601   3.986  13.125 -0.0767 -0.3610 -0.1629
  170MPD1    C2 2643   3.629   4.090  13.212 -0.9995 -0.1931 -0.4526
  170MPD1    C3 2644   3.655   4.214  13.161 -0.2638  0.4795 -0.0726
  170MPD1    C4 2645   3.661   4.239  13.027 -0.9161 -0.0087  0.7662
  170MPD1    C5 2646   3.620   4.140  12.944 -0.9965 -0.2608 -0.5482
  170MPD1     H 2647   3.617   4.078  13.319  1.7685  1.8788  0.1096
  170MPD1    H1 2648   3.695   4.333  12.984 -0.4592 -0.1951  0.7161
  170MPD1    H2 2649   3.559   3.930  12.928 -4.9568  1.8351 -0.4129
  170MPD1    H3 2650   3.618   4.155  12.837  1.6306 -1.4631 -0.7499
  170MPD1     N 2651   3.655   4.323  13.254 -0.0680  0.4284 -0.2201
  170MPD1    H5 2652   3.663   4.307  13.354 -0.7897  0.1164 -0.2161
  170MPD1    N1 2653   3.553   3.863  13.173 -0.4639  0.1737 -0.8801
  170MPD1    H6 2654   3.585   3.787  13.113  0.7785 -1.2492  1.5773
  170MPD1    H7 2655   3.579   3.835  13.267 -1.8996 -0.3902 -0.6533
  171MPD1     C 2656   1.924   1.639  15.392  0.6996  0.3316  0.0978
  171MPD1    C1 2657   1.872   1.518  15.357 -0.5081  0.4113  0.0664
  171MPD1    C2 2658   1.926   1.404  15.420  0.1812 -0.5607  0.1009
  171MPD1    C3 2659   2.035   1.403  15.500  0.1710  0.3753  0.0445
  171MPD1    C4 2660   2.089   1.529  15.526  0.4739  0.4247  0.0946
  171MPD1    C5 2661   2.045   1.644  15.461 -0.0140  0.0630 -0.2750
  171MPD1     H 2662   1.876   1.311  15.395 -0.8822  0.5553 -1.8579
  171MPD1    H1 2663   2.181   1.544  15.582  0.1202 -1.5986  1.1828
  171MPD1    H2 2664   1.878   1.728  15.349 -2.1236 -1.4229 -0.4733
  171MPD1    H3 2665   2.100   1.736  15.477  2.6011 -1.1816 -2.2712
  171MPD1     N 2666   2.096   1.289  15.557  0.1186 -0.0499 -0.4858
  171MPD1    H5 2667   2.174   1.307  15.620 -1.9538 -0.9120  2.3460
  171MPD1    N1 2668   1.753   1.525  15.283  1.1481  0.1474  0.2572
  171MPD1    H6 2669   1.733   1.443  15.226 -1.5718  0.9381  0.0501
  171MPD1    H7 2670   1.748   1.604  15.219 -0.5143  1.0068  1.4573
  172MPD1     C 2671   1.916   0.305  17.442  0.0109 -0.0964  0.0618
  172MPD1    C1 2672   1.930   0.444  17.439  0.1963 -0.3639  0.3337
  172MPD1    C2 2673   1.900   0.516  17.556  0.3326  0.3497 -0.1659
  172MPD1    C3 2674   1.858   0.445  17.670 -0.4229 -0.0511  0.1967
  172MPD1    C4 2675   1.843   0.306  17.671  0.1677 -0.0510  0.0850
  172MPD1    C5 2676   1.866   0.243  17.558 -0.2310 -0.0654 -0.0744
  172MPD1     H 2677   1.933   0.619  17.567  0.5507  0.2189  0.3850
  172MPD1    H1 2678   1.824   0.253   0.021 -0.5719  0.3905  0.1922
  172MPD1    H2 2679   1.933   0.243  17.355  1.7243  0.7685 -0.2374
  172MPD1    H3 2680   1.859   0.135  17.552  0.6158 -0.1737  0.9689
  172MPD1     N 2681   1.840   0.511   0.051  0.6246 -0.4264  0.3508
  172MPD1    H5 2682   1.833   0.455   0.135  0.3034  0.6016  1.0014
  172MPD1    N1 2683   1.978   0.519  17.329 -0.3134  0.5757  0.5334
  172MPD1    H6 2684   1.997   0.613  17.364 -0.4320  1.8086 -2.7482
  172MPD1    H7 2685   2.076   0.497  17.313 -0.4990 -0.7233  1.1947
  173MPD1     C 2686   3.163   0.268  13.627 -1.4068  0.5563 -0.8295
  173MPD1    C1 2687   3.206   0.370  13.699  0.0357  0.1489  0.3035
  173MPD1    C2 2688   3.223   0.339  13.839 -0.5988  0.3592 -0.5136
  173MPD1    C3 2689   3.174   0.221  13.906  0.6315 -0.6883  0.3107
  173MPD1    C4 2690   3.112   0.131  13.829 -0.1912 -0.9834  0.0166
  173MPD1    C5 2691   3.110   0.155  13.691 -0.0431 -0.0826  0.1568
  173MPD1     H 2692   3.276   0.418  13.891  0.1393  0.8283 -1.9626
  173MPD1    H1 2693   3.058   0.047  13.872  1.7525 -2.0215  0.4160
  173MPD1    H2 2694   3.158   0.273  13.519 -0.1451  1.1172 -0.8677
  173MPD1    H3 2695   3.067   0.079  13.627  1.5051  2.1765 -3.5650
  173MPD1     N 2696   3.187   0.206  14.049  0.2239  0.1243  0.0458
  173MPD1    H5 2697   3.253   0.265  14.099  1.5331 -1.9076  0.7411
  173MPD1    N1 2698   3.262   0.487  13.651  0.4096  0.4497 -0.3935
  173MPD1    H6 2699   3.208   0.517  13.570 -0.4157 -0.5791 -0.2278
  173MPD1    H7 2700   3.247   0.558  13.722  1.1125 -0.8117  1.0275
  174MPD1     C 2701   3.850   0.279  14.726 -0.1944  0.4818  0.9130
  174MPD1    C1 2702   3.837   0.235  14.596  0.4710 -0.9797 -0.3404
  174MPD1    C2 2703   3.720   0.214  14.539  0.2727 -0.3282  0.0845
  174MPD1    C3 2704   3.603   0.217  14.617  0.5073  0.8895 -0.0504
  174MPD1    C4 2705   3.615   0.241  14.754  0.5802  0.0093 -0.1327
  174MPD1    C5 2706   3.738   0.278  14.802 -0.4036 -0.3129  0.4508
  174MPD1     H 2707   3.717   0.206  14.431 -1.1011 -0.6814  0.1428
  174MPD1    H1 2708   3.528   0.237  14.819  1.0293 -0.8130  0.4226
  174MPD1    H2 2709   3.946   0.309  14.766  1.3523 -2.1467 -0.8310
  174MPD1    H3 2710   3.747   0.297  14.909  2.3482  1.0056 -0.0120
  174MPD1     N 2711   3.473   0.189  14.562  0.1354  0.0383 -0.5376
  174MPD1    H5 2712   3.395   0.208  14.624  0.8142  2.0133 -0.2988
  174MPD1    N1 2713   3.960   0.227  14.521 -0.5075 -0.2468 -0.0936
  174MPD1    H6 2714   3.955   0.159  14.445 -0.2157  1.4532 -1.6514
  174MPD1    H7 2715   4.036   0.198  14.581  0.7791  1.3789 -0.9312
  175MPD1     C 2716   1.290   1.681  15.258  0.0635  0.0730 -0.4447
  175MPD1    C1 2717   1.175   1.717  15.321  0.0510 -0.0972  0.4300
  175MPD1    C2 2718   1.121   1.622  15.410 -0.3846  0.4271 -0.9047
  175MPD1    C3 2719   1.168   1.494  15.410 -0.4166 -0.4580  0.6949
  175MPD1    C4 2720   1.286   1.463  15.343 -0.2171 -1.2353 -0.1802
  175MPD1    C5 2721   1.348   1.558  15.266 -0.0721 -0.1783 -0.7444
  175MPD1     H 2722   1.036   1.653  15.469  0.0807  3.3139 -1.7278
  175MPD1    H1 2723   1.340   1.369  15.337  0.8273 -0.7277  1.1407
  175MPD1    H2 2724   1.345   1.759  15.206  0.5083  0.7364  1.0242
  175MPD1    H3 2725   1.442   1.536  15.216  0.6317  2.4987 -0.6082
  175MPD1     N 2726   1.121   1.397  15.500 -0.4709 -0.5213 -0.2761
  175MPD1    H5 2727   1.156   1.301  15.499 -1.3236 -0.8423  0.2142
  175MPD1    N1 2728   1.134   1.853  15.321 -0.2085 -0.2901  0.0470
  175MPD1    H6 2729   1.153   1.900  15.232  0.3757 -0.4314  0.0948
  175MPD1    H7 2730   1.035   1.846  15.340 -0.0339 -0.3388  0.9101
  176MPD1     C 2731   3.139   2.892  16.322  0.3982  0.1996 -0.1586
  176MPD1    C1 2732   3.178   2.864  16.455 -0.7895  0.0307 -0.3989
  176MPD1    C2 2733   3.131   2.940  16.561 -0.3500 -0.4900 -0.4255
  176MPD1    C3 2734   3.047   3.051  16.537 -0.5288  0.2110  0.0597
  176MPD1    C4 2735   3.012   3.073  16.405 -0.2998 -0.4171 -0.1406
  176MPD1    C5 2736   3.053   2.999  16.297 -1.0188 -0.4178 -0.0481
  176MPD1     H 2737   3.158   2.918  16.664  0.7792  1.4089 -0.3313
  176MPD1    H1 2738   2.947   3.153  16.371 -0.5501  0.2815  2.0130
  176MPD1    H2 2739   3.174   2.832  16.239  1.6648 -0.0699  0.5721
  176MPD1    H3 2740   3.020   3.029  16.199 -2.3301 -0.9030  0.2438
  176MPD1     N 2741   2.993   3.131  16.638  0.6195  0.3831  0.1792
  176MPD1    H5 2742   3.022   3.094  16.728  1.7423 -1.7007 -1.0189
  176MPD1    N1 2743   3.286   2.778  16.474  0.4632  0.6216  0.4619
  176MPD1    H6 2744   3.285   2.746  16.571  0.6124  3.6136  1.4361
  176MPD1    H7 2745   3.272   2.694  16.418 -0.7578  0.8660  0.3947
  177MPD1     C 2746   1.388   2.787  10.622 -1.2251 -0.8723 -0.8633
  177MPD1    C1 2747   1.430   2.892  10.542 -0.7575 -0.9997 -0.1845
  177MPD1    C2 2748   1.386   2.913  10.413  0.0386 -0.0734  0.0151
  177MPD1    C3 2749   1.319   2.814  10.343 -0.1552  0.5540  0.8070
  177MPD1    C4 2750   1.274   2.703  10.417  0.2138  0.0431 -0.3061
  177MPD1    C5 2751   1.309   2.696  10.555 -0.0185  0.5393  0.1498
  177MPD1     H 2752   1.416   3.004  10.363  0.6347 -0.5633 -0.5275
  177MPD1    H1 2753   1.225   2.624  10.362  0.4119 -0.3284  0.0570
  177MPD1    H2 2754   1.414   2.768  10.725  0.1919  1.1673 -0.8482
  177MPD1    H3 2755   1.275   2.608  10.609 -2.4663  0.6484 -1.1943
  177MPD1     N 2756   1.295   2.840  10.205  0.5273 -0.0451  0.1110
  177MPD1    H5 2757   1.337   2.927  10.175  1.8247 -0.3981  0.8503
  177MPD1    N1 2758   1.493   2.999  10.603 -0.0309 -0.0188 -0.3036
  177MPD1    H6 2759   1.564   2.983  10.674  1.3175 -0.4584 -1.7554
  177MPD1    H7 2760   1.539   3.054  10.530  1.7679  0.7277  1.4096
  178MPD1     C 2761   3.232   4.653  17.695 -0.1064  0.3410 -0.0845
  178MPD1    C1 2762   3.220   4.514  17.679  0.1715 -0.0286  0.1192
  178MPD1    C2 2763   3.322   4.446  17.610 -0.2302  0.3897 -0.6939
  178MPD1    C3 2764   3.428   4.521  17.548 -0.1836 -0.0946 -0.1568
  178MPD1    C4 2765   3.415   4.661  17.548 -0.0942  0.6016  0.3705
  178MPD1    C5 2766   3.321   4.726  17.618  0.0341 -0.0492  0.0705
  178MPD1     H 2767   3.320   4.337  17.610  1.5856  0.3625 -0.7762
  178MPD1    H1 2768   3.479   4.725  17.489 -1.5322 -0.7240 -2.5966
  178MPD1    H2 2769   3.151   4.705   0.003 -0.8977 -1.4543  0.5104
  178MPD1    H3 2770   3.322   0.098  17.610  0.5276  0.1483  2.9019
  178MPD1     N 2771   3.528   4.462  17.467  0.4909  0.3500 -0.3988
  178MPD1    H5 2772   3.600   4.523  17.430  0.9817 -1.4533 -2.4113
  178MPD1    N1 2773   3.128   4.447   0.019 -0.0585 -0.2709 -0.1146
  178MPD1    H6 2774   3.051   4.514   0.025 -1.5447 -1.8061 -1.7592
  178MPD1    H7 2775   3.088   4.364  17.720 -0.3151  0.6973 -1.8117
  179MPD1     C 2776   2.730   2.633  15.591  0.0348  0.3214  0.0846
  179MPD1    C1 2777   2.813   2.631  15.698 -0.6738 -0.3641  0.3487
  179MPD1    C2 2778   2.903   2.527  15.702 -0.1766 -0.1221 -0.9973
  179MPD1    C3 2779   2.907   2.424  15.608  0.3953  0.6338  0.1827
  179MPD1    C4 2780   2.822   2.434  15.503  0.8192  0.1756 -0.3008
  179MPD1    C5 2781   2.736   2.530  15.496  0.5731 -0.6682 -0.1282
  179MPD1     H 2782   2.971   2.522  15.786  0.5063 -2.1783 -1.6728
  179MPD1    H1 2783   2.810   2.361  15.423 -2.1689  0.4127 -0.0719
  179MPD1    H2 2784   2.663   2.716  15.572 -1.9065 -1.4162 -0.7417
  179MPD1    H3 2785   2.671   2.533  15.409 -1.7393  1.9810  1.6963
  179MPD1     N 2786   2.964   2.294  15.630  0.1311  0.0491 -0.1772
  179MPD1    H5 2787   2.928   2.222  15.568 -1.9726  0.0600  1.0485
  179MPD1    N1 2788   2.779   2.702  15.817  0.3464  0.8284 -0.6684
  179MPD1    H6 2789   2.765   2.801  15.801 -0.1893  0.5035 -2.1972
  179MPD1    H7 2790   2.862   2.702  15.875  0.1623  0.2981 -0.4023
  180MPD1     C 2791   3.703   3.271  15.223  0.3172  0.4536 -0.6794
  180MPD1    C1 2792   3.756   3.339  15.121 -0.6034  0.0157  0.1254
  180MPD1    C2 2793   3.674   3.398  15.027 -0.0006  0.1792  0.1777
  180MPD1    C3 2794   3.540   3.391  15.026  0.2439 -0.1582  0.4677
  180MPD1    C4 2795   3.490   3.324  15.132 -0.4345  0.8855 -0.8064
  180MPD1    C5 2796   3.567   3.274  15.232 -0.2539 -0.6097 -0.1920
  180MPD1     H 2797   3.722   3.451  14.946  1.1044 -0.9015  0.1321
  180MPD1    H1 2798   3.384   3.304  15.138 -0.0831 -0.9435 -0.8810
  180MPD1    H2 2799   3.758   3.227  15.305 -0.3594 -1.3553 -1.1855
  180MPD1    H3 2800   3.508   3.219  15.305  1.0204  1.7814  2.6297
  180MPD1     N 2801   3.462   3.458  14.934 -0.2171  0.0054  0.4232
  180MPD1    H5 2802   3.511   3.513  14.864 -1.2581 -0.9947 -1.0673
  180MPD1    N1 2803   3.891   3.329  15.093  0.6763  0.0158 -0.1004
  180MPD1    H6 2804   3.937   3.311  15.182 -2.6347 -0.0018  1.6010
  180MPD1    H7 2805   3.927   3.411  15.044  2.2431  0.2341  1.4012
  181MPD1     C 2806   4.350   0.236  11.075 -0.1740 -0.9520 -0.0640
  181MPD1    C1 2807   4.397   0.364  11.087  0.7448  0.2459 -0.2897
  181MPD1    C2 2808   4.443   0.422  10.969  0.0235 -0.1920  0.8132
  181MPD1    C3 2809   4.484   0.351  10.859  0.2408  0.1747 -0.4342
  181MPD1    C4 2810   4.442   0.223  10.857  0.0404 -0.2186 -0.0355
  181MPD1    C5 2811   4.373   0.167  10.962  0.0002  0.2975 -0.3877
  181MPD1     H 2812   4.448   0.531  10.974  4.9472 -0.3934  0.4316
  181MPD1    H1 2813   4.449   0.160  10.769 -3.3914  0.9063 -1.1394
  181MPD1    H2 2814   4.274   0.202  11.144 -0.3344  1.9542  1.1966
  181MPD1    H3 2815   4.323   0.071  10.960  0.9880 -0.2231  0.0911
  181MPD1     N 2816   4.559   0.397  10.751  0.4272  0.5960  0.0787
  181MPD1    H5 2817   4.564   0.335  10.671  0.4937  0.2520  0.3485
  181MPD1    N1 2818   4.352   0.443  11.196 -0.3432 -0.0680 -0.2951
  181MPD1    H6 2819   4.357   0.394  11.285 -0.9492  1.0318  0.3491
  181MPD1    H7 2820   4.408   0.527  11.209 -1.2269  0.6444 -1.0476
  182MPD1     C 2821   1.223   0.171   1.146  0.3530 -0.0073 -0.0988
  182MPD1    C1 2822   1.358   0.167   1.112  0.0053  0.3809  0.3193
  182MPD1    C2 2823   1.390   0.086   1.003  0.7372 -0.1181  0.3493
  182MPD1    C3 2824   1.296   0.028   0.921 -0.3469 -0.4075 -0.4526
  182MPD1    C4 2825   1.168   0.044   0.953  0.6435 -0.1740 -0.3675
  182MPD1    C5 2826   1.135   0.103   1.073 -0.2466  0.4519  0.0449
  182MPD1     H 2827   1.496   0.087   0.981  0.3633  2.0639 -1.3651
  182MPD1    H1 2828   1.092   0.002   0.889  0.0352  1.3163 -0.6051
  182MPD1    H2 2829   1.187   0.222   1.235 -2.2761 -2.6464  0.3627
  182MPD1    H3 2830   1.034   0.087   1.108  0.7043  0.3366  2.6883
  182MPD1     N 2831   1.330   4.700   0.792  0.1169 -0.1520  0.5439
  182MPD1    H5 2832   1.253   4.686   0.727 -1.5818  1.3539  2.2553
  182MPD1    N1 2833   1.465   0.222   1.187 -0.6106 -0.2850 -0.2368
  182MPD1    H6 2834   1.451   0.320   1.212 -1.0401 -0.2484 -0.6193
  182MPD1    H7 2835   1.554   0.225   1.139 -1.5665  0.7485 -1.9514
  183MPD1     C 2836   0.983   4.646   8.770 -0.1413 -0.6481 -0.2126
  183MPD1    C1 2837   1.022   4.594   8.890  1.1711 -0.1118 -0.6685
  183MPD1    C2 2838   0.951   4.631   9.009  0.4964 -0.1007  0.1134
  183MPD1    C3 2839   0.841   4.706   8.994  0.2253  0.3656 -0.3526
  183MPD1    C4 2840   0.799   0.027   8.875 -0.7487 -0.5078 -0.1174
  183MPD1    C5 2841   0.883   0.002   8.767  0.1228  0.4740 -1.4240
  183MPD1     H 2842   0.982   4.598   9.107  0.3098  1.9712  0.8718
  183MPD1    H1 2843   0.711   0.090   8.865  0.2647  1.1610  1.4013
  183MPD1    H2 2844   1.027   4.617   8.676  0.1365 -1.0415  0.0391
  183MPD1    H3 2845   0.849   0.033   8.669  0.2032 -0.8044 -1.8660
  183MPD1     N 2846   0.771   4.727   9.115  0.0242 -0.2085  0.0500
  183MPD1    H5 2847   0.810   4.675   9.193  0.3803  0.4883  0.3401
  183MPD1    N1 2848   1.138   4.519   8.889  0.1561  0.3904  0.1869
  183MPD1    H6 2849   1.178   4.497   8.798  0.7841 -2.1235  1.0741
  183MPD1    H7 2850   1.140   4.445   8.958 -2.1094 -0.2021 -0.3970
  184MPD1     C 2851   0.058   1.925   9.766 -0.4012 -0.6813  0.7691
  184MPD1    C1 2852   0.172   1.950   9.844 -0.1610  1.2634 -0.5722
  184MPD1    C2 2853   0.257   2.058   9.810 -0.3709  0.3250  0.0306
  184MPD1    C3 2854   0.215   2.140   9.707 -0.1584  0.1362  0.7212
  184MPD1    C4 2855   0.096   2.116   9.641  0.2744 -0.5782 -0.4967
  184MPD1    C5 2856   0.021   2.006   9.665 -0.2557 -0.1638 -0.1678
  184MPD1     H 2857   0.344   2.073   9.873  2.3845 -1.9948 -3.1981
  184MPD1    H1 2858   0.060   2.186   9.567 -2.0914  0.1481  1.2979
  184MPD1    H2 2859   4.723   1.846   9.782 -0.2374 -1.1824 -0.9375
  184MPD1    H3 2860   4.682   1.977   9.592  0.0618  2.9108 -1.7093
  184MPD1     N 2861   0.282   2.251   9.660 -0.1199  0.9605  0.1182
  184MPD1    H5 2862   0.255   2.282   9.567 -0.7672 -1.1044 -0.3664
  184MPD1    N1 2863   0.212   1.855   9.938 -0.6463  0.7644  0.1142
  184MPD1    H6 2864   0.138   1.803   9.985  0.9361 -2.2604 -0.7271
  184MPD1    H7 2865   0.284   1.894   9.998 -1.9482  4.6116 -0.8533
  185MPD1     C 2866   0.139   2.516   8.904 -0.9668  0.1087 -0.3289
  185MPD1    C1 2867   0.266   2.571   8.916  0.0240 -0.1920  0.3525
  185MPD1    C2 2868   0.340   2.536   9.023 -1.2272  1.0909 -0.3051
  185MPD1    C3 2869   0.302   2.440   9.118  0.3143 -0.3185 -0.3845
  185MPD1    C4 2870   0.186   2.375   9.094  0.0096 -0.4531  0.5180
  185MPD1    C5 2871   0.104   2.415   8.987 -0.0865 -0.3864  0.9878
  185MPD1     H 2872   0.434   2.590   9.033  0.4366 -2.2893  2.5067
  185MPD1    H1 2873   0.154   2.293   9.157  0.4455  0.2699  1.6745
  185MPD1    H2 2874   0.065   2.548   8.831 -0.7202  0.7406 -0.3032
  185MPD1    H3 2875   0.009   2.366   8.973 -0.7260  0.7816  1.2018
  185MPD1     N 2876   0.364   2.423   9.240  0.0923 -0.2969  0.2191
  185MPD1    H5 2877   0.327   2.347   9.296 -0.1768  0.5638  1.2081
  185MPD1    N1 2878   0.290   2.693   8.842 -0.0749 -0.2960  0.5286
  185MPD1    H6 2879   0.272   2.680   8.743  0.1404  1.4189  0.2651
  185MPD1    H7 2880   0.388   2.722   8.839  0.4496 -2.0172  1.1662
  186MPD1     C 2881   4.565   2.129  16.048  0.1553  0.7311 -0.8387
  186MPD1    C1 2882   4.539   2.119  16.179  0.4437  0.7959  0.1478
  186MPD1    C2 2883   4.444   2.205  16.231 -0.5406 -0.4732 -0.0499
  186MPD1    C3 2884   4.367   2.286  16.155 -0.5466 -0.8118  0.6298
  186MPD1    C4 2885   4.383   2.285  16.018  0.2767 -0.8676  0.7901
  186MPD1    C5 2886   4.482   2.204  15.966  0.2499 -0.4483  0.1735
  186MPD1     H 2887   4.441   2.208  16.340  0.3479 -1.9524  0.0109
  186MPD1    H1 2888   4.324   2.350  15.954  1.9297 -1.6303 -1.5324
  186MPD1    H2 2889   4.641   2.072  15.997  1.5821  1.2503  0.7238
  186MPD1    H3 2890   4.515   2.220  15.864 -0.9974 -0.7503 -0.2807
  186MPD1     N 2891   4.287   2.389  16.211 -0.3669  0.3763  0.2515
  186MPD1    H5 2892   4.250   2.468  16.159  1.7862  1.2045 -0.0069
  186MPD1    N1 2893   4.620   2.028  16.256 -0.2439 -0.1563  0.9944
  186MPD1    H6 2894   4.720   2.019  16.241 -0.3560 -0.7977  0.5827
  186MPD1    H7 2895   4.610   2.059  16.352 -3.0498  0.1883  0.6139
  187MPD1     C 2896   2.625   0.666  17.600 -0.2247  0.1958 -0.2584
  187MPD1    C1 2897   2.626   0.717  17.474  0.1470 -0.1179  0.0968
  187MPD1    C2 2898   2.703   0.658  17.379 -0.8445  0.7423 -0.1035
  187MPD1    C3 2899   2.764   0.536  17.407  0.0722  0.0012  0.2089
  187MPD1    C4 2900   2.743   0.474  17.523 -0.2533  0.8271 -0.8558
  187MPD1    C5 2901   2.674   0.540  17.620 -0.2129  0.2360 -0.4413
  187MPD1     H 2902   2.717   0.703  17.281  2.6891 -1.6108 -0.6890
  187MPD1    H1 2903   2.761   0.369  17.545 -1.4977  0.2933 -2.4049
  187MPD1    H2 2904   2.579   0.721  17.681  2.4305  2.3518 -0.2419
  187MPD1    H3 2905   2.646   0.491  17.713 -0.1516  0.1272 -0.4795
  187MPD1     N 2906   2.848   0.471  17.313  0.1001  0.0782 -0.1128
  187MPD1    H5 2907   2.875   0.376  17.338  0.4727  0.0290 -0.7083
  187MPD1    N1 2908   2.569   0.842  17.445  0.0244 -0.5885 -0.1158
  187MPD1    H6 2909   2.536   0.852  17.349 -1.1727  0.3307  0.3944
  187MPD1    H7 2910   2.498   0.879  17.508  0.4753 -0.6348  0.4196
  188MPD1     C 2911   2.943   4.535   9.989 -0.3538 -0.4105  0.1672
  188MPD1    C1 2912   3.050   4.454  10.000 -0.2426  0.4191 -0.2697
  188MPD1    C2 2913   3.033   4.316   9.981 -1.2875  0.5635  0.3585
  188MPD1    C3 2914   2.905   4.266   9.933 -0.3465 -0.8104  0.3015
  188MPD1    C4 2915   2.809   4.353   9.900  0.0983 -0.5075 -0.1547
  188MPD1    C5 2916   2.824   4.486   9.933  0.0312 -0.8652 -0.3401
  188MPD1     H 2917   3.098   4.244  10.029 -0.7262 -0.0056 -1.2648
  188MPD1    H1 2918   2.717   4.316   9.856 -0.1474  0.1313 -0.1773
  188MPD1    H2 2919   2.957   4.640  10.012  0.3605 -0.3744 -0.4470
  188MPD1    H3 2920   2.746   4.560   9.923 -0.0059 -1.0515 -1.4205
  188MPD1     N 2921   2.877   4.131   9.912  0.2736 -0.0237 -0.1452
  188MPD1    H5 2922   2.781   4.112   9.883 -0.7668  2.0156  1.8792
  188MPD1    N1 2923   3.159   4.510  10.066  0.2506 -0.0181  0.5354
  188MPD1    H6 2924   3.251   4.476  10.038  0.2253  1.4079 -1.2103
  188MPD1    H7 2925   3.169   4.610  10.052 -1.9763 -0.2164 -2.6917
  189MPD1     C 2926   4.733   0.143   0.790 -0.0384 -0.0393  0.0147
  189MPD1    C1 2927   4.604   0.144   0.752  0.1491 -0.4775 -0.8920
  189MPD1    C2 2928   4.553   0.270   0.717  0.7725 -0.1426  0.7364
  189MPD1    C3 2929   4.638   0.374   0.688 -0.5519  0.8369 -0.4911
  189MPD1    C4 2930   0.036   0.356   0.721 -0.2103 -0.0270 -0.3501
  189MPD1    C5 2931   0.087   0.242   0.772  0.4426 -0.2276 -0.7485
  189MPD1     H 2932   4.446   0.268   0.700  0.6507  2.6326  1.1869
  189MPD1    H1 2933   0.104   0.437   0.699 -1.2459  1.5088  2.1400
  189MPD1    H2 2934   0.043   0.056   0.836 -0.5997 -0.2740  0.1359
  189MPD1    H3 2935   0.193   0.234   0.792  0.3087  0.6691  0.2694
  189MPD1     N 2936   4.587   0.487   0.620  0.6687  0.1641  0.1723
  189MPD1    H5 2937   4.492   0.468   0.589  0.9492 -0.3424 -0.3802
  189MPD1    N1 2938   4.522   0.033   0.793 -0.1210 -0.2047 -0.1682
  189MPD1    H6 2939   4.580   4.687   0.774 -1.3560 -0.8637 -1.0829
  189MPD1    H7 2940   4.441   0.024   0.732  1.3561 -2.5288 -1.8018
  190MPD1     C 2941   2.830   3.494  15.275  1.1623  0.2427 -0.3245
  190MPD1    C1 2942   2.865   3.374  15.322 -0.6066 -0.5850  0.3369
  190MPD1    C2 2943   2.994   3.356  15.358  0.5575  0.3313 -0.3950
  190MPD1    C3 2944   3.088   3.456  15.340 -0.4198  0.4205 -1.4950
  190MPD1    C4 2945   3.056   3.564  15.266 -0.1793 -0.5515  0.2441
  190MPD1    C5 2946   2.919   3.591  15.233 -0.5363 -0.2346  0.5071
  190MPD1     H 2947   3.022   3.270  15.418 -2.6765 -0.3420  0.1598
  190MPD1    H1 2948   3.128   3.643  15.248 -1.8819  0.3441 -2.5974
  190MPD1    H2 2949   2.727   3.509  15.245  1.4164  1.8172 -0.3863
  190MPD1    H3 2950   2.891   3.682  15.182 -0.9167 -0.1332  0.8911
  190MPD1     N 2951   3.210   3.433  15.409  0.0247  0.3544  0.0916
  190MPD1    H5 2952   3.225   3.347  15.460 -0.6392  0.5321  0.5851
  190MPD1    N1 2953   2.760   3.282  15.349 -1.0725 -0.3165 -0.5898
  190MPD1    H6 2954   2.677   3.297  15.292  0.0623 -0.3801 -2.2603
  190MPD1    H7 2955   2.781   3.182  15.358  1.6459  0.2728 -0.5773
  191MPD1     C 2956   4.220   4.137  11.333 -0.4026  0.3525 -0.2144
  191MPD1    C1 2957   4.262   4.259  11.378 -0.6849  0.1590 -0.5068
  191MPD1    C2 2958   4.161   4.347  11.427  0.2425 -0.6650 -0.8187
  191MPD1    C3 2959   4.024   4.321  11.416 -0.4833  0.2184 -0.4762
  191MPD1    C4 2960   3.987   4.199  11.373  0.2872 -0.5598 -0.0480
  191MPD1    C5 2961   4.089   4.106  11.343  0.0824 -0.1742  0.1842
  191MPD1     H 2962   4.197   4.445  11.456  2.1181 -2.0788  1.6011
  191MPD1    H1 2963   3.887   4.163  11.351 -1.0984  3.1591  0.0841
  191MPD1    H2 2964   4.282   4.057  11.295 -0.3334 -0.4067  1.5382
  191MPD1    H3 2965   4.058   4.006  11.314 -1.6097 -0.7278  3.8819
  191MPD1     N 2966   3.939   4.426  11.460 -0.5620  1.1667  0.6305
  191MPD1    H5 2967   3.982   4.513  11.489 -0.6045  1.2164  0.5449
  191MPD1    N1 2968   4.394   4.304  11.382 -0.7391  0.2803  0.7977
  191MPD1    H6 2969   4.417   4.391  11.335  1.7237 -1.0167 -0.3572
  191MPD1    H7 2970   4.456   4.236  11.339 -0.4883 -1.0950  3.3362
  192MPD1     C 2971   3.076   0.329  11.662 -0.2120 -0.3990 -0.5518
  192MPD1    C1 2972   3.154   0.332  11.547  0.2569  0.4786 -0.7697
  192MPD1    C2 2973   3.261   0.241  11.535 -0.2741  0.7768  0.1331
  192MPD1    C3 2974   3.284   0.151  11.641  0.5512 -0.3352 -0.5049
  192MPD1    C4 2975   3.205   0.150  11.755  0.1885 -0.5912 -0.2376
  192MPD1    C5 2976   3.093   0.233  11.756 -0.4142  0.3865 -0.1133
  192MPD1     H 2977   3.329   0.247  11.451  0.1029  0.1722  0.3914
  192MPD1    H1 2978   3.235   0.078  11.830 -3.6669 -0.2784  1.5970
  192MPD1    H2 2979   2.985   0.388  11.668  0.6919  0.7372  1.9679
  192MPD1    H3 2980   3.029   0.222  11.843 -1.9517  2.3836 -0.9928
  192MPD1     N 2981   3.395   0.073  11.646 -0.2732  0.5445  0.3248
  192MPD1    H5 2982   3.425   0.042  11.738  1.9662 -0.6583 -0.8081
  192MPD1    N1 2983   3.153   0.445  11.469  0.4969  0.6265 -0.2170
  192MPD1    H6 2984   3.197   0.420  11.380 -2.1909 -2.8714 -0.5740
  192MPD1    H7 2985   3.060   0.479  11.445 -0.1425 -2.7601 -2.5959
  193MPD1     C 2986   1.912   0.895  15.823 -0.0989 -0.4378 -0.0225
  193MPD1    C1 2987   2.005   0.813  15.877 -0.8658  0.3979  0.1128
  193MPD1    C2 2988   2.072   0.847  15.993 -0.2988 -0.8022 -0.0218
  193MPD1    C3 2989   2.060   0.973  16.054 -0.0211  0.1565  0.1426
  193MPD1    C4 2990   1.965   1.057  16.001  0.2709  0.8384  0.5722
  193MPD1    C5 2991   1.900   1.018  15.875  0.4564  0.4311 -0.0313
  193MPD1     H 2992   2.136   0.769  16.033  1.5001  0.3834 -0.5836
  193MPD1    H1 2993   1.947   1.157  16.037  1.4174  0.2247  2.8368
  193MPD1    H2 2994   1.842   0.865  15.747 -1.2055 -0.1805  0.8830
  193MPD1    H3 2995   1.822   1.080  15.833  0.3782  0.5458  0.2792
  193MPD1     N 2996   2.141   1.019  16.164  0.3934  0.0066  0.2505
  193MPD1    H5 2997   2.119   1.107  16.210 -0.8854  0.8643 -1.9847
  193MPD1    N1 2998   2.024   0.680  15.819  0.0261  0.9159  0.0298
  193MPD1    H6 2999   2.021   0.681  15.717 -0.0016 -1.0219  0.0095
  193MPD1    H7 3000   2.122   0.658  15.838  0.0622  1.7493  0.7902
  194MPD1     C 3001   4.534   2.756  17.695  0.2840  0.7016  0.4271
  194MPD1    C1 3002   4.475   2.692  17.591  0.4439 -0.9037 -0.5342
  194MPD1    C2 3003   4.526   2.566  17.568  0.5609  0.0487  0.0919
  194MPD1    C3 3004   4.617   2.502  17.649  0.8948 -0.1031  0.3954
  194MPD1    C4 3005   4.665   2.570   0.016  0.4355  0.2451  0.1578
  194MPD1    C5 3006   4.621   2.697   0.034 -0.0110 -0.1939 -0.1032
  194MPD1     H 3007   4.509   2.516  17.473  0.3978 -1.1242  0.7502
  194MPD1    H1 3008   0.012   2.538   0.078 -1.6106  0.3369  2.9256
  194MPD1    H2 3009   4.498   2.857  17.706  2.2477  1.5855 -1.1884
  194MPD1    H3 3010   4.656   2.759   0.116  0.6726 -1.4062  0.5222
  194MPD1     N 3011   4.686   2.382  17.615 -0.5355 -0.4183 -0.1505
  194MPD1    H5 3012   0.040   2.360  17.656  1.1614  1.9207 -2.6304
  194MPD1    N1 3013   4.395   2.769  17.504  0.0755  0.6068 -0.0051
  194MPD1    H6 3014   4.343   2.698  17.451 -0.3128  0.6221  0.3541
  194MPD1    H7 3015   4.321   2.818  17.554 -0.2374 -1.4326  1.5165
  195MPD1     C 3016   2.557   0.104  17.555 -0.1013  0.5387 -0.5292
  195MPD1    C1 3017   2.555   0.043  17.679 -0.1542  0.2250 -0.5007
  195MPD1    C2 3018   2.531   4.645  17.689  0.5885  0.3278  0.4128
  195MPD1    C3 3019   2.526   4.566  17.572 -0.4328 -0.0265  0.2378
  195MPD1    C4 3020   2.531   4.631  17.450 -0.1335 -0.0446 -0.3268
  195MPD1    C5 3021   2.538   0.031  17.443  0.3480 -0.0464 -0.7379
  195MPD1     H 3022   2.520   4.602   0.046  0.8674 -0.7729 -0.0308
  195MPD1    H1 3023   2.527   4.575  17.358  0.3757  0.3409 -0.5865
  195MPD1    H2 3024   2.568   0.211  17.543  0.0907  0.4280 -1.3207
  195MPD1    H3 3025   2.549   0.085  17.350  1.0876  0.9153 -0.1033
  195MPD1     N 3026   2.506   4.424  17.566  0.0482  0.0218 -0.0303
  195MPD1    H5 3027   2.518   4.375  17.478  1.1507  1.0474 -0.4439
  195MPD1    N1 3028   2.561   0.117   0.053  0.7841  0.3702 -0.0174
  195MPD1    H6 3029   2.619   0.070   0.122  0.1151 -0.7135 -0.1904
  195MPD1    H7 3030   2.600   0.210   0.038 -1.3391  1.4286  1.0436
  196MPD1     C 3031   2.077   3.513   0.303 -0.3648 -0.5432 -0.4750
  196MPD1    C1 3032   2.178   3.593   0.263 -0.0502 -0.2708 -0.2524
  196MPD1    C2 3033   2.220   3.693   0.351 -0.0053  0.3515 -0.4519
  196MPD1    C3 3034   2.166   3.711   0.479  0.8820  0.4846 -0.1966
  196MPD1    C4 3035   2.062   3.629   0.518 -0.0597  0.2797 -0.2358
  196MPD1    C5 3036   2.017   3.533   0.424  0.0604  0.1385 -0.0953
  196MPD1     H 3037   2.306   3.751   0.318  1.3031 -0.7566  1.0633
  196MPD1    H1 3038   2.019   3.650   0.615  0.4759 -2.3684  0.5846
  196MPD1    H2 3039   2.052   3.421   0.251 -2.6601 -0.9335  1.3252
  196MPD1    H3 3040   1.938   3.466   0.456  2.2334 -0.8166  3.3539
  196MPD1     N 3041   2.230   3.789   0.579 -0.2892  0.0162  0.8661
  196MPD1    H5 3042   2.197   3.791   0.675  0.0085 -1.6817  1.0185
  196MPD1    N1 3043   2.255   3.552   0.153 -0.5011 -0.3649  0.5036
  196MPD1    H6 3044   2.200   3.512   0.078  0.3973  0.2338 -0.4840
  196MPD1    H7 3045   2.318   3.622   0.114  0.4242 -0.6463  1.4813
  197MPD1     C 3046   1.329   0.843  17.323 -0.4360 -0.0971  0.1037
  197MPD1    C1 3047   1.386   0.958  17.370 -0.3043 -0.3056 -0.2333
  197MPD1    C2 3048   1.393   1.072  17.280 -0.6487 -0.0834 -0.0701
  197MPD1    C3 3049   1.355   1.064  17.147 -0.0438  0.3527 -0.0278
  197MPD1    C4 3050   1.300   0.940  17.112  0.4489 -0.4050 -0.1364
  197MPD1    C5 3051   1.287   0.834  17.198 -0.8654 -0.2776  0.1938
  197MPD1     H 3052   1.434   1.163  17.320 -3.3301  1.0897  0.0153
  197MPD1    H1 3053   1.250   0.926  17.017 -0.8442 -1.2687  0.6674
  197MPD1    H2 3054   1.294   0.764  17.388  0.3454 -0.0571  0.5674
  197MPD1    H3 3055   1.238   0.747  17.156 -0.3323  0.4570 -1.9320
  197MPD1     N 3056   1.373   1.168  17.046  0.1313  0.3252 -0.3606
  197MPD1    H5 3057   1.331   1.149  16.956 -2.2544  0.0156  0.8138
  197MPD1    N1 3058   1.423   0.969  17.507 -0.1315  0.2736  0.3804
  197MPD1    H6 3059   1.500   1.035  17.518  0.2204  0.1532 -1.3470
  197MPD1    H7 3060   1.459   0.883  17.545 -2.5528 -0.0135  1.9992
  198MPD1     C 3061   2.692   3.805  15.353 -0.1017 -0.9605  0.2233
  198MPD1    C1 3062   2.747   3.882  15.451  0.4110 -0.2342  0.2357
  198MPD1    C2 3063   2.813   3.993  15.397  0.0723 -0.2612  0.1984
  198MPD1    C3 3064   2.814   4.036  15.267  0.0838 -0.0284  0.2179
  198MPD1    C4 3065   2.743   3.959  15.176 -0.7600  0.6830 -0.2698
  198MPD1    C5 3066   2.693   3.840  15.223 -0.2724  0.5099 -0.1685
  198MPD1     H 3067   2.872   4.058  15.462  0.3385 -0.4266  0.1214
  198MPD1    H1 3068   2.727   3.989  15.073  2.9438  0.8703 -0.7795
  198MPD1    H2 3069   2.639   3.712  15.372 -0.0872 -0.8212  0.9317
  198MPD1    H3 3070   2.644   3.780  15.147  0.0475  1.4414 -1.1069
  198MPD1     N 3071   2.886   4.152  15.226  0.0566  0.1347  0.1760
  198MPD1    H5 3072   2.929   4.208  15.298  0.8933  0.1876 -0.3648
  198MPD1    N1 3073   2.757   3.831  15.584  0.6636  0.1214  0.0440
  198MPD1    H6 3074   2.767   3.907  15.652 -0.9005 -0.4812  0.9293
  198MPD1    H7 3075   2.667   3.789  15.603  0.3843  0.5524 -0.3205
  199MPD1     C 3076   4.665   0.176  10.349  0.5093 -0.2343 -0.2207
  199MPD1    C1 3077   4.552   0.247  10.394 -0.7158 -0.6080 -0.3386
  199MPD1    C2 3078   4.530   0.373  10.337 -0.0262  0.6726 -0.3156
  199MPD1    C3 3079   4.603   0.411  10.224  0.5985  0.1991 -0.0762
  199MPD1    C4 3080   4.704   0.330  10.173 -0.2541  0.2089 -0.7541
  199MPD1    C5 3081   0.002   0.214  10.239  0.0709  1.0916  0.2336
  199MPD1     H 3082   4.453   0.434  10.382 -1.5843 -2.7248  1.5590
  199MPD1    H1 3083   0.030   0.371  10.095  0.6274  0.5805  0.1456
  199MPD1    H2 3084   4.690   0.087  10.406  1.9129  0.0907 -0.3245
  199MPD1    H3 3085   0.084   0.149  10.209 -0.2925  0.6751  0.1322
  199MPD1     N 3086   4.574   0.526  10.148  0.1181 -0.0544  0.5349
  199MPD1    H5 3087   4.643   0.546  10.076  1.6858 -1.7787  1.5732
  199MPD1    N1 3088   4.496   0.213  10.516 -0.2451  0.2389 -0.2273
  199MPD1    H6 3089   4.497   0.111  10.525  0.8947  0.2405 -0.3290
  199MPD1    H7 3090   4.405   0.259  10.523 -0.3382  0.4194 -2.8965
  200MPD1     C 3091   4.684   0.933  15.454  0.7549 -0.5016  0.1742
  200MPD1    C1 3092   4.673   1.067  15.421 -0.0097 -0.6469 -0.4771
  200MPD1    C2 3093   4.687   1.110  15.293  0.5339 -0.0352  0.0042
  200MPD1    C3 3094   4.716   1.013  15.199 -0.5475 -0.1944  0.0528
  200MPD1    C4 3095   0.015   0.884  15.234 -0.1488 -0.1152  0.3818
  200MPD1    C5 3096   4.729   0.847  15.361  0.1953 -0.4866 -0.5012
  200MPD1     H 3097   4.687   1.215  15.265  0.1100  0.5119  2.0542
  200MPD1    H1 3098   0.058   0.817  15.160 -3.5940  0.2287 -1.9780
  200MPD1    H2 3099   4.670   0.895  15.555 -1.1646  0.9060  0.4445
  200MPD1    H3 3100   0.011   0.748  15.401  4.3984  0.6617  0.3933
  200MPD1     N 3101   4.698   1.043  15.062 -0.3270  0.0417  0.3618
  200MPD1    H5 3102   4.656   1.134  15.047 -1.3131 -0.6547 -1.1067
  200MPD1    N1 3103   4.666   1.167  15.527  0.6587  0.4648  0.3541
  200MPD1    H6 3104   4.616   1.129  15.607  1.3141  0.8960  0.9673
  200MPD1    H7 3105   4.619   1.250  15.493  1.4740  1.0101  0.5518
  201MPD1     C 3106   1.596   0.281  12.929 -0.3558 -1.1416 -0.1281
  201MPD1    C1 3107   1.710   0.250  13.003  0.2896 -0.0431  0.0412
  201MPD1    C2 3108   1.775   0.135  12.966  0.1645  0.0238 -0.3785
  201MPD1    C3 3109   1.734   0.058  12.863 -0.1084  0.6321  0.1607
  201MPD1    C4 3110   1.621   0.092  12.791  0.5562  0.3172  0.6609
  201MPD1    C5 3111   1.558   0.206  12.824  0.3760 -0.2849 -0.2511
  201MPD1     H 3112   1.873   0.114  13.008  1.0618  2.0199 -1.4612
  201MPD1    H1 3113   1.578   0.023  12.720  0.3381  2.7820 -1.6091
  201MPD1    H2 3114   1.538   0.371  12.944  0.1975 -0.3827 -2.5003
  201MPD1    H3 3115   1.474   0.242  12.766 -0.0552 -1.2748 -0.2370
  201MPD1     N 3116   1.812   4.685  12.835  0.0576 -0.7199  0.4763
  201MPD1    H5 3117   1.901   4.669  12.881  0.8759 -1.2586 -1.3110
  201MPD1    N1 3118   1.749   0.339  13.106  0.3298  0.3121 -0.4457
  201MPD1    H6 3119   1.839   0.320  13.149  0.3595 -0.7440 -0.9812
  201MPD1    H7 3120   1.734   0.436  13.080 -1.0374  0.2792  0.2140
  202MPD1     C 3121   1.321   3.774   8.800 -0.1902  0.2972 -0.1330
  202MPD1    C1 3122   1.249   3.878   8.851  0.3861 -0.2916  0.7273
  202MPD1    C2 3123   1.265   3.904   8.987 -0.1779  0.2437  0.0969
  202MPD1    C3 3124   1.377   3.867   9.063 -0.2964 -0.1116  0.5215
  202MPD1    C4 3125   1.460   3.774   9.002  0.4590 -0.2113  0.6129
  202MPD1    C5 3126   1.433   3.733   8.867 -0.1183  0.1095  0.1283
  202MPD1     H 3127   1.189   3.964   9.035 -2.1587 -1.0645 -1.4216
  202MPD1    H1 3128   1.549   3.732   9.045  0.1131 -0.5422  1.0038
  202MPD1    H2 3129   1.297   3.726   8.705  0.5774 -0.5290  0.0926
  202MPD1    H3 3130   1.501   3.669   8.813 -0.4787 -0.9582  0.9486
  202MPD1     N 3131   1.411   3.905   9.196 -0.2994 -0.3793 -0.1493
  202MPD1    H5 3132   1.495   3.864   9.236  0.2134  0.7074 -0.1099
  202MPD1    N1 3133   1.139   3.918   8.780  0.3239 -0.4331 -0.1655
  202MPD1    H6 3134   1.115   4.015   8.802 -1.4103 -1.0660  0.6864
  202MPD1    H7 3135   1.165   3.910   8.682 -1.0195  2.1039 -0.7285
  203MPD1     C 3136   0.186   0.073  12.608 -0.5656  0.1153  0.4967
  203MPD1    C1 3137   0.252   0.062  12.489 -0.6972  0.2862  0.2477
  203MPD1    C2 3138   0.378   0.006  12.488  0.3552 -0.3714 -0.1285
  203MPD1    C3 3139   0.435   4.681  12.595  0.1651  0.3394  0.4870
  203MPD1    C4 3140   0.373   4.692  12.721 -0.9185 -0.6932  1.2016
  203MPD1    C5 3141   0.254   0.023  12.725 -0.4217 -0.7414  0.4823
  203MPD1     H 3142   0.436   0.008  12.397  0.3741  1.8470 -0.0584
  203MPD1    H1 3143   0.416   4.665  12.816 -3.1294 -2.3041  1.7396
  203MPD1    H2 3144   0.097   0.133  12.622 -1.1895 -0.1788 -2.1173
  203MPD1    H3 3145   0.205   0.029  12.821  0.5017 -0.3036  0.9189
  203MPD1     N 3146   0.562   4.618  12.568 -0.0619 -0.7688  0.0616
  203MPD1    H5 3147   0.580   4.607  12.469  0.2816  1.1336 -0.0960
  203MPD1    N1 3148   0.199   0.127  12.379  0.0177  0.2881  0.1726
  203MPD1    H6 3149   0.222   0.075  12.294 -0.7187  1.5310 -0.7920
  203MPD1    H7 3150   0.102   0.155  12.382 -0.3348 -0.9540  0.1081
  204MPD1     C 3151   0.446   1.590   0.301  0.1947 -0.2490 -0.8947
  204MPD1    C1 3152   0.558   1.587   0.229  0.8755 -0.2946  0.0502
  204MPD1    C2 3153   0.585   1.465   0.179 -0.4664  0.4654  0.2991
  204MPD1    C3 3154   0.496   1.358   0.179  0.1687 -0.4079 -0.3337
  204MPD1    C4 3155   0.375   1.371   0.246 -0.0857  0.2435 -0.9088
  204MPD1    C5 3156   0.352   1.486   0.302 -0.0652 -0.0761  0.1587
  204MPD1     H 3157   0.679   1.446   0.129 -1.1455 -2.0462  0.0174
  204MPD1    H1 3158   0.294   1.300   0.234  0.0660 -0.4728  2.2025
  204MPD1    H2 3159   0.428   1.685   0.350  1.5184 -0.2177 -0.4754
  204MPD1    H3 3160   0.254   1.508   0.342 -0.3266  0.6142 -0.8399
  204MPD1     N 3161   0.532   1.235   0.124 -0.0842 -0.0907 -0.5910
  204MPD1    H5 3162   0.620   1.230   0.073 -0.9274 -0.9896 -1.9789
  204MPD1    N1 3163   0.653   1.689   0.238  0.3654  0.1458  0.1215
  204MPD1    H6 3164   0.717   1.677   0.160 -2.1047  0.7489 -2.0001
  204MPD1    H7 3165   0.609   1.780   0.235  0.8580  0.2965 -2.6766
  205MPD1     C 3166   0.525   4.506  16.985 -0.3312 -0.3358 -0.5655
  205MPD1    C1 3167   0.428   4.597  17.003  0.1789 -0.2660 -0.4143
  205MPD1    C2 3168   0.384   4.607  17.135  0.7708  0.9839  0.0730
  205MPD1    C3 3169   0.404   4.514  17.232  0.1683 -1.2806  0.5609
  205MPD1    C4 3170   0.489   4.412  17.199 -0.8137 -0.2743  0.3529
  205MPD1    C5 3171   0.550   4.416  17.078  0.0227 -0.2446 -0.4001
  205MPD1     H 3172   0.332   4.696  17.166  0.6718  0.5525  1.1469
  205MPD1    H1 3173   0.498   4.324  17.261 -0.9518  0.6467  1.6845
  205MPD1    H2 3174   0.571   4.496  16.887  1.6034  0.0387  0.2974
  205MPD1    H3 3175   0.621   4.338  17.051 -1.5931 -2.0960  0.7251
  205MPD1     N 3176   0.365   4.520  17.365  0.2004  0.1428 -0.2231
  205MPD1    H5 3177   0.406   4.456  17.432  1.7776 -0.2708 -1.5880
  205MPD1    N1 3178   0.402   4.693  16.903 -0.3449  0.2235  0.3273
  205MPD1    H6 3179   0.306   4.722  16.920 -1.5704 -0.8566 -4.7533
  205MPD1    H7 3180   0.393   4.641  16.816 -3.2307 -1.5571  1.6905
  206MPD1     C 3181   0.602   2.382  16.789  0.4520  0.8731 -0.2506
  206MPD1    C1 3182   0.570   2.515  16.769 -0.1393 -0.4786  0.0736
  206MPD1    C2 3183   0.553   2.564  16.644 -0.0569  0.0383 -0.2704
  206MPD1    C3 3184   0.535   2.479  16.535  0.8597  0.3599 -0.3259
  206MPD1    C4 3185   0.552   2.342  16.550 -0.0797  0.2507 -0.2466
  206MPD1    C5 3186   0.591   2.301  16.678 -0.2895 -0.3197 -0.3152
  206MPD1     H 3187   0.532   2.669  16.636  1.3342  0.2665 -1.0938
  206MPD1    H1 3188   0.534   2.279  16.463  2.5093 -1.7027  0.6447
  206MPD1    H2 3189   0.621   2.337  16.886  2.7788 -0.7269 -1.4529
  206MPD1    H3 3190   0.610   2.196  16.694  1.6085  0.0295 -0.2734
  206MPD1     N 3191   0.507   2.534  16.407  0.2450  0.5608 -0.4730
  206MPD1    H5 3192   0.501   2.470  16.329  1.1660 -0.2192  0.0928
  206MPD1    N1 3193   0.580   2.602  16.877 -0.4334 -0.8243  0.3854
  206MPD1    H6 3194   0.585   2.552  16.965 -0.2963  1.1467  1.5012
  206MPD1    H7 3195   0.505   2.671  16.884 -0.2337 -0.3685 -1.8212
  207MPD1     C 3196   2.387   0.865   8.883  0.3185 -0.0041  0.0792
  207MPD1    C1 3197   2.442   0.989   8.909  0.8125  0.6895 -0.7617
  207MPD1    C2 3198   2.506   1.007   9.028  0.3433 -0.1477  0.5958
  207MPD1    C3 3199   2.531   0.905   9.119  0.3358  0.1701 -1.3112
  207MPD1    C4 3200   2.473   0.782   9.092 -0.2203 -0.2886 -0.3769
  207MPD1    C5 3201   2.402   0.765   8.974 -0.0438 -0.6827  0.0932
  207MPD1     H 3202   2.530   1.110   9.055 -1.2888  0.6799 -1.0917
  207MPD1    H1 3203   2.489   0.691   9.148  2.7082  0.3966 -0.1216
  207MPD1    H2 3204   2.326   0.841   8.796  1.6314  1.9795 -1.3719
  207MPD1    H3 3205   2.358   0.668   8.955  0.0757 -1.1127  1.9495
  207MPD1     N 3206   2.594   0.927   9.243 -0.0568 -0.5580 -0.6984
  207MPD1    H5 3207   2.615   0.844   9.297 -0.4307 -1.0193 -1.2623
  207MPD1    N1 3208   2.400   1.103   8.839  0.6722  0.1912  0.3454
  207MPD1    H6 3209   2.462   1.184   8.844  1.4252 -0.3759  0.2615
  207MPD1    H7 3210   2.363   1.093   8.745 -0.4606  0.2874  0.7783
  208MPD1     C 3211   1.490   3.880  17.032  0.1832 -0.5502 -0.4541
  208MPD1    C1 3212   1.492   3.762  17.110  0.1040  0.7905  0.0325
  208MPD1    C2 3213   1.432   3.763  17.234  0.1990  0.5955  0.4007
  208MPD1    C3 3214   1.381   3.881  17.286  0.0614 -1.4105  0.3976
  208MPD1    C4 3215   1.389   4.002  17.209  0.5860  0.1988 -0.4878
  208MPD1    C5 3216   1.452   3.998  17.087 -0.1725  0.1879 -0.6473
  208MPD1     H 3217   1.419   3.665  17.279 -0.4581 -0.1797 -1.4738
  208MPD1    H1 3218   1.349   4.096  17.245  3.7553  0.5330  2.0678
  208MPD1    H2 3219   1.537   3.882  16.934 -2.0637  3.7117 -1.4174
  208MPD1    H3 3220   1.456   4.091  17.030  1.6434  1.3280  1.3175
  208MPD1     N 3221   1.327   3.878  17.418  0.0792 -0.0068  0.3150
  208MPD1    H5 3222   1.350   3.792  17.467 -1.3224 -0.6401 -0.1351
  208MPD1    N1 3223   1.534   3.644  17.053 -0.2078  0.2530 -0.0889
  208MPD1    H6 3224   1.560   3.578  17.126  1.8215  0.3171 -0.7458
  208MPD1    H7 3225   1.621   3.655  17.000  1.0593 -0.1440  1.8920
  209MPD1     C 3226   1.832   4.545  10.482  0.1110  0.2177  0.7928
  209MPD1    C1 3227   1.944   4.514  10.556  0.0537  0.5756  0.5941
  209MPD1    C2 3228   2.055   4.601  10.542  0.0102 -0.9331 -0.7449
  209MPD1    C3 3229   2.047   4.708  10.461 -0.6404 -0.5176 -0.3497
  209MPD1    C4 3230   1.932   4.731  10.386  0.3637  0.5476 -0.0173
  209MPD1    C5 3231   1.821   4.651  10.398  0.1874 -0.5536  0.0849
  209MPD1     H 3232   2.142   4.571  10.600 -0.4272  0.4689  0.6319
  209MPD1    H1 3233   1.917   0.081  10.321 -1.6360 -0.1763 -0.5282
  209MPD1    H2 3234   1.752   4.472  10.483 -0.1028  0.4337 -1.3321
  209MPD1    H3 3235   1.731   4.667  10.339  0.7628 -3.2787 -1.5643
  209MPD1     N 3236   2.166   0.054  10.444  0.4658  0.0760  0.2549
  209MPD1    H5 3237   2.250   0.021  10.489  1.3069  1.4472 -0.3378
  209MPD1    N1 3238   1.951   4.397  10.632  0.1582  0.3084  0.7067
  209MPD1    H6 3239   2.012   4.420  10.710 -0.0213 -1.6482  1.4264
  209MPD1    H7 3240   1.861   4.364  10.667 -0.3951  3.0087  1.8019
  210MPD1     C 3241   3.119   0.311  10.601 -0.3206 -0.0397  0.0859
  210MPD1    C1 3242   3.050   0.198  10.644  0.3797 -0.5010  0.0660
  210MPD1    C2 3243   2.922   0.195  10.586  0.4667  0.6653 -0.0858
  210MPD1    C3 3244   2.874   0.306  10.511  0.6817  0.0591  0.4182
  210MPD1    C4 3245   2.950   0.418  10.476  0.6271 -0.0940  0.3788
  210MPD1    C5 3246   3.069   0.415  10.527 -0.0818 -0.9260 -0.2244
  210MPD1     H 3247   2.863   0.108  10.613 -0.4495  1.6266  0.9935
  210MPD1    H1 3248   2.911   0.499  10.416 -2.5615 -0.1835  2.3395
  210MPD1    H2 3249   3.220   0.313  10.641  0.4420  3.6570 -2.0591
  210MPD1    H3 3250   3.129   0.505  10.535 -0.0109 -0.9840 -0.1191
  210MPD1     N 3251   2.743   0.303  10.459 -0.3921 -0.5205 -0.2812
  210MPD1    H5 3252   2.719   0.376  10.393 -1.9090 -2.0607 -1.4344
  210MPD1    N1 3253   3.100   0.092  10.724  0.5269  0.3421 -0.8090
  210MPD1    H6 3254   3.028   0.060  10.788  1.2137 -1.7248 -1.0660
  210MPD1    H7 3255   3.167   0.142  10.782  2.0749 -0.9716 -1.4390
  211MPD1     C 3256   4.339   0.050  16.421  0.4667  0.4901  0.2186
  211MPD1    C1 3257   4.268   0.077  16.308 -0.1162 -0.2751  0.1134
  211MPD1    C2 3258   4.321   0.172  16.218 -0.4102 -0.4779 -0.0526
  211MPD1    C3 3259   4.442   0.234  16.247  0.1676  0.2083  0.3635
  211MPD1    C4 3260   4.516   0.180  16.352 -0.1641  0.2801 -0.1042
  211MPD1    C5 3261   4.467   0.090  16.440 -0.9372  0.4304  0.8719
  211MPD1     H 3262   4.271   0.212  16.131 -0.5863 -3.0562 -1.1079
  211MPD1    H1 3263   4.608   0.224  16.389  0.2604 -0.6325 -0.0776
  211MPD1    H2 3264   4.301   4.717  16.495  0.3725  0.1683 -0.1277
  211MPD1    H3 3265   4.537   0.080  16.521 -3.3591  0.6173  3.0002
  211MPD1     N 3266   4.486   0.328  16.154  0.2540  0.0984 -0.2526
  211MPD1    H5 3267   4.423   0.334  16.074  2.5976 -0.6017 -2.1442
  211MPD1    N1 3268   4.145   0.005  16.281  0.0739  0.1890  0.3150
  211MPD1    H6 3269   4.105   0.050  16.199 -1.1877 -2.1179 -0.3387
  211MPD1    H7 3270   4.084   4.723  16.360  0.9674  0.5471  1.0785
  212MPD1     C 3271   4.420   3.823  16.349 -0.0999  0.0755 -0.1258
  212MPD1    C1 3272   4.533   3.773  16.402 -0.5875 -0.3377  0.1331
  212MPD1    C2 3273   4.522   3.650  16.464 -0.3159  0.5311  0.1181
  212MPD1    C3 3274   4.402   3.582  16.488 -0.3232  0.4020 -0.4737
  212MPD1    C4 3275   4.285   3.643  16.453  0.0112 -0.4407  0.3011
  212MPD1    C5 3276   4.297   3.754  16.373  0.1968 -0.0231  0.2479
  212MPD1     H 3277   4.619   3.608  16.486 -0.8310 -0.8720 -0.3021
  212MPD1    H1 3278   4.189   3.594  16.467 -0.7981  1.5988  1.8286
  212MPD1    H2 3279   4.418   3.916  16.293 -2.1875  0.2181  0.1688
  212MPD1    H3 3280   4.204   3.800  16.342  0.6310  1.2294  0.7742
  212MPD1     N 3281   4.396   3.462  16.565 -0.0699 -0.1954  0.0885
  212MPD1    H5 3282   4.307   3.438  16.607  1.5363 -2.8105  1.9597
  212MPD1    N1 3283   4.658   3.828  16.367 -0.6857  0.0126  0.6542
  212MPD1    H6 3284   0.005   3.811  16.423  0.5529 -1.7333 -1.6709
  212MPD1    H7 3285   4.650   3.930  16.363  1.5227  0.1501 -0.4910
  213MPD1     C 3286   2.533   3.948  15.822  1.1086  0.2140 -0.5257
  213MPD1    C1 3287   2.531   4.084  15.789 -0.6241 -0.1391  0.1257
  213MPD1    C2 3288   2.511   4.109  15.655  0.2914  0.0917 -0.7633
  213MPD1    C3 3289   2.460   4.014  15.567 -0.1113  0.3815  0.7696
  213MPD1    C4 3290   2.446   3.886  15.615 -0.2606  0.3777  0.1971
  213MPD1    C5 3291   2.470   3.854  15.749 -0.0911  0.1200 -0.5089
  213MPD1     H 3292   2.538   4.208  15.620  0.2181  0.3202 -0.1693
  213MPD1    H1 3293   2.409   3.806  15.551 -1.5544 -0.2024  1.6753
  213MPD1    H2 3294   2.550   3.928  15.927  1.2505 -1.4631 -0.8667
  213MPD1    H3 3295   2.447   3.756  15.789 -0.0255  0.3419  0.0640
  213MPD1     N 3296   2.448   4.043  15.426 -0.5003 -0.3100 -0.5510
  213MPD1    H5 3297   2.470   4.137  15.395 -3.7058  1.4642  2.5021
  213MPD1    N1 3298   2.615   4.170  15.866 -0.0302 -0.9238  0.1201
  213MPD1    H6 3299   2.616   4.159  15.967  0.7983  1.5846  0.3879
  213MPD1    H7 3300   2.585   4.263  15.838  1.1235 -0.4545  0.4771
  214MPD1     C 3301   1.891   3.565  14.765  0.5436 -0.0643 -0.3688
  214MPD1    C1 3302   1.862   3.695  14.796 -0.3002  0.2184 -0.2286
  214MPD1    C2 3303   1.962   3.780  14.843  0.4314  0.0563  0.7620
  214MPD1    C3 3304   2.086   3.738  14.851  0.8113  0.8092 -0.5079
  214MPD1    C4 3305   2.113   3.611  14.819  0.4513 -0.2169  0.6208
  214MPD1    C5 3306   2.015   3.521  14.781  0.3839  0.3128  0.0045
  214MPD1     H 3307   1.929   3.875  14.883 -0.3094  0.8683 -1.7806
  214MPD1    H1 3308   2.215   3.576  14.825  0.4985 -0.1344  0.3144
  214MPD1    H2 3309   1.812   3.495  14.740  1.6343 -0.9939 -1.2022
  214MPD1    H3 3310   2.050   3.419  14.773 -0.3957  0.0154  0.4031
  214MPD1     N 3311   2.183   3.808  14.914 -0.4003 -0.3041 -0.4837
  214MPD1    H5 3312   2.267   3.761  14.947 -0.0307  0.2051 -0.7026
  214MPD1    N1 3313   1.720   3.734  14.802  0.2309 -0.4653  0.0561
  214MPD1    H6 3314   1.709   3.834  14.815 -2.3976 -0.9758  1.8183
  214MPD1    H7 3315   1.666   3.706  14.720 -1.3361 -1.1850  1.3347
  215MPD1     C 3316   1.872   4.449  10.941 -0.7838  0.5097 -0.3002
  215MPD1    C1 3317   2.005   4.454  10.952  0.5254 -0.6267 -0.1866
  215MPD1    C2 3318   2.080   4.568  10.923 -0.1982  0.2798  0.4221
  215MPD1    C3 3319   2.010   4.682  10.872 -0.3524  0.2773  0.3992
  215MPD1    C4 3320   1.869   4.675  10.867  0.2476 -0.0103 -0.3183
  215MPD1    C5 3321   1.805   4.559  10.899 -0.1306  0.1841  0.7540
  215MPD1     H 3322   2.188   4.572  10.916 -0.2273 -1.0743 -0.7895
  215MPD1    H1 3323   1.812   0.025  10.833  0.2487  0.1112 -0.0120
  215MPD1    H2 3324   1.817   4.356  10.951  0.7893 -0.5836 -1.7224
  215MPD1    H3 3325   1.698   4.547  10.890 -0.2215  1.0965  0.6690
  215MPD1     N 3326   2.080   0.070  10.858  0.0973 -0.3252  0.3256
  215MPD1    H5 3327   2.179   0.064  10.880  0.2990 -0.1008 -0.4958
  215MPD1    N1 3328   2.067   4.338  10.989 -0.2245 -0.0735  0.0806
  215MPD1    H6 3329   1.997   4.268  11.013 -0.1356 -0.6171 -1.2814
  215MPD1    H7 3330   2.115   4.358  11.077  1.4952  1.4603 -1.2160
  216MPD1     C 3331   4.365   2.941   1.717  0.3899 -0.1318 -0.7816
  216MPD1    C1 3332   4.469   2.851   1.735  0.3394 -0.2337 -0.0400
  216MPD1    C2 3333   4.515   2.790   1.626  0.2925  0.1160 -0.1694
  216MPD1    C3 3334   4.468   2.813   1.493 -0.0735  0.4072 -0.3950
  216MPD1    C4 3335   4.358   2.901   1.487 -0.3837 -0.3842 -1.3560
  216MPD1    C5 3336   4.307   2.964   1.598 -0.4178 -0.5333 -0.1012
  216MPD1     H 3337   4.593   2.715   1.633  0.5703  0.2927 -1.3458
  216MPD1    H1 3338   4.310   2.928   1.393 -2.0842 -0.5972 -0.5493
  216MPD1    H2 3339   4.317   2.999   1.796  1.0342  0.9584 -1.1946
  216MPD1    H3 3340   4.211   3.013   1.603 -0.0813  0.4608 -3.1544
  216MPD1     N 3341   4.526   2.742   1.387  0.2924  0.3150  0.1849
  216MPD1    H5 3342   4.587   2.668   1.421  0.2262  0.2592  0.1841
  216MPD1    N1 3343   4.537   2.836   1.855 -0.1153 -0.2396 -0.4208
  216MPD1    H6 3344   4.497   2.896   1.928 -0.1970 -0.1394 -0.5476
  216MPD1    H7 3345   4.570   2.747   1.889 -1.0137 -0.5523 -0.3628
  217MPD1     C 3346   0.095   3.388   8.734 -0.0087 -0.2135  0.8331
  217MPD1    C1 3347   0.232   3.381   8.725  0.0616 -0.0767 -0.7183
  217MPD1    C2 3348   0.308   3.497   8.753 -1.2117  0.4587 -0.2566
  217MPD1    C3 3349   0.246   3.605   8.811  0.1157  0.1931 -0.6302
  217MPD1    C4 3350   0.114   3.600   8.839 -0.7833  0.5578  0.4241
  217MPD1    C5 3351   0.038   3.489   8.806 -0.3702  0.1491 -0.4464
  217MPD1     H 3352   0.415   3.491   8.737 -1.3576 -0.2701 -0.9598
  217MPD1    H1 3353   0.069   3.687   8.884 -2.0336  0.4569 -0.6249
  217MPD1    H2 3354   0.022   3.315   8.703  1.5799 -1.0735 -0.9108
  217MPD1    H3 3355   4.670   3.481   8.835 -0.5059  0.7393 -0.7843
  217MPD1     N 3356   0.325   3.719   8.858  0.5969 -1.1275  0.4538
  217MPD1    H5 3357   0.274   3.793   8.905  1.4126  0.2172 -0.7914
  217MPD1    N1 3358   0.302   3.278   8.660  0.5289 -0.2346  0.1886
  217MPD1    H6 3359   0.242   3.196   8.655  0.2097  0.1064 -1.4761
  217MPD1    H7 3360   0.393   3.263   8.704  1.1945  1.1652 -0.7197
  218MPD1     C 3361   2.904   1.312  12.184 -0.1869  0.2177  0.6529
  218MPD1    C1 3362   2.912   1.279  12.049  0.6570  0.2399  0.0443
  218MPD1    C2 3363   2.892   1.151  12.013 -0.4308  0.0435 -0.2308
  218MPD1    C3 3364   2.892   1.048  12.106 -0.0853  0.3669 -0.4021
  218MPD1    C4 3365   2.870   1.078  12.242  0.8929 -0.8747  0.7761
  218MPD1    C5 3366   2.880   1.213  12.273 -0.2738 -0.7955 -0.0666
  218MPD1     H 3367   2.888   1.120  11.909 -0.5407 -2.4541  0.5171
  218MPD1    H1 3368   2.830   1.010  12.316 -1.4017 -0.1688  0.1800
  218MPD1    H2 3369   2.900   1.416  12.211  0.1623  0.4055 -0.0253
  218MPD1    H3 3370   2.842   1.242  12.370  1.3552 -0.6363  0.5265
  218MPD1     N 3371   2.869   0.916  12.057  0.4413  0.0017  0.4369
  218MPD1    H5 3372   2.872   0.897  11.958 -1.1142 -1.1067  0.5883
  218MPD1    N1 3373   2.912   1.377  11.955  0.2692  0.4915 -0.0206
  218MPD1    H6 3374   2.945   1.341  11.866 -0.7212 -0.0748 -0.1557
  218MPD1    H7 3375   2.954   1.469  11.971  0.3854  0.8326 -2.3877
  219MPD1     C 3376   2.442   0.347  11.363 -0.2512 -0.7751 -0.1829
  219MPD1    C1 3377   2.522   0.459  11.361  0.0697 -0.2168  0.5064
  219MPD1    C2 3378   2.574   0.505  11.478 -0.4276 -0.8073 -0.5595
  219MPD1    C3 3379   2.557   0.433  11.595  0.2150  0.4905 -0.7363
  219MPD1    C4 3380   2.483   0.317  11.592  0.0162 -0.7277 -0.0033
  219MPD1    C5 3381   2.420   0.272  11.477  0.2335 -0.4933  0.1537
  219MPD1     H 3382   2.610   0.607  11.473 -2.0188 -0.2302 -0.1711
  219MPD1    H1 3383   2.470   0.250  11.676 -0.5503 -4.1404 -2.8204
  219MPD1    H2 3384   2.378   0.329  11.277 -1.7008 -1.1831  0.9643
  219MPD1    H3 3385   2.352   0.188  11.484 -1.2072  0.5424 -1.5199
  219MPD1     N 3386   2.617   0.466  11.713  0.0362  0.5396  0.4912
  219MPD1    H5 3387   2.597   0.407  11.793  0.6855  1.4038  1.2815
  219MPD1    N1 3388   2.521   0.544  11.244 -0.1003  0.1241 -0.2777
  219MPD1    H6 3389   2.610   0.593  11.243 -2.0511  3.6684 -0.6451
  219MPD1    H7 3390   2.515   0.496  11.155  3.8006 -0.4070 -0.2579
  220MPD1     C 3391   1.599   1.426   9.428 -0.2041  0.0858 -0.2248
  220MPD1    C1 3392   1.709   1.385   9.490 -0.3426  0.7971 -0.1005
  220MPD1    C2 3393   1.705   1.270   9.572 -0.1857 -0.9077 -0.0139
  220MPD1    C3 3394   1.586   1.204   9.594  0.1246  0.5312 -0.2654
  220MPD1    C4 3395   1.468   1.263   9.555 -0.3558 -0.3786 -0.0665
  220MPD1    C5 3396   1.481   1.372   9.473 -0.7593 -0.3429  1.0087
  220MPD1     H 3397   1.789   1.226   9.623 -0.6042 -0.0859  1.3716
  220MPD1    H1 3398   1.369   1.222   9.573  0.0454 -0.7833  1.1679
  220MPD1    H2 3399   1.600   1.503   9.351  2.9670  0.4416  0.1909
  220MPD1    H3 3400   1.389   1.417   9.435 -1.4911 -1.4264  1.4906
  220MPD1     N 3401   1.597   1.090   9.674 -0.3147 -0.6989  0.4996
  220MPD1    H5 3402   1.689   1.052   9.695 -0.7639 -2.0168  0.1144
  220MPD1    N1 3403   1.834   1.434   9.447 -0.4163  0.0862  0.2322
  220MPD1    H6 3404   1.820   1.534   9.432 -0.5144  0.2551  1.4439
  220MPD1    H7 3405   1.914   1.428   9.509 -0.3622  2.6229  0.4314
  221MPD1     C 3406   4.464   4.093  16.708 -0.3535 -0.3539 -0.1007
  221MPD1    C1 3407   4.574   4.080  16.791 -0.3809  1.5563  0.3420
  221MPD1    C2 3408   4.707   4.097  16.748 -0.3663 -0.1585 -0.8036
  221MPD1    C3 3409   4.724   4.124  16.613 -0.9473 -0.3185 -0.3669
  221MPD1    C4 3410   4.617   4.128  16.526  0.1776  0.3845  0.6257
  221MPD1    C5 3411   4.491   4.102  16.575  0.5407  0.2802  0.0856
  221MPD1     H 3412   0.057   4.103  16.813 -0.2554 -0.5008 -0.9155
  221MPD1    H1 3413   4.628   4.147  16.420  0.9539 -2.4745  0.1775
  221MPD1    H2 3414   4.363   4.094  16.748  0.3010  0.3328  1.5416
  221MPD1    H3 3415   4.417   4.125  16.499 -0.4989 -1.1414  0.6895
  221MPD1     N 3416   0.112   4.163  16.550  0.3057  0.1197  0.0498
  221MPD1    H5 3417   0.100   4.186  16.452  0.5498 -3.7372 -0.8970
  221MPD1    N1 3418   4.555   4.083  16.928  0.4852  0.2221  0.2250
  221MPD1    H6 3419   4.633   4.033  16.971  1.4454  1.1019 -0.4992
  221MPD1    H7 3420   4.463   4.050  16.959 -0.0571  1.2941 -0.2410
  222MPD1     C 3421   4.209   3.846  16.706  0.8114 -0.1831 -0.4352
  222MPD1    C1 3422   4.110   3.930  16.754 -0.2462 -0.4762  0.3304
  222MPD1    C2 3423   4.057   3.907  16.886 -0.3256 -0.4160  0.3269
  222MPD1    C3 3424   4.110   3.813  16.968 -0.3644 -0.0036 -0.3585
  222MPD1    C4 3425   4.209   3.727  16.923 -0.3729  0.0841  0.1469
  222MPD1    C5 3426   4.252   3.744  16.790  0.2538  0.0954 -0.3312
  222MPD1     H 3427   3.975   3.971  16.918  1.0041  1.1632  0.5912
  222MPD1    H1 3428   4.254   3.648  16.982 -1.9694  0.2271  1.5431
  222MPD1    H2 3429   4.252   3.867  16.608  4.0703  1.2794  1.3168
  222MPD1    H3 3430   4.341   3.690  16.759  0.4108  0.2216 -0.1018
  222MPD1     N 3431   4.059   3.783  17.096 -1.2379  1.0892 -0.1233
  222MPD1    H5 3432   4.099   3.705  17.146 -1.1054  1.6692  0.6713
  222MPD1    N1 3433   4.050   4.026  16.666  0.0718 -0.0709  0.4727
  222MPD1    H6 3434   4.012   4.107  16.715  1.5542  0.8649  0.0795
  222MPD1    H7 3435   4.088   4.044  16.573 -0.4735 -0.0922  0.2437
  223MPD1     C 3436   4.290   3.152  17.577  0.0110 -0.5070 -0.2509
  223MPD1    C1 3437   4.287   3.183  17.443  0.2866 -0.3535  0.2966
  223MPD1    C2 3438   4.221   3.298  17.412  0.1871 -0.0034 -0.3039
  223MPD1    C3 3439   4.129   3.355  17.495 -0.0729 -0.7171 -0.2323
  223MPD1    C4 3440   4.112   3.309  17.624  0.8982  0.0094  0.3055
  223MPD1    C5 3441   4.192   3.209  17.657 -0.4098 -0.1744 -0.1346
  223MPD1     H 3442   4.222   3.347  17.315  0.2911  1.6887  0.5410
  223MPD1    H1 3443   4.040   3.343  17.697  0.3871  1.9170 -1.0571
  223MPD1    H2 3444   4.354   3.075  17.619 -0.2879  0.0646  1.2440
  223MPD1    H3 3445   4.188   3.179   0.018 -2.5372  0.7789  0.0669
  223MPD1     N 3446   4.062   3.469  17.451 -0.0656 -0.0460 -0.3065
  223MPD1    H5 3447   4.098   3.506  17.364  1.7431 -2.2796 -0.5125
  223MPD1    N1 3448   4.372   3.115  17.351  0.1695 -0.5929  0.0028
  223MPD1    H6 3449   4.315   3.128  17.267  1.1941  0.1353 -0.5837
  223MPD1    H7 3450   4.375   3.017  17.377 -0.0650 -0.5532  0.1833
  224MPD1     C 3451   0.066   4.617   9.245  0.0198 -0.0435 -0.2106
  224MPD1    C1 3452   4.722   4.579   9.345 -0.4914  0.5141  0.3643
  224MPD1    C2 3453   0.039   4.557   9.467 -0.0921  0.7329  0.6535
  224MPD1    C3 3454   0.173   4.556   9.494  0.7567  0.0352 -0.8839
  224MPD1    C4 3455   0.258   4.563   9.388 -0.5658  0.7248 -0.6005
  224MPD1    C5 3456   0.203   4.600   9.264 -0.1130 -0.0061 -0.3010
  224MPD1     H 3457   4.708   4.548   9.551 -0.5867  1.6206  0.3563
  224MPD1    H1 3458   0.365   4.580   9.389 -0.4912  0.2392 -0.1551
  224MPD1    H2 3459   0.033   4.646   9.146 -2.5693 -0.6195  0.4921
  224MPD1    H3 3460   0.270   4.619   9.181  3.5585 -3.4954  1.9041
  224MPD1     N 3461   0.229   4.525   9.616 -0.4213 -0.0465 -0.3195
  224MPD1    H5 3462   0.329   4.514   9.629 -0.6313  0.0505  1.3558
  224MPD1    N1 3463   4.582   4.592   9.329 -0.3187 -0.2663 -0.2707
  224MPD1    H6 3464   4.540   4.514   9.379  1.7491 -0.1312  1.6594
  224MPD1    H7 3465   4.555   4.575   9.232 -2.4755 -0.0519  0.2809
  225MPD1     C 3466   0.742   0.362  13.028  0.2106  0.7318 -0.6028
  225MPD1    C1 3467   0.874   0.322  13.026 -0.2259 -0.0362 -0.0744
  225MPD1    C2 3468   0.950   0.337  12.910 -0.4864 -0.0645  0.0532
  225MPD1    C3 3469   0.904   0.409  12.798  0.7997 -0.1581  0.1880
  225MPD1    C4 3470   0.772   0.446  12.803 -0.6115  0.2586  0.5539
  225MPD1    C5 3471   0.690   0.423  12.912  0.3209 -0.1903  0.0342
  225MPD1     H 3472   1.047   0.290  12.905 -0.5093 -0.1837  0.7645
  225MPD1    H1 3473   0.737   0.504  12.717  0.6510 -0.5746 -0.5097
  225MPD1    H2 3474   0.682   0.344  13.116  0.8118 -1.5575 -0.6519
  225MPD1    H3 3475   0.591   0.467  12.912  0.7794  0.8446 -1.0132
  225MPD1     N 3476   0.972   0.425  12.674  0.4866 -0.3901  0.5051
  225MPD1    H5 3477   0.925   0.474  12.599  1.1121 -1.4331 -0.5736
  225MPD1    N1 3478   0.919   0.226  13.118 -0.1373  0.3775 -0.2316
  225MPD1    H6 3479   1.019   0.229  13.137 -0.4770  1.6865  1.3731
  225MPD1    H7 3480   0.873   0.234  13.209  1.1234  1.9895  0.2644
  226MPD1     C 3481   0.438   1.107   9.312  0.5055 -0.3088 -0.0951
  226MPD1    C1 3482   0.444   1.037   9.430 -0.1406 -0.7446 -0.0716
  226MPD1    C2 3483   0.334   0.964   9.464 -1.0121  0.7970  0.4096
  226MPD1    C3 3484   0.211   0.988   9.406 -0.2602 -0.0449  0.2285
  226MPD1    C4 3485   0.210   1.070   9.291 -0.0570 -0.5626  0.1921
  226MPD1    C5 3486   0.326   1.117   9.243 -0.5479 -0.3981 -0.0428
  226MPD1     H 3487   0.335   0.899   9.550 -0.2277  1.0060  0.5565
  226MPD1    H1 3488   0.126   1.105   9.233  1.4559  0.0346 -1.6606
  226MPD1    H2 3489   0.520   1.163   9.267 -1.2423  3.2915  1.1573
  226MPD1    H3 3490   0.342   1.160   9.144  2.4251  0.3579  0.7787
  226MPD1     N 3491   0.101   0.922   9.461  0.3885  0.1376 -0.1217
  226MPD1    H5 3492   0.117   0.864   9.543 -0.2110  0.9467  0.5808
  226MPD1    N1 3493   0.565   1.010   9.497  0.1419  0.3699  0.2880
  226MPD1    H6 3494   0.639   1.079   9.486  1.6759 -1.4435 -0.8272
  226MPD1    H7 3495   0.543   0.999   9.596 -0.3670  0.3761  0.1758
  227MPD1     C 3496   3.771   0.620   9.340 -0.1636  0.2874  0.3156
  227MPD1    C1 3497   3.832   0.531   9.420 -0.0566 -0.1420  0.2125
  227MPD1    C2 3498   3.961   0.565   9.458  0.3720 -0.0514  0.5838
  227MPD1    C3 3499   4.029   0.687   9.443 -0.3387 -0.0664  0.4286
  227MPD1    C4 3500   3.948   0.781   9.369 -0.0553 -0.4464 -0.6022
  227MPD1    C5 3501   3.821   0.747   9.327 -0.8968  0.1682 -0.1264
  227MPD1     H 3502   4.008   0.495   9.527 -0.1190  1.0235  2.0163
  227MPD1    H1 3503   3.976   0.884   9.349  0.9786 -0.4457  0.8794
  227MPD1    H2 3504   3.686   0.587   9.281 -0.4114 -2.3679  2.1442
  227MPD1    H3 3505   3.765   0.814   9.263 -0.8229 -0.3813 -0.7686
  227MPD1     N 3506   4.165   0.705   9.485 -0.6341 -0.0714 -0.5727
  227MPD1    H5 3507   4.207   0.622   9.527 -0.2752  0.4147  0.0273
  227MPD1    N1 3508   3.782   0.405   9.441 -0.4721 -0.0370  0.7141
  227MPD1    H6 3509   3.683   0.415   9.418 -0.2026 -1.7079 -1.1405
  227MPD1    H7 3510   3.803   0.390   9.540 -0.4504  1.1793  0.8848
  228MPD1     C 3511   3.916   3.639  12.745 -0.1748 -0.4716 -0.3733
  228MPD1    C1 3512   3.828   3.730  12.685  0.1947  0.2390  0.1764
  228MPD1    C2 3513   3.701   3.735  12.735 -0.0010  0.0566  0.0949
  228MPD1    C3 3514   3.652   3.646  12.828 -0.1895  0.6939 -0.2952
  228MPD1    C4 3515   3.742   3.564  12.893  0.4987 -0.5023 -0.4607
  228MPD1    C5 3516   3.868   3.559  12.850  0.2389  0.2210 -0.1362
  228MPD1     H 3517   3.631   3.807  12.694 -0.4496 -0.1173  0.5589
  228MPD1    H1 3518   3.725   3.489  12.970  1.9315 -0.8649 -0.4903
  228MPD1    H2 3519   4.015   3.623  12.703 -0.3547  0.9106 -1.3223
  228MPD1    H3 3520   3.936   3.491  12.900  0.9921  1.1091  0.0284
  228MPD1     N 3521   3.515   3.653  12.863  0.3520 -0.5595 -0.4574
  228MPD1    H5 3522   3.457   3.691  12.788 -0.7939  0.0337  0.7113
  228MPD1    N1 3523   3.872   3.819  12.583 -0.2918 -0.1069 -0.2329
  228MPD1    H6 3524   3.809   3.857  12.513 -3.0605 -1.7206  1.3661
  228MPD1    H7 3525   3.962   3.794  12.543  0.6384  0.8644  1.2420
  229MPD1     C 3526   2.938   2.201  15.152  0.4286 -0.4638 -0.2477
  229MPD1    C1 3527   2.899   2.090  15.080 -0.2852 -0.1500 -0.1201
  229MPD1    C2 3528   2.970   1.970  15.087  0.1767  0.5033 -0.0974
  229MPD1    C3 3529   3.091   1.961  15.156  0.5705  0.2594  0.1427
  229MPD1    C4 3530   3.135   2.075  15.222  0.3584 -0.6057  0.0579
  229MPD1    C5 3531   3.058   2.189  15.214  0.0803 -0.2566 -0.9726
  229MPD1     H 3532   2.930   1.883  15.036  0.7827 -0.1026  0.4874
  229MPD1    H1 3533   3.233   2.082  15.269 -0.6646  3.3765  1.5263
  229MPD1    H2 3534   2.879   2.290  15.170 -0.0084  0.0272 -3.9862
  229MPD1    H3 3535   3.101   2.276  15.262 -0.5866 -0.3010 -0.3050
  229MPD1     N 3536   3.171   1.843  15.164  0.2553 -0.0249 -0.6793
  229MPD1    H5 3537   3.258   1.860  15.212  0.5904 -2.7298 -0.3160
  229MPD1    N1 3538   2.773   2.108  15.018 -0.6453  0.2568 -0.0184
  229MPD1    H6 3539   2.755   2.035  14.949 -1.7824 -1.4258  2.0823
  229MPD1    H7 3540   2.771   2.191  14.960 -1.5524  0.1751 -0.1082
  230MPD1     C 3541   4.004   1.456  15.541 -0.1747  0.1672 -0.1893
  230MPD1    C1 3542   4.015   1.421  15.408 -0.0306 -0.1779 -0.2659
  230MPD1    C2 3543   3.905   1.443  15.332 -0.7758 -0.3759 -0.0428
  230MPD1    C3 3544   3.782   1.490  15.384  0.4730 -0.1121  0.5207
  230MPD1    C4 3545   3.778   1.508  15.523 -0.2181 -0.5281  1.1084
  230MPD1    C5 3546   3.888   1.499  15.598 -0.1953  0.4998  0.4338
  230MPD1     H 3547   3.903   1.408  15.230 -3.0671 -2.4567  0.7105
  230MPD1    H1 3548   3.688   1.539  15.574 -1.5229 -0.0884 -1.4408
  230MPD1    H2 3549   4.091   1.438  15.604 -1.4132 -1.0316  1.1777
  230MPD1    H3 3550   3.893   1.502  15.706  1.1097  1.5432  0.3460
  230MPD1     N 3551   3.669   1.504  15.302  0.0877 -0.5692 -0.7919
  230MPD1    H5 3552   3.675   1.472  15.206  1.9185 -3.5063  0.2926
  230MPD1    N1 3553   4.138   1.386  15.350  0.0682 -0.3748 -0.0266
  230MPD1    H6 3554   4.118   1.333  15.266  1.2950 -2.0406  0.7295
  230MPD1    H7 3555   4.196   1.337  15.418  2.3094  1.8013 -0.3461
  231MPD1     C 3556   1.830   4.064  15.334 -0.2252  0.1675  0.8500
  231MPD1    C1 3557   1.825   4.012  15.203  0.1975  0.1306 -0.8676
  231MPD1    C2 3558   1.905   4.079  15.110  0.4754  0.7551 -0.6926
  231MPD1    C3 3559   1.952   4.200  15.133  0.9438 -0.6728 -0.2978
  231MPD1    C4 3560   1.942   4.256  15.261 -0.0742  0.0285 -0.3594
  231MPD1    C5 3561   1.887   4.186  15.362  0.5240  0.5845  0.1795
  231MPD1     H 3562   1.912   4.037  15.011  1.5741 -0.5677 -0.0519
  231MPD1    H1 3563   1.987   4.349  15.293 -0.6563 -0.2363  1.2422
  231MPD1    H2 3564   1.802   3.997  15.414 -0.9409  0.5067  0.8831
  231MPD1    H3 3565   1.897   4.226  15.462 -1.0165 -0.3033  0.6809
  231MPD1     N 3566   2.015   4.262  15.021  0.0237  0.3463  0.1093
  231MPD1    H5 3567   1.998   4.219  14.930  0.6802  1.4642 -0.5390
  231MPD1    N1 3568   1.790   3.880  15.187  0.2598  0.0475  0.3621
  231MPD1    H6 3569   1.752   3.854  15.096  2.0202 -1.8468  0.1570
  231MPD1    H7 3570   1.723   3.859  15.260 -1.6897  3.4344 -0.4645
  232MPD1     C 3571   4.345   1.470   0.068  0.0601  0.0318  0.3246
  232MPD1    C1 3572   4.270   1.409   0.161  0.1624 -0.0719  0.2482
  232MPD1    C2 3573   4.131   1.411   0.147 -0.3295 -0.1248  0.3033
  232MPD1    C3 3574   4.069   1.469   0.038 -0.3225 -0.2632 -0.0700
  232MPD1    C4 3575   4.150   1.517  17.681 -0.4525  0.3504  0.3394
  232MPD1    C5 3576   4.285   1.520  17.699 -0.5077 -0.1764 -0.0669
  232MPD1     H 3577   4.066   1.367   0.222  1.3685  1.1075  2.4823
  232MPD1    H1 3578   4.107   1.568  17.596 -0.0001  0.3375  0.1002
  232MPD1    H2 3579   4.453   1.481   0.076  0.2118 -1.4324  0.3590
  232MPD1    H3 3580   4.348   1.561  17.620  1.0338  1.3144  1.9505
  232MPD1     N 3581   3.930   1.474   0.034  0.2643  0.4019  0.0115
  232MPD1    H5 3582   3.882   1.434   0.114 -2.3969  0.9615 -1.2867
  232MPD1    N1 3583   4.330   1.377   0.282 -0.7124  0.4178 -0.3365
  232MPD1    H6 3584   4.414   1.324   0.259  0.5793  2.2594  0.1799
  232MPD1    H7 3585   4.279   1.299   0.324  1.1086  0.0127  1.1258
  233MPD1     C 3586   4.576   4.399   0.170  0.2396  0.5105  1.0632
  233MPD1    C1 3587   4.562   4.412   0.309  0.3742 -0.1094  0.2301
  233MPD1    C2 3588   4.674   4.429   0.385 -0.0301  0.0151 -0.1329
  233MPD1    C3 3589   0.067   4.433   0.330 -0.2150 -0.6401 -0.6146
  233MPD1    C4 3590   0.074   4.406   0.194  0.0156  0.0749  0.2767
  233MPD1    C5 3591   4.702   4.389   0.117  0.4270  0.9116  0.2687
  233MPD1     H 3592   4.657   4.444   0.491  1.6700  1.2367 -0.0315
  233MPD1    H1 3593   0.169   4.396   0.141  0.9419 -0.6637  2.0891
  233MPD1    H2 3594   4.493   4.388   0.102  1.2213  0.4225 -0.1211
  233MPD1    H3 3595   4.714   4.379   0.009  2.1938  0.3630  0.5177
  233MPD1     N 3596   0.187   4.461   0.411  0.3091  0.5989 -0.7701
  233MPD1    H5 3597   0.279   4.455   0.368  0.1427  0.2019 -1.0797
  233MPD1    N1 3598   4.439   4.443   0.368  0.6861  0.7535  0.2462
  233MPD1    H6 3599   4.436   4.393   0.456  2.8267  0.0358 -0.0824
  233MPD1    H7 3600   4.363   4.398   0.317  3.2880 -2.7217 -0.5359
  234MPD1     C 3601   1.933   4.045   9.927 -0.3849  0.1992 -0.4830
  234MPD1    C1 3602   1.831   4.133   9.960  0.0238  0.4584 -0.0913
  234MPD1    C2 3603   1.706   4.093   9.931  0.1616 -0.3678  0.3145
  234MPD1    C3 3604   1.677   3.969   9.879  0.3293  0.3103  1.1590
  234MPD1    C4 3605   1.775   3.879   9.854 -0.0916 -0.2110 -0.6283
  234MPD1    C5 3606   1.901   3.915   9.888  0.4904 -0.0269 -0.4554
  234MPD1     H 3607   1.627   4.165   9.949 -0.2492 -0.7115 -0.1384
  234MPD1    H1 3608   1.759   3.779   9.815  2.0258 -1.6956  2.2844
  234MPD1    H2 3609   2.036   4.066   9.951 -0.8965  2.7615 -0.5469
  234MPD1    H3 3610   1.976   3.839   9.869  1.1178  0.5800 -0.4122
  234MPD1     N 3611   1.539   3.939   9.862 -0.5482  0.4204  0.3856
  234MPD1    H5 3612   1.477   4.008   9.905 -1.1857 -0.1741  0.4261
  234MPD1    N1 3613   1.861   4.270   9.992  0.6837  0.1902 -0.4068
  234MPD1    H6 3614   1.788   4.309  10.051  0.3636  1.0237 -1.3591
  234MPD1    H7 3615   1.947   4.279  10.045 -0.0772  0.8128  0.7229
  235MPD1     C 3616   2.286   1.038  10.246  0.7112  0.4180 -0.1639
  235MPD1    C1 3617   2.319   1.048  10.111  0.1116  0.3143  0.2992
  235MPD1    C2 3618   2.422   1.141  10.090  0.8452  0.1953  0.2820
  235MPD1    C3 3619   2.484   1.215  10.190 -0.1056  0.0719 -0.9431
  235MPD1    C4 3620   2.434   1.208  10.321  0.4964  1.0076  0.1057
  235MPD1    C5 3621   2.337   1.116  10.348 -0.6263 -0.8000  0.1402
  235MPD1     H 3622   2.458   1.154   9.989 -0.6316  0.5377 -0.2068
  235MPD1    H1 3623   2.478   1.268  10.400  0.4642  0.8371  0.2529
  235MPD1    H2 3624   2.227   0.950  10.271 -1.3227  2.4578  2.2462
  235MPD1    H3 3625   2.299   1.119  10.450  1.7354 -0.5401  1.0247
  235MPD1     N 3626   2.599   1.295  10.165 -0.0380  0.0899  0.1328
  235MPD1    H5 3627   2.626   1.304  10.068  2.5436  1.0011  0.9416
  235MPD1    N1 3628   2.294   0.957  10.008  0.7324 -0.0210 -0.2508
  235MPD1    H6 3629   2.209   0.906  10.029  0.0142  0.8424 -1.0276
  235MPD1    H7 3630   2.284   1.013   9.923  1.2571 -0.0979 -0.3632
  236MPD1     C 3631   1.676   2.627   9.504  0.1488 -0.3818 -0.4101
  236MPD1    C1 3632   1.739   2.710   9.591  0.8401 -0.3400 -0.4210
  236MPD1    C2 3633   1.865   2.679   9.636  0.6099 -0.0334 -0.3384
  236MPD1    C3 3634   1.930   2.565   9.590 -0.0430 -0.1164 -0.3038
  236MPD1    C4 3635   1.865   2.481   9.504  0.5738  0.3566 -0.0558
  236MPD1    C5 3636   1.749   2.524   9.451 -0.3533 -0.2414  0.0233
  236MPD1     H 3637   1.915   2.736   9.713 -0.6712  2.0497 -1.0367
  236MPD1    H1 3638   1.903   2.386   9.468 -0.1555 -0.6228  1.7422
  236MPD1    H2 3639   1.575   2.644   9.468 -0.0266 -1.2974 -0.3551
  236MPD1    H3 3640   1.701   2.457   9.381 -1.1106 -2.0912  2.3256
  236MPD1     N 3641   2.055   2.531   9.640  0.4437  0.4542  0.2803
  236MPD1    H5 3642   2.086   2.438   9.613 -3.2825 -0.6761 -0.1175
  236MPD1    N1 3643   1.676   2.834   9.624  0.2473 -0.1614 -0.5416
  236MPD1    H6 3644   1.707   2.872   9.713 -0.5338  1.6570 -1.0320
  236MPD1    H7 3645   1.574   2.831   9.619  0.2384 -2.6649  1.1941
  237MPD1     C 3646   2.395   0.561  14.767 -0.4970 -0.1208 -0.6016
  237MPD1    C1 3647   2.319   0.586  14.660 -0.3446 -0.0412  0.6856
  237MPD1    C2 3648   2.176   0.590  14.670 -0.6431 -0.0457 -0.2774
  237MPD1    C3 3649   2.113   0.575  14.789 -0.1345 -0.7902  1.2057
  237MPD1    C4 3650   2.187   0.542  14.896  0.6615  0.4296  0.9712
  237MPD1    C5 3651   2.328   0.541  14.885  0.0584 -0.0879 -0.1746
  237MPD1     H 3652   2.116   0.611  14.582  1.4676 -2.1245 -2.2019
  237MPD1    H1 3653   2.133   0.537  14.989  1.2306  0.1209  1.2826
  237MPD1    H2 3654   2.502   0.544  14.759 -0.5412 -0.8431  0.3872
  237MPD1    H3 3655   2.382   0.512  14.974 -0.8961 -2.3129 -0.3031
  237MPD1     N 3656   1.971   0.583  14.809 -0.8829 -0.3563 -0.2817
  237MPD1    H5 3657   1.945   0.576  14.907 -0.1409 -0.0265 -0.0627
  237MPD1    N1 3658   2.383   0.567  14.536 -0.5658  0.1967  0.1540
  237MPD1    H6 3659   2.333   0.625  14.469 -0.5968 -0.5635 -0.4682
  237MPD1    H7 3660   2.485   0.577  14.541 -0.7143  1.3786  0.9895
  238MPD1     C 3661   4.112   3.621  14.808  0.3484  0.0447  0.2845
  238MPD1    C1 3662   4.005   3.628  14.894 -0.1821 -0.0751  0.0543
  238MPD1    C2 3663   3.877   3.662  14.844 -1.3732 -0.1221 -0.0672
  238MPD1    C3 3664   3.867   3.723  14.726  0.5190 -0.2870  0.7608
  238MPD1    C4 3665   3.978   3.722  14.647 -0.5399  0.1563  0.5908
  238MPD1    C5 3666   4.095   3.662  14.681 -0.4694  0.2260  0.6640
  238MPD1     H 3667   3.798   3.679  14.916 -0.4594  0.2792  0.8422
  238MPD1    H1 3668   3.969   3.766  14.548  0.0281  0.0521  0.4941
  238MPD1    H2 3669   4.204   3.574  14.840  0.4502  1.4274  2.0165
  238MPD1    H3 3670   4.179   3.659  14.612 -0.7321 -1.6320  0.4222
  238MPD1     N 3671   3.743   3.773  14.670 -0.7690  0.2365  0.4808
  238MPD1    H5 3672   3.746   3.833  14.588 -1.3297 -1.5463 -0.8329
  238MPD1    N1 3673   4.015   3.584  15.021  0.1618  0.3050 -0.3986
  238MPD1    H6 3674   4.110   3.574  15.056 -0.4352 -0.6028  0.9305
  238MPD1    H7 3675   3.968   3.646  15.087  1.6423 -0.1260  1.0624
  239MPD1     C 3676   4.179   0.623  14.913 -0.3756  0.2043 -0.0512
  239MPD1    C1 3677   4.042   0.583  14.929  0.8202 -0.2358 -0.8774
  239MPD1    C2 3678   3.964   0.569  14.813  0.2366  0.0248  1.0125
  239MPD1    C3 3679   4.006   0.612  14.690 -0.0540  0.0821  0.5687
  239MPD1    C4 3680   4.139   0.657  14.678 -0.0901  0.1218 -0.6705
  239MPD1    C5 3681   4.220   0.653  14.786 -0.0619 -0.8728  0.7973
  239MPD1     H 3682   3.862   0.531  14.814  0.6344 -1.0316  1.0927
  239MPD1    H1 3683   4.177   0.691  14.583  2.3217 -0.6337  0.0255
  239MPD1    H2 3684   4.250   0.629  14.994 -0.4515  0.5774 -0.0091
  239MPD1    H3 3685   4.319   0.694  14.769 -0.5489  0.8096  1.9874
  239MPD1     N 3686   3.929   0.611  14.571  0.0545 -0.4784 -0.6040
  239MPD1    H5 3687   3.970   0.630  14.480 -0.1318 -0.4256 -0.6752
  239MPD1    N1 3688   3.999   0.527  15.054 -0.3320 -0.3806  0.9366
  239MPD1    H6 3689   4.048   0.563  15.135 -0.4442 -0.3951  1.0112
  239MPD1    H7 3690   3.897   0.531  15.064 -0.4560  0.1978 -0.5137
  240MPD1     C 3691   3.557   0.115  13.800  1.4905 -0.9029  0.0163
  240MPD1    C1 3692   3.636   0.079  13.908  0.3748 -0.1231  0.4500
  240MPD1    C2 3693   3.580   4.723  14.003  0.2522 -0.0426  0.0598
  240MPD1    C3 3694   3.462   4.664  13.987 -0.4801  0.1170 -0.4995
  240MPD1    C4 3695   3.385   4.692  13.876  0.0149 -0.1255 -0.3116
  240MPD1    C5 3696   3.434   0.048  13.785  0.3453  0.5214  0.5968
  240MPD1     H 3697   3.634   4.705  14.095  1.1622  1.9275 -0.0752
  240MPD1    H1 3698   3.280   4.664  13.874 -0.2546  1.0698 -2.3236
  240MPD1    H2 3699   3.576   0.199  13.733  1.3877 -1.0392 -0.1827
  240MPD1    H3 3700   3.361   0.079  13.712 -1.6697  0.3781  2.5282
  240MPD1     N 3701   3.420   4.577  14.098 -0.5560 -0.1430  0.1215
  240MPD1    H5 3702   3.490   4.558  14.169 -1.1995 -0.2837  0.7142
  240MPD1    N1 3703   3.757   0.134  13.927 -0.1331  0.3459  0.1771
  240MPD1    H6 3704   3.806   0.165  13.844  0.8037 -0.6786  0.3480
  240MPD1    H7 3705   3.816   0.067  13.977 -2.0224 -1.9086 -0.5849
  241MPD1     C 3706   3.827   4.110  14.830 -0.1826 -0.4147  0.0849
  241MPD1    C1 3707   3.852   4.167  14.708 -0.0386 -1.4633  0.0899
  241MPD1    C2 3708   3.747   4.223  14.630  0.0648  0.0512 -0.1505
  241MPD1    C3 3709   3.620   4.223  14.681 -1.0501  0.9119  0.1209
  241MPD1    C4 3710   3.596   4.164  14.798 -0.4993  0.0481 -0.3296
  241MPD1    C5 3711   3.698   4.110  14.872 -0.2131  0.9374 -0.1345
  241MPD1     H 3712   3.766   4.258  14.530 -0.4515  2.3487  0.5595
  241MPD1    H1 3713   3.497   4.164  14.841 -0.0440 -0.3401  0.7247
  241MPD1    H2 3714   3.899   4.053  14.888 -1.0926  0.2023  1.8224
  241MPD1    H3 3715   3.684   4.077  14.974 -3.3887 -1.0898 -1.1942
  241MPD1     N 3716   3.510   4.279  14.618 -1.0339 -0.1429 -0.2668
  241MPD1    H5 3717   3.419   4.265  14.660 -1.5638 -0.2476 -1.4703
  241MPD1    N1 3718   3.978   4.135  14.648  0.6318  0.4075  0.1426
  241MPD1    H6 3719   4.008   4.214  14.591 -0.8280  1.3262  0.6472
  241MPD1    H7 3720   4.056   4.123  14.712  0.4386 -1.1197  0.0978
  242MPD1     C 3721   3.176   3.160  15.967  0.1368  0.2663  0.1686
  242MPD1    C1 3722   3.086   3.195  15.867  0.0550 -0.3750 -0.7455
  242MPD1    C2 3723   3.059   3.107  15.761  0.0247 -0.0299 -0.5664
  242MPD1    C3 3724   3.133   2.993  15.749 -0.1383  0.0020  0.4652
  242MPD1    C4 3725   3.229   2.963  15.840  0.1273 -0.1275 -0.5778
  242MPD1    C5 3726   3.241   3.042  15.953  0.2128  0.2418  0.1242
  242MPD1     H 3727   2.982   3.141  15.693 -0.6247 -0.4113 -0.0102
  242MPD1    H1 3728   3.292   2.874  15.836 -0.5970 -0.6115 -1.2969
  242MPD1    H2 3729   3.181   3.213  16.062 -1.6049 -0.2706  0.5539
  242MPD1    H3 3730   3.312   3.008  16.028 -1.0379 -0.0519  1.1531
  242MPD1     N 3731   3.106   2.900  15.653 -0.0529  0.1220  0.1482
  242MPD1    H5 3732   3.156   2.813  15.657 -1.7001 -0.8478 -0.3633
  242MPD1    N1 3733   3.001   3.302  15.882 -1.3173 -0.2641  0.5396
  242MPD1    H6 3734   2.959   3.333  15.795 -0.6670 -0.4887  0.1486
  242MPD1    H7 3735   3.032   3.376  15.945  2.0228 -0.5486 -0.8074
  243MPD1     C 3736   0.112   0.997   0.063 -0.1580  0.6532  0.7700
  243MPD1    C1 3737   0.081   0.871   0.022 -0.3801 -0.2961 -0.4149
  243MPD1    C2 3738   0.089   0.852  17.627 -0.4085 -0.0853 -0.0963
  243MPD1    C3 3739   0.150   0.945  17.544 -0.3424  0.0423  0.0134
  243MPD1    C4 3740   0.199   1.063  17.591 -0.2076 -0.0547  0.0705
  243MPD1    C5 3741   0.167   1.094  17.721 -0.6765  0.5445  0.0731
  243MPD1     H 3742   0.059   0.757  17.585  1.0192 -0.5081 -0.1522
  243MPD1    H1 3743   0.254   1.143  17.543 -0.1977  0.6226  1.2190
  243MPD1    H2 3744   0.096   1.025   0.166  1.4610 -1.0380  1.4759
  243MPD1    H3 3745   0.189   1.190   0.025 -1.4146  0.7105  0.0752
  243MPD1     N 3746   0.165   0.920  17.406 -0.7067 -0.2947  0.3876
  243MPD1    H5 3747   0.130   0.829  17.378  0.7426 -0.8281  0.3008
  243MPD1    N1 3748   0.024   0.778   0.107  0.3752  0.0793  0.3040
  243MPD1    H6 3749   0.026   0.688   0.059 -2.4221 -1.5355  3.2747
  243MPD1    H7 3750   0.074   0.777   0.195  0.9794 -1.4270 -0.0575
  244MPD1     C 3751   0.917   0.475  17.118 -0.0284 -0.0296  0.0672
  244MPD1    C1 3752   0.889   0.567  17.216 -0.1355  0.2480  0.4066
  244MPD1    C2 3753   0.767   0.628  17.220 -0.1343  0.4088 -0.4094
  244MPD1    C3 3754   0.673   0.617  17.123  0.2257 -0.0033  0.4455
  244MPD1    C4 3755   0.699   0.527  17.018  0.1789 -0.0650 -0.4205
  244MPD1    C5 3756   0.819   0.452  17.020 -0.0619  0.1416  0.7521
  244MPD1     H 3757   0.732   0.678  17.309  1.8004  0.1999  0.4857
  244MPD1    H1 3758   0.632   0.517  16.933  1.0314 -1.7183 -0.8758
  244MPD1    H2 3759   1.010   0.423  17.100  1.1743  1.2440  2.6836
  244MPD1    H3 3760   0.845   0.392  16.934 -0.0783  0.1586  0.7354
  244MPD1     N 3761   0.551   0.681  17.136  0.8336  0.2479  0.3882
  244MPD1    H5 3762   0.555   0.761  17.198  0.8920  0.5730 -0.0360
  244MPD1    N1 3763   0.966   0.569  17.338  0.0645  0.1295  0.1241
  244MPD1    H6 3764   1.060   0.536  17.318  1.0297  1.4542  2.4020
  244MPD1    H7 3765   0.969   0.657  17.389 -3.3524 -0.0363  0.6408
  245MPD1     C 3766   1.464   1.817  12.928 -0.2083  0.8959 -0.8045
  245MPD1    C1 3767   1.432   1.949  12.928  0.6436  0.9616 -1.0457
  245MPD1    C2 3768   1.524   2.034  12.979 -0.5296  0.1079  0.8338
  245MPD1    C3 3769   1.650   1.988  13.007 -0.2350  0.4930  0.0013
  245MPD1    C4 3770   1.683   1.855  13.004 -0.5025  0.0043  0.0722
  245MPD1    C5 3771   1.583   1.767  12.965  0.2669 -0.2898 -0.1251
  245MPD1     H 3772   1.499   2.140  12.985  1.2835  0.5198  0.9644
  245MPD1    H1 3773   1.778   1.818  13.043  0.2409  2.2114  0.3301
  245MPD1    H2 3774   1.389   1.742  12.903  0.3266  0.6636 -1.7350
  245MPD1    H3 3775   1.596   1.659  12.966 -0.7624 -0.3982  1.0806
  245MPD1     N 3776   1.747   2.089  13.043  0.3957 -0.3401 -0.6002
  245MPD1    H5 3777   1.724   2.188  13.039  0.0767 -0.3795  0.3988
  245MPD1    N1 3778   1.297   1.990  12.912  0.0302 -0.0174 -0.5408
  245MPD1    H6 3779   1.244   1.924  12.855  1.3981 -3.4720  2.1963
  245MPD1    H7 3780   1.285   2.084  12.874 -2.4087 -0.2520 -0.3141
  246MPD1     C 3781   1.438   4.376   9.106  0.5289  0.6132 -0.3034
  246MPD1    C1 3782   1.535   4.447   9.179 -0.5377  0.2823 -0.3946
  246MPD1    C2 3783   1.653   4.385   9.199 -0.1929 -0.1382 -0.1573
  246MPD1    C3 3784   1.681   4.262   9.137  0.1823 -0.1964  0.3191
  246MPD1    C4 3785   1.588   4.199   9.063  0.1234  0.2617  0.4269
  246MPD1    C5 3786   1.471   4.260   9.044  0.2535  0.4145 -0.7398
  246MPD1     H 3787   1.734   4.433   9.253 -0.2751  0.0883 -0.2399
  246MPD1    H1 3788   1.608   4.105   9.013  0.3517  0.6664 -0.2505
  246MPD1    H2 3789   1.341   4.423   9.090  1.0341  2.2637  1.5399
  246MPD1    H3 3790   1.400   4.203   8.986  2.2453 -0.5191 -2.2362
  246MPD1     N 3791   1.808   4.206   9.156 -0.0293  0.7418  0.4374
  246MPD1    H5 3792   1.875   4.259   9.211  0.7038 -0.0992  0.3495
  246MPD1    N1 3793   1.506   4.566   9.248 -0.1570  0.3619 -0.2636
  246MPD1    H6 3794   1.589   4.622   9.265 -0.3214  0.2962  0.8072
  246MPD1    H7 3795   1.444   4.619   9.188 -3.7727 -1.7968  1.5274
  247MPD1     C 3796   1.065   3.573  16.333 -0.3088  0.8306 -0.7849
  247MPD1    C1 3797   1.014   3.524  16.221  0.5665  0.1205  0.5405
  247MPD1    C2 3798   1.027   3.392  16.197 -0.4586  0.1519  0.0693
  247MPD1    C3 3799   1.106   3.305  16.281 -0.2678  0.0968  0.0500
  247MPD1    C4 3800   1.170   3.359  16.389 -0.0871 -0.1291  0.5406
  247MPD1    C5 3801   1.144   3.494  16.410 -0.3340  0.7006 -0.3429
  247MPD1     H 3802   0.986   3.359  16.102  0.0763  0.1125 -0.1488
  247MPD1    H1 3803   1.224   3.295  16.459  0.4796  1.6239  1.7019
  247MPD1    H2 3804   1.036   3.673  16.363 -0.1068  1.1455 -1.6551
  247MPD1    H3 3805   1.198   3.545  16.489  1.5113 -0.3491 -0.9269
  247MPD1     N 3806   1.136   3.167  16.254 -0.5978  0.4301  0.6226
  247MPD1    H5 3807   1.197   3.121  16.320 -1.1212 -0.0095  0.7957
  247MPD1    N1 3808   0.935   3.610  16.139  0.4931 -0.0365  0.1483
  247MPD1    H6 3809   0.931   3.569  16.045  0.4178 -0.0647  0.1636
  247MPD1    H7 3810   0.986   3.698  16.133  2.2586 -0.9226  2.3510
  248MPD1     C 3811   2.237   1.726  17.030  0.2329 -0.0075  0.2992
  248MPD1    C1 3812   2.268   1.843  17.094 -0.5599  0.4583 -0.3513
  248MPD1    C2 3813   2.216   1.869  17.216  0.3206 -0.0480  0.4604
  248MPD1    C3 3814   2.135   1.772  17.287  0.3438 -0.2037  0.0896
  248MPD1    C4 3815   2.122   1.646  17.234 -0.2560  0.4323 -0.7979
  248MPD1    C5 3816   2.166   1.628  17.098 -0.4771  0.0936 -0.3555
  248MPD1     H 3817   2.238   1.963  17.265  1.5786 -1.1749  2.0734
  248MPD1    H1 3818   2.075   1.565  17.288  0.5896  0.8186  0.5185
  248MPD1    H2 3819   2.266   1.707  16.927 -2.1064  0.1972 -0.3935
  248MPD1    H3 3820   2.150   1.537  17.042 -1.9890  0.8426 -1.1345
  248MPD1     N 3821   2.080   1.807  17.411 -0.0192 -0.4666  0.8750
  248MPD1    H5 3822   2.088   1.901  17.450  0.2119  0.7142 -2.0067
  248MPD1    N1 3823   2.308   1.956  17.026 -0.6789 -0.5562  0.6579
  248MPD1    H6 3824   2.338   2.028  17.091  1.8831 -0.7690 -0.2761
  248MPD1    H7 3825   2.374   1.945  16.949 -1.0440  4.0640 -0.3211
  249MPD1     C 3826   3.972   1.133   9.174  0.0325  0.0905  0.5730
  249MPD1    C1 3827   3.989   1.203   9.288  0.3740  0.2381  0.3776
  249MPD1    C2 3828   3.907   1.180   9.394 -0.0237 -0.2933  0.4979
  249MPD1    C3 3829   3.797   1.095   9.381 -0.4014 -0.1833  0.6274
  249MPD1    C4 3830   3.765   1.048   9.254 -0.5940  0.1672  0.5589
  249MPD1    C5 3831   3.849   1.073   9.149  0.3246  0.5798  0.2022
  249MPD1     H 3832   3.931   1.232   9.487  0.4202  0.8221 -0.2457
  249MPD1    H1 3833   3.675   0.993   9.228  1.7398 -2.1732 -2.5344
  249MPD1    H2 3834   4.047   1.141   9.095  0.9653 -0.2652  1.4220
  249MPD1    H3 3835   3.824   1.028   9.053 -0.4053  0.7848  0.2950
  249MPD1     N 3836   3.718   1.068   9.494  0.5450 -0.2166  0.0538
  249MPD1    H5 3837   3.733   1.118   9.581 -1.8769 -0.2631  0.4864
  249MPD1    N1 3838   4.103   1.291   9.304 -0.5353  0.4724  0.3090
  249MPD1    H6 3839   4.125   1.327   9.211 -1.5930 -0.7464 -0.4241
  249MPD1    H7 3840   4.084   1.366   9.369  1.2261  1.5831 -0.4566
  250MPD2     C 3841   0.094   0.548  13.218 -0.2924  0.7572  0.1299
  250MPD2    C1 3842   0.010   0.646  13.166  0.1819  0.4299 -0.1568
  250MPD2    C2 3843   4.629   0.607  13.103 -0.0109 -0.4956  0.2635
  250MPD2    C3 3844   4.590   0.475  13.095 -0.1162  0.0624 -0.7582
  250MPD2    C4 3845   4.674   0.380  13.153  0.0416 -0.1012  0.1708
  250MPD2    C5 3846   0.063   0.416  13.201 -0.2521 -0.0929  0.0881
  250MPD2     H 3847   4.578   0.682  13.043 -1.8951 -1.4796  0.6144
  250MPD2    H1 3848   4.653   0.275  13.169 -0.2826  0.0679  0.8338
  250MPD2    H2 3849   0.196   0.561  13.254 -0.0473 -2.5850  0.5850
  250MPD2    H3 3850   0.126   0.345  13.253  1.3894  1.1212 -0.2435
  250MPD2     N 3851   4.473   0.429  13.027 -0.0770  0.2910 -0.7800
  250MPD2    H5 3852   4.461   0.328  13.021  1.5572 -0.0981  2.3135
  250MPD2    N1 3853   0.060   0.773  13.163 -0.2189 -0.8146  0.2379
  250MPD2    H7 3854   0.154   0.782  13.201 -1.1153 -0.1551  2.3420
  251TMC3    C1 3855   0.066   1.017  13.143  0.0055  0.5788  0.8081
  251TMC3    C2 3856   0.002   1.126  13.204 -0.0470 -0.3319  0.1454
  251TMC3    C3 3857   0.082   1.238  13.223 -0.1595 -0.4873  0.3337
  251TMC3    C4 3858   0.192   1.028  13.090 -0.5024  1.3240 -0.7364
  251TMC3    C5 3859   0.264   1.146  13.097  0.4321 -0.6761  0.0166
  251TMC3    C6 3860   0.205   1.251  13.161  0.0234 -0.2235 -0.0610
  251TMC3     C 3861   4.726   0.889  13.123 -0.3394  0.5955 -0.2579
  251TMC3     O 3862   4.608   0.902  13.087  0.5270  0.2424  0.0494
  251TMC3     H 3863   4.647   1.106  13.259 -0.3041  0.0535 -0.1295
  251TMC3    H1 3864   0.236   0.946  13.034  2.2078  1.2316  1.4899
  251TMC3    H2 3865   0.244   1.351  13.145 -2.3108  0.5612 -0.7802
  251TMC3    C7 3866   0.372   1.168  13.010  0.4016 -0.2617 -0.5131
  251TMC3    C8 3867   0.011   1.355  13.278 -0.3031  0.9842 -0.5608
  251TMC3    O1 3868   0.477   1.110  13.035 -0.1737  0.0850 -0.0597
  251TMC3    O2 3869   0.077   1.435  13.342  0.1071  0.6768  0.0283
  252TMC3    C1 3870   0.352   1.455   9.359 -0.0419 -0.3017 -0.8570
  252TMC3    C2 3871   0.459   1.532   9.333 -0.6532 -0.6631 -0.2232
  252TMC3    C3 3872   0.548   1.555   9.435 -0.8586 -1.1271 -0.4551
  252TMC3    C4 3873   0.325   1.396   9.479 -0.1052  0.5029 -0.0709
  252TMC3    C5 3874   0.418   1.419   9.579  0.4654  0.4747 -0.0335
  252TMC3    C6 3875   0.529   1.491   9.551 -0.6139  0.2429 -0.3060
  252TMC3     C 3876   0.261   1.459   9.248  0.3985 -0.2180  0.8064
  252TMC3     O 3877   0.301   1.479   9.134 -0.8877  0.1786  0.5406
  252TMC3     H 3878   0.458   1.596   9.246  0.8918  0.0859  0.3086
  252TMC3    H1 3879   0.235   1.341   9.506 -0.4619  0.7274 -0.8169
  252TMC3    H2 3880   0.610   1.489   9.622 -0.6112  1.0086 -0.2947
  252TMC3    C7 3881   0.426   1.330   9.692  0.0892 -0.2542 -0.4863
  252TMC3    C8 3882   0.664   1.636   9.407  0.4386  0.8804 -0.4570
  252TMC3    O1 3883   0.530   1.326   9.750 -0.3841  0.1681 -0.1671
  252TMC3    O2 3884   0.669   1.697   9.298  0.4329 -0.0276  0.1135
  253MPD2     C 3885   1.618   1.131  15.438  0.2109  0.2165  0.1245
  253MPD2    C1 3886   1.509   1.104  15.357  0.1517  0.0583  0.3545
  253MPD2    C2 3887   1.391   1.054  15.415 -0.6196 -0.2670 -0.2730
  253MPD2    C3 3888   1.388   1.020  15.550  0.2554  0.3421 -0.4252
  253MPD2    C4 3889   1.501   1.044  15.624 -0.8752 -0.2326 -0.0851
  253MPD2    C5 3890   1.613   1.098  15.569  0.4624 -0.4251  0.0011
  253MPD2     H 3891   1.308   1.029  15.349  0.3667 -1.7471 -0.9625
  253MPD2    H1 3892   1.502   1.029  15.731  0.8546  0.6753  0.0353
  253MPD2    H2 3893   1.710   1.178  15.404  0.0629 -0.6738 -1.5397
  253MPD2    H3 3894   1.698   1.106  15.636  0.9988 -1.8853 -0.5042
  253MPD2     N 3895   1.280   0.951  15.614 -0.0278  0.1535 -0.6672
  253MPD2    H5 3896   1.286   0.904  15.704  0.3646 -0.1734 -0.8679
  253MPD2    N1 3897   1.514   1.110  15.215  0.0638  1.0790 -0.8122
  253MPD2    H7 3898   1.435   1.065  15.169 -0.3199  0.7199  0.1999
  254TMC3    C1 3899   1.060   0.861  15.614  0.1532  0.1854  0.1028
  254TMC3    C2 3900   0.931   0.903  15.605 -0.4679  0.3693 -0.1832
  254TMC3    C3 3901   0.839   0.816  15.667  0.3437  0.0719 -0.7883
  254TMC3    C4 3902   1.100   0.736  15.647 -0.5073  0.0619 -0.7740
  254TMC3    C5 3903   1.007   0.645  15.692 -0.0597 -0.4093 -0.7528
  254TMC3    C6 3904   0.881   0.692  15.718  0.0011 -0.0111 -0.0138
  254TMC3     C 3905   1.156   0.958  15.561  0.4579  0.5236 -0.1243
  254TMC3     O 3906   1.112   1.037  15.480  0.8343  0.1144 -0.1204
  254TMC3     H 3907   0.909   1.009  15.599  2.0937  0.9740  1.0346
  254TMC3    H1 3908   1.202   0.699  15.639 -1.5695 -3.0682  0.1116
  254TMC3    H2 3909   0.814   0.623  15.768 -0.5508 -0.6305 -1.5873
  254TMC3    C7 3910   1.057   0.556  15.797  0.7646 -0.6031 -0.5637
  254TMC3    C8 3911   0.729   0.887  15.732 -0.1579  0.3968 -0.4498
  254TMC3    O1 3912   1.169   0.578  15.841 -0.5552  0.1107 -0.8256
  254TMC3    O2 3913   0.676   0.982  15.669 -0.4206  0.0021 -0.7626
  255MPD2     C 3914   4.075   2.551  10.106 -0.4749 -0.5888 -0.0492
  255MPD2    C1 3915   4.175   2.601  10.028 -0.4656  0.7286  0.1695
  255MPD2    C2 3916   4.229   2.512   9.934 -0.6771 -0.4675 -0.3259
  255MPD2    C3 3917   4.194   2.378   9.937  0.2073 -0.6209 -0.5577
  255MPD2    C4 3918   4.105   2.330  10.037  0.5913  0.4347  0.8361
  255MPD2    C5 3919   4.041   2.422  10.110 -0.4457  0.3254 -0.2443
  255MPD2     H 3920   4.309   2.556   9.877 -1.4257  1.4961  0.1259
  255MPD2    H1 3921   4.073   2.227  10.037  3.8353 -0.6009 -0.7586
  255MPD2    H2 3922   4.029   2.625  10.170  0.6904  1.1109 -1.1955
  255MPD2    H3 3923   3.956   2.398  10.173 -1.7100  0.4784 -1.8662
  255MPD2     N 3924   4.259   2.279   9.867  0.4480 -0.2379 -0.1375
  255MPD2    H5 3925   4.226   2.183   9.880 -0.9597  0.2468 -0.0910
  255MPD2    N1 3926   4.197   2.738  10.037  0.1049 -0.5440 -0.6261
  255MPD2    H7 3927   4.162   2.781  10.122  0.2173 -1.1268 -0.2813
  256TMC3    C1 3928   4.333   2.926  10.021 -0.4728  0.3194  0.0919
  256TMC3    C2 3929   4.437   2.993   9.964  0.2296 -0.1353  0.4060
  256TMC3    C3 3930   4.464   3.116  10.010  0.6866 -0.3764 -0.3068
  256TMC3    C4 3931   4.249   2.990  10.112  0.3573 -0.5786  0.3218
  256TMC3    C5 3932   4.279   3.114  10.156 -0.2316  0.5239 -0.4116
  256TMC3    C6 3933   4.386   3.183  10.104  0.5389 -0.1368 -0.4330
  256TMC3     C 3934   4.300   2.797   9.968 -0.4481  0.3499 -0.5692
  256TMC3     O 3935   4.360   2.762   9.866 -0.0902  0.0432 -0.3183
  256TMC3     H 3936   4.508   2.938   9.903 -1.2935 -1.7850  0.1246
  256TMC3    H1 3937   4.151   2.949  10.131  0.0195  0.7317  1.4016
  256TMC3    H2 3938   4.412   3.281  10.143 -0.0756 -1.0747  2.3477
  256TMC3    C7 3939   4.167   3.186  10.222 -0.1995  0.3595  0.6173
  256TMC3    C8 3940   4.584   3.176   9.955 -0.2083 -0.5115  0.7030
  256TMC3    O1 3941   4.057   3.134  10.213  0.3664 -0.1133  0.1473
  256TMC3    O2 3942   4.666   3.097   9.907 -0.4984  0.2298 -0.3332
  257MPD2     C 3943   3.411   0.601  13.080  0.1434 -0.1612  0.6584
  257MPD2    C1 3944   3.452   0.498  12.993  0.2518 -0.2982 -0.1758
  257MPD2    C2 3945   3.491   0.377  13.040  0.3063 -0.0441  0.0155
  257MPD2    C3 3946   3.495   0.350  13.177  0.4111  0.4418 -0.1012
  257MPD2    C4 3947   3.458   0.453  13.265  0.0481  0.8941  0.3256
  257MPD2    C5 3948   3.420   0.574  13.216  0.2359  0.1983 -0.0119
  257MPD2     H 3949   3.533   0.302  12.974 -0.1084  0.2519 -0.5828
  257MPD2    H1 3950   3.454   0.442  13.373  0.3014 -0.4048  0.2103
  257MPD2    H2 3951   3.376   0.696  13.044  0.6317 -0.6300 -1.0286
  257MPD2    H3 3952   3.381   0.652  13.280 -1.6282 -0.2502 -0.5957
  257MPD2     N 3953   3.539   0.225  13.219  0.0798 -0.6843 -0.2992
  257MPD2    H5 3954   3.556   0.163  13.141 -1.0354 -0.4981 -0.6924
  257MPD2    N1 3955   3.450   0.526  12.852 -0.1466  0.0494 -0.3909
  257MPD2    H7 3956   3.419   0.620  12.830  0.7382  0.2274 -0.9017
  258TMC3    C1 3957   3.632   0.052  13.372  0.2085 -0.0073  0.3446
  258TMC3    C2 3958   3.593   4.683  13.290 -0.1687 -0.5156 -0.0931
  258TMC3    C3 3959   3.631   4.552  13.326 -0.1719 -0.4103  0.2118
  258TMC3    C4 3960   3.710   0.037  13.487  0.3355  0.2114 -0.2484
  258TMC3    C5 3961   3.757   4.645  13.509  0.0778 -0.0747  0.0221
  258TMC3    C6 3962   3.712   4.538  13.435 -0.2299 -0.5033  0.8641
  258TMC3     C 3963   3.584   0.191  13.348 -0.1853 -0.3086 -1.0825
  258TMC3     O 3964   3.586   0.260  13.452 -0.5457 -0.5553 -0.4986
  258TMC3     H 3965   3.513   4.697  13.219 -0.1245 -0.3524 -0.1117
  258TMC3    H1 3966   3.729   0.120  13.554 -0.6270  0.5331 -0.3804
  258TMC3    H2 3967   3.763   4.445  13.456  1.3435 -0.0208 -0.8540
  258TMC3    C7 3968   3.791   4.606  13.642  0.0912  0.2029  0.1176
  258TMC3    C8 3969   3.627   4.451  13.218 -0.1482 -0.0951 -0.0155
  258TMC3    O1 3970   3.735   4.502  13.675 -0.2162  0.9199 -0.1834
  258TMC3    O2 3971   3.556   4.488  13.120 -0.2252  0.3430 -0.8251
  259MPD2     C 3972   2.490   2.046   0.276 -0.2803  0.3274  0.1474
  259MPD2    C1 3973   2.579   1.956   0.328 -0.2904 -0.0810 -0.5274
  259MPD2    C2 3974   2.691   1.930   0.254  0.2071 -0.1197  0.2550
  259MPD2    C3 3975   2.717   1.986   0.139 -0.3593  0.9079 -0.0704
  259MPD2    C4 3976   2.613   2.049   0.074  0.0060 -0.2517 -0.7352
  259MPD2    C5 3977   2.505   2.079   0.147 -0.6958  0.2591  0.4990
  259MPD2     H 3978   2.760   1.853   0.287  1.3140  0.5338 -0.5257
  259MPD2    H1 3979   2.621   2.097  17.720 -0.1046  2.1293  0.4319
  259MPD2    H2 3980   2.400   2.084   0.323 -0.0776  0.6250  0.2903
  259MPD2    H3 3981   2.430   2.142   0.099  0.3871 -0.0340 -1.5802
  259MPD2     N 3982   2.845   1.951   0.083 -0.9414  0.2341 -0.9382
  259MPD2    H5 3983   2.896   1.877   0.131 -0.6411  0.7444 -0.4773
  259MPD2    N1 3984   2.558   1.904   0.455 -0.2111  0.1930 -0.2107
  259MPD2    H7 3985   2.482   1.949   0.506  0.2018 -0.8145  1.2633
  260TMC3    C1 3986   3.025   1.971  17.680 -0.2414 -0.5889  0.8259
  260TMC3    C2 3987   3.066   2.013  17.561  0.1698 -0.3702 -0.0308
  260TMC3    C3 3988   3.203   2.014  17.532  0.2317 -0.2529  0.8526
  260TMC3    C4 3989   3.112   1.928   0.031 -0.1988 -0.9583  0.5350
  260TMC3    C5 3990   3.247   1.942  17.742  0.3673  0.4709  1.6652
  260TMC3    C6 3991   3.294   1.986  17.629 -0.1688  0.2988 -0.5146
  260TMC3     C 3992   2.895   2.018  17.716 -0.3180 -0.1066  0.0324
  260TMC3     O 3993   2.853   2.112  17.650  0.8256  0.4147  0.1624
  260TMC3     H 3994   2.991   2.024  17.483  0.1248 -0.0883  0.0521
  260TMC3    H1 3995   3.071   1.892   0.125 -2.4209 -0.9031 -0.3932
  260TMC3    H2 3996   3.400   1.986  17.604 -0.1836 -1.7192 -0.5853
  260TMC3    C7 3997   3.320   1.818   0.027 -0.4110  0.1351 -0.7159
  260TMC3    C8 3998   3.230   1.942  17.406 -0.6527  0.1145 -0.0544
  260TMC3    O1 3999   3.403   1.781  17.691  0.1131 -0.0931 -0.1330
  260TMC3    O2 4000   3.142   1.948  17.321  0.1095  0.1827 -0.4513
  261MPD2     C 4001   4.508   0.622  12.228  0.0128 -0.4962 -0.3208
  261MPD2    C1 4002   4.397   0.649  12.308 -0.2164  0.3016 -0.0007
  261MPD2    C2 4003   4.309   0.752  12.274  0.2243 -0.3426  0.4153
  261MPD2    C3 4004   4.337   0.827  12.157 -0.1741 -0.7117 -0.2972
  261MPD2    C4 4005   4.441   0.793  12.074 -0.0045  0.5289  0.3170
  261MPD2    C5 4006   4.522   0.696  12.109 -0.9994  0.4263  0.4246
  261MPD2     H 4007   4.234   0.780  12.347  0.6993  2.0738 -0.0317
  261MPD2    H1 4008   4.464   0.841  11.980  0.6999  0.6864  0.5631
  261MPD2    H2 4009   4.579   0.541  12.237  2.5483  1.7958  0.3484
  261MPD2    H3 4010   4.606   0.672  12.044  0.1548  1.3390  1.5862
  261MPD2     N 4011   4.244   0.924  12.115  0.2438  0.0699 -0.6765
  261MPD2    H5 4012   4.270   0.973  12.030 -2.7471  0.3356 -1.4373
  261MPD2    N1 4013   4.360   0.575  12.422 -0.8646 -0.9319  0.0580
  261MPD2    H7 4014   4.298   0.616  12.491  1.5136 -0.5919  1.9661
  262TMC3    C1 4015   4.033   1.027  12.071 -0.0058 -0.4520 -0.4934
  262TMC3    C2 4016   3.901   1.018  12.065  0.7650  0.4459  0.3050
  262TMC3    C3 4017   3.823   1.111  12.013  0.2267 -0.8353 -0.1095
  262TMC3    C4 4018   4.097   1.131  12.005 -0.4830  1.0326 -0.1835
  262TMC3    C5 4019   4.018   1.223  11.942  0.9708 -0.2140  0.2811
  262TMC3    C6 4020   3.884   1.215  11.953 -0.2797  0.0285  0.2447
  262TMC3     C 4021   4.110   0.924  12.137 -0.1047 -0.5396 -0.0099
  262TMC3     O 4022   4.049   0.841  12.204 -0.8161  0.2632  0.4329
  262TMC3     H 4023   3.853   0.950  12.135  0.8149 -0.5070 -0.5751
  262TMC3    H1 4024   4.205   1.141  12.006 -0.2142 -1.8213 -1.1676
  262TMC3    H2 4025   3.825   1.302  11.926  1.0209  1.3210  1.5998
  262TMC3    C7 4026   4.074   1.340  11.901 -0.7516 -0.1568 -0.4939
  262TMC3    C8 4027   3.683   1.127  12.034 -0.7674 -0.2618  0.1354
  262TMC3    O1 4028   4.141   1.406  11.980 -0.0370  0.2343  0.2486
  262TMC3    O2 4029   3.635   1.234  12.006 -0.1709 -0.2753 -0.0087
  263MPD2     C 4030   0.506   0.133  11.715  0.6000  0.1364  0.3382
  263MPD2    C1 4031   0.509   0.064  11.594 -0.5734  0.2957  0.2922
  263MPD2    C2 4032   0.426   0.108  11.497 -0.3153 -0.1861  0.2602
  263MPD2    C3 4033   0.359   0.226  11.512  0.7301 -0.0182  0.0539
  263MPD2    C4 4034   0.361   0.291  11.636 -0.5546 -0.0522  0.0859
  263MPD2    C5 4035   0.438   0.246  11.734 -1.0252  0.1133 -0.5029
  263MPD2     H 4036   0.412   0.043  11.412  1.2300 -0.3848  0.1470
  263MPD2    H1 4037   0.295   0.374  11.654  2.2799  1.9731  1.1683
  263MPD2    H2 4038   0.564   0.098  11.799  1.1878  0.3157  0.0115
  263MPD2    H3 4039   0.441   0.299  11.828 -1.0241  1.0694 -1.0398
  263MPD2     N 4040   0.272   0.262  11.403 -0.1364 -0.2291 -0.1640
  263MPD2    H5 4041   0.264   0.201  11.322  0.7050 -0.9088  0.2739
  263MPD2    N1 4042   0.582   4.675  11.583 -0.6559 -0.4011 -0.0958
  263MPD2    H7 4043   0.652   4.659  11.654  0.2915  3.2557 -0.2194
  264TMC3    C1 4044   0.166   0.390  11.256  0.3879 -0.5237  0.0043
  264TMC3    C2 4045   0.065   0.472  11.235 -0.2154  0.8073  0.5804
  264TMC3    C3 4046   0.043   0.528  11.112 -0.6338  0.1208  0.2804
  264TMC3    C4 4047   0.258   0.357  11.160  0.0728  0.1566  0.8888
  264TMC3    C5 4048   0.233   0.409  11.039  0.5117 -0.7753 -0.0305
  264TMC3    C6 4049   0.124   0.485  11.010 -0.8860  0.9537 -0.2884
  264TMC3     C 4050   0.202   0.373  11.390  0.2447 -0.5066  0.0732
  264TMC3     O 4051   0.181   0.470  11.465  0.1507 -0.1553 -0.0039
  264TMC3     H 4052   4.732   0.500  11.314  0.9869  2.6069  1.0033
  264TMC3    H1 4053   0.341   0.292  11.183  0.1895  0.5344  1.5503
  264TMC3    H2 4054   0.114   0.532  10.914  0.3854  2.6333  0.4104
  264TMC3    C7 4055   0.326   0.411  10.924 -0.6117 -0.5563 -0.3500
  264TMC3    C8 4056   0.034   0.672  11.110 -0.4027  0.5178  0.1953
  264TMC3    O1 4057   0.277   0.424  10.813 -0.0878 -0.1396 -0.2506
  264TMC3    O2 4058   0.013   0.720  10.999  0.7739 -0.0142 -0.1251
  265MPD2     C 4059   2.240   0.419  15.493  0.3126 -0.0873 -0.3245
  265MPD2    C1 4060   2.339   0.510  15.471  0.0404 -0.6781 -0.5810
  265MPD2    C2 4061   2.450   0.466  15.392 -0.3224  0.7251  0.4295
  265MPD2    C3 4062   2.452   0.345  15.329  0.0908  0.0741 -0.3612
  265MPD2    C4 4063   2.350   0.263  15.352  0.7979 -0.2751  0.4565
  265MPD2    C5 4064   2.252   0.293  15.444 -0.1609  0.1333 -0.2071
  265MPD2     H 4065   2.528   0.539  15.371 -1.9913  2.2534 -0.4293
  265MPD2    H1 4066   2.341   0.171  15.294 -0.5088 -0.3454  0.7819
  265MPD2    H2 4067   2.157   0.440  15.560 -0.1772  0.6036 -1.1484
  265MPD2    H3 4068   2.174   0.220  15.462 -1.0257  0.9914 -0.4892
  265MPD2     N 4069   2.543   0.314  15.225  0.2181  0.4744 -0.2840
  265MPD2    H5 4070   2.528   0.225  15.178 -1.4816 -0.6797  2.3954
  265MPD2    N1 4071   2.333   0.640  15.519 -0.0865  0.0147  0.8376
  265MPD2    H7 4072   2.416   0.696  15.531 -0.2874  0.1755  1.4458
  266TMC3    C1 4073   2.231   0.837  15.595  0.9120 -0.0689  0.0572
  266TMC3    C2 4074   2.307   0.860  15.702  0.3865  0.8290  0.5065
  266TMC3    C3 4075   2.291   0.979  15.764  0.3845  1.0172 -0.5004
  266TMC3    C4 4076   2.145   0.936  15.548 -1.4005  0.6995  0.1672
  266TMC3    C5 4077   2.138   1.056  15.607  0.3619 -0.1120  0.0213
  266TMC3    C6 4078   2.217   1.081  15.713  0.5083  0.8302  0.3528
  266TMC3     C 4079   2.212   0.702  15.547 -0.0402 -0.0690 -0.2914
  266TMC3     O 4080   2.095   0.671  15.527  0.2855  0.0057 -0.7781
  266TMC3     H 4081   2.376   0.791  15.749 -0.1612 -0.7545 -1.0288
  266TMC3    H1 4082   2.084   0.907  15.464 -1.0500  1.9295 -0.5094
  266TMC3    H2 4083   2.210   1.178  15.761 -1.7636  1.1120 -0.5372
  266TMC3    C7 4084   2.054   1.158  15.537 -0.2143  0.2809 -0.5374
  266TMC3    C8 4085   2.394   1.008  15.866  0.2411 -0.3255 -0.1615
  266TMC3    O1 4086   1.970   1.121  15.462  0.1765 -0.2052  0.1915
  266TMC3    O2 4087   2.467   0.914  15.897  0.0994  0.4413 -0.4466
  267MPD2     C 4088   0.310   2.082   1.344 -0.0824  0.4417 -0.3072
  267MPD2    C1 4089   0.265   2.082   1.214 -0.2994  0.2803  0.6278
  267MPD2    C2 4090   0.141   2.144   1.190  0.0380 -0.2665 -0.1212
  267MPD2    C3 4091   0.078   2.225   1.283 -0.3026  0.6302 -0.3068
  267MPD2    C4 4092   0.132   2.222   1.413 -0.4856  0.0843 -0.1383
  267MPD2    C5 4093   0.246   2.149   1.439 -0.6511 -0.1633 -0.5676
  267MPD2     H 4094   0.097   2.129   1.092 -1.7142 -1.7032  0.8741
  267MPD2    H1 4095   0.084   2.271   1.497 -1.6940 -1.8042  0.2611
  267MPD2    H2 4096   0.396   2.026   1.380 -2.3420 -3.1361 -0.4544
  267MPD2    H3 4097   0.281   2.140   1.541 -1.2777  0.3623 -0.3011
  267MPD2     N 4098   4.689   2.297   1.260 -0.3872  0.7392 -0.5339
  267MPD2    H5 4099   4.659   2.355   1.338  0.8868  1.3809 -0.5205
  267MPD2    N1 4100   0.326   2.000   1.120  0.0904 -0.8591  0.1322
  267MPD2    H7 4101   0.419   1.975   1.151  1.2912  1.0227 -1.9020
  268TMC3    C1 4102   0.402   1.920   0.911  0.1796 -0.2940  0.4796
  268TMC3    C2 4103   0.417   1.965   0.782 -0.1334  0.2180 -0.3418
  268TMC3    C3 4104   0.542   1.946   0.730  0.4442  0.5292 -0.4601
  268TMC3    C4 4105   0.503   1.856   0.980 -0.0717  0.0262 -0.2314
  268TMC3    C5 4106   0.620   1.829   0.922  0.0622 -0.9349  0.4246
  268TMC3    C6 4107   0.639   1.871   0.792  0.2267  0.4899  0.2235
  268TMC3     C 4108   0.294   1.983   0.985 -0.4845  0.1684  0.1880
  268TMC3     O 4109   0.201   2.026   0.919  0.1160  0.0924 -0.1085
  268TMC3     H 4110   0.340   2.030   0.741 -0.8906 -1.2981 -1.3230
  268TMC3    H1 4111   0.484   1.820   1.081 -2.3037  0.6064 -0.4577
  268TMC3    H2 4112   0.739   1.867   0.750 -0.4353 -1.0539 -1.1660
  268TMC3    C7 4113   0.702   1.734   0.984  0.0466  0.4560  0.7743
  268TMC3    C8 4114   0.572   1.984   0.592 -0.7785  0.3213 -0.1484
  268TMC3    O1 4115   0.669   1.691   1.090  0.3947  0.1978 -0.5029
  268TMC3    O2 4116   0.690   1.975   0.577 -0.3620  0.1301  0.8149
  269MPD2     C 4117   0.824   1.071  15.332 -0.6345 -0.1777  0.0062
  269MPD2    C1 4118   0.690   1.071  15.343 -0.2397  0.0062  0.9922
  269MPD2    C2 4119   0.613   1.184  15.327  0.0701 -0.1874 -0.5836
  269MPD2    C3 4120   0.679   1.302  15.308 -0.1807 -0.1012 -0.7292
  269MPD2    C4 4121   0.820   1.305  15.302  0.5932  0.2672  0.9675
  269MPD2    C5 4122   0.884   1.185  15.308 -0.4315  0.1591  0.5921
  269MPD2     H 4123   0.506   1.192  15.343  0.2249  0.0117  0.3563
  269MPD2    H1 4124   0.878   1.397  15.303  0.9645  0.0294  1.2683
  269MPD2    H2 4125   0.885   0.984  15.350 -1.3125 -0.9792 -1.5747
  269MPD2    H3 4126   0.992   1.185  15.297 -0.6290 -0.8451 -1.4596
  269MPD2     N 4127   0.601   1.417  15.308 -0.4687 -0.3540  0.1276
  269MPD2    H5 4128   0.500   1.405  15.304 -0.5363  0.9749 -2.4665
  269MPD2    N1 4129   0.632   0.944  15.360  0.1002 -0.3930  0.3813
  269MPD2    H7 4130   0.697   0.866  15.357 -0.1157 -0.5936  0.7925
  270TMC3    C1 4131   0.473   0.775  15.347 -0.9021  0.8996 -0.1159
  270TMC3    C2 4132   0.358   0.733  15.292  1.0816  0.2576  0.3404
  270TMC3    C3 4133   0.306   0.621  15.347  0.3902 -0.2396  0.2927
  270TMC3    C4 4134   0.541   0.710  15.447  0.1822 -0.6067  0.3085
  270TMC3    C5 4135   0.478   0.603  15.498  0.6872  0.5020 -0.0768
  270TMC3    C6 4136   0.358   0.562  15.460  0.2906  0.1110  0.2939
  270TMC3     C 4137   0.501   0.916  15.336 -0.2892 -0.0767 -0.0879
  270TMC3     O 4138   0.419   0.984  15.279  0.5231  0.2394 -0.1778
  270TMC3     H 4139   0.318   0.790  15.209 -0.7274  1.7919  2.2946
  270TMC3    H1 4140   0.628   0.745  15.501 -1.1783  3.0794  0.1061
  270TMC3    H2 4141   0.315   0.469  15.495 -1.5984  0.9436  0.2046
  270TMC3    C7 4142   0.549   0.515  15.590 -0.1107 -0.2877  0.0851
  270TMC3    C8 4143   0.246   0.524  15.249  0.5995 -0.0083 -0.1846
  270TMC3    O1 4144   0.670   0.519  15.572 -0.3307  0.2768  0.1843
  270TMC3    O2 4145   0.169   0.441  15.293  0.0323  0.2432  0.5455
  271MPD2     C 4146   4.385   0.551  13.526  0.5514  0.4296 -0.1617
  271MPD2    C1 4147   4.364   0.576  13.659  0.0676  0.3058 -0.0172
  271MPD2    C2 4148   4.245   0.630  13.704  0.3964 -0.0348 -0.3397
  271MPD2    C3 4149   4.148   0.676  13.612  0.1216  0.4411  0.4355
  271MPD2    C4 4150   4.172   0.645  13.483  0.4450 -1.3697 -0.6823
  271MPD2    C5 4151   4.289   0.590  13.444 -0.4026 -0.3560  0.2327
  271MPD2     H 4152   4.235   0.656  13.809 -1.4532  2.1832 -1.0534
  271MPD2    H1 4153   4.108   0.675  13.401 -0.0557 -0.0414  0.2028
  271MPD2    H2 4154   4.477   0.512  13.484 -0.3321 -2.3334  0.5090
  271MPD2    H3 4155   4.320   0.586  13.340 -0.6211 -1.5649  0.2128
  271MPD2     N 4156   4.029   0.736  13.655  0.1814 -0.7655  0.0422
  271MPD2    H5 4157   3.952   0.747  13.589 -0.0489  0.7616  0.5639
  271MPD2    N1 4158   4.459   0.551  13.761  0.3235 -0.5778 -0.3963
  271MPD2    H7 4159   4.450   0.588  13.855  0.5411 -1.9723  0.1782
  272TMC3    C1 4160   4.664   0.492  13.867 -0.1400  0.8387 -0.3776
  272TMC3    C2 4161   0.062   0.479  13.859  0.2098  0.6541 -0.2496
  272TMC3    C3 4162   0.136   0.447  13.961  0.5402  0.1874 -0.5312
  272TMC3    C4 4163   4.600   0.480  13.987  0.2674 -0.7374  0.2434
  272TMC3    C5 4164   4.679   0.472  14.099  0.3663 -0.9446 -0.3077
  272TMC3    C6 4165   0.079   0.446  14.094 -0.2618  0.4084 -0.2443
  272TMC3     C 4166   4.588   0.490  13.745  0.8603 -0.4216  0.0486
  272TMC3     O 4167   4.636   0.429  13.651 -0.7048 -0.3553 -0.3684
  272TMC3     H 4168   0.110   0.467  13.762  1.1262 -1.0706  0.4141
  272TMC3    H1 4169   4.494   0.466  14.004  0.7539 -3.9438  0.5317
  272TMC3    H2 4170   0.142   0.430  14.181 -0.1580  0.0237 -0.3922
  272TMC3    C7 4171   4.618   0.467  14.226  0.1924 -0.1245 -0.2647
  272TMC3    C8 4172   0.281   0.412  13.947  0.5456  0.4526  0.1418
  272TMC3    O1 4173   4.498   0.448  14.235  0.0215  0.5610 -0.2187
  272TMC3    O2 4174   0.335   0.413  13.837  0.4407  0.5956  0.4119
  273MPD2     C 4175   1.370   3.208  11.562 -0.3161  0.5065  0.1073
  273MPD2    C1 4176   1.376   3.342  11.583 -0.6516  0.1373  0.4408
  273MPD2    C2 4177   1.322   3.425  11.490 -1.0604 -0.3799 -0.5927
  273MPD2    C3 4178   1.275   3.375  11.368 -0.3458 -0.6470 -0.3345
  273MPD2    C4 4179   1.278   3.235  11.347 -0.0520  0.4912  0.2727
  273MPD2    C5 4180   1.321   3.158  11.446 -0.1514 -0.0484  0.4884
  273MPD2     H 4181   1.312   3.531  11.507 -1.4882 -0.2457 -1.6559
  273MPD2    H1 4182   1.254   3.194  11.250 -0.0854 -0.6597  0.7674
  273MPD2    H2 4183   1.415   3.147  11.640  0.0592 -0.5288 -0.9230
  273MPD2    H3 4184   1.319   3.052  11.423 -1.8755  0.0512  0.2117
  273MPD2     N 4185   1.228   3.458  11.266  0.1695  0.8420  0.2633
  273MPD2    H5 4186   1.201   3.405  11.183  2.7621  1.4225 -0.9657
  273MPD2    N1 4187   1.444   3.382  11.694  0.5558  0.0184  0.1539
  273MPD2    H7 4188   1.481   3.306  11.750 -1.3511 -0.5700  0.5826
  274TMC3    C1 4189   1.169   3.658  11.134 -0.2689 -0.5166  0.0096
  274TMC3    C2 4190   1.074   3.597  11.055  0.3190  0.3838 -0.6276
  274TMC3    C3 4191   1.017   3.677  10.958 -0.0532  0.1176  0.0818
  274TMC3    C4 4192   1.206   3.785  11.119  0.2910 -0.3473  0.1576
  274TMC3    C5 4193   1.151   3.856  11.017  0.6159  0.4602 -0.0367
  274TMC3    C6 4194   1.056   3.801  10.930  0.2300  0.4178 -0.3648
  274TMC3     C 4195   1.221   3.596  11.259 -0.2818  0.4785 -0.4737
  274TMC3     O 4196   1.266   3.674  11.343 -0.2787 -0.6448 -0.3131
  274TMC3     H 4197   1.040   3.495  11.065 -1.4156  0.7813 -2.3124
  274TMC3    H1 4198   1.284   3.828  11.181  0.3412  0.8052 -0.7041
  274TMC3    H2 4199   1.002   3.874  10.871 -1.6845 -1.2000 -0.5977
  274TMC3    C7 4200   1.156   3.996  11.023  0.6568  0.5954 -0.0424
  274TMC3    C8 4201   0.879   3.644  10.916 -0.9877  0.2981 -0.1409
  274TMC3    O1 4202   1.045   4.045  11.014 -0.5121 -0.0898 -0.0101
  274TMC3    O2 4203   0.808   3.563  10.974  0.2876 -0.1373  0.0479
  275MPD2     C 4204   0.751   2.212  14.183 -0.2781  0.2885  0.3970
  275MPD2    C1 4205   0.819   2.090  14.180 -0.4473  0.5606 -0.1202
  275MPD2    C2 4206   0.745   1.975  14.177 -0.1035 -0.0935 -0.1484
  275MPD2    C3 4207   0.610   1.981  14.166 -0.0117 -0.2484  1.0369
  275MPD2    C4 4208   0.544   2.100  14.167 -0.4567  0.2339 -0.7699
  275MPD2    C5 4209   0.615   2.220  14.173 -0.1873  0.3434  0.7488
  275MPD2     H 4210   0.803   1.884  14.183 -1.5452 -1.1488 -2.3735
  275MPD2    H1 4211   0.436   2.103  14.162 -0.5887  0.2393  2.0856
  275MPD2    H2 4212   0.803   2.306  14.170  0.3250 -0.1968 -0.6779
  275MPD2    H3 4213   0.562   2.315  14.168 -0.4424 -0.0005 -3.5309
  275MPD2     N 4214   0.527   1.861  14.162 -0.3029  0.0103 -0.1979
  275MPD2    H5 4215   0.428   1.880  14.148  0.3263  2.4039 -1.3226
  275MPD2    N1 4216   0.962   2.076  14.176 -0.0333 -0.1585  0.5359
  275MPD2    H7 4217   0.999   1.984  14.200 -2.1645 -1.7989 -2.3501
  276TMC3    C1 4218   1.180   2.133  14.217  0.5020 -0.2417  0.2097
  276TMC3    C2 4219   1.188   1.996  14.232 -0.1383 -0.6695 -0.3019
  276TMC3    C3 4220   1.232   1.941  14.354  0.6662 -0.1523 -0.1409
  276TMC3    C4 4221   1.216   2.212  14.319  0.1162  0.0945  0.8422
  276TMC3    C5 4222   1.272   2.157  14.427  0.0268 -0.0631 -0.2027
  276TMC3    C6 4223   1.268   2.021  14.458 -0.2729  0.0498 -0.1547
  276TMC3     C 4224   1.056   2.177  14.152 -0.2338 -0.0493 -0.3228
  276TMC3     O 4225   1.029   2.293  14.130  0.0882  0.0351  0.0740
  276TMC3     H 4226   1.170   1.927  14.150 -0.6627 -2.7059  1.5181
  276TMC3    H1 4227   1.205   2.320  14.311 -3.4003 -0.3608 -0.2040
  276TMC3    H2 4228   1.281   1.992  14.561  0.0111  2.3935  0.4669
  276TMC3    C7 4229   1.307   2.254  14.525  0.2910  0.4469  0.6719
  276TMC3    C8 4230   1.142   1.832  14.380  0.4451 -0.3725 -0.0688
  276TMC3    O1 4231   1.301   2.218  14.641 -0.1982 -0.0285  0.1223
  276TMC3    O2 4232   1.039   1.828  14.318  0.5653  0.3259  0.1432
  277MPD2     C 4233   2.962   0.947  13.020 -0.1996 -0.1335  0.1322
  277MPD2    C1 4234   2.835   0.968  13.054  0.0650 -0.3547  0.4770
  277MPD2    C2 4235   2.765   0.867  13.110  0.6955  0.3035 -0.1794
  277MPD2    C3 4236   2.813   0.732  13.125 -0.3277 -0.0012  0.5315
  277MPD2    C4 4237   2.949   0.719  13.092  0.0820  0.1114 -0.0751
  277MPD2    C5 4238   3.021   0.830  13.050  0.1866  0.4921  0.7516
  277MPD2     H 4239   2.665   0.887  13.148 -0.0321 -2.7211 -0.5454
  277MPD2    H1 4240   3.012   0.632  13.108 -3.1531 -1.4181  4.5531
  277MPD2    H2 4241   3.015   1.025  12.966  0.7777  1.0727  2.8491
  277MPD2    H3 4242   3.128   0.819  13.036  0.0687  0.2311  0.0823
  277MPD2     N 4243   2.736   0.619  13.173  0.1883  0.2856 -0.2356
  277MPD2    H5 4244   2.639   0.639  13.198 -0.4690 -0.8696 -1.8681
  277MPD2    N1 4245   2.790   1.097  13.017 -0.0715  0.4196 -0.3633
  277MPD2    H7 4246   2.859   1.166  12.989  1.6222 -0.5149  1.5421
  278TMC3    C1 4247   2.686   0.395  13.212 -0.2644  0.9423 -0.1099
  278TMC3    C2 4248   2.696   0.267  13.156  0.3184  0.7329 -0.5162
  278TMC3    C3 4249   2.628   0.170  13.216  0.3528 -0.8515 -0.3131
  278TMC3    C4 4250   2.613   0.418  13.322  0.6724 -0.3754 -0.5666
  278TMC3    C5 4251   2.540   0.319  13.374 -0.5010  0.2683 -0.3341
  278TMC3    C6 4252   2.548   0.188  13.326 -0.1793  0.0876  0.7659
  278TMC3     C 4253   2.774   0.490  13.169 -0.1134  0.5566 -0.3310
  278TMC3     O 4254   2.873   0.446  13.110  0.0782  0.5628  1.0456
  278TMC3     H 4255   2.770   0.240  13.082  3.3286 -1.1877  3.1936
  278TMC3    H1 4256   2.619   0.513  13.373  1.9183 -0.4731 -0.5315
  278TMC3    H2 4257   2.503   0.103  13.374  0.3824 -1.6148 -1.7112
  278TMC3    C7 4258   2.421   0.351  13.455 -0.3546 -0.3411  0.4944
  278TMC3    C8 4259   2.634   0.037  13.164 -0.4292 -0.1904  0.2203
  278TMC3    O1 4260   2.422   0.466  13.493  0.4156 -0.5408 -0.1153
  278TMC3    O2 4261   2.730   0.004  13.099 -0.1291 -0.1117 -0.0968
  279MPD2     C 4262   2.330   0.933   0.017  0.6556  0.5834  0.6441
  279MPD2    C1 4263   2.205   0.876  17.732 -0.0839  1.3271  0.0609
  279MPD2    C2 4264   2.162   0.866  17.602  0.0668 -0.1003 -0.1079
  279MPD2    C3 4265   2.226   0.933  17.501 -0.7409  0.2522  0.1938
  279MPD2    C4 4266   2.342   1.001  17.534 -0.0731  0.0376  0.1977
  279MPD2    C5 4267   2.397   0.991  17.655 -0.9663  0.6467  0.3040
  279MPD2     H 4268   2.068   0.813  17.589 -0.1720  0.1065  0.7933
  279MPD2    H1 4269   2.406   1.044  17.458  0.7085  0.4541  1.0960
  279MPD2    H2 4270   2.372   0.942   0.117 -0.5133  0.0189  1.1731
  279MPD2    H3 4271   2.493   1.035  17.676  0.1314 -2.9131  2.7033
  279MPD2     N 4272   2.189   0.937  17.365  0.4006  0.2971  0.2865
  279MPD2    H5 4273   2.245   0.997  17.305  0.2602  1.9670  1.8233
  279MPD2    N1 4274   2.123   0.827   0.088  0.2573  0.1856  0.3057
  279MPD2    H7 4275   2.034   0.794   0.053  0.4768 -3.0043  2.7253
  280TMC3    C1 4276   2.019   0.808   0.291 -0.5341 -0.2173 -0.1854
  280TMC3    C2 4277   1.955   0.698   0.236 -0.0576  0.5195  0.1505
  280TMC3    C3 4278   1.832   0.706   0.187  0.2545  1.0049 -0.0204
  280TMC3    C4 4279   1.945   0.923   0.308  0.4432  0.7128  0.1879
  280TMC3    C5 4280   1.822   0.936   0.252  0.4968  0.5184  0.2596
  280TMC3    C6 4281   1.767   0.824   0.186 -0.1547  0.1356 -0.6786
  280TMC3     C 4282   2.145   0.837   0.224 -0.2745 -0.6390 -0.3055
  280TMC3     O 4283   2.239   0.883   0.284  0.3629 -0.0283  0.0626
  280TMC3     H 4284   2.015   0.612   0.209 -0.2734  1.1017 -2.2216
  280TMC3    H1 4285   1.989   1.012   0.352  0.6806  0.2291  0.9259
  280TMC3    H2 4286   1.666   0.826   0.145  0.1339  1.9597 -1.2964
  280TMC3    C7 4287   1.768   1.068   0.222 -0.2888 -0.4479  0.0049
  280TMC3    C8 4288   1.825   0.649   0.056  0.3587  0.3559  0.1473
  280TMC3    O1 4289   1.837   1.164   0.248 -0.1517 -0.1753 -0.1158
  280TMC3    O2 4290   1.803   0.730  17.706  0.1999  0.4628 -0.2729
  281TMC3    C1 4291   0.768   1.211  13.116 -0.0552 -0.9870  0.2475
  281TMC3    C2 4292   0.820   1.261  12.999 -0.4068  0.1557  0.3583
  281TMC3    C3 4293   0.844   1.169  12.899 -0.1839 -0.2530  0.0240
  281TMC3    C4 4294   0.768   1.076  13.138  0.2889 -0.0745 -0.1240
  281TMC3    C5 4295   0.800   0.986  13.036 -0.0361  0.2107  0.5931
  281TMC3    C6 4296   0.838   1.032  12.915 -0.2098  0.3293  0.3184
  281TMC3     C 4297   0.707   1.296  13.209 -0.4889 -0.3185  0.0795
  281TMC3     O 4298   0.705   1.255  13.327 -0.6442  0.0313 -0.3016
  281TMC3     H 4299   0.820   1.366  12.975 -0.5102  0.2775  0.8958
  281TMC3    H1 4300   0.731   1.035  13.231 -1.1562 -1.0435 -1.1196
  281TMC3    H2 4301   0.859   0.964  12.833 -1.7532 -1.1020  1.1265
  281TMC3    C7 4302   0.730   0.861  13.030  0.2499  0.1821  0.1717
  281TMC3    C8 4303   0.877   1.218  12.769  0.2174 -0.3927  0.2407
  281TMC3    O1 4304   0.675   0.830  12.924 -0.1146 -0.5028  0.0069
  281TMC3    O2 4305   0.993   1.187  12.739 -0.1668 -0.3251  0.1846
  282MPD2     C 4306   2.184   2.665  14.618 -0.1243 -0.0090  0.0126
  282MPD2    C1 4307   2.168   2.536  14.655  0.4815 -1.3352 -0.4599
  282MPD2    C2 4308   2.135   2.442  14.556  0.4177 -0.9451 -0.0722
  282MPD2    C3 4309   2.139   2.476  14.423  0.1048 -1.6955  0.2922
  282MPD2    C4 4310   2.160   2.604  14.391 -0.3320  0.3639 -0.3528
  282MPD2    C5 4311   2.175   2.694  14.486  0.0808 -0.2239 -0.0519
  282MPD2     H 4312   2.122   2.339  14.585  1.3264 -0.1592  3.0919
  282MPD2    H1 4313   2.168   2.647  14.292 -1.2095  1.7902  0.1933
  282MPD2    H2 4314   2.199   2.745  14.689 -2.0848  0.2196  0.1771
  282MPD2    H3 4315   2.191   2.799  14.466  0.4033 -0.2693 -0.0250
  282MPD2     N 4316   2.125   2.372  14.320  0.1433  0.4358  0.3319
  282MPD2    H5 4317   2.106   2.276  14.347 -0.8053 -0.1075 -2.2682
  282MPD2    N1 4318   2.177   2.500  14.793  0.6575 -0.5545  0.0837
  282MPD2    H7 4319   2.175   2.579  14.856 -0.0806  0.3441 -1.0675
  283TMC3    C1 4320   2.143   2.377  14.995 -0.3198  0.6312  0.0525
  283TMC3    C2 4321   2.214   2.474  15.068  0.1022  0.0028 -0.4452
  283TMC3    C3 4322   2.214   2.462  15.208 -0.5438 -0.6765  0.1288
  283TMC3    C4 4323   2.076   2.275  15.054 -0.1880 -0.1011 -0.1817
  283TMC3    C5 4324   2.078   2.268  15.192 -0.6017 -0.0370  0.0126
  283TMC3    C6 4325   2.145   2.364  15.268 -0.0259 -0.4956 -0.3446
  283TMC3     C 4326   2.171   2.376  14.850 -0.4789 -0.0938 -0.1999
  283TMC3     O 4327   2.187   2.269  14.793 -0.1251 -0.8361  0.2074
  283TMC3     H 4328   2.289   2.535  15.020 -1.1381  2.5815  0.8940
  283TMC3    H1 4329   2.021   2.196  15.005  1.4362 -1.2704 -0.1262
  283TMC3    H2 4330   2.134   2.363  15.376 -1.1113  2.0609 -0.4326
  283TMC3    C7 4331   1.967   2.207  15.265  0.2759 -0.3234  0.9316
  283TMC3    C8 4332   2.264   2.567  15.290  0.0238  0.0621  0.0482
  283TMC3    O1 4333   1.988   2.186  15.384 -0.1174 -0.2707 -0.0826
  283TMC3    O2 4334   2.298   2.538  15.404 -0.0522  0.4486  0.1788
  284MPD2     C 4335   0.777   1.410  11.851  0.0636 -0.5111  0.6212
  284MPD2    C1 4336   0.738   1.438  11.717 -0.1376 -0.2203 -0.5775
  284MPD2    C2 4337   0.645   1.357  11.654 -0.0394  0.3835  0.0198
  284MPD2    C3 4338   0.580   1.257  11.721 -0.2659 -0.4395 -0.7998
  284MPD2    C4 4339   0.609   1.238  11.856 -0.1539  0.5395  0.1195
  284MPD2    C5 4340   0.702   1.316  11.917 -0.8177 -0.1053  0.6251
  284MPD2     H 4341   0.632   1.363  11.547 -0.3880  3.5892  0.2433
  284MPD2    H1 4342   0.555   1.162  11.911 -0.4207  0.7356  0.1278
  284MPD2    H2 4343   0.852   1.465  11.906  0.6004 -0.1642 -0.4571
  284MPD2    H3 4344   0.728   1.274  12.014 -0.1031  0.8285  0.8411
  284MPD2     N 4345   0.500   1.152  11.666 -0.1766  0.5383  0.3338
  284MPD2    H5 4346   0.453   1.087  11.728  1.2884  0.3461  1.2572
  284MPD2    N1 4347   0.788   1.547  11.639 -0.1353 -0.6062 -0.3747
  284MPD2    H7 4348   0.769   1.554  11.540  1.1751 -2.9299 -0.7896
  285TMC3    C1 4349   0.896   1.743  11.584  0.2427  0.7528 -0.0611
  285TMC3    C2 4350   0.895   1.712  11.451  0.8256 -0.0417  0.4084
  285TMC3    C3 4351   0.880   1.804  11.353  0.0490 -0.3005 -0.5109
  285TMC3    C4 4352   0.900   1.870  11.624  0.4239  0.4749  0.1330
  285TMC3    C5 4353   0.887   1.961  11.526  0.1365  0.4831 -0.2809
  285TMC3    C6 4354   0.878   1.934  11.390 -0.4514 -0.6893  0.5208
  285TMC3     C 4355   0.872   1.646  11.690 -0.2034 -0.0185  0.7188
  285TMC3     O 4356   0.910   1.670  11.803  0.3938  0.0209 -0.1986
  285TMC3     H 4357   0.891   1.610  11.413  1.0983  0.2308 -0.3555
  285TMC3    H1 4358   0.896   1.899  11.728  0.5444 -0.4140  0.3860
  285TMC3    H2 4359   0.875   2.007  11.310  0.9340 -1.3143 -0.0892
  285TMC3    C7 4360   0.949   2.085  11.565 -0.3646  0.2888 -0.1934
  285TMC3    C8 4361   0.851   1.760  11.214 -0.2864  0.0848 -0.8207
  285TMC3    O1 4362   1.026   2.080  11.659 -0.2764  0.6132 -0.8637
  285TMC3    O2 4363   0.830   1.638  11.197  0.4065  0.5123  0.3285
  286MPD2     C 4364   1.216   4.241   0.908  0.5452 -0.2349 -0.1719
  286MPD2    C1 4365   1.208   4.339   1.002 -0.1629  0.7436 -0.1537
  286MPD2    C2 4366   1.326   4.387   1.050  0.5271 -0.0129  0.3575
  286MPD2    C3 4367   1.448   4.325   1.028 -0.1919  0.6290 -0.1760
  286MPD2    C4 4368   1.452   4.223   0.938  0.4173  0.1452  0.2311
  286MPD2    C5 4369   1.333   4.183   0.878 -0.1255  0.4958  0.4348
  286MPD2     H 4370   1.310   4.468   1.121 -2.5271  0.4897 -0.9206
  286MPD2    H1 4371   1.547   4.172   0.926 -0.3857 -0.9903 -1.2933
  286MPD2    H2 4372   1.127   4.219   0.850  1.1116 -2.0734 -0.3668
  286MPD2    H3 4373   1.326   4.109   0.799  0.6622  1.4632 -0.5216
  286MPD2     N 4374   1.570   4.349   1.095 -0.2725 -0.4012  0.2854
  286MPD2    H5 4375   1.653   4.296   1.069 -0.2716 -0.3779  0.2409
  286MPD2    N1 4376   1.093   4.412   1.030  0.6844  0.4402  0.0990
  286MPD2    H7 4377   1.090   4.467   1.115  0.9288  0.3684  0.1531
  287TMC3    C1 4378   1.730   4.456   1.225 -0.3364  0.2632 -0.4746
  287TMC3    C2 4379   1.797   4.344   1.209 -0.3319  0.1204  0.2447
  287TMC3    C3 4380   1.926   4.351   1.172  0.1731 -0.3068 -0.5406
  287TMC3    C4 4381   1.779   4.584   1.227  0.4975  0.6697 -0.1537
  287TMC3    C5 4382   1.912   4.592   1.212  0.8682 -0.0194  0.1023
  287TMC3    C6 4383   1.988   4.481   1.170  0.2076  0.0957 -0.3176
  287TMC3     C 4384   1.591   4.450   1.184  0.7784  0.6396 -0.6833
  287TMC3     O 4385   1.534   4.557   1.200 -0.2705  0.1547 -0.9747
  287TMC3     H 4386   1.765   4.240   1.204  0.2950  0.0961 -3.5215
  287TMC3    H1 4387   1.722   4.676   1.222 -3.1788 -1.5762  0.6515
  287TMC3    H2 4388   2.091   4.504   1.142 -0.1852  0.3745 -1.5265
  287TMC3    C7 4389   1.973   4.725   1.225  0.0478 -0.1334 -0.0522
  287TMC3    C8 4390   1.962   4.278   1.051  0.0740  0.1066 -0.1784
  287TMC3    O1 4391   1.892   0.078   1.234 -0.8805 -0.2333  0.5212
  287TMC3    O2 4392   1.922   4.164   1.041  0.1341 -0.0395 -0.3571
  288TMC3    C1 4393   3.316   0.091  14.409 -0.1045 -0.7196 -1.2250
  288TMC3    C2 4394   3.229   0.046  14.514 -0.1933 -0.5186  0.1523
  288TMC3    C3 4395   3.099   0.033  14.472  0.1811  0.2270  0.1046
  288TMC3    C4 4396   3.276   0.100  14.276 -0.0839  0.1875  0.2544
  288TMC3    C5 4397   3.145   0.085  14.251 -0.5383 -0.0671  0.9706
  288TMC3    C6 4398   3.054   0.048  14.347  0.0154  0.8300  0.0260
  288TMC3     C 4399   3.452   0.132  14.434 -0.1553  0.7004  0.8538
  288TMC3     O 4400   3.533   0.108  14.349  0.1558 -0.8403 -0.0277
  288TMC3     H 4401   3.263   0.044  14.617 -0.3680 -1.8442  0.1777
  288TMC3    H1 4402   3.349   0.128  14.201  4.1290  0.7240  4.6013
  288TMC3    H2 4403   2.951   0.028  14.320 -0.4068  0.3865  1.9500
  288TMC3    C7 4404   3.105   0.118  14.120 -0.5380 -0.7329 -0.3455
  288TMC3    C8 4405   3.008   0.081  14.568 -0.0936  0.0237  0.1800
  288TMC3    O1 4406   2.997   0.073  14.092 -0.5012  0.1820 -0.3711
  288TMC3    O2 4407   3.056   0.150  14.658  0.0214  0.0702  0.0474
  289MPD2     C 4408   2.871   4.000  14.335 -0.2835  0.1823  0.2072
  289MPD2    C1 4409   2.874   4.124  14.280 -0.7053 -0.7125 -0.1061
  289MPD2    C2 4410   2.798   4.160  14.169  0.3707 -0.7356  0.1918
  289MPD2    C3 4411   2.716   4.070  14.108  0.4866 -0.2191  0.0771
  289MPD2    C4 4412   2.713   3.947  14.171  0.0780  0.4185  0.4356
  289MPD2    C5 4413   2.787   3.911  14.279 -0.2812  0.3354 -0.0431
  289MPD2     H 4414   2.812   4.262  14.133 -1.0181 -0.4805  0.3871
  289MPD2    H1 4415   2.651   3.871  14.126  0.3335 -0.7787  2.1374
  289MPD2    H2 4416   2.924   3.968  14.424  2.2451  0.9987 -1.0065
  289MPD2    H3 4417   2.762   3.816  14.326 -1.8319  1.1881  0.8624
  289MPD2     N 4418   2.650   4.095  13.986 -0.1789 -0.7752  0.8214
  289MPD2    H5 4419   2.612   4.014  13.937 -2.0727  0.9983 -0.6452
  289MPD2    N1 4420   2.972   4.220  14.314 -0.6065 -0.5653 -0.4605
  289MPD2    H7 4421   2.983   4.298  14.250 -0.6981 -0.4882 -0.3823
  290TMC3    C1 4422   2.566   4.221  13.797 -1.1862 -0.6944 -0.4120
  290TMC3    C2 4423   2.576   4.334  13.719  0.6237  0.3256 -0.2360
  290TMC3    C3 4424   2.519   4.329  13.596 -0.3895  0.3537  0.2365
  290TMC3    C4 4425   2.487   4.114  13.761 -0.4557  0.6895  1.2577
  290TMC3    C5 4426   2.444   4.114  13.630 -0.2239  0.3982 -0.3665
  290TMC3    C6 4427   2.458   4.220  13.552 -0.5998  0.7036 -0.3078
  290TMC3     C 4428   2.634   4.219  13.927 -0.4446 -0.4693 -0.3543
  290TMC3     O 4429   2.685   4.324  13.962 -0.1422 -0.3256  0.1397
  290TMC3     H 4430   2.638   4.417  13.751  1.7075 -0.9044  0.8535
  290TMC3    H1 4431   2.481   4.032  13.832  0.4068  1.5017  2.2803
  290TMC3    H2 4432   2.420   4.233  13.452  1.8630 -0.6424 -1.4295
  290TMC3    C7 4433   2.330   4.038  13.601  0.4586  0.0436 -0.1409
  290TMC3    C8 4434   2.607   4.410  13.510 -0.1460 -0.2289  0.1509
  290TMC3    O1 4435   2.238   4.089  13.541 -0.1643 -0.6012 -0.6124
  290TMC3    O2 4436   2.655   4.375  13.403  0.3087  0.3843 -0.9648
  291MPD2     C 4437   2.679   3.734   0.535  0.0724  0.3486  0.0504
  291MPD2    C1 4438   2.585   3.676   0.446  0.1313  0.3101  0.7920
  291MPD2    C2 4439   2.562   3.737   0.328 -0.2948 -0.6027 -0.6142
  291MPD2    C3 4440   2.626   3.854   0.285  0.8022 -0.8385  0.7237
  291MPD2    C4 4441   2.724   3.908   0.366  0.2605 -0.1534 -0.3618
  291MPD2    C5 4442   2.744   3.846   0.494 -0.1231 -0.5431 -0.2904
  291MPD2     H 4443   2.488   3.692   0.264  0.3230 -3.4147  0.6489
  291MPD2    H1 4444   2.777   4.000   0.345  1.3779 -0.9093 -0.8879
  291MPD2    H2 4445   2.691   3.697   0.636  0.9378  1.1073  0.2304
  291MPD2    H3 4446   2.818   3.883   0.565  0.5457 -0.6453 -0.9315
  291MPD2     N 4447   2.584   3.922   0.168  0.0567  0.5302 -0.0305
  291MPD2    H5 4448   2.630   4.008   0.139  0.3471  1.4982  3.2273
  291MPD2    N1 4449   2.511   3.560   0.484  1.1686 -0.1929  0.3131
  291MPD2    H7 4450   2.439   3.532   0.418  0.1368  1.1878  0.8657
  292TMC3    C1 4451   2.380   3.420   0.619  0.3408 -0.3594  0.0993
  292TMC3    C2 4452   2.310   3.452   0.726 -0.0539  0.2580 -0.1391
  292TMC3    C3 4453   2.183   3.411   0.736 -0.7542  1.4443  0.3827
  292TMC3    C4 4454   2.324   3.339   0.519  0.2747 -0.6562 -0.2438
  292TMC3    C5 4455   2.196   3.294   0.532  0.1950  0.2319  0.2983
  292TMC3    C6 4456   2.124   3.328   0.643 -0.2539 -0.4668  1.0322
  292TMC3     C 4457   2.503   3.494   0.606  0.4225  0.1918 -0.1630
  292TMC3     O 4458   2.562   3.519   0.709  0.3023 -0.0416 -0.3847
  292TMC3     H 4459   2.346   3.518   0.803  0.0148  0.8722 -0.7008
  292TMC3    H1 4460   2.387   3.291   0.445 -0.1821 -1.8959  0.1800
  292TMC3    H2 4461   2.022   3.293   0.657  0.4036 -2.3667  1.0738
  292TMC3    C7 4462   2.157   3.185   0.442  0.0691  0.4388 -0.1607
  292TMC3    C8 4463   2.105   3.470   0.842  0.4940  0.6656 -0.1214
  292TMC3    O1 4464   2.242   3.139   0.364 -0.0724  0.0401  0.8253
  292TMC3    O2 4465   2.149   3.572   0.887  0.5308  0.3439 -0.1110
  293MPD2     C 4466   3.957   0.253  12.492  0.4129 -0.0676 -0.3890
  293MPD2    C1 4467   3.851   0.192  12.545 -0.4621 -0.0861 -0.1413
  293MPD2    C2 4468   3.796   0.241  12.664  0.0033 -1.2039 -0.4773
  293MPD2    C3 4469   3.863   0.335  12.738 -0.0904 -0.0933  0.6811
  293MPD2    C4 4470   3.981   0.381  12.691  0.3189 -0.7484 -0.4661
  293MPD2    C5 4471   4.029   0.348  12.566  0.0149  0.1911 -0.3678
  293MPD2     H 4472   3.704   0.193  12.697 -0.4521 -1.1613 -1.6723
  293MPD2    H1 4473   4.045   0.445  12.750 -0.7072 -0.3421  0.2184
  293MPD2    H2 4474   4.008   0.209  12.407 -0.2487 -0.1336 -0.7566
  293MPD2    H3 4475   4.123   0.395  12.537  0.1128  0.3203  0.1628
  293MPD2     N 4476   3.825   0.368  12.874 -0.0910  0.4270 -0.0692
  293MPD2    H5 4477   3.747   0.317  12.916  0.8090  0.2963  1.4380
  293MPD2    N1 4478   3.797   0.083  12.469  0.1328  1.0526  0.3434
  293MPD2    H7 4479   3.860   0.055  12.395  0.2192  0.9835  0.4431
  294TMC3    C1 4480   3.634   4.650  12.411 -0.5150 -0.4559 -0.9108
  294TMC3    C2 4481   3.499   4.619  12.404  0.8231  0.1264  0.1685
  294TMC3    C3 4482   3.467   4.507  12.339 -0.5833  0.4031 -0.2873
  294TMC3    C4 4483   3.725   4.584  12.330  0.2056 -0.7153  0.4057
  294TMC3    C5 4484   3.685   4.476  12.258  0.3831  0.3508  0.1246
  294TMC3    C6 4485   3.559   4.427  12.268 -0.2337 -0.0759 -0.5116
  294TMC3     C 4486   3.672   0.028  12.490 -0.7549  0.3007 -0.5464
  294TMC3     O 4487   3.581   0.066  12.561 -0.3626 -0.3394 -0.1353
  294TMC3     H 4488   3.422   4.673  12.458  0.3603  1.5946 -1.9624
  294TMC3    H1 4489   3.827   4.620  12.339 -0.8407  2.7489 -1.5824
  294TMC3    H2 4490   3.522   4.346  12.208  0.7610 -0.3470 -0.7628
  294TMC3    C7 4491   3.767   4.408  12.160 -0.4398  0.2851  0.6802
  294TMC3    C8 4492   3.334   4.486  12.298  0.0260 -0.1479 -0.0393
  294TMC3    O1 4493   3.730   4.294  12.144 -0.1709 -0.2855  0.3817
  294TMC3    O2 4494   3.307   4.372  12.277 -0.1647  0.8108  0.4297
  295MPD2     C 4495   4.257   4.563   0.828  0.2410  0.2286 -0.1234
  295MPD2    C1 4496   4.126   4.598   0.786  0.2708  0.1404 -0.4171
  295MPD2    C2 4497   4.021   4.631   0.868  0.7202 -0.4225 -0.3540
  295MPD2    C3 4498   4.050   4.604   1.008 -0.5058  0.1038 -0.6000
  295MPD2    C4 4499   4.171   4.565   1.048  0.7162  0.0927  0.1362
  295MPD2    C5 4500   4.278   4.550   0.963 -0.2063 -0.3193  0.1455
  295MPD2     H 4501   3.921   4.658   0.838  0.5019  1.5329  2.1189
  295MPD2    H1 4502   4.196   4.543   1.151  0.4804  1.7177  0.5477
  295MPD2    H2 4503   4.342   4.547   0.763  1.3442 -1.9259  1.8431
  295MPD2    H3 4504   4.375   4.518   1.001  0.1482  1.7078  0.9158
  295MPD2     N 4505   3.951   4.637   1.112 -0.0878 -0.0251 -0.1519
  295MPD2    H5 4506   3.984   4.623   1.207 -0.2931  0.8613  0.0469
  295MPD2    N1 4507   4.110   4.603   0.646 -0.2793 -0.3815  0.6663
  295MPD2    H7 4508   4.020   4.602   0.598  1.2772  1.0394 -2.2520
  296TMC3    C1 4509   3.751   4.726   1.199  0.0635  0.1911  0.1003
  296TMC3    C2 4510   3.825   0.061   1.286  0.1579  0.8015 -0.3374
  296TMC3    C3 4511   3.763   0.118   1.398 -0.0359 -0.0745 -0.3748
  296TMC3    C4 4512   3.618   4.712   1.213  0.4465 -0.2487 -0.3060
  296TMC3    C5 4513   3.561   0.022   1.328 -0.1371 -0.2045 -0.2122
  296TMC3    C6 4514   3.634   0.087   1.423  0.1224  0.0233  0.6879
  296TMC3     C 4515   3.815   4.663   1.083  0.4771  0.2061  0.3968
  296TMC3     O 4516   3.752   4.662   0.978 -0.0044  0.1117 -0.0561
  296TMC3     H 4517   3.933   0.075   1.280  0.0063  2.2285  0.2441
  296TMC3    H1 4518   3.566   4.663   1.131  0.0135  0.1263 -0.2534
  296TMC3    H2 4519   3.582   0.127   1.508 -0.7162 -0.3095  0.3283
  296TMC3    C7 4520   3.426   4.713   1.369 -0.3498  0.1683  0.5061
  296TMC3    C8 4521   3.851   0.168   1.497  0.4012 -0.2671  0.3043
  296TMC3    O1 4522   3.361   0.051   1.440  0.4207 -0.0620  0.4310
  296TMC3    O2 4523   3.818   0.145   1.612  0.0262  0.0167 -0.2779
  297MPD2     C 4524   1.433   1.056  16.098 -0.1294  0.3772  0.7402
  297MPD2    C1 4525   1.421   1.151  15.994  0.9008 -0.1838  0.3059
  297MPD2    C2 4526   1.529   1.241  15.970 -0.6743 -0.3171 -0.0363
  297MPD2    C3 4527   1.631   1.249  16.064 -0.2189 -0.3109  1.3454
  297MPD2    C4 4528   1.641   1.158  16.166 -0.4045  0.7544  0.7263
  297MPD2    C5 4529   1.544   1.054  16.178  0.5057  0.1983 -0.0236
  297MPD2     H 4530   1.522   1.306  15.884  0.6511  1.0824  0.9259
  297MPD2    H1 4531   1.714   1.161  16.246  1.4485  0.5016 -0.9660
  297MPD2    H2 4532   1.351   0.989  16.120  0.7186 -1.5308 -1.9591
  297MPD2    H3 4533   1.543   0.985  16.262 -0.3796  2.2562  1.6681
  297MPD2     N 4534   1.714   1.359  16.054 -0.3864 -0.5841  0.5024
  297MPD2    H5 4535   1.711   1.412  15.968  0.1655  0.2214  0.9699
  297MPD2    N1 4536   1.310   1.169  15.909  0.5821 -0.2302 -0.0955
  297MPD2    H7 4537   1.315   1.261  15.867  0.8172 -0.6796 -1.0441
  298TMC3    C1 4538   1.080   1.156  15.838 -0.9029 -0.0974 -0.1693
  298TMC3    C2 4539   1.098   1.233  15.730  0.2669 -0.3631 -0.3812
  298TMC3    C3 4540   0.993   1.311  15.689 -0.6970 -0.4887  0.1306
  298TMC3    C4 4541   0.956   1.143  15.897 -0.1876  0.3032  0.4042
  298TMC3    C5 4542   0.847   1.208  15.845 -0.1491 -0.0737 -0.0935
  298TMC3    C6 4543   0.867   1.310  15.751  0.1440  0.4306  0.3877
  298TMC3     C 4544   1.193   1.101  15.913  0.0312 -0.4481 -0.1125
  298TMC3     O 4545   1.177   0.990  15.968  0.0399  0.4426 -0.3636
  298TMC3     H 4546   1.197   1.233  15.684  0.2795 -0.8377 -0.3605
  298TMC3    H1 4547   0.943   1.084  15.986 -0.5671 -0.1678  0.0336
  298TMC3    H2 4548   0.791   1.383  15.728 -1.4852 -0.6959  2.2189
  298TMC3    C7 4549   0.755   1.244  15.943  0.1732  0.4666  0.2582
  298TMC3    C8 4550   1.009   1.411  15.584  0.3053  0.5079 -0.1885
  298TMC3    O1 4551   0.776   1.225  16.061  0.1141  0.5020  0.3790
  298TMC3    O2 4552   0.930   1.502  15.579  0.4077 -0.1191 -0.6109
  299MPD2     C 4553   1.539   0.919  10.455  0.5155  0.2678  0.3568
  299MPD2    C1 4554   1.566   0.972  10.331 -0.2922  0.6712 -0.0934
  299MPD2    C2 4555   1.470   0.964  10.236  0.1203  0.5223  0.5594
  299MPD2    C3 4556   1.347   0.912  10.269 -0.2297  0.6262  0.1210
  299MPD2    C4 4557   1.328   0.852  10.385 -0.1165 -0.4222  0.2358
  299MPD2    C5 4558   1.420   0.864  10.482  0.5825 -0.2960 -0.7588
  299MPD2     H 4559   1.490   0.996  10.134 -1.0961 -0.9588 -0.1475
  299MPD2    H1 4560   1.235   0.800  10.405 -0.2628  0.4179  1.7454
  299MPD2    H2 4561   1.610   0.935  10.535  0.0088  2.1254  0.4446
  299MPD2    H3 4562   1.400   0.818  10.579 -0.4267 -0.2982 -0.9659
  299MPD2     N 4563   1.237   0.905  10.183 -0.0965 -0.1144  0.4084
  299MPD2    H5 4564   1.152   0.871  10.226  0.3733 -0.6895  0.8889
  299MPD2    N1 4565   1.690   1.032  10.308  0.2055 -0.0701  0.0635
  299MPD2    H7 4566   1.757   1.015  10.383 -3.5775  0.4574  3.5555
  300TMC3    C1 4567   1.110   0.954   9.985 -0.1395  0.3376 -0.9345
  300TMC3    C2 4568   1.102   1.017   9.864  0.6567  0.1237  0.4506
  300TMC3    C3 4569   0.983   1.027   9.790 -0.1140 -0.6286 -0.5531
  300TMC3    C4 4570   0.998   0.893  10.038  0.6338 -0.1709  0.2231
  300TMC3    C5 4571   0.880   0.901   9.961  0.4006 -0.1215 -0.5012
  300TMC3    C6 4572   0.873   0.968   9.838  0.2903 -0.2789 -0.5501
  300TMC3     C 4573   1.233   0.963  10.057  0.2221  0.5789 -0.0132
  300TMC3     O 4574   1.322   1.015   9.992 -0.8617 -0.2612 -0.4998
  300TMC3     H 4575   1.192   1.070   9.833 -1.2249  3.7299  1.0595
  300TMC3    H1 4576   0.989   0.850  10.137 -3.2609 -0.2232 -0.1401
  300TMC3    H2 4577   0.779   0.974   9.784  0.8556  3.2241 -1.1744
  300TMC3    C7 4578   0.757   0.854  10.017  0.0665  0.7204  0.3490
  300TMC3    C8 4579   0.962   1.157   9.720  0.9377 -0.7063  0.6338
  300TMC3    O1 4580   0.668   0.804   9.947 -0.3771  0.7888 -0.5027
  300TMC3    O2 4581   0.886   1.162   9.624  0.4497  0.0110 -0.4754
  301MPD2     C 4582   4.149   2.597   1.385 -0.1091  0.2477 -0.0996
  301MPD2    C1 4583   4.120   2.552   1.261  0.4776  0.7336  0.1923
  301MPD2    C2 4584   4.161   2.424   1.227 -0.1687 -0.3050  0.5470
  301MPD2    C3 4585   4.235   2.345   1.313  0.0945  0.0025 -0.5738
  301MPD2    C4 4586   4.250   2.393   1.445 -0.5865  0.4459 -0.2009
  301MPD2    C5 4587   4.205   2.515   1.483 -0.1702  0.1358 -0.1324
  301MPD2     H 4588   4.132   2.381   1.131  0.5678 -0.9892  0.6299
  301MPD2    H1 4589   4.306   2.339   1.520 -1.7593 -0.1612  0.2347
  301MPD2    H2 4590   4.147   2.702   1.411  3.6577  0.1047  0.7544
  301MPD2    H3 4591   4.228   2.550   1.583 -1.5607 -2.7576  1.1877
  301MPD2     N 4592   4.288   2.216   1.280 -0.2368  0.7378  0.0574
  301MPD2    H5 4593   4.335   2.159   1.351 -0.3944  1.2320  0.5564
  301MPD2    N1 4594   4.062   2.633   1.163 -0.2282  0.1575  0.6503
  301MPD2    H7 4595   4.059   2.598   1.068 -0.4840  1.2289  0.2690
  302TMC3    C1 4596   4.362   2.032   1.130  0.3870 -0.1838  0.0132
  302TMC3    C2 4597   4.470   2.011   1.210  1.1539  0.0881  0.2682
  302TMC3    C3 4598   4.553   1.911   1.162 -0.1570 -0.2899  0.5023
  302TMC3    C4 4599   4.337   1.971   1.007 -0.0060  0.7549 -0.6026
  302TMC3    C5 4600   4.420   1.871   0.964 -0.1171 -0.6752  0.0446
  302TMC3    C6 4601   4.524   1.844   1.041  0.3562  0.3264  0.5983
  302TMC3     C 4602   4.288   2.159   1.150  0.4043 -0.2987 -0.8659
  302TMC3     O 4603   4.237   2.203   1.052 -0.4820  0.0530 -0.2368
  302TMC3     H 4604   4.491   2.066   1.300 -0.8317  1.0202  0.1517
  302TMC3    H1 4605   4.252   2.002   0.946  0.6110  1.8488 -0.9034
  302TMC3    H2 4606   4.580   1.760   1.004 -1.6259 -0.6277 -0.2459
  302TMC3    C7 4607   4.396   1.796   0.843  0.5231  0.0855 -0.4233
  302TMC3    C8 4608   4.647   1.849   1.245 -0.7703 -0.1385 -0.7563
  302TMC3    O1 4609   4.453   1.688   0.831 -0.4107  0.1973  0.3170
  302TMC3    O2 4610   4.710   1.759   1.190 -0.2619 -0.3307  0.1721
  303MPD2     C 4611   3.738   4.612  10.507  0.7614  0.5259 -0.4647
  303MPD2    C1 4612   3.610   4.654  10.552  0.1189 -0.0684  0.3849
  303MPD2    C2 4613   3.556   0.036  10.503  0.6075 -0.2527  0.1422
  303MPD2    C3 4614   3.627   0.102  10.403 -0.4673 -0.2643 -0.8588
  303MPD2    C4 4615   3.754   0.059  10.367  0.0537  0.4453  0.1799
  303MPD2    C5 4616   3.806   4.680  10.417  0.8048 -0.2691 -0.0389
  303MPD2     H 4617   3.451   0.055  10.517  0.1741 -1.8840 -0.8118
  303MPD2    H1 4618   3.818   0.117  10.302  0.5176 -2.2572 -1.7688
  303MPD2    H2 4619   3.777   4.515  10.535  3.8468  1.8894 -0.0282
  303MPD2    H3 4620   3.907   4.649  10.394  0.5463 -1.2356  0.1470
  303MPD2     N 4621   3.566   0.217  10.333  0.3479 -0.1814 -0.1142
  303MPD2    H5 4622   3.616   0.252  10.252  0.0006 -0.6085 -0.5138
  303MPD2    N1 4623   3.534   4.574  10.633 -0.2769 -0.1482  0.5780
  303MPD2    H7 4624   3.444   4.614  10.655 -0.3349 -0.7041  1.3400
  304TMC3    C1 4625   3.442   4.393  10.745  0.1801  0.5111  0.2319
  304TMC3    C2 4626   3.400   4.473  10.855  0.0523 -0.7179 -0.4376
  304TMC3    C3 4627   3.308   4.413  10.940 -0.3285  0.0323  0.6906
  304TMC3    C4 4628   3.380   4.273  10.710 -0.1130 -0.0167  0.1913
  304TMC3    C5 4629   3.293   4.214  10.802  0.0387 -0.3197  0.3542
  304TMC3    C6 4630   3.257   4.290  10.912 -0.6235  0.1663  0.3416
  304TMC3     C 4631   3.552   4.441  10.668 -0.5744  0.2533  0.2318
  304TMC3     O 4632   3.633   4.355  10.632 -1.1830 -0.1379 -0.5221
  304TMC3     H 4633   3.446   4.569  10.873 -1.1988 -0.1465 -0.2736
  304TMC3    H1 4634   3.409   4.217  10.622  2.3555  0.8762  0.4263
  304TMC3    H2 4635   3.184   4.240  10.974 -0.2803 -1.4446 -0.5389
  304TMC3    C7 4636   3.172   4.156  10.744  0.3005  0.5917  0.4538
  304TMC3    C8 4637   3.208   4.511  10.986  0.0639  0.3976 -0.2320
  304TMC3    O1 4638   3.070   4.196  10.800  0.4388 -0.3436  0.4188
  304TMC3    O2 4639   3.245   4.624  11.017  0.2507  0.6551  0.3562
  305MPD2     C 4640   2.730   2.623  13.992 -0.5021 -0.2429  0.0297
  305MPD2    C1 4641   2.674   2.498  14.018  0.0340 -0.0654  0.4224
  305MPD2    C2 4642   2.665   2.404  13.914 -0.8018  0.7836 -0.4261
  305MPD2    C3 4643   2.735   2.424  13.794  0.2471 -0.1500 -0.8140
  305MPD2    C4 4644   2.812   2.538  13.780  0.0256  0.6700 -0.7289
  305MPD2    C5 4645   2.800   2.637  13.877  0.4316  0.1533 -0.1339
  305MPD2     H 4646   2.609   2.312  13.927  1.8485 -1.0536 -1.9553
  305MPD2    H1 4647   2.868   2.565  13.692  0.4000  3.1052  0.2790
  305MPD2    H2 4648   2.729   2.706  14.061  0.0434 -2.0319  2.1968
  305MPD2    H3 4649   2.861   2.725  13.862  0.5379  0.4485  2.1325
  305MPD2     N 4650   2.743   2.327  13.688 -0.2357  0.1529  0.1198
  305MPD2    H5 4651   2.810   2.349  13.615  0.6459 -2.4466  0.1548
  305MPD2    N1 4652   2.601   2.482  14.136 -0.2818 -0.4544 -0.1156
  305MPD2    H7 4653   2.607   2.548  14.212 -0.7258 -0.5051 -0.0333
  306TMC3    C1 4654   2.483   2.378  14.317  0.2551 -0.5333  0.4770
  306TMC3    C2 4655   2.475   2.260  14.389  0.8262  0.0955 -0.2978
  306TMC3    C3 4656   2.456   2.272  14.523  0.3069 -0.1337  0.4722
  306TMC3    C4 4657   2.487   2.501  14.384 -1.0427 -0.0993 -0.5019
  306TMC3    C5 4658   2.486   2.504  14.516 -0.1658  0.1884 -0.1113
  306TMC3    C6 4659   2.465   2.389  14.599  0.1438 -0.5964  0.5200
  306TMC3     C 4660   2.531   2.370  14.180 -0.2003 -0.2872 -0.4253
  306TMC3     O 4661   2.506   2.267  14.119 -0.1971  0.3980 -0.6209
  306TMC3     H 4662   2.474   2.166  14.336 -0.5083  0.0095 -0.1147
  306TMC3    H1 4663   2.493   2.597  14.333  1.8339  0.8059  1.4879
  306TMC3    H2 4664   2.449   2.390  14.706  1.2729  0.6700  0.6718
  306TMC3    C7 4665   2.526   2.636  14.581 -0.3652 -0.5962 -0.8526
  306TMC3    C8 4666   2.497   2.149  14.590 -0.3813 -0.4569 -0.6785
  306TMC3    O1 4667   2.518   2.740  14.515 -0.1122  0.0926  0.6862
  306TMC3    O2 4668   2.580   2.083  14.520 -0.1637 -0.0788 -0.3894
  307MPD2     C 4669   0.435   0.067   0.815  0.4822 -0.1271  0.2399
  307MPD2    C1 4670   0.486   0.188   0.791 -0.2835 -0.8251  0.5318
  307MPD2    C2 4671   0.516   0.277   0.899 -0.0711  0.0899 -0.3020
  307MPD2    C3 4672   0.485   0.244   1.024 -0.2365 -0.2323 -0.2813
  307MPD2    C4 4673   0.446   0.112   1.049 -0.2945 -0.1117 -0.1410
  307MPD2    C5 4674   0.415   0.033   0.946  0.0216 -0.3054 -0.2623
  307MPD2     H 4675   0.562   0.370   0.869  0.4351  0.0447  0.3230
  307MPD2    H1 4676   0.428   0.077   1.150  2.5218  2.0501  1.1067
  307MPD2    H2 4677   0.419   4.734   0.733  1.1715  1.0281 -0.8582
  307MPD2    H3 4678   0.375   4.670   0.962 -1.1854  0.1917 -0.1417
  307MPD2     N 4679   0.495   0.345   1.119 -0.0459  0.0775 -0.4119
  307MPD2    H5 4680   0.532   0.435   1.093  0.0612  0.2325  0.2680
  307MPD2    N1 4681   0.520   0.237   0.659 -0.6414 -0.6322 -0.2012
  307MPD2    H7 4682   0.548   0.335   0.652  0.4302 -0.7423  2.7660
  308TMC3    C1 4683   0.261   0.660   1.255 -1.3710  0.2301  0.0420
  308TMC3    C2 4684   0.362   0.749   1.258  0.0769 -0.6090 -0.4488
  308TMC3    C3 4685   0.487   0.696   1.276  0.3877  0.1402 -0.0281
  308TMC3    C4 4686   0.284   0.520   1.280  0.6693 -0.2843  0.1780
  308TMC3    C5 4687   0.410   0.473   1.306  0.2410 -0.0115  0.2880
  308TMC3    C6 4688   0.515   0.563   1.300 -0.4278  0.2159 -0.1513
  308TMC3     C 4689   0.162   0.691   1.158 -0.1768 -0.0727 -0.3055
  308TMC3     O 4690   0.199   0.762   1.067 -0.7919 -0.5216 -0.4189
  308TMC3     H 4691   0.348   0.854   1.235 -1.0875 -0.2650  1.8636
  308TMC3    H1 4692   0.209   0.442   1.283 -1.0349  1.3356 -0.5484
  308TMC3    H2 4693   0.617   0.528   1.289 -0.4703  0.3635 -1.0400
  308TMC3    C7 4694   0.426   0.343   1.244 -0.1485  0.2436 -0.0566
  308TMC3    C8 4695   0.608   0.776   1.273  0.4877 -0.0379 -0.2750
  308TMC3    O1 4696   0.352   0.253   1.280 -0.1024 -0.3425  0.2664
  308TMC3    O2 4697   0.702   0.725   1.333  0.5594  0.0079 -0.0480
  309MPD2     C 4698   4.608   1.035  17.126  0.1477 -0.1172 -0.5623
  309MPD2    C1 4699   4.523   1.133  17.077 -0.4695  0.0498 -0.6032
  309MPD2    C2 4700   4.434   1.197  17.157 -0.6086  0.3785  0.1826
  309MPD2    C3 4701   4.432   1.175  17.298  0.1177  0.0320  0.6809
  309MPD2    C4 4702   4.507   1.067  17.349 -0.1408  0.3482 -0.0338
  309MPD2    C5 4703   4.594   0.996  17.258  0.5761 -0.3355  0.0385
  309MPD2     H 4704   4.367   1.271  17.114 -0.5668  1.4695  1.9727
  309MPD2    H1 4705   4.480   1.040  17.450 -0.7058  2.0149  0.2661
  309MPD2    H2 4706   4.674   0.970  17.071 -1.9219 -0.7937 -2.2233
  309MPD2    H3 4707   4.640   0.911  17.307 -2.8954 -2.5376 -0.5693
  309MPD2     N 4708   4.332   1.236  17.380  0.3388  0.2420  0.6353
  309MPD2    H5 4709   4.317   1.197  17.473  1.0670 -0.6606  0.3647
  309MPD2    N1 4710   4.530   1.178  16.943  0.0705  0.4426  0.3937
  309MPD2    H7 4711   4.476   1.263  16.925 -0.0146  0.7935  2.3781
  310TMC3    C1 4712   4.599   1.212  16.719 -0.5952  0.3354  0.5087
  310TMC3    C2 4713   4.478   1.269  16.681 -0.2333 -0.1513 -0.2438
  310TMC3    C3 4714   4.462   1.293  16.544  0.7085  0.3683  0.8122
  310TMC3    C4 4715   4.687   1.171  16.619  0.2336  1.0730  0.4677
  310TMC3    C5 4716   4.673   1.196  16.486  0.3081 -0.1244  0.3690
  310TMC3    C6 4717   4.556   1.248  16.455 -1.0627 -0.0209  0.6275
  310TMC3     C 4718   4.612   1.134  16.843  0.0121 -0.1155  0.7730
  310TMC3     O 4719   4.680   1.035  16.849 -0.2320 -0.1254 -0.3632
  310TMC3     H 4720   4.390   1.276  16.744 -0.4304 -0.6818 -0.4579
  310TMC3    H1 4721   0.042   1.118  16.645 -0.6492 -0.9903 -0.6999
  310TMC3    H2 4722   4.528   1.271  16.353 -0.8456  2.9381  1.2298
  310TMC3    C7 4723   0.007   1.119  16.383  0.0960 -0.4214 -0.6642
  310TMC3    C8 4724   4.338   1.272  16.474 -0.0545  0.6460 -0.1272
  310TMC3    O1 4725   0.069   1.016  16.409 -0.0099  0.1953  0.8931
  310TMC3    O2 4726   4.333   1.185  16.379  0.8615  0.4505 -0.9017
  311MPD2     C 4727   1.809   2.006  12.639 -0.0940  0.5818 -0.2148
  311MPD2    C1 4728   1.808   2.137  12.609  0.2943  0.2188 -0.7157
  311MPD2    C2 4729   1.692   2.206  12.585 -0.0793 -0.6237 -0.8937
  311MPD2    C3 4730   1.573   2.136  12.583  0.0971 -0.9291 -0.8009
  311MPD2    C4 4731   1.570   2.001  12.615  0.6390 -0.1593  0.4321
  311MPD2    C5 4732   1.685   1.938  12.647  0.5288 -0.4908 -0.5566
  311MPD2     H 4733   1.685   2.312  12.565  0.4273 -0.6775 -1.3468
  311MPD2    H1 4734   1.476   1.947  12.624 -0.8068  2.6163  1.8338
  311MPD2    H2 4735   1.900   1.951  12.661  0.6889  1.1723 -1.9864
  311MPD2    H3 4736   1.676   1.831  12.663  1.1106  0.1766  4.3822
  311MPD2     N 4737   1.453   2.212  12.551 -0.2674  0.1763 -0.3397
  311MPD2    H5 4738   1.463   2.313  12.553 -0.8548  0.2359 -0.4382
  311MPD2    N1 4739   1.929   2.210  12.578 -0.0289  0.3576 -0.1219
  311MPD2    H7 4740   1.913   2.305  12.545 -2.8083 -0.4015 -1.0350
  312TMC3    C1 4741   1.232   2.254  12.483  0.0354 -0.4768  0.4608
  312TMC3    C2 4742   1.119   2.208  12.423 -0.4818 -0.2593 -0.3284
  312TMC3    C3 4743   1.013   2.295  12.413 -0.3185 -0.5929  0.4150
  312TMC3    C4 4744   1.234   2.372  12.556  0.3791 -0.0542 -0.3180
  312TMC3    C5 4745   1.127   2.458  12.543 -0.2359  0.5535 -0.7395
  312TMC3    C6 4746   1.021   2.421  12.470  0.7951  0.4428 -0.3035
  312TMC3     C 4747   1.338   2.156  12.506 -0.4780  0.2797 -0.4934
  312TMC3     O 4748   1.315   2.038  12.474 -0.0085 -0.1066 -0.0784
  312TMC3     H 4749   1.117   2.107  12.383  1.7847  0.1027 -1.3922
  312TMC3    H1 4750   1.314   2.403  12.621 -0.1221  0.8121 -0.1061
  312TMC3    H2 4751   0.933   2.485  12.469  1.3060  1.1541 -0.0132
  312TMC3    C7 4752   1.099   2.565  12.633 -0.0443  0.0572  0.4670
  312TMC3    C8 4753   0.895   2.249  12.340 -0.1091  0.2776 -0.5320
  312TMC3    O1 4754   0.997   2.633  12.607 -0.1354 -0.1901  0.4962
  312TMC3    O2 4755   0.889   2.127  12.311  0.4280 -0.2676 -0.2099
  313MPD2     C 4756   0.556   1.925  11.360 -0.4273  0.1120 -0.5450
  313MPD2    C1 4757   0.516   1.970  11.237  0.6880 -0.1130  0.4257
  313MPD2    C2 4758   0.426   1.884  11.164 -0.0478 -0.4148 -0.1469
  313MPD2    C3 4759   0.381   1.772  11.220 -0.3719 -0.0990  0.1454
  313MPD2    C4 4760   0.420   1.730  11.345  0.1756  0.0321 -0.1614
  313MPD2    C5 4761   0.510   1.808  11.408  1.0159 -0.0140 -0.1861
  313MPD2     H 4762   0.405   1.918  11.063 -0.3850 -0.5306 -0.1131
  313MPD2    H1 4763   0.386   1.637  11.389 -2.8728  1.7293  1.0748
  313MPD2    H2 4764   0.628   1.981  11.418  0.6867 -1.8346 -0.0752
  313MPD2    H3 4765   0.554   1.775  11.502  3.0200 -1.3046 -1.5734
  313MPD2     N 4766   0.282   1.692  11.144 -0.1894  0.0492 -0.6110
  313MPD2    H5 4767   0.275   1.731  11.051 -0.1113  0.5641 -0.4021
  313MPD2    N1 4768   0.554   2.097  11.177 -0.5513  0.1702  0.3235
  313MPD2    H7 4769   0.520   2.119  11.084 -1.3421 -2.1923  0.0640
  314TMC3    C1 4770   0.647   2.312  11.154  0.2988 -0.3066 -0.7064
  314TMC3    C2 4771   0.776   2.361  11.139  0.1267  0.2031  0.1280
  314TMC3    C3 4772   0.805   2.437  11.026 -0.1427 -0.2290 -0.5379
  314TMC3    C4 4773   0.548   2.337  11.063  0.0656 -0.0421  0.2001
  314TMC3    C5 4774   0.584   2.402  10.948  0.0194  0.5085 -0.2197
  314TMC3    C6 4775   0.703   2.452  10.935  0.1426  0.2566 -0.0343
  314TMC3     C 4776   0.629   2.197  11.236  0.3855  0.1395  0.1290
  314TMC3     O 4777   0.681   2.194  11.347  0.0042  0.3912 -0.4621
  314TMC3     H 4778   0.858   2.331  11.204 -2.5850  0.9589  3.9121
  314TMC3    H1 4779   0.450   2.298  11.088  0.0895  0.1562  0.5961
  314TMC3    H2 4780   0.725   2.523  10.855  3.4435  1.1302  1.6917
  314TMC3    C7 4781   0.530   2.323  10.838  0.0600  0.3865  0.2514
  314TMC3    C8 4782   0.939   2.452  10.976  0.1781  0.3326  0.2394
  314TMC3    O1 4783   0.430   2.257  10.863  0.5211 -0.6375 -0.0318
  314TMC3    O2 4784   0.951   2.454  10.858  0.4899  0.5732  0.1898
  315MPD2     C 4785   0.880   0.546  17.739 -0.4259 -0.0642 -0.0488
  315MPD2    C1 4786   1.013   0.587   0.014 -0.1609 -0.1487  0.0704
  315MPD2    C2 4787   1.046   0.710  17.696 -0.0589 -0.1563  0.5623
  315MPD2    C3 4788   0.958   0.782  17.621  0.5822  0.0017 -0.5084
  315MPD2    C4 4789   0.828   0.735  17.609  0.5762 -1.4130  0.0364
  315MPD2    C5 4790   0.793   0.621  17.667 -0.2197 -0.1858  0.1760
  315MPD2     H 4791   1.146   0.751  17.694 -0.2592  0.4092  2.2879
  315MPD2    H1 4792   0.753   0.784  17.548  0.9007 -1.4918 -0.4290
  315MPD2    H2 4793   0.840   0.457   0.043 -2.8779  1.9849  1.7422
  315MPD2    H3 4794   0.691   0.587  17.681  0.1541 -0.6251  1.8285
  315MPD2     N 4795   1.002   0.902  17.558  0.7134 -0.0289 -0.3601
  315MPD2    H5 4796   1.085   0.943  17.600 -1.0033  2.0064  1.0375
  315MPD2    N1 4797   1.104   0.531   0.104 -0.0469 -0.7426 -0.0768
  315MPD2    H7 4798   1.198   0.570   0.103  0.3593 -1.7073  0.0443
  316TMC3    C1 4799   1.014   1.075  17.401  0.0801  0.4835 -0.7371
  316TMC3    C2 4800   1.100   1.143  17.483  0.4358  0.1635 -0.7372
  316TMC3    C3 4801   1.153   1.260  17.439 -0.0408 -0.0375 -1.1302
  316TMC3    C4 4802   0.982   1.125  17.278  0.0735  0.2532 -0.3053
  316TMC3    C5 4803   1.042   1.237  17.232 -0.2295 -0.0107 -0.0362
  316TMC3    C6 4804   1.126   1.310  17.310 -0.0675  0.3065 -0.1022
  316TMC3     C 4805   0.961   0.943  17.434  0.5405  0.2873 -1.1342
  316TMC3     O 4806   0.904   0.880  17.349 -0.5376 -0.1281 -0.0069
  316TMC3     H 4807   1.122   1.120  17.586 -0.0767  3.5823  0.1545
  316TMC3    H1 4808   0.914   1.070  17.214  0.1450  1.1660 -1.1651
  316TMC3    H2 4809   1.175   1.398  17.271 -0.3818  0.1868 -0.7593
  316TMC3    C7 4810   1.029   1.285  17.097  0.1963  0.9513 -0.2222
  316TMC3    C8 4811   1.264   1.320  17.505  0.3708 -0.4539 -0.5176
  316TMC3    O1 4812   1.069   1.395  17.070 -0.4540 -0.0445  0.0159
  316TMC3    O2 4813   1.297   1.431  17.460  0.0955  0.3097  0.0960
  317MPD2     C 4814   2.856   4.411  12.805 -0.3958 -0.3304 -0.3882
  317MPD2    C1 4815   2.842   4.278  12.794  0.0791  0.1773  0.3890
  317MPD2    C2 4816   2.871   4.195  12.895 -0.7006 -0.6894 -0.0738
  317MPD2    C3 4817   2.907   4.240  13.021  0.8065 -0.0024 -0.0852
  317MPD2    C4 4818   2.891   4.376  13.042  0.2281 -0.4881  0.3280
  317MPD2    C5 4819   2.861   4.458  12.935  0.2227 -0.1899 -0.0441
  317MPD2     H 4820   2.863   4.087  12.886  0.3258 -0.6481 -1.4849
  317MPD2    H1 4821   2.913   4.417  13.140 -3.6563 -2.9768  2.2567
  317MPD2    H2 4822   2.828   4.483  12.728  1.0551  1.1737  0.5035
  317MPD2    H3 4823   2.869   4.564  12.954  2.5873 -0.5959  1.1421
  317MPD2     N 4824   2.954   4.139  13.106  0.3808 -0.8431  0.3632
  317MPD2    H5 4825   2.959   4.043  13.073  1.6807 -0.6518  0.0165
  317MPD2    N1 4826   2.793   4.219  12.673 -0.5624 -0.1970  0.0448
  317MPD2    H7 4827   2.777   4.119  12.677 -0.5999 -0.1797  0.3898
  318TMC3    C1 4828   3.067   4.035  13.286 -0.4051  0.7959  0.4071
  318TMC3    C2 4829   3.010   3.911  13.250  0.3953  0.0237 -0.0141
  318TMC3    C3 4830   3.080   3.800  13.279  0.3338 -0.2521  0.1862
  318TMC3    C4 4831   3.175   4.045  13.360 -1.1451 -0.6569 -0.1882
  318TMC3    C5 4832   3.235   3.933  13.403 -0.0758 -0.4546  0.1173
  318TMC3    C6 4833   3.191   3.804  13.363  0.5950  0.9196 -0.1471
  318TMC3     C 4834   3.008   4.158  13.229  0.9460  0.4151 -0.1681
  318TMC3     O 4835   3.031   4.265  13.280 -0.1168 -0.0821 -0.1009
  318TMC3     H 4836   2.919   3.909  13.191  0.1595 -0.7434  0.3684
  318TMC3    H1 4837   3.201   4.144  13.393 -1.0697 -1.0190  0.8419
  318TMC3    H2 4838   3.248   3.718  13.395  0.1833  0.4459 -0.6934
  318TMC3    C7 4839   3.330   3.959  13.509  0.2156 -0.5567  0.4661
  318TMC3    C8 4840   3.020   3.674  13.248  0.1187  0.4736  0.0401
  318TMC3    O1 4841   3.328   4.074  13.558  0.3645 -0.0280 -0.4615
  318TMC3    O2 4842   3.056   3.586  13.324  0.3720  0.3728  0.5355
  319MPD2     C 4843   3.505   0.824  16.480  0.5254 -0.4834 -0.5120
  319MPD2    C1 4844   3.564   0.730  16.394  0.0786 -0.6164  0.5214
  319MPD2    C2 4845   3.499   0.609  16.380  0.0198 -0.4791  0.1786
  319MPD2    C3 4846   3.366   0.593  16.422  0.0180 -0.4373  0.2868
  319MPD2    C4 4847   3.310   0.692  16.505 -0.3678 -0.4376  0.0491
  319MPD2    C5 4848   3.378   0.806  16.532  0.1681 -0.0124  0.5703
  319MPD2     H 4849   3.555   0.539  16.319  0.5479  0.9341 -0.9597
  319MPD2    H1 4850   3.211   0.684  16.550 -0.7764  1.2244 -0.5354
  319MPD2    H2 4851   3.549   0.921  16.498  2.7232 -1.4848 -0.4677
  319MPD2    H3 4852   3.329   0.882  16.592 -1.4677 -0.8847  0.3315
  319MPD2     N 4853   3.287   0.485  16.392 -0.0557  0.3171  0.2075
  319MPD2    H5 4854   3.188   0.481  16.410 -0.1518  0.1989 -0.3550
  319MPD2    N1 4855   3.692   0.740  16.340 -0.4457 -0.6361  0.1527
  319MPD2    H7 4856   3.742   0.665  16.294 -0.0676 -0.6738  0.6262
  320TMC3    C1 4857   3.229   0.294  16.275  0.0527  0.5149 -0.1871
  320TMC3    C2 4858   3.138   0.371  16.205  0.0745  0.1473  0.7814
  320TMC3    C3 4859   3.051   0.307  16.132  0.9257  0.8697  0.1387
  320TMC3    C4 4860   3.234   0.158  16.260  0.1287 -0.0778  0.1674
  320TMC3    C5 4861   3.135   0.098  16.185  0.2330  0.1347 -0.8601
  320TMC3    C6 4862   3.039   0.172  16.125 -0.0050  0.7845  0.1449
  320TMC3     C 4863   3.333   0.368  16.335  0.0138  0.0417 -0.1747
  320TMC3     O 4864   3.444   0.326  16.310  0.2483 -0.1300  0.6545
  320TMC3     H 4865   3.123   0.478  16.213 -1.5587 -0.0737  0.7544
  320TMC3    H1 4866   3.313   0.101  16.307  3.0016  1.8830 -2.2768
  320TMC3    H2 4867   2.972   0.118  16.058  1.2700  0.5094 -0.9184
  320TMC3    C7 4868   3.151   4.692  16.143 -0.1408  0.3743 -0.0808
  320TMC3    C8 4869   2.985   0.380  16.028 -0.6699  0.0393  0.0445
  320TMC3    O1 4870   3.099   4.662  16.036 -0.5333  0.1784  0.4475
  320TMC3    O2 4871   3.049   0.469  15.981 -0.0997 -0.6449 -0.0676
  321TMC3    C1 4872   3.923   0.825  16.333  0.0000 -0.0901  0.0922
  321TMC3    C2 4873   3.974   0.699  16.317 -0.5574  0.2427 -0.0368
  321TMC3    C3 4874   4.108   0.688  16.306 -0.2191  0.1629 -0.4643
  321TMC3    C4 4875   3.994   0.934  16.359  0.8460 -0.0547 -0.4155
  321TMC3    C5 4876   4.129   0.913  16.384 -0.3154  0.3025  0.6151
  321TMC3    C6 4877   4.186   0.790  16.346  0.4041  0.0789 -0.1189
  321TMC3     C 4878   3.781   0.842  16.365  0.3635 -0.3456 -0.2282
  321TMC3     O 4879   3.757   0.953  16.416 -0.0961 -0.2052 -0.1759
  321TMC3     H 4880   3.900   0.620  16.314 -2.3696  2.0225 -2.2152
  321TMC3    H1 4881   3.956   1.035  16.362 -1.4961 -0.8854 -2.0016
  321TMC3    H2 4882   4.293   0.780  16.359  0.7527  2.7490 -1.0662
  321TMC3    C7 4883   4.172   0.931  16.520  0.0012 -0.1222 -0.2902
  321TMC3    C8 4884   4.154   0.562  16.365  0.1990  0.7297 -0.5285
  321TMC3    O1 4885   4.252   0.849  16.559  0.0905 -0.1730  0.0591
  321TMC3    O2 4886   4.114   0.456  16.315 -0.3573 -0.4208 -0.4450
  322MPD2     C 4887   2.461   1.777  13.742  0.4373  0.0818 -0.4254
  322MPD2    C1 4888   2.465   1.675  13.832  0.1011  0.7706 -1.0027
  322MPD2    C2 4889   2.485   1.539  13.798  0.2262 -0.4229 -0.0233
  322MPD2    C3 4890   2.497   1.513  13.661 -1.0212 -0.5735  0.0604
  322MPD2    C4 4891   2.479   1.619  13.570 -0.2699 -0.3853  0.5714
  322MPD2    C5 4892   2.461   1.747  13.611  0.2548 -0.6248  0.1151
  322MPD2     H 4893   2.497   1.464  13.875 -1.5745  1.4202  2.0699
  322MPD2    H1 4894   2.467   1.607  13.463 -1.0216  0.8645  0.5170
  322MPD2    H2 4895   2.439   1.875  13.784 -0.2134 -0.9509  1.6510
  322MPD2    H3 4896   2.433   1.830  13.548 -0.2268  0.6425  1.9930
  322MPD2     N 4897   2.525   1.377  13.621 -0.7481  0.4677 -0.3168
  322MPD2    H5 4898   2.527   1.310  13.697  0.8387  1.1498  0.2513
  322MPD2    N1 4899   2.482   1.716  13.968  0.7250  0.1363 -0.3686
  322MPD2    H7 4900   2.502   1.814  13.989  3.6547 -0.4635 -0.3821
  323TMC3    C1 4901   2.504   1.678  14.199  0.2411  0.8323 -0.5072
  323TMC3    C2 4902   2.590   1.780  14.200 -0.2809  0.2365  0.1937
  323TMC3    C3 4903   2.653   1.809  14.316 -0.3746  0.4076  0.2481
  323TMC3    C4 4904   2.463   1.614  14.313 -0.0927  0.2632 -0.0302
  323TMC3    C5 4905   2.530   1.646  14.426  0.0236 -0.1265  1.0826
  323TMC3    C6 4906   2.633   1.737  14.429  0.3837  0.0918 -0.7513
  323TMC3     C 4907   2.456   1.631  14.072  0.6171  0.7001  0.2697
  323TMC3     O 4908   2.384   1.531  14.072  0.2996 -0.2726 -0.5684
  323TMC3     H 4909   2.632   1.820  14.109  0.1283  1.9368  1.1319
  323TMC3    H1 4910   2.407   1.522  14.309  0.5650 -0.1144 -0.5629
  323TMC3    H2 4911   2.692   1.744  14.520 -0.7575  2.4096 -0.1899
  323TMC3    C7 4912   2.532   1.553  14.532 -0.2269  0.0132  0.7085
  323TMC3    C8 4913   2.777   1.882  14.314 -0.5913 -0.2455  0.9640
  323TMC3    O1 4914   2.640   1.510  14.566  0.2022  0.2755 -0.2232
  323TMC3    O2 4915   2.851   1.851  14.406 -0.2839 -0.4702  0.4749
  324MPD2     C 4916   4.201   2.849  14.528  0.0622  0.4390  0.3665
  324MPD2    C1 4917   4.233   2.965  14.467  0.8666  0.3546 -0.1234
  324MPD2    C2 4918   4.151   3.022  14.371 -0.7613 -0.0353 -0.4683
  324MPD2    C3 4919   4.025   2.964  14.350 -0.0068 -0.2565  0.1319
  324MPD2    C4 4920   3.990   2.850  14.414 -0.4300  0.5673 -0.6172
  324MPD2    C5 4921   4.078   2.790  14.506  0.0853  0.2160  1.1199
  324MPD2     H 4922   4.192   3.094  14.301 -0.0858  0.4318  0.4081
  324MPD2    H1 4923   3.901   2.790  14.399 -0.0200 -0.3682  0.7065
  324MPD2    H2 4924   4.272   2.789  14.585 -1.9520 -0.6488  1.7366
  324MPD2    H3 4925   4.050   2.701  14.562 -0.2645  0.5035  1.4039
  324MPD2     N 4926   3.932   3.005  14.254  0.0904  0.0331  0.1027
  324MPD2    H5 4927   3.837   2.970  14.248 -0.9813  2.5376  2.5013
  324MPD2    N1 4928   4.359   3.020  14.481  0.4785  0.3354  0.1641
  324MPD2    H7 4929   4.379   3.115  14.453  1.9458  0.0763  0.3058
  325TMC3    C1 4930   3.850   3.134  14.071 -0.0197  0.2720  0.6261
  325TMC3    C2 4931   3.766   3.030  14.030 -0.1324  0.0070  0.7450
  325TMC3    C3 4932   3.667   3.059  13.939  0.2577  0.1066 -0.4390
  325TMC3    C4 4933   3.845   3.258  14.012 -0.3168 -0.8403 -0.1791
  325TMC3    C5 4934   3.758   3.276  13.913  0.1203  0.2504  0.2677
  325TMC3    C6 4935   3.671   3.178  13.872 -0.6579 -1.1911 -0.0358
  325TMC3     C 4936   3.957   3.108  14.163  0.0097 -0.5153 -0.4869
  325TMC3     O 4937   4.057   3.177  14.144  0.4308  0.1052 -0.6779
  325TMC3     H 4938   3.781   2.933  14.076  1.6144  1.2189  2.7374
  325TMC3    H1 4939   3.907   3.335  14.057 -1.4116  0.4176 -0.8691
  325TMC3    H2 4940   3.587   3.202  13.807  1.6614  0.9104 -2.2412
  325TMC3    C7 4941   3.706   3.413  13.901 -0.4752  0.9490 -0.4607
  325TMC3    C8 4942   3.574   2.956  13.898  0.1341 -0.4070 -0.8637
  325TMC3    O1 4943   3.638   3.430  13.800 -0.5530  0.5781  0.2798
  325TMC3    O2 4944   3.532   2.967  13.786  1.0947 -0.2088  0.4156
  326MPD2     C 4945   0.564   3.799  11.170 -0.1835  0.0512 -0.6450
  326MPD2    C1 4946   0.495   3.851  11.067  0.3807  0.1902 -0.1335
  326MPD2    C2 4947   0.564   3.924  10.973 -0.2349 -0.4118 -0.4546
  326MPD2    C3 4948   0.696   3.954  10.974 -0.2090 -0.1072  0.1719
  326MPD2    C4 4949   0.762   3.917  11.088  0.3225 -0.0230  0.2888
  326MPD2    C5 4950   0.699   3.833  11.175  0.1057  0.3150 -0.2731
  326MPD2     H 4951   0.504   3.960  10.889 -1.2985  0.1362  0.5472
  326MPD2    H1 4952   0.868   3.937  11.091  0.4640 -0.8649  1.0322
  326MPD2    H2 4953   0.527   3.734  11.249 -0.0102  0.0289 -0.5817
  326MPD2    H3 4954   0.767   3.786  11.245 -1.9983  0.1322  1.6602
  326MPD2     N 4955   0.774   4.027  10.879 -0.1211  0.0728 -0.0386
  326MPD2    H5 4956   0.869   4.046  10.908 -0.4222 -0.4649  1.3003
  326MPD2    N1 4957   0.357   3.822  11.042 -0.2367  0.1043 -0.5324
  326MPD2    H7 4958   0.318   3.871  10.963  0.3606  1.1930 -0.1619
  327TMC3    C1 4959   0.175   3.682  11.027 -0.3513 -0.1696 -0.6179
  327TMC3    C2 4960   0.088   3.772  10.983 -0.2161 -1.1299  0.0237
  327TMC3    C3 4961   0.022   3.755  10.865  0.1283 -0.3344 -0.9395
  327TMC3    C4 4962   0.223   3.590  10.930  0.2478  0.8641  0.2865
  327TMC3    C5 4963   0.168   3.578  10.803  0.1934  0.1377  0.6576
  327TMC3    C6 4964   0.058   3.653  10.775 -0.9301  0.0890 -0.4348
  327TMC3     C 4965   0.276   3.734  11.113 -1.3992  0.5280 -0.3389
  327TMC3     O 4966   0.314   3.670  11.214 -0.4181 -0.2283  0.2192
  327TMC3     H 4967   0.050   3.839  11.059  0.1432  1.0132 -1.6683
  327TMC3    H1 4968   0.302   3.521  10.959 -0.8675 -0.3058  0.5338
  327TMC3    H2 4969   0.004   3.628  10.685 -0.5425 -0.1252 -0.6085
  327TMC3    C7 4970   0.268   3.586  10.699  0.1351  0.4987  0.4906
  327TMC3    C8 4971   4.668   3.857  10.818  0.1318  0.2607 -0.5073
  327TMC3    O1 4972   0.231   3.558  10.583 -0.0926 -0.2397  0.4464
  327TMC3    O2 4973   4.651   3.857  10.694  0.1234 -0.1482  0.0666
  328MPD2     C 4974   3.135   3.689  17.143 -0.2694 -0.0582 -0.3945
  328MPD2    C1 4975   3.091   3.658  17.013  0.0322 -0.5891  0.0715
  328MPD2    C2 4976   3.073   3.763  16.925  0.0124  0.0978 -0.0281
  328MPD2    C3 4977   3.079   3.896  16.967 -0.0003 -0.6842 -0.2430
  328MPD2    C4 4978   3.115   3.919  17.094  0.5243 -0.4222  0.8324
  328MPD2    C5 4979   3.156   3.821  17.178 -0.2352 -0.1869 -0.0831
  328MPD2     H 4980   3.046   3.727  16.826  3.1375  1.1962 -1.2627
  328MPD2    H1 4981   3.126   4.022  17.126  0.2528  0.0208 -0.4752
  328MPD2    H2 4982   3.151   3.610  17.216  0.6158  0.2265 -0.2763
  328MPD2    H3 4983   3.195   3.845  17.277  0.5089 -2.2579  0.1380
  328MPD2     N 4984   3.040   4.009  16.884 -0.1521 -0.3223 -0.3011
  328MPD2    H5 4985   3.050   4.103  16.922 -1.2530 -0.5716  0.6077
  328MPD2    N1 4986   3.041   3.531  16.960  0.2313 -0.6160  0.1326
  328MPD2    H7 4987   2.986   3.528  16.875  0.8673 -0.7910 -0.2741
  329TMC3    C1 4988   2.919   3.342  16.976 -0.0977 -0.4531  0.3105
  329TMC3    C2 4989   2.793   3.387  17.007  0.0671  0.2703  0.2028
  329TMC3    C3 4990   2.708   3.384  16.903  0.6363 -0.3333  0.1162
  329TMC3    C4 4991   2.959   3.303  16.852  0.0101 -0.0311 -0.2480
  329TMC3    C5 4992   2.867   3.283  16.753 -0.2578 -1.0222  0.3296
  329TMC3    C6 4993   2.740   3.332  16.778  0.4129  0.2224 -0.1660
  329TMC3     C 4994   3.014   3.427  17.040 -0.5430 -0.1749 -0.1549
  329TMC3     O 4995   3.028   3.418  17.162 -0.1852 -0.0742  0.9274
  329TMC3     H 4996   2.772   3.402  17.112 -0.7814  1.8167 -0.1735
  329TMC3    H1 4997   3.066   3.288  16.841 -0.0141 -0.2250 -0.2207
  329TMC3    H2 4998   2.682   3.348  16.688 -1.7594  2.3965  1.6102
  329TMC3    C7 4999   2.898   3.228  16.625 -0.1119  0.0339  0.8890
  329TMC3    C8 5000   2.592   3.463  16.899 -0.3168  0.6066  0.5214
  329TMC3    O1 5001   2.822   3.258  16.532 -0.4837  0.3363  0.1596
  329TMC3    O2 5002   2.505   3.449  16.809 -0.5021  0.1213 -0.0970
  330TMC3    C1 5003   1.081   3.024   9.925 -1.0722  0.2213 -0.7037
  330TMC3    C2 5004   1.013   2.952   9.833 -0.0068 -0.0238 -0.4051
  330TMC3    C3 5005   1.028   2.822   9.833 -0.1027  0.0662  1.0864
  330TMC3    C4 5006   1.159   2.972  10.024  0.0552 -0.0615 -0.0649
  330TMC3    C5 5007   1.187   2.838  10.001 -0.5755  0.3508 -0.2459
  330TMC3    C6 5008   1.119   2.767   9.908  0.4260 -0.6794  0.1273
  330TMC3     C 5009   1.043   3.166   9.926  0.7193 -0.8259 -0.0239
  330TMC3     O 5010   1.039   3.222  10.038  0.8363 -0.5714  0.6844
  330TMC3     H 5011   0.921   2.991   9.793 -1.5373 -3.6581 -0.4273
  330TMC3    H1 5012   1.226   3.030  10.087  0.2463 -0.4479  0.0880
  330TMC3    H2 5013   1.141   2.666   9.875 -0.7288 -0.8397 -0.1289
  330TMC3    C7 5014   1.219   2.771  10.119  0.3216  0.0115 -0.1871
  330TMC3    C8 5015   0.979   2.745   9.724  0.9109 -0.6539 -0.2089
  330TMC3    O1 5016   1.169   2.665  10.145  0.0163 -0.1342  0.5385
  330TMC3    O2 5017   0.966   2.809   9.619 -0.4398  0.0717  0.1529
  331MPD2     C 5018   3.541   2.394  12.667  0.5262  0.2947  0.4207
  331MPD2    C1 5019   3.677   2.386  12.655  0.1843 -0.0257 -0.2173
  331MPD2    C2 5020   3.743   2.294  12.584  0.2296  0.3955 -0.3605
  331MPD2    C3 5021   3.682   2.191  12.523  0.4717  0.5875 -0.1203
  331MPD2    C4 5022   3.542   2.192  12.532  0.0469 -0.2343 -0.0940
  331MPD2    C5 5023   3.480   2.289  12.611  0.2265  0.0345  0.0999
  331MPD2     H 5024   3.849   2.307  12.566  0.1534  0.4649 -0.7502
  331MPD2    H1 5025   3.483   2.110  12.493  0.6307  0.6686 -2.8152
  331MPD2    H2 5026   3.491   2.473  12.723 -0.1065  0.3183 -0.1742
  331MPD2    H3 5027   3.376   2.271  12.635  0.2628  0.4812  0.5926
  331MPD2     N 5028   3.756   2.085  12.470  0.1282  0.1078  0.0136
  331MPD2    H5 5029   3.856   2.092  12.485  0.8349 -1.1867 -3.8958
  331MPD2    N1 5030   3.750   2.504  12.689  0.0955  0.1365  0.5123
  331MPD2    H7 5031   3.691   2.586  12.697 -0.1283  0.2345 -2.1769
  332TMC3    C1 5032   3.831   1.929  12.315  0.1842 -0.5372  0.2096
  332TMC3    C2 5033   3.847   1.965  12.184  0.1518 -0.1935  0.9999
  332TMC3    C3 5034   3.971   1.984  12.137  0.0379  0.1347  0.6652
  332TMC3    C4 5035   3.938   1.903  12.398  0.1880  0.6920  0.4761
  332TMC3    C5 5036   4.063   1.926  12.351 -0.6510 -0.0684 -0.8307
  332TMC3    C6 5037   4.076   1.968  12.223 -0.5722  0.2181 -0.6677
  332TMC3     C 5038   3.711   1.991  12.382 -0.2220  0.3937 -0.3916
  332TMC3     O 5039   3.599   1.979  12.337  0.7984 -1.0441 -0.2025
  332TMC3     H 5040   3.760   2.008  12.135  0.2623  0.6994  1.5881
  332TMC3    H1 5041   3.919   1.874  12.501  0.5952 -0.7230  0.1465
  332TMC3    H2 5042   4.177   2.003  12.204 -0.6727  0.7187 -0.2905
  332TMC3    C7 5043   4.184   1.896  12.427  0.1942 -0.0745  0.7745
  332TMC3    C8 5044   3.985   2.092  12.039 -0.1763 -0.3720 -0.5825
  332TMC3    O1 5045   4.164   1.848  12.537 -0.2103 -0.3549  0.2708
  332TMC3    O2 5046   4.098   2.146  12.042 -0.1770 -0.0591  0.0566
  333MPD2     C 5047   3.963   2.109  10.806  0.4570 -0.4009  0.1355
  333MPD2    C1 5048   3.988   1.984  10.762  0.5794 -0.3157  0.3887
  333MPD2    C2 5049   3.908   1.889  10.824 -0.2216  0.3255 -0.7883
  333MPD2    C3 5050   3.795   1.925  10.895  0.1988 -0.0156 -0.3448
  333MPD2    C4 5051   3.775   2.051  10.935 -0.1790  0.0286  0.3371
  333MPD2    C5 5052   3.870   2.143  10.904 -0.1831 -0.0019 -0.4045
  333MPD2     H 5053   3.928   1.783  10.812  1.2074  0.5264 -0.1979
  333MPD2    H1 5054   3.701   2.091  11.003 -2.9076 -1.0920 -1.9448
  333MPD2    H2 5055   4.017   2.191  10.761 -0.9720  1.2405  1.4379
  333MPD2    H3 5056   3.854   2.246  10.934 -0.5302 -0.1971  0.0797
  333MPD2     N 5057   3.700   1.822  10.918  0.1789  0.8783 -0.3936
  333MPD2    H5 5058   3.721   1.729  10.881  0.0954 -0.4561  2.8944
  333MPD2    N1 5059   4.099   1.957  10.678 -0.0516  0.1257  0.2548
  333MPD2    H7 5060   4.167   2.031  10.663 -0.5668  0.5337 -0.0188
  334TMC3    C1 5061   4.241   1.840  10.526  0.1865  0.2599 -0.3387
  334TMC3    C2 5062   4.325   1.734  10.510 -0.1114 -0.2845  0.4749
  334TMC3    C3 5063   4.407   1.734  10.406 -0.3038 -0.3865  0.3298
  334TMC3    C4 5064   4.224   1.946  10.437 -0.5194  0.4361  0.8282
  334TMC3    C5 5065   4.314   1.939  10.336  0.1099 -0.0190  0.0416
  334TMC3    C6 5066   4.397   1.835  10.314 -0.0288  0.1208  0.0707
  334TMC3     C 5067   4.126   1.832  10.615  0.4958 -0.3283  0.5139
  334TMC3     O 5068   4.066   1.729  10.634  0.6140  0.7621 -0.0425
  334TMC3     H 5069   4.344   1.671  10.596 -1.5482  0.4186  1.2997
  334TMC3    H1 5070   4.163   2.035  10.446  0.6517  1.4423 -1.0218
  334TMC3    H2 5071   4.447   1.814  10.221 -1.1823 -0.0059 -0.5221
  334TMC3    C7 5072   4.362   2.068  10.282  0.0064  0.1265  0.7130
  334TMC3    C8 5073   4.539   1.687  10.422 -0.4913 -0.2094 -0.0911
  334TMC3    O1 5074   4.329   2.175  10.338  0.1514 -0.0360 -0.3315
  334TMC3    O2 5075   4.560   1.572  10.443  0.0138  0.4337 -0.3603
  335TMC3    C1 5076   3.623   4.297  17.315  1.0393 -0.2075  0.3617
  335TMC3    C2 5077   3.599   4.180  17.242 -0.3487 -0.0487 -0.2178
  335TMC3    C3 5078   3.694   4.153  17.141  0.2121 -0.2173  0.0890
  335TMC3    C4 5079   3.737   4.369  17.317  0.0205  0.4185  0.0347
  335TMC3    C5 5080   3.826   4.329  17.219  0.2085 -0.7146  0.2719
  335TMC3    C6 5081   3.800   4.225  17.130  0.6266 -0.0604 -0.0988
  335TMC3     C 5082   3.518   4.332  17.413 -0.0991 -0.3975 -0.1015
  335TMC3     O 5083   3.427   4.255  17.425 -0.4408  0.2248  0.3154
  335TMC3     H 5084   3.498   4.142  17.232  1.4902 -5.5525  1.8543
  335TMC3    H1 5085   3.767   4.439  17.394 -1.1529 -0.7716  1.5750
  335TMC3    H2 5086   3.871   4.209  17.049 -0.5654  0.4994 -1.2475
  335TMC3    C7 5087   3.963   4.373  17.223  0.0094 -0.1390 -0.0746
  335TMC3    C8 5088   3.659   4.056  17.037 -0.5449 -0.4277  0.5798
  335TMC3    O1 5089   4.024   4.362  17.119  0.1486  0.1378  0.3255
  335TMC3    O2 5090   3.718   4.069  16.932  0.1306  0.1333 -0.2245
  336MPD2     C 5091   3.405   1.803  16.211  0.7260  0.8544  0.4306
  336MPD2    C1 5092   3.365   1.727  16.102  0.2848  0.0347  0.1459
  336MPD2    C2 5093   3.375   1.592  16.107 -0.0670  0.4547  0.4078
  336MPD2    C3 5094   3.434   1.525  16.216  0.3043 -0.0583 -0.5357
  336MPD2    C4 5095   3.463   1.595  16.327  0.4804 -0.2298  0.3826
  336MPD2    C5 5096   3.451   1.734  16.319  0.1879  0.5056 -0.3993
  336MPD2     H 5097   3.349   1.537  16.017 -4.9422  1.4876  1.1880
  336MPD2    H1 5098   3.505   1.542  16.411  1.0947 -0.2715  0.0500
  336MPD2    H2 5099   3.394   1.910  16.210  1.1551  0.8835 -0.5099
  336MPD2    H3 5100   3.471   1.795  16.407  0.0776  0.3010 -0.2303
  336MPD2     N 5101   3.432   1.385  16.208  0.1294  0.2086 -0.2082
  336MPD2    H5 5102   3.379   1.345  16.131 -0.6450  0.9624 -0.0688
  336MPD2    N1 5103   3.316   1.790  15.984  0.1620  0.0460 -0.2856
  336MPD2    H7 5104   3.296   1.740  15.898  0.8912 -2.3504  0.9443
  337TMC3    C1 5105   3.229   1.962  15.843 -0.2069 -0.0322 -0.2968
  337TMC3    C2 5106   3.180   1.862  15.760 -1.1631  0.3636 -0.6827
  337TMC3    C3 5107   3.089   1.906  15.662 -0.4098 -0.6987 -0.0846
  337TMC3    C4 5108   3.194   2.094  15.825 -0.4721 -0.1298  0.5698
  337TMC3    C5 5109   3.099   2.124  15.732 -0.0553  0.0090 -0.2352
  337TMC3    C6 5110   3.052   2.034  15.639  0.5353  0.0801 -0.5635
  337TMC3     C 5111   3.295   1.931  15.969 -0.3144  0.7196 -0.2199
  337TMC3     O 5112   3.344   2.030  16.026 -0.2735 -0.3013 -0.1973
  337TMC3     H 5113   3.188   1.755  15.776  2.9774  0.7417 -0.2980
  337TMC3    H1 5114   3.233   2.168  15.895  1.5627 -2.2739  1.7060
  337TMC3    H2 5115   2.978   2.059  15.564 -0.0075  1.0078  0.2806
  337TMC3    C7 5116   3.053   2.263  15.732  0.1722  0.5307  0.2566
  337TMC3    C8 5117   3.072   1.803  15.562 -0.0664  0.0376 -0.1424
  337TMC3    O1 5118   3.097   2.327  15.825  0.0055  0.2759 -0.1415
  337TMC3    O2 5119   3.147   1.710  15.577 -0.0549  0.4282  0.1462
  338MPD2     C 5120   4.314   1.501   1.074 -0.3848  0.1558 -0.3626
  338MPD2    C1 5121   4.239   1.489   0.958  0.2185 -0.1656 -0.8856
  338MPD2    C2 5122   4.142   1.583   0.937  0.7870  0.5328  0.4707
  338MPD2    C3 5123   4.107   1.675   1.035 -0.6301  0.4712  0.1765
  338MPD2    C4 5124   4.184   1.679   1.152  0.5671 -0.3305 -0.2207
  338MPD2    C5 5125   4.283   1.592   1.169 -0.0610  0.4034  0.1032
  338MPD2     H 5126   4.089   1.592   0.843  0.1326 -0.9535  0.7097
  338MPD2    H1 5127   4.146   1.733   1.238  0.7950  0.4120 -0.5866
  338MPD2    H2 5128   4.394   1.433   1.099  0.8473  1.1586 -1.5958
  338MPD2    H3 5129   4.342   1.596   1.260  0.3620 -0.2019 -0.1516
  338MPD2     N 5130   3.988   1.751   1.005 -0.2734  0.3526 -0.8119
  338MPD2    H5 5131   3.932   1.722   0.926  0.9870 -0.7674 -1.2959
  338MPD2    N1 5132   4.258   1.390   0.859 -0.1391  0.5092 -0.6133
  338MPD2    H7 5133   4.178   1.377   0.797  2.0713  2.8815 -3.9589
  339TMC3    C1 5134   3.809   1.897   1.016  0.2171 -0.2617 -0.8573
  339TMC3    C2 5135   3.714   1.950   1.102  0.2097 -0.0252  0.5196
  339TMC3    C3 5136   3.586   1.945   1.062  0.8204 -0.1406  0.7263
  339TMC3    C4 5137   3.777   1.851   0.890  0.4525  0.0375  0.0538
  339TMC3    C5 5138   3.641   1.847   0.855 -0.2558 -0.5555  0.0553
  339TMC3    C6 5139   3.541   1.891   0.939 -0.0190 -0.7823  0.1737
  339TMC3     C 5140   3.942   1.862   1.067  0.6793  0.0179 -0.6446
  339TMC3     O 5141   3.994   1.911   1.169 -0.2812  0.1027 -0.2496
  339TMC3     H 5142   3.742   1.989   1.199  1.3444  0.7384 -0.1196
  339TMC3    H1 5143   3.855   1.819   0.822 -0.3103 -2.7537  0.5001
  339TMC3    H2 5144   3.439   1.886   0.903  0.4849 -1.6541 -1.1423
  339TMC3    C7 5145   3.613   1.770   0.740  0.1453 -0.1535 -1.0527
  339TMC3    C8 5146   3.507   2.038   1.146 -0.8179 -0.1338  0.1150
  339TMC3    O1 5147   3.670   1.798   0.637  0.2492  0.0547  0.3805
  339TMC3    O2 5148   3.561   2.145   1.177 -0.0361 -0.5167  0.9425
  340MPD2     C 5149   3.978   3.649  10.368 -0.1280 -0.3535 -0.1405
  340MPD2    C1 5150   3.918   3.547  10.301  0.7675  0.2039 -0.4151
  340MPD2    C2 5151   3.981   3.425  10.283  0.1636 -0.6279  0.1883
  340MPD2    C3 5152   4.116   3.411  10.323  0.5314  0.0313 -0.0432
  340MPD2    C4 5153   4.175   3.518  10.389 -0.0785 -0.0164 -0.4380
  340MPD2    C5 5154   4.105   3.630  10.424 -0.7112  0.1492  0.4828
  340MPD2     H 5155   3.920   3.338  10.260  0.1103 -0.5507  0.0373
  340MPD2    H1 5156   4.276   3.506  10.428  1.0089  3.0634 -2.2988
  340MPD2    H2 5157   3.928   3.740  10.396  0.7555  0.2811 -0.6031
  340MPD2    H3 5158   4.158   3.707  10.478  1.1474 -1.4167  0.8993
  340MPD2     N 5159   4.202   3.306  10.282 -0.0984  0.2713  0.1009
  340MPD2    H5 5160   4.303   3.307  10.295  0.1926  1.1627 -2.3073
  340MPD2    N1 5161   3.782   3.560  10.278 -0.4626  0.0210 -0.7890
  340MPD2    H7 5162   3.734   3.627  10.337  1.7043  1.8719 -1.1322
  341TMC3    C1 5163   3.748   3.428  10.070 -0.7176  0.6769 -0.3580
  341TMC3    C2 5164   3.701   3.307  10.045  0.0049  0.5835  0.3010
  341TMC3    C3 5165   3.764   3.230   9.955  0.0137 -0.0416  0.1834
  341TMC3    C4 5166   3.857   3.486  10.000 -0.6373  0.3269 -0.1209
  341TMC3    C5 5167   3.911   3.405   9.902 -0.4009  0.9193  0.4959
  341TMC3    C6 5168   3.864   3.277   9.871 -0.4518 -0.0298 -0.7690
  341TMC3     C 5169   3.700   3.485  10.200 -0.8518 -0.0517  0.1434
  341TMC3     O 5170   3.577   3.488  10.202 -0.1743  0.1516 -0.3614
  341TMC3     H 5171   3.632   3.258  10.113  1.6186 -1.5355  0.4378
  341TMC3    H1 5172   3.899   3.582  10.030  2.8254 -0.6626 -1.7117
  341TMC3    H2 5173   3.894   3.231   9.778  0.1536 -0.6820 -0.2514
  341TMC3    C7 5174   4.037   3.442   9.841 -0.5766 -1.0915 -0.0700
  341TMC3    C8 5175   3.719   3.094   9.946  1.1522 -0.9316 -1.3911
  341TMC3    O1 5176   4.106   3.350   9.802 -0.2320  0.4077 -0.4584
  341TMC3    O2 5177   3.605   3.079   9.986  0.2548 -0.1181 -0.2129
  342MPD2     C 5178   1.577   2.102  17.416  0.9843  0.0651  0.3036
  342MPD2    C1 5179   1.681   2.116  17.325  0.4162  0.1115 -0.1510
  342MPD2    C2 5180   1.761   2.230  17.323 -1.0023 -0.2949 -0.6055
  342MPD2    C3 5181   1.723   2.338  17.401  0.3631  0.1783  0.2856
  342MPD2    C4 5182   1.606   2.337  17.473  0.2700  0.7254  0.0371
  342MPD2    C5 5183   1.535   2.218  17.474 -0.2277  1.1076  0.5128
  342MPD2     H 5184   1.838   2.234  17.247  0.1125 -1.5562  0.4591
  342MPD2    H1 5185   1.572   2.410  17.546 -0.2160 -2.0775  2.6419
  342MPD2    H2 5186   1.515   2.014  17.425  1.1858 -0.0419  0.6586
  342MPD2    H3 5187   1.444   2.210  17.532 -0.5060 -1.0937 -0.2578
  342MPD2     N 5188   1.816   2.447  17.420  1.0816  0.0104  0.7631
  342MPD2    H5 5189   1.774   2.522  17.474 -0.5818 -1.7762  1.9530
  342MPD2    N1 5190   1.723   2.006  17.246 -0.6766 -0.0042 -0.0803
  342MPD2    H7 5191   1.789   2.016  17.169  0.5935 -3.0459  0.6172
  343TMC3    C1 5192   1.739   1.782  17.163  0.4651  0.5346 -0.6420
  343TMC3    C2 5193   1.793   1.820  17.045 -0.1134 -0.2237  0.2315
  343TMC3    C3 5194   1.843   1.723  16.969  0.4080 -0.4220 -0.0409
  343TMC3    C4 5195   1.746   1.650  17.210  0.4587 -0.0308 -0.5213
  343TMC3    C5 5196   1.812   1.558  17.132 -0.5947 -0.0794  0.7649
  343TMC3    C6 5197   1.858   1.593  17.011 -1.0100  0.2350  0.0999
  343TMC3     C 5198   1.689   1.874  17.263  0.2748 -0.4645 -0.2021
  343TMC3     O 5199   1.632   1.826  17.363  0.3997  0.4375  0.8355
  343TMC3     H 5200   1.784   1.917  16.997  1.9408  0.2242  0.7472
  343TMC3    H1 5201   1.712   1.621  17.309 -0.9219  0.3189 -0.8964
  343TMC3    H2 5202   1.906   1.518  16.949 -0.0289  1.6961 -0.8894
  343TMC3    C7 5203   1.798   1.417  17.161  0.6087 -0.3263  0.1293
  343TMC3    C8 5204   1.922   1.766  16.853 -0.2682 -0.2187 -0.0952
  343TMC3    O1 5205   1.779   1.347  17.064  0.0908  0.4059  0.1347
  343TMC3    O2 5206   1.961   1.879  16.848  0.3803  0.8166 -0.2729
  344MPD2     C 5207   2.321   1.400   9.791  0.3468 -0.1139  0.1796
  344MPD2    C1 5208   2.316   1.454   9.922  0.2628  0.1502 -0.0994
  344MPD2    C2 5209   2.419   1.536   9.967 -0.5485 -0.1982  0.7742
  344MPD2    C3 5210   2.510   1.589   9.876  0.6100 -0.3694 -0.8813
  344MPD2    C4 5211   2.506   1.545   9.740 -0.0431 -0.9840  0.0339
  344MPD2    C5 5212   2.419   1.450   9.707 -0.0586 -0.2931 -0.2173
  344MPD2     H 5213   2.418   1.580  10.067 -1.7455 -1.9583  1.5346
  344MPD2    H1 5214   2.582   1.571   9.668  0.1847 -0.4730  0.4574
  344MPD2    H2 5215   2.253   1.326   9.751  0.2168 -0.1063  0.3851
  344MPD2    H3 5216   2.434   1.408   9.608  0.5534  1.4888 -0.8822
  344MPD2     N 5217   2.597   1.695   9.907 -0.3326  0.0214  0.3990
  344MPD2    H5 5218   2.639   1.740   9.826  1.7003  0.7749  1.8817
  344MPD2    N1 5219   2.216   1.410  10.019  0.4207  0.3267 -0.1019
  344MPD2    H7 5220   2.223   1.449  10.112  1.2994  2.5620 -1.1072
  345TMC3    C1 5221   2.678   1.875  10.033  0.5034  0.0040  0.3011
  345TMC3    C2 5222   2.775   1.909  10.121  0.2774 -0.3304  0.8746
  345TMC3    C3 5223   2.855   2.019  10.101 -0.4136 -0.2857  0.1617
  345TMC3    C4 5224   2.654   1.955   9.920 -0.0883 -0.0929  0.6013
  345TMC3    C5 5225   2.734   2.068   9.901 -0.6282 -0.3372  0.0428
  345TMC3    C6 5226   2.830   2.105   9.996  0.2414  0.4760  0.3048
  345TMC3     C 5227   2.627   1.739  10.033 -0.1885  0.2701  1.0047
  345TMC3     O 5228   2.628   1.674  10.137  0.1498  0.3909 -0.1078
  345TMC3     H 5229   2.779   1.847  10.210  1.0606 -0.2098  0.9168
  345TMC3    H1 5230   2.561   1.945   9.865 -0.3988  3.1264  0.5155
  345TMC3    H2 5231   2.901   2.182   9.971  0.7185  0.2491  0.9671
  345TMC3    C7 5232   2.720   2.169   9.794 -0.2259 -0.4672  0.4677
  345TMC3    C8 5233   2.906   2.097  10.215 -0.4104 -0.4762  0.1767
  345TMC3    O1 5234   2.787   2.273   9.795 -0.1162 -0.4561 -0.6419
  345TMC3    O2 5235   2.977   2.193  10.188 -0.2988  0.1340 -0.4434
  346MPD2     C 5236   2.581   3.511  14.249  0.4628 -0.2570 -0.3208
  346MPD2    C1 5237   2.701   3.471  14.188 -0.2239  0.1906 -0.4238
  346MPD2    C2 5238   2.809   3.470  14.265  0.1978 -0.1646 -0.1038
  346MPD2    C3 5239   2.811   3.498  14.403  0.6009  0.8779  0.2219
  346MPD2    C4 5240   2.692   3.539  14.460  0.5077  0.1950  0.3875
  346MPD2    C5 5241   2.581   3.542  14.383 -1.3516  0.2377 -0.2592
  346MPD2     H 5242   2.900   3.430  14.221  0.7995  0.7171  0.3490
  346MPD2    H1 5243   2.684   3.575  14.562  0.7563  2.8025 -0.5080
  346MPD2    H2 5244   2.491   3.510  14.188  1.2562 -3.0069 -1.4219
  346MPD2    H3 5245   2.490   3.579  14.429 -0.9149  1.1780 -0.1529
  346MPD2     N 5246   2.935   3.489  14.479 -0.1664 -0.5711 -0.4470
  346MPD2    H5 5247   3.015   3.466  14.420  2.0402 -1.9809  3.0677
  346MPD2    N1 5248   2.708   3.433  14.048  0.5142  0.2463  0.5744
  346MPD2    H7 5249   2.796   3.393  14.017 -0.0216 -0.5471  0.0749
  347TMC3    C1 5250   3.099   3.537  14.641  0.0633  0.4360  0.0537
  347TMC3    C2 5251   3.183   3.572  14.540 -0.5563  0.4197  0.5084
  347TMC3    C3 5252   3.315   3.561  14.563  0.7539 -0.0189 -0.2373
  347TMC3    C4 5253   3.139   3.511  14.769  0.1375  0.0511 -0.8427
  347TMC3    C5 5254   3.277   3.505  14.789  0.3976 -0.0700  0.1937
  347TMC3    C6 5255   3.364   3.522  14.684 -0.4387  0.4459 -0.3236
  347TMC3     C 5256   2.954   3.511  14.610 -0.0420  0.4386  0.4514
  347TMC3     O 5257   2.873   3.487  14.700  0.0056  0.7064 -0.2639
  347TMC3     H 5258   3.135   3.589  14.444 -4.4955 -0.2387  2.3741
  347TMC3    H1 5259   3.062   3.490  14.842  1.0705 -1.0238 -0.1520
  347TMC3    H2 5260   3.469   3.506  14.700 -0.1544  0.1402 -2.5009
  347TMC3    C7 5261   3.328   3.454  14.912  0.1700 -0.6841  0.4902
  347TMC3    C8 5262   3.418   3.579  14.464 -0.2691  0.8424  0.0560
  347TMC3    O1 5263   3.245   3.399  14.980 -0.9434  0.5092 -0.0035
  347TMC3    O2 5264   3.521   3.521  14.485  0.6513  0.2493  0.3514
  348MPD2     C 5265   1.988   2.731  11.947  1.0218  0.4291  0.0664
  348MPD2    C1 5266   2.065   2.732  11.832 -0.7564 -0.7737  0.0547
  348MPD2    C2 5267   2.013   2.803  11.724 -0.0261  0.1274 -0.0085
  348MPD2    C3 5268   1.890   2.862  11.732  0.9435  0.3097 -0.0244
  348MPD2    C4 5269   1.814   2.856  11.850 -0.1839 -0.4703 -0.4200
  348MPD2    C5 5270   1.861   2.786  11.956 -0.2110 -0.6060  0.0629
  348MPD2     H 5271   2.064   2.800  11.628 -1.3145  1.1499 -0.7214
  348MPD2    H1 5272   1.723   2.914  11.855  0.4663  0.8271 -3.2114
  348MPD2    H2 5273   2.023   2.687  12.039  3.4403  1.7005 -0.2718
  348MPD2    H3 5274   1.800   2.775  12.044 -0.2618  3.1156  0.4842
  348MPD2     N 5275   1.845   2.928  11.623  0.7885 -0.5967 -0.2870
  348MPD2    H5 5276   1.912   2.945  11.549 -1.0041  0.2677 -1.7078
  348MPD2    N1 5277   2.194   2.682  11.821 -0.2961 -0.2687 -0.2971
  348MPD2    H7 5278   2.228   2.676  11.725  3.4482 -1.4925  1.0927
  349TMC3    C1 5279   2.358   2.506  11.867  0.0411 -0.1505 -0.6809
  349TMC3    C2 5280   2.359   2.390  11.931 -0.2082  0.0893  0.5000
  349TMC3    C3 5281   2.362   2.276  11.853 -0.9055 -0.4503  0.1252
  349TMC3    C4 5282   2.379   2.516  11.732  0.0866 -0.2614 -0.1308
  349TMC3    C5 5283   2.398   2.401  11.650  0.3922  0.2498 -0.3604
  349TMC3    C6 5284   2.392   2.279  11.719 -0.1419 -0.4161  0.7957
  349TMC3     C 5285   2.249   2.599  11.920  0.2501 -0.8816  0.1729
  349TMC3     O 5286   2.235   2.600  12.042  0.2563 -0.3177 -0.3290
  349TMC3     H 5287   2.335   2.391  12.037  1.3895 -0.5506  0.8667
  349TMC3    H1 5288   2.384   2.616  11.692 -1.2230  0.0781  0.5639
  349TMC3    H2 5289   2.395   2.191  11.656 -1.2418 -0.7330  1.1843
  349TMC3    C7 5290   2.306   2.397  11.532 -0.6605  0.7014 -0.0746
  349TMC3    C8 5291   2.335   2.151  11.922 -0.3897 -0.3861 -0.5737
  349TMC3    O1 5292   2.239   2.298  11.516 -0.5831 -0.2385 -0.3910
  349TMC3    O2 5293   2.268   2.164  12.025 -0.3045 -0.3294 -0.1578
  350MPD2     C 5294   0.096   1.099  10.366  0.0485 -0.3960 -0.1377
  350MPD2    C1 5295   0.043   1.039  10.482  0.8386  0.1222  0.0929
  350MPD2    C2 5296   0.036   1.120  10.596 -0.0099  0.3371 -0.0094
  350MPD2    C3 5297   0.076   1.254  10.595  0.1379 -0.4217  0.9762
  350MPD2    C4 5298   0.127   1.305  10.482  0.4665 -0.3704 -0.8943
  350MPD2    C5 5299   0.129   1.231  10.369 -0.4377  0.5960 -0.0889
  350MPD2     H 5300   4.730   1.073  10.684 -1.1680  0.2390 -0.6169
  350MPD2    H1 5301   0.172   1.403  10.472 -0.6059  0.2138  0.0490
  350MPD2    H2 5302   0.110   1.044  10.274  2.2604  0.3472 -0.2529
  350MPD2    H3 5303   0.172   1.272  10.278  1.1544 -1.6551 -0.3351
  350MPD2     N 5304   0.056   1.331  10.710  0.6431 -0.0767  0.9517
  350MPD2    H5 5305   4.732   1.285  10.777  1.7886  1.6135  3.1817
  350MPD2    N1 5306   4.735   0.908  10.490 -0.1312 -0.2655 -0.3121
  350MPD2    H7 5307   4.713   0.881  10.586 -0.0205  2.3396  0.4412
  351TMC3    C1 5308   4.722   0.679  10.438  0.2657 -0.1423  0.5489
  351TMC3    C2 5309   0.092   0.597  10.412  0.6475  0.1449  0.7272
  351TMC3    C3 5310   0.119   0.493  10.496  0.8143 -0.0743  0.2694
  351TMC3    C4 5311   4.633   0.657  10.539 -0.2270  0.3282 -0.6345
  351TMC3    C5 5312   4.667   0.549  10.618 -0.1946 -0.2440  0.1876
  351TMC3    C6 5313   0.038   0.469  10.601 -0.4082  0.4446  0.1378
  351TMC3     C 5314   0.002   0.813  10.387 -0.5344  0.1187 -0.4812
  351TMC3     O 5315   0.037   0.826  10.271  0.3730  0.2136 -0.0315
  351TMC3     H 5316   0.163   0.621  10.334  0.3720  0.2090  0.4944
  351TMC3    H1 5317   4.548   0.721  10.560 -0.3009  0.6655 -1.9804
  351TMC3    H2 5318   0.055   0.379  10.658 -0.8111  0.0393 -0.3749
  351TMC3    C7 5319   4.597   0.533  10.737 -0.5973 -0.3640 -0.3379
  351TMC3    C8 5320   0.213   0.389  10.448  0.0414  0.6221  0.9228
  351TMC3    O1 5321   4.571   0.635  10.802  0.1492 -0.3475 -0.6993
  351TMC3    O2 5322   0.261   0.409  10.338 -0.2646  0.1727  0.6145
  352MPD2     C 5323   3.307   3.300   1.184 -0.4988 -0.7215  0.7918
  352MPD2    C1 5324   3.347   3.287   1.050  0.4167 -0.0957 -0.7592
  352MPD2    C2 5325   3.454   3.211   1.012  0.9329  0.2874  0.0922
  352MPD2    C3 5326   3.536   3.159   1.109 -0.5389  0.1783  0.5104
  352MPD2    C4 5327   3.509   3.185   1.242  0.4542 -0.1726 -0.4169
  352MPD2    C5 5328   3.391   3.242   1.277  0.2201 -0.2053  0.3180
  352MPD2     H 5329   3.472   3.197   0.906  1.0996  3.2260 -0.2619
  352MPD2    H1 5330   3.577   3.152   1.320  2.0783 -0.3532 -1.8943
  352MPD2    H2 5331   3.211   3.340   1.213 -1.4390 -1.1626 -1.7251
  352MPD2    H3 5332   3.356   3.247   1.380  0.6430 -0.2047  0.4621
  352MPD2     N 5333   3.657   3.090   1.076 -0.0643 -0.0812 -0.5564
  352MPD2    H5 5334   3.699   3.035   1.151  0.7097 -0.3969 -1.2155
  352MPD2    N1 5335   3.246   3.335   0.965  0.2099  0.3166  0.3654
  352MPD2    H7 5336   3.162   3.376   1.004  0.6832  1.6798 -0.0427
  353TMC3    C1 5337   3.805   2.955   0.951  0.2166  0.1175  0.3564
  353TMC3    C2 5338   3.866   2.914   1.067  0.7480  0.1347 -0.0514
  353TMC3    C3 5339   3.944   2.801   1.060 -0.7937 -0.5647 -0.2606
  353TMC3    C4 5340   3.834   2.893   0.833 -0.7068 -0.3152  0.3543
  353TMC3    C5 5341   3.915   2.783   0.831 -0.2446  0.3286  0.3341
  353TMC3    C6 5342   3.966   2.726   0.945 -0.0331  0.3948 -0.3699
  353TMC3     C 5343   3.703   3.060   0.946  0.1137 -0.5368  0.8048
  353TMC3     O 5344   3.657   3.083   0.835 -0.6073 -0.2309  0.2417
  353TMC3     H 5345   3.848   2.957   1.165  1.1004 -0.9517  0.4845
  353TMC3    H1 5346   3.782   2.921   0.743 -0.5448  0.3023  0.4564
  353TMC3    H2 5347   4.029   2.641   0.920 -2.2415 -0.8390 -1.6608
  353TMC3    C7 5348   3.890   2.691   0.724  0.6708 -0.0484 -0.2571
  353TMC3    C8 5349   3.999   2.753   1.186  0.0446 -0.3041 -0.3721
  353TMC3    O1 5350   3.900   2.571   0.744 -0.1503  0.1748  0.3228
  353TMC3    O2 5351   3.972   2.808   1.296 -0.0966  0.1473  0.2342
  354TMC3    C1 5352   1.416   3.751  13.426 -0.2471  0.0324 -0.3242
  354TMC3    C2 5353   1.358   3.878  13.423 -0.2453  0.2391  0.1145
  354TMC3    C3 5354   1.366   3.953  13.304 -0.3530 -0.5065  0.1057
  354TMC3    C4 5355   1.481   3.706  13.317 -0.2422 -0.1396 -0.3555
  354TMC3    C5 5356   1.471   3.775  13.198  0.3175 -0.2309 -0.6644
  354TMC3    C6 5357   1.430   3.905  13.189  0.0051 -0.0859 -0.6289
  354TMC3     C 5358   1.415   3.670  13.546 -0.0079  0.6943  0.0794
  354TMC3     O 5359   1.501   3.580  13.546  0.1871 -0.1308 -0.0261
  354TMC3     H 5360   1.289   3.917  13.497 -1.7388 -1.5525 -0.3302
  354TMC3    H1 5361   1.484   3.597  13.315 -0.2257 -0.1268 -1.1783
  354TMC3    H2 5362   1.444   3.968  13.101 -2.7525  1.4238  0.0065
  354TMC3    C7 5363   1.533   3.704  13.084  0.2277 -0.7234  0.2667
  354TMC3    C8 5364   1.320   4.087  13.304  0.3133  0.5950 -0.5545
  354TMC3    O1 5365   1.623   3.621  13.111  0.1383 -0.4609  0.2681
  354TMC3    O2 5366   1.299   4.133  13.415  0.5500 -0.0754  0.4395
  355MPD2     C 5367   1.154   0.167  11.747  0.2549  0.2719  0.8189
  355MPD2    C1 5368   1.208   0.090  11.640 -0.4732 -0.1067 -0.5215
  355MPD2    C2 5369   1.226   4.688  11.660 -0.1009 -0.0044 -0.3110
  355MPD2    C3 5370   1.215   4.634  11.790 -0.0332  0.2235  0.0914
  355MPD2    C4 5371   1.157   4.707  11.888  0.8891 -0.6682  0.0527
  355MPD2    C5 5372   1.122   0.096  11.865 -0.1178 -0.0010 -0.1506
  355MPD2     H 5373   1.271   4.626  11.584  0.6879 -0.0746  0.2165
  355MPD2    H1 5374   1.134   4.673  11.989  0.4321 -0.7010 -0.0630
  355MPD2    H2 5375   1.134   0.273  11.739  0.1130  0.0389 -2.0681
  355MPD2    H3 5376   1.083   0.153  11.949 -0.8897 -0.1345 -0.4170
  355MPD2     N 5377   1.250   4.496  11.814  0.5991  0.5408 -0.1163
  355MPD2    H5 5378   1.250   4.461  11.909 -0.4962  2.9016  0.7552
  355MPD2    N1 5379   1.242   0.158  11.525  0.3049 -0.0352  0.0270
  355MPD2    H7 5380   1.223   0.258  11.518 -1.2502 -0.2793  0.8746
  356TMC3    C1 5381   1.375   4.305  11.773 -0.4509 -0.2242  0.2245
  356TMC3    C2 5382   1.465   4.252  11.681  0.3016 -0.4119 -1.0935
  356TMC3    C3 5383   1.596   4.243  11.707  0.3932 -0.0784  0.5788
  356TMC3    C4 5384   1.424   4.327  11.898  0.3639  0.3286 -0.3623
  356TMC3    C5 5385   1.555   4.309  11.925  0.1216  0.5474  0.3916
  356TMC3    C6 5386   1.648   4.282  11.827  0.3511  0.2092 -0.2524
  356TMC3     C 5387   1.273   4.400  11.722  0.2673 -0.3612 -0.3889
  356TMC3     O 5388   1.256   4.399  11.603 -0.5956  0.2076  0.4986
  356TMC3     H 5389   1.442   4.235  11.577 -0.9447  2.6604 -1.3004
  356TMC3    H1 5390   1.354   4.345  11.980 -0.7249 -2.0909 -0.7566
  356TMC3    H2 5391   1.754   4.300  11.831  0.2414  0.8048 -0.0390
  356TMC3    C7 5392   1.608   4.383  12.036  0.1671 -0.2571  0.3011
  356TMC3    C8 5393   1.672   4.282  11.593  0.2054  0.5598  0.2075
  356TMC3    O1 5394   1.722   4.353  12.066  0.3463 -0.1095  0.2561
  356TMC3    O2 5395   1.733   4.205  11.524 -0.0730 -0.2314 -0.0762
  357MPD2     C 5396   1.008   4.662   0.149  0.1090  0.2381  0.1720
  357MPD2    C1 5397   1.019   4.626   0.282  0.6160 -0.2532 -0.0166
  357MPD2    C2 5398   0.907   4.584   0.351 -0.0876  0.1069 -0.1249
  357MPD2    C3 5399   0.774   4.583   0.300  0.2746  0.0714 -0.0106
  357MPD2    C4 5400   0.769   4.610   0.168  0.1026  0.1334  0.0482
  357MPD2    C5 5401   0.883   4.655   0.102  0.4328 -0.4348 -0.3840
  357MPD2     H 5402   0.919   4.559   0.456  0.7872 -1.3617 -0.5649
  357MPD2    H1 5403   0.676   4.604   0.114 -0.2101 -1.1484  0.7229
  357MPD2    H2 5404   1.091   4.691   0.086  0.9647 -1.9018  0.3146
  357MPD2    H3 5405   0.866   4.702   0.006  0.2330 -0.1967 -0.2301
  357MPD2     N 5406   0.663   4.549   0.376 -0.0577  0.0490  0.4618
  357MPD2    H5 5407   0.577   4.527   0.326  0.4523 -0.6129 -0.1198
  357MPD2    N1 5408   1.144   4.620   0.349 -0.0433 -0.3102 -0.3767
  357MPD2    H7 5409   1.148   4.580   0.442 -2.0374  3.8046  1.4268
  358TMC3    C1 5410   1.381   4.628   0.396 -0.0955  0.1473 -0.3702
  358TMC3    C2 5411   1.495   4.568   0.347 -0.2070 -0.1824 -0.2511
  358TMC3    C3 5412   1.598   4.543   0.437  0.4593 -0.5926 -0.1059
  358TMC3    C4 5413   1.371   4.664   0.528 -0.2722 -0.5055  0.0159
  358TMC3    C5 5414   1.477   4.639   0.613 -0.4322 -0.3645  0.2459
  358TMC3    C6 5415   1.592   4.574   0.572 -0.0997  0.4126 -0.1715
  358TMC3     C 5416   1.270   4.645   0.300 -0.2178  0.2304 -0.0396
  358TMC3     O 5417   1.315   4.663   0.184 -0.7185  0.5414  0.2389
  358TMC3     H 5418   1.507   4.555   0.240 -0.0265 -0.7477 -0.1612
  358TMC3    H1 5419   1.286   4.726   0.554 -0.0983 -0.4433  0.4421
  358TMC3    H2 5420   1.679   4.568   0.636  0.6403  2.2221 -1.0184
  358TMC3    C7 5421   1.457   4.664   0.754 -0.8286 -0.2743  0.4097
  358TMC3    C8 5422   1.649   4.413   0.409 -0.4688 -0.2449  0.9888
  358TMC3    O1 5423   1.563   4.664   0.821 -0.5920  0.4726  0.1466
  358TMC3    O2 5424   1.659   4.385   0.293 -0.4609  0.0534  0.1426
  359MPD2     C 5425   1.329   3.532  12.422  0.5784 -0.2102  1.2329
  359MPD2    C1 5426   1.313   3.449  12.314 -0.0455  0.0759 -0.2361
  359MPD2    C2 5427   1.192   3.375  12.301 -0.5704  0.3017  0.2007
  359MPD2    C3 5428   1.092   3.384  12.391 -0.2724 -0.1274 -0.5217
  359MPD2    C4 5429   1.106   3.474  12.495 -0.1058 -0.4292  0.8376
  359MPD2    C5 5430   1.229   3.538  12.510 -1.3924  0.2427  0.1678
  359MPD2     H 5431   1.177   3.314  12.213  0.8631  0.0667  0.1070
  359MPD2    H1 5432   1.024   3.492  12.563  0.0432  0.4583  0.7816
  359MPD2    H2 5433   1.429   3.569  12.444  1.7629 -1.2695 -2.2803
  359MPD2    H3 5434   1.255   3.615  12.582 -0.7934  0.6089 -0.4398
  359MPD2     N 5435   0.968   3.314  12.377 -0.0186  0.1067  0.1840
  359MPD2    H5 5436   0.890   3.345  12.434  0.3728  0.5544  0.4805
  359MPD2    N1 5437   1.415   3.441  12.210  0.8759 -0.7521 -0.0680
  359MPD2    H7 5438   1.410   3.363  12.145 -1.8615 -0.0047 -0.7697
  360TMC3    C1 5439   1.596   3.492  12.076 -0.4895  0.9362 -0.0499
  360TMC3    C2 5440   1.717   3.559  12.066  0.0039 -0.4599  0.0912
  360TMC3    C3 5441   1.742   3.624  11.948 -0.4248 -0.6797 -0.4971
  360TMC3    C4 5442   1.519   3.469  11.961 -0.1178  0.0124  0.4624
  360TMC3    C5 5443   1.558   3.523  11.843 -0.5369  0.3698  0.1086
  360TMC3    C6 5444   1.673   3.599  11.829 -0.9024  0.9194  0.0709
  360TMC3     C 5445   1.525   3.520  12.196  0.2569 -0.3531 -0.4352
  360TMC3     O 5446   1.551   3.623  12.257  0.0175 -0.3946  0.4290
  360TMC3     H 5447   1.761   3.599  12.157 -0.1614 -1.0278  0.4287
  360TMC3    H1 5448   1.426   3.414  11.957 -0.4870  0.5460  1.6532
  360TMC3    H2 5449   1.697   3.649  11.736  1.6764  1.3368  0.9625
  360TMC3    C7 5450   1.468   3.512  11.725 -0.0616  0.3345 -0.1133
  360TMC3    C8 5451   1.879   3.672  11.930  0.6118  0.3810 -0.2745
  360TMC3    O1 5452   1.451   3.613  11.659  0.1502 -0.3551 -0.4820
  360TMC3    O2 5453   1.946   3.669  12.036 -0.0516  0.1301 -0.8692
  361MPD2     C 5454   3.099   2.508  16.359 -0.5138 -0.3194  0.0951
  361MPD2    C1 5455   3.061   2.539  16.482 -0.2424  0.4848 -0.6223
  361MPD2    C2 5456   3.137   2.498  16.589 -0.3720  0.0697  0.1817
  361MPD2    C3 5457   3.247   2.420  16.568 -0.6994  0.1592 -0.3609
  361MPD2    C4 5458   3.291   2.401  16.439  0.3037  1.0572  0.0679
  361MPD2    C5 5459   3.218   2.443  16.332  0.3439  0.4238  0.3221
  361MPD2     H 5460   3.092   2.507  16.687  0.5996 -2.0446  0.8134
  361MPD2    H1 5461   3.379   2.341  16.417 -1.0556 -0.4867 -1.1471
  361MPD2    H2 5462   3.046   2.547  16.273  0.0500 -0.1576 -0.1789
  361MPD2    H3 5463   3.252   2.430  16.229 -2.1011  0.2246 -0.4608
  361MPD2     N 5464   3.313   2.359  16.675  0.4273 -0.1118 -0.2424
  361MPD2    H5 5465   3.386   2.293  16.654  1.2847 -0.2810  3.3365
  361MPD2    N1 5466   2.956   2.627  16.516 -0.4485  0.3685 -0.0547
  361MPD2    H7 5467   2.951   2.648  16.616 -1.3432  1.7533 -0.3973
  362TMC3    C1 5468   2.787   2.793  16.492  0.6714 -0.4116  0.4244
  362TMC3    C2 5469   2.796   2.826  16.623  0.3528 -0.3569  0.4749
  362TMC3    C3 5470   2.716   2.928  16.675 -0.8452 -0.4954 -0.1115
  362TMC3    C4 5471   2.689   2.846  16.417  0.3136  0.2376  0.4653
  362TMC3    C5 5472   2.608   2.948  16.464  0.2899 -0.8294 -0.0592
  362TMC3    C6 5473   2.626   2.990  16.593 -0.2495 -0.8739  0.2133
  362TMC3     C 5474   2.868   2.692  16.431 -0.0384 -0.2568 -0.2434
  362TMC3     O 5475   2.850   2.667  16.308  0.4541  0.1340 -0.3674
  362TMC3     H 5476   2.877   2.790  16.685 -2.0708 -1.8383  2.8511
  362TMC3    H1 5477   2.674   2.810  16.316  0.0421  1.7317 -0.0304
  362TMC3    H2 5478   2.572   3.082  16.617  2.8167  0.5968  1.4105
  362TMC3    C7 5479   2.530   3.035  16.367 -0.0207  0.2683 -0.0145
  362TMC3    C8 5480   2.716   2.949  16.818 -0.0116  0.8423  0.2553
  362TMC3    O1 5481   2.531   3.156  16.394  0.0862  0.5050  0.3283
  362TMC3    O2 5482   2.792   2.882  16.889 -0.1770 -0.0209 -0.3139
  363TMC3    C1 5483   0.643   0.088   9.273  0.1672 -0.2770  0.6922
  363TMC3    C2 5484   0.736   0.044   9.373  0.0282  0.1911 -0.0644
  363TMC3    C3 5485   0.711   0.063   9.506 -0.1855 -0.4177  0.4257
  363TMC3    C4 5486   0.528   0.142   9.313 -0.1811 -0.6982 -0.9261
  363TMC3    C5 5487   0.505   0.165   9.450 -0.1484  0.0989  0.0896
  363TMC3    C6 5488   0.600   0.136   9.550  0.2353  0.4793  0.8053
  363TMC3     C 5489   0.663   0.068   9.138 -0.4521 -0.6235 -0.3572
  363TMC3     O 5490   0.593   0.116   9.052  0.6048 -0.2008 -0.3035
  363TMC3     H 5491   0.834   0.006   9.346  0.2172  0.4755  0.2224
  363TMC3    H1 5492   0.459   0.177   9.237 -0.5678  2.6458  0.9447
  363TMC3    H2 5493   0.601   0.187   9.646 -1.8769  1.2280  0.4176
  363TMC3    C7 5494   0.370   0.200   9.490  0.4846  0.1950  0.0899
  363TMC3    C8 5495   0.817   0.034   9.604  0.0812  0.2857 -0.2519
  363TMC3    O1 5496   0.285   0.222   9.401 -0.1057 -0.0659 -0.5900
  363TMC3    O2 5497   0.852   0.128   9.676  0.1867  0.3985  0.1245
  364MPD2     C 5498   4.348   4.256  10.873 -0.4842 -0.5394  0.0990
  364MPD2    C1 5499   4.402   4.198  10.757 -0.0167 -0.0548 -0.1406
  364MPD2    C2 5500   4.482   4.087  10.770  0.3478  0.1803 -0.2609
  364MPD2    C3 5501   4.520   4.043  10.901  0.8599 -1.1043  0.2628
  364MPD2    C4 5502   4.459   4.103  11.008 -0.4909 -0.8557 -0.8752
  364MPD2    C5 5503   4.371   4.208  10.996 -0.4292  0.0666  0.8495
  364MPD2     H 5504   4.530   4.049  10.680  0.8969 -1.3720  0.6852
  364MPD2    H1 5505   4.481   4.077  11.111 -0.5193  1.3091 -0.3213
  364MPD2    H2 5506   4.280   4.340  10.870  0.4590  0.1764 -1.1884
  364MPD2    H3 5507   4.336   4.252  11.089 -1.9185 -0.1676  0.3885
  364MPD2     N 5508   4.614   3.932  10.918 -0.0842  0.0629 -0.6913
  364MPD2    H5 5509   4.625   3.906  11.016  1.4334  0.4847 -0.7509
  364MPD2    N1 5510   4.378   4.254  10.630 -0.1295  0.3141 -0.0586
  364MPD2    H7 5511   4.327   4.342  10.628  2.0562  1.5175 -2.0257
  365TMC3    C1 5512   4.423   4.305  10.407  0.4993 -0.0485 -0.0288
  365TMC3    C2 5513   4.526   4.260  10.334  0.1382  0.0586  0.4211
  365TMC3    C3 5514   4.641   4.331  10.321  0.0902  0.5276  0.0632
  365TMC3    C4 5515   4.425   4.429  10.458 -0.4653 -0.5516 -0.1689
  365TMC3    C5 5516   4.544   4.497  10.438  0.1977  0.4822  0.4407
  365TMC3    C6 5517   4.654   4.451  10.375 -0.5610  0.3459  0.6917
  365TMC3     C 5518   4.390   4.200  10.503  0.2639 -0.7868  0.2282
  365TMC3     O 5519   4.434   4.088  10.478 -0.0395  0.1139 -0.5992
  365TMC3     H 5520   4.502   4.171  10.276  1.1536 -0.3550  0.6431
  365TMC3    H1 5521   4.339   4.480  10.501  0.0117  1.0300 -1.0907
  365TMC3    H2 5522   4.735   4.516  10.345 -0.9001 -0.1776 -1.3759
  365TMC3    C7 5523   4.578   4.585  10.543 -0.0034 -0.4143  1.1557
  365TMC3    C8 5524   0.000   4.289  10.220 -0.8213  0.1135 -0.5676
  365TMC3    O1 5525   4.510   4.685  10.554 -0.4087 -0.4150  0.2090
  365TMC3    O2 5526   0.049   4.377  10.151 -0.0738 -0.6381 -0.0933
  366MPD2     C 5527   3.109   0.247  15.310 -0.4357  0.9082  0.6210
  366MPD2    C1 5528   3.167   0.340  15.396  0.5618  0.0482  0.6471
  366MPD2    C2 5529   3.306   0.351  15.397  0.2638  0.2819 -0.1521
  366MPD2    C3 5530   3.384   0.296  15.300 -0.2254 -0.0371  0.6033
  366MPD2    C4 5531   3.329   0.203  15.213  0.5425  0.0747  0.1349
  366MPD2    C5 5532   3.193   0.172  15.227  0.1617 -0.3191 -0.1453
  366MPD2     H 5533   3.351   0.428  15.459 -1.7543  0.0719  1.5615
  366MPD2    H1 5534   3.388   0.143  15.144 -0.2839  0.6013 -1.0264
  366MPD2    H2 5535   3.002   0.233  15.308 -0.4712  1.2331  0.2136
  366MPD2    H3 5536   3.146   0.094  15.168  0.4429  0.6997 -1.7205
  366MPD2     N 5537   3.509   0.353  15.288  0.2740 -0.3142  0.0368
  366MPD2    H5 5538   3.531   0.424  15.357 -1.3846 -0.0389  0.2828
  366MPD2    N1 5539   3.097   0.445  15.452  0.2820  0.1137  0.6771
  366MPD2    H7 5540   3.151   0.506  15.513  1.2994  1.1650 -1.2809
  367TMC3    C1 5541   2.941   0.623  15.435  0.4325  0.1807 -0.2911
  367TMC3    C2 5542   3.036   0.706  15.474  0.5687  0.2263  0.6955
  367TMC3    C3 5543   3.040   0.834  15.439  0.5499  0.2590  0.0480
  367TMC3    C4 5544   2.834   0.665  15.366 -0.3087 -0.4887 -0.6469
  367TMC3    C5 5545   2.829   0.794  15.333  0.3986 -0.2810  0.4606
  367TMC3    C6 5546   2.931   0.886  15.361  0.7634  0.1659  0.1265
  367TMC3     C 5547   2.973   0.484  15.418 -0.4936  0.7703  0.0381
  367TMC3     O 5548   2.879   0.410  15.381  0.1442 -0.7440 -0.3407
  367TMC3     H 5549   3.121   0.666  15.529  1.2372  1.7827  0.7825
  367TMC3    H1 5550   2.753   0.599  15.338 -0.4394 -0.1064 -1.1519
  367TMC3    H2 5551   2.930   0.990  15.330 -1.8574  1.0772  3.2618
  367TMC3    C7 5552   2.694   0.854  15.305  0.4220  0.0062  0.8524
  367TMC3    C8 5553   3.151   0.921  15.486 -0.2894  0.5955  1.2386
  367TMC3    O1 5554   2.695   0.976  15.298 -0.0434  0.0572 -0.4309
  367TMC3    O2 5555   3.256   0.865  15.504  0.2238 -0.1043  0.1754
  368MPD2     C 5556   4.522   2.486  13.178  0.1153 -0.2329  0.1741
  368MPD2    C1 5557   4.597   2.592  13.134 -0.2447  0.2381 -0.4772
  368MPD2    C2 5558   4.734   2.581  13.127  0.5767  0.5104 -0.1278
  368MPD2    C3 5559   0.061   2.467  13.167  0.7508  0.1005  0.1963
  368MPD2    C4 5560   4.719   2.361  13.212  0.1860 -0.6418 -0.5938
  368MPD2    C5 5561   4.583   2.369  13.210 -0.2946  0.0317 -0.9119
  368MPD2     H 5562   0.057   2.669  13.102  0.2282  0.4530 -1.1676
  368MPD2    H1 5563   0.018   2.261  13.234  1.7388  0.1777  0.7011
  368MPD2    H2 5564   4.414   2.484  13.186  0.0977  0.4822  0.1694
  368MPD2    H3 5565   4.523   2.287  13.248 -1.8592  0.7367 -1.8677
  368MPD2     N 5566   0.197   2.472  13.167  0.6268  0.4729 -0.1880
  368MPD2    H5 5567   0.248   2.555  13.139  0.6027  0.5174 -0.1009
  368MPD2    N1 5568   4.528   2.714  13.103  0.4696  0.3651  0.4397
  368MPD2    H7 5569   4.427   2.709  13.100  0.5231 -0.5680  0.1846
  369TMC3    C1 5570   4.472   2.946  13.084 -0.0283 -0.8463 -0.8293
  369TMC3    C2 5571   4.500   3.060  13.016 -0.1638  0.6049 -0.3424
  369TMC3    C3 5572   4.395   3.141  12.981  0.6505 -0.1985 -0.3103
  369TMC3    C4 5573   4.342   2.906  13.120 -0.0578 -0.0631  0.1159
  369TMC3    C5 5574   4.243   2.990  13.075  0.4872  0.2590  0.5647
  369TMC3    C6 5575   4.264   3.105  13.007  0.0488  0.6166 -0.0964
  369TMC3     C 5576   4.574   2.838  13.070 -0.3580 -0.2969 -0.9078
  369TMC3     O 5577   4.691   2.865  13.046  0.2434 -0.3004 -0.2784
  369TMC3     H 5578   4.599   3.081  12.978  0.1359  0.5736  0.4099
  369TMC3    H1 5579   4.323   2.820  13.183  0.4883 -1.9763 -2.3400
  369TMC3    H2 5580   4.187   3.179  12.986 -1.6441 -0.8901  0.8398
  369TMC3    C7 5581   4.111   2.956  13.125 -0.0961  0.1889  0.0202
  369TMC3    C8 5582   4.418   3.253  12.892 -0.7433 -0.7747 -0.1341
  369TMC3    O1 5583   4.112   2.894  13.228  0.3410 -0.0476  0.4796
  369TMC3    O2 5584   4.322   3.305  12.837  0.2141  0.0341  0.1097
  370TMC3    C1 5585   3.901   3.381  16.011  0.1437  0.7672  0.1205
  370TMC3    C2 5586   3.802   3.320  16.084  0.3754  0.3187 -1.1097
  370TMC3    C3 5587   3.825   3.194  16.120 -0.6303  0.0198 -0.0839
  370TMC3    C4 5588   4.012   3.321  15.960  0.3423  1.1503  0.3502
  370TMC3    C5 5589   4.015   3.185  15.984  0.2069 -0.5140  0.2612
  370TMC3    C6 5590   3.923   3.118  16.063  0.4470 -0.7513  0.8292
  370TMC3     C 5591   3.895   3.524  16.012 -0.2397 -0.3172  0.0135
  370TMC3     O 5592   3.783   3.568  15.992 -0.0364  0.5360  0.3261
  370TMC3     H 5593   3.708   3.368  16.109 -0.4294 -1.3755 -0.8560
  370TMC3    H1 5594   4.088   3.373  15.902  1.1719 -2.2933 -1.6209
  370TMC3    H2 5595   3.936   3.013  16.088  2.4629 -0.2358  1.9255
  370TMC3    C7 5596   4.105   3.113  15.897 -0.3057 -0.0390  0.2700
  370TMC3    C8 5597   3.784   3.160  16.256 -0.8525  0.3064  0.3917
  370TMC3    O1 5598   4.147   3.181  15.806  0.1968 -0.3384 -0.5242
  370TMC3    O2 5599   3.817   3.048  16.299 -0.1886 -0.2276  0.2685
  371TMC3    C1 5600   0.533   1.643  15.297  0.4680 -0.6564 -0.3565
  371TMC3    C2 5601   0.436   1.630  15.395 -0.0360  0.2409 -0.4632
  371TMC3    C3 5602   0.372   1.742  15.445  0.4823 -0.5426  0.4085
  371TMC3    C4 5603   0.559   1.774  15.250  0.0220  0.0105  0.3788
  371TMC3    C5 5604   0.476   1.879  15.285 -0.7001 -0.0590 -0.2473
  371TMC3    C6 5605   0.385   1.866  15.389  0.6559 -0.3361 -0.0644
  371TMC3     C 5606   0.643   1.546  15.296  0.1515  0.1216  0.3995
  371TMC3     O 5607   0.755   1.584  15.265 -0.8621 -1.0031 -0.1997
  371TMC3     H 5608   0.439   1.540  15.456 -2.2465  0.5313  0.0609
  371TMC3    H1 5609   0.638   1.789  15.178 -0.6994 -0.9019 -0.5992
  371TMC3    H2 5610   0.335   1.957  15.420  1.6803  1.5713 -4.0886
  371TMC3    C7 5611   0.513   2.015  15.255 -0.0892 -0.0650  0.0653
  371TMC3    C8 5612   0.336   1.746  15.585 -0.2022 -0.0281 -0.3318
  371TMC3    O1 5613   0.477   2.097  15.337 -0.5963  0.1862 -0.5417
  371TMC3    O2 5614   0.361   1.645  15.648  0.3388  0.0433 -0.2424
  372MPD2     C 5615   4.640   3.267  13.295  0.5859 -0.0845 -0.0839
  372MPD2    C1 5616   4.715   3.153  13.286  0.1262  0.5430 -0.0509
  372MPD2    C2 5617   4.666   3.030  13.325 -0.0222  0.5489  0.1058
  372MPD2    C3 5618   4.535   3.023  13.383 -0.6516  0.7605  0.0680
  372MPD2    C4 5619   4.457   3.135  13.383 -0.2470  0.0522  0.2210
  372MPD2    C5 5620   4.512   3.251  13.343  0.2492 -0.1955  0.2051
  372MPD2     H 5621   4.731   2.943  13.332 -1.4197 -0.7600 -3.3811
  372MPD2    H1 5622   4.355   3.142  13.419 -0.2885  0.5519  0.0004
  372MPD2    H2 5623   4.675   3.368  13.277  0.5075  0.1100  0.8883
  372MPD2    H3 5624   4.450   3.339  13.356  0.1293 -0.0653 -1.2901
  372MPD2     N 5625   4.480   2.909  13.445 -0.4020 -0.1877 -0.7341
  372MPD2    H5 5626   4.385   2.917  13.479  0.1925 -0.2725  0.9345
  372MPD2    N1 5627   0.110   3.147  13.231 -0.4617  0.4858  0.0677
  372MPD2    H7 5628   0.142   3.052  13.220  0.9561  0.8996  0.6590
  373TMC3    C1 5629   4.445   2.703  13.529 -0.1027 -0.1170  0.3192
  373TMC3    C2 5630   4.368   2.751  13.625  0.1638 -0.0763 -0.3340
  373TMC3    C3 5631   4.308   2.664  13.715  0.6512 -0.6784 -0.6494
  373TMC3    C4 5632   4.459   2.572  13.501  1.2131 -0.4518  0.2242
  373TMC3    C5 5633   4.392   2.490  13.586 -0.3417  0.1703 -0.3822
  373TMC3    C6 5634   4.304   2.528  13.686  0.2032  0.1043  0.5938
  373TMC3     C 5635   4.534   2.785  13.449  0.6826 -0.4837 -0.7224
  373TMC3     O 5636   4.641   2.748  13.406  0.3285  0.2216 -0.0946
  373TMC3     H 5637   4.372   2.857  13.648 -1.2107  0.3152 -1.9500
  373TMC3    H1 5638   4.527   2.527  13.430  2.4277  2.6743 -0.6345
  373TMC3    H2 5639   4.279   2.444  13.748  1.0589 -1.9419 -1.8067
  373TMC3    C7 5640   4.431   2.353  13.585 -0.1124  0.2867  0.1341
  373TMC3    C8 5641   4.342   2.691  13.853 -0.1199 -0.8050 -0.3306
  373TMC3    O1 5642   4.356   2.267  13.540 -0.2537 -0.0206 -0.0601
  373TMC3    O2 5643   4.271   2.631  13.930 -0.0404  0.2519 -0.0498
  374TMC3    C1 5644   0.430   2.424   9.648  0.0839  0.1697 -0.1057
  374TMC3    C2 5645   0.491   2.529   9.707 -0.8931  0.1439  0.1318
  374TMC3    C3 5646   0.564   2.613   9.632 -0.2461  0.1948 -0.2299
  374TMC3    C4 5647   0.425   2.400   9.512 -0.7555  0.4365 -0.5310
  374TMC3    C5 5648   0.492   2.490   9.437  0.4908 -0.2315  0.1563
  374TMC3    C6 5649   0.566   2.594   9.496 -0.2822  0.4713 -0.2329
  374TMC3     C 5650   0.376   2.322   9.727  0.9337  0.0052  0.1924
  374TMC3     O 5651   0.408   2.308   9.846 -0.3141  0.5387 -0.2043
  374TMC3     H 5652   0.473   2.540   9.813 -3.0453 -0.9076 -0.1156
  374TMC3    H1 5653   0.361   2.333   9.455 -2.9396  1.7641  0.3779
  374TMC3    H2 5654   0.630   2.663   9.443 -0.8243 -0.2331 -1.8073
  374TMC3    C7 5655   0.478   2.498   9.291 -0.8724  0.7068  0.1910
  374TMC3    C8 5656   0.586   2.751   9.665  0.0878 -0.5418 -0.4642
  374TMC3    O1 5657   0.548   2.583   9.241 -0.4474  0.8283 -0.1751
  374TMC3    O2 5658   0.572   2.832   9.576 -0.4011 -0.2339  0.3243
  375MPD2     C 5659   0.517   3.999  17.099  0.7326  0.3724 -0.4735
  375MPD2    C1 5660   0.446   4.044  16.985  0.1811  0.3837 -0.5719
  375MPD2    C2 5661   0.474   4.004  16.858 -0.3406  0.0632 -0.2499
  375MPD2    C3 5662   0.574   3.915  16.839 -0.1514 -0.0656  1.1057
  375MPD2    C4 5663   0.650   3.873  16.950  0.7210  0.2613  0.0765
  375MPD2    C5 5664   0.624   3.918  17.076 -0.3104  0.6183  0.0173
  375MPD2     H 5665   0.414   4.041  16.776  1.2379 -0.8071 -1.8066
  375MPD2    H1 5666   0.737   3.809  16.938 -1.6562 -2.7961 -0.9233
  375MPD2    H2 5667   0.494   4.015  17.204  0.0919 -2.6270 -0.1554
  375MPD2    H3 5668   0.691   3.901  17.159 -1.5209  0.8765  1.0505
  375MPD2     N 5669   0.620   3.882  16.711 -0.2054  0.2494 -0.1539
  375MPD2    H5 5670   0.706   3.830  16.698 -0.6084 -0.3118 -0.6243
  375MPD2    N1 5671   0.338   4.136  16.997  0.3201  0.2483 -0.3723
  375MPD2    H7 5672   0.294   4.177  16.915  2.2166  0.9219 -1.0652
  376TMC3    C1 5673   0.661   3.906  16.476  0.2890  0.0156 -0.7522
  376TMC3    C2 5674   0.793   3.943  16.499 -0.7492  0.2559  0.2838
  376TMC3    C3 5675   0.864   3.983  16.389 -0.2020 -0.4353 -0.7015
  376TMC3    C4 5676   0.598   3.909  16.352 -0.4916 -0.4410  0.3678
  376TMC3    C5 5677   0.678   3.948  16.250  0.6133 -0.1491  0.3804
  376TMC3    C6 5678   0.802   3.995  16.265  0.1496 -0.3755 -0.2832
  376TMC3     C 5679   0.566   3.913  16.588 -0.1554  0.1307  0.0543
  376TMC3     O 5680   0.449   3.947  16.567  0.4740  0.0108  0.1881
  376TMC3     H 5681   0.821   3.954  16.603 -0.9138  1.0033  0.2530
  376TMC3    H1 5682   0.492   3.892  16.337 -0.6078  1.9311 -1.4601
  376TMC3    H2 5683   0.872   4.009  16.184 -2.3429  1.8826 -2.0274
  376TMC3    C7 5684   0.651   3.904  16.114  0.0556  0.0060  0.1579
  376TMC3    C8 5685   1.012   3.971  16.400 -0.1614  0.6082  0.3872
  376TMC3    O1 5686   0.717   3.954  16.025 -0.4863 -0.8629  0.3769
  376TMC3    O2 5687   1.079   3.998  16.297 -0.0741 -0.2251  0.4113
  377MPD2     C 5688   3.341   3.363  12.491 -0.5176 -0.6704 -0.3322
  377MPD2    C1 5689   3.428   3.304  12.580  0.9417 -0.2897  0.4690
  377MPD2    C2 5690   3.376   3.207  12.668 -0.0937  0.3442  0.6139
  377MPD2    C3 5691   3.254   3.158  12.647  0.5031  0.3679  0.0983
  377MPD2    C4 5692   3.174   3.207  12.549  0.3867  0.4473  0.4039
  377MPD2    C5 5693   3.216   3.317  12.483 -0.5187 -0.1875 -0.8200
  377MPD2     H 5694   3.443   3.172  12.746 -0.4882  0.2685  0.9158
  377MPD2    H1 5695   3.078   3.162  12.527  1.2241 -0.5876 -1.1155
  377MPD2    H2 5696   3.360   3.441  12.418 -2.3686  0.9297  0.8977
  377MPD2    H3 5697   3.141   3.365  12.420 -0.5533  0.3059 -0.4000
  377MPD2     N 5698   3.195   3.060  12.732  0.4491  0.3759  0.1599
  377MPD2    H5 5699   3.098   3.043  12.708  0.5865 -0.4005  0.1513
  377MPD2    N1 5700   3.562   3.351  12.574  0.0719 -0.5207 -0.2790
  377MPD2    H7 5701   3.575   3.429  12.510 -0.1806 -0.7587 -0.6217
  378TMC3    C1 5702   3.911   3.331  12.376 -0.1174  0.0812 -0.0168
  378TMC3    C2 5703   3.795   3.353  12.442  0.5442  0.3622 -0.5168
  378TMC3    C3 5704   3.789   3.324  12.573  0.4902 -1.0111  0.8900
  378TMC3    C4 5705   4.022   3.281  12.433 -0.6347  0.2558  0.6530
  378TMC3    C5 5706   4.016   3.264  12.571 -0.4873 -0.0993 -0.2173
  378TMC3    C6 5707   3.899   3.278  12.639  0.2020  0.2476 -0.5386
  378TMC3     C 5708   3.918   3.387  12.239  0.1256 -0.5150  0.1426
  378TMC3     O 5709   3.834   3.467  12.201  0.1113  0.2452  0.7771
  378TMC3     H 5710   3.718   3.414  12.395  0.2553  0.8761  0.6026
  378TMC3    H1 5711   4.119   3.279  12.384 -0.3703 -1.9952  1.2631
  378TMC3    H2 5712   3.904   3.250  12.744  0.0517  0.9227 -0.3493
  378TMC3    C7 5713   4.108   3.175  12.645 -0.6450 -0.0777  0.3237
  378TMC3    C8 5714   3.670   3.307  12.648  0.3165  0.1690  0.0706
  378TMC3    O1 5715   4.077   3.114  12.745  0.1149  0.4065  0.6499
  378TMC3    O2 5716   3.676   3.249  12.759  0.1950 -0.2327  0.2467
  379MPD2     C 5717   3.878   1.450  16.341 -0.1994  0.7960 -0.8582
  379MPD2    C1 5718   3.955   1.371  16.269 -0.1570 -0.1247  1.2844
  379MPD2    C2 5719   4.077   1.331  16.326 -0.2721  0.3347 -0.0977
  379MPD2    C3 5720   4.113   1.373  16.449  1.0503 -0.0041 -0.1841
  379MPD2    C4 5721   4.030   1.450  16.518  0.7424  0.1695  0.2304
  379MPD2    C5 5722   3.910   1.478  16.469 -0.5822 -0.0773  0.7268
  379MPD2     H 5723   4.147   1.273  16.267 -0.4539 -0.0105  0.0233
  379MPD2    H1 5724   4.060   1.491  16.614  1.5693 -1.4979  0.6880
  379MPD2    H2 5725   3.787   1.496  16.303 -2.0842 -0.2645  2.3584
  379MPD2    H3 5726   3.841   1.547  16.518 -1.5475  0.3749 -1.2674
  379MPD2     N 5727   4.237   1.358  16.512 -0.3729 -0.3363 -0.2857
  379MPD2    H5 5728   4.250   1.410  16.598 -1.5122  0.0379 -0.3380
  379MPD2    N1 5729   3.914   1.346  16.136  0.1691  0.3988  0.5808
  379MPD2    H7 5730   3.820   1.378  16.114  0.3148  0.3372 -0.1083
  380TMC3    C1 5731   3.926   1.276  15.910  0.5238 -0.1963 -0.1851
  380TMC3    C2 5732   3.987   1.192  15.828  0.2586 -0.3859 -0.6080
  380TMC3    C3 5733   3.926   1.136  15.720 -0.1551  0.1187  0.1673
  380TMC3    C4 5734   3.796   1.313  15.888  0.0921 -0.6907 -0.1801
  380TMC3    C5 5735   3.730   1.260  15.782  0.0112 -0.6343  0.1078
  380TMC3    C6 5736   3.795   1.172  15.693  0.1723  0.7548  0.2051
  380TMC3     C 5737   3.993   1.298  16.034 -0.3878  0.8354  0.8335
  380TMC3     O 5738   4.117   1.281  16.043  0.3194 -0.5704  0.1440
  380TMC3     H 5739   4.092   1.175  15.850  0.5076  0.5543 -1.1116
  380TMC3    H1 5740   3.749   1.396  15.941  0.3753  0.3900 -1.6153
  380TMC3    H2 5741   3.754   1.127  15.603  1.0247 -0.8608  0.6161
  380TMC3    C7 5742   3.607   1.322  15.744 -0.4809  0.4496  0.1166
  380TMC3    C8 5743   3.987   1.050  15.617  0.3316 -0.0552  0.2659
  380TMC3    O1 5744   3.561   1.424  15.797  0.5630  0.2933  0.0067
  380TMC3    O2 5745   3.924   1.031  15.513 -0.1927  1.0433 -0.0444
  381TMC3    C1 5746   4.148   2.489  16.381 -0.0478 -0.2668  0.5894
  381TMC3    C2 5747   4.151   2.609  16.316  0.3230  0.2377 -0.0732
  381TMC3    C3 5748   4.101   2.714  16.375  0.0803 -0.4731  0.3359
  381TMC3    C4 5749   4.095   2.475  16.498 -0.7059  0.2923  0.1028
  381TMC3    C5 5750   4.050   2.587  16.560  0.5942  0.3081  0.5456
  381TMC3    C6 5751   4.052   2.708  16.500  0.0140  0.3776 -0.0070
  381TMC3     C 5752   4.220   2.368  16.334 -0.2664  0.3446 -0.6624
  381TMC3     O 5753   4.222   2.267  16.403  0.0316  0.6479  0.0905
  381TMC3     H 5754   4.200   2.626  16.221  2.2520  0.4063  0.9450
  381TMC3    H1 5755   4.095   2.381  16.552 -0.4744  0.1223 -0.1958
  381TMC3    H2 5756   4.002   2.789  16.553  1.0380  0.5395  0.7007
  381TMC3    C7 5757   3.985   2.566  16.689 -0.1072  0.0737  0.1772
  381TMC3    C8 5758   4.100   2.839  16.296 -0.5463  0.2234  1.0626
  381TMC3    O1 5759   4.003   2.453  16.738 -0.1041 -0.0266  0.3307
  381TMC3    O2 5760   4.130   2.838  16.178 -0.0029 -0.7973  0.1841
  382MPD2     C 5761   3.673   0.369  16.609  0.0880  0.3474  0.2441
  382MPD2    C1 5762   3.628   0.479  16.685 -0.2601  0.2287  0.5126
  382MPD2    C2 5763   3.512   0.459  16.763  0.2527  0.0142  0.7815
  382MPD2    C3 5764   3.448   0.342  16.762 -0.0308 -0.7970 -0.4458
  382MPD2    C4 5765   3.494   0.237  16.683 -0.4277 -0.7141 -0.4337
  382MPD2    C5 5766   3.606   0.249  16.603 -0.4881 -0.9758 -0.5341
  382MPD2     H 5767   3.493   0.550  16.819  1.7206 -0.4490  2.0252
  382MPD2    H1 5768   3.452   0.136  16.683  0.0851 -0.9259  0.8786
  382MPD2    H2 5769   3.757   0.383  16.541 -1.5455 -0.1305 -1.8861
  382MPD2    H3 5770   3.638   0.164  16.544 -1.5785 -1.6210 -0.1997
  382MPD2     N 5771   3.334   0.321  16.843 -0.1286  0.1201 -0.0909
  382MPD2    H5 5772   3.302   0.226  16.858  2.0603 -0.5539  0.2419
  382MPD2    N1 5773   3.682   0.614  16.680 -0.0256 -0.8092 -0.0954
  382MPD2    H7 5774   3.627   0.685  16.728  0.2483  1.6130 -3.3201
  383TMC3    C1 5775   3.164   0.366  16.995  0.1865  0.4900  0.3796
  383TMC3    C2 5776   3.136   0.233  17.005 -0.0074 -0.0103  0.7099
  383TMC3    C3 5777   3.014   0.201  17.073  0.0591  0.1762  0.1173
  383TMC3    C4 5778   3.076   0.463  17.044 -0.0380 -0.3268 -0.2881
  383TMC3    C5 5779   2.972   0.426  17.117  0.4265 -0.5784  0.2387
  383TMC3    C6 5780   2.937   0.296  17.135  0.3243 -0.1407  0.3643
  383TMC3     C 5781   3.258   0.418  16.899 -0.1484 -0.4697  0.3711
  383TMC3     O 5782   3.272   0.542  16.893  0.6643 -0.6508  0.0675
  383TMC3     H 5783   3.198   0.157  16.958 -0.9946 -0.8167  0.6958
  383TMC3    H1 5784   3.091   0.570  17.032  0.6264 -0.0153  3.3845
  383TMC3    H2 5785   2.854   0.264  17.196 -0.1989  0.2471 -0.1471
  383TMC3    C7 5786   2.901   0.528  17.196  0.2067  0.4101  0.0102
  383TMC3    C8 5787   2.977   0.058  17.079 -0.4546  0.4887  0.0841
  383TMC3    O1 5788   2.908   0.643  17.160 -0.3685  0.4122  0.0647
  383TMC3    O2 5789   3.062   4.709  17.065  0.2918  0.7309 -0.0148
  384MPD2     C 5790   4.647   1.033  11.897 -0.0150  0.0061  0.3630
  384MPD2    C1 5791   4.695   0.999  12.017  0.4465 -0.4355  0.1683
  384MPD2    C2 5792   0.040   0.887  12.028 -0.2050 -0.1845 -0.1457
  384MPD2    C3 5793   0.082   0.818  11.920  0.4269 -0.2422  0.9453
  384MPD2    C4 5794   0.049   0.868  11.793  0.1149  0.7173 -0.1702
  384MPD2    C5 5795   4.696   0.972  11.784 -0.0884 -0.2005 -0.0680
  384MPD2     H 5796   0.074   0.858  12.127  0.6090  1.4014  0.0448
  384MPD2    H1 5797   0.083   0.821  11.702  1.3384  0.0581  0.6219
  384MPD2    H2 5798   4.590   1.123  11.878  0.6281  0.2309 -0.5114
  384MPD2    H3 5799   4.678   1.017  11.687  0.8348 -1.1984 -0.7068
  384MPD2     N 5800   0.154   0.705  11.939 -0.0590 -0.0393  0.4409
  384MPD2    H5 5801   0.200   0.694  12.028  0.2766  0.4813  0.3326
  384MPD2    N1 5802   4.656   1.064  12.136 -0.0017 -0.3599  0.2500
  384MPD2    H7 5803   4.689   1.014  12.218  1.4445  3.1297  1.7879
  385TMC3    C1 5804   0.217   0.480  11.896  0.0940 -0.0929 -0.1970
  385TMC3    C2 5805   0.138   0.373  11.879  0.4717  0.6971 -0.0446
  385TMC3    C3 5806   0.092   0.299  11.983 -0.1401  0.1232 -0.3207
  385TMC3    C4 5807   0.275   0.497  12.025 -0.1740  0.2458  0.0628
  385TMC3    C5 5808   0.224   0.425  12.126 -0.4193  0.2950  0.1571
  385TMC3    C6 5809   0.127   0.329  12.112  0.0266  0.3242  0.3313
  385TMC3     C 5810   0.153   0.599  11.850  0.0887  0.5247 -0.1767
  385TMC3     O 5811   0.087   0.586  11.751 -0.0481 -1.1913  0.0079
  385TMC3     H 5812   0.094   0.354  11.782  3.0552  1.1403 -1.2871
  385TMC3    H1 5813   0.353   0.572  12.016 -0.2074  0.0713 -1.6042
  385TMC3    H2 5814   0.067   0.292  12.195  1.5163 -1.2392  0.7113
  385TMC3    C7 5815   0.195   0.515  12.239 -0.1146  0.7585 -0.5024
  385TMC3    C8 5816   0.051   0.166  11.958  0.2419 -0.1530  0.2444
  385TMC3    O1 5817   0.224   0.632  12.224 -0.2087  0.6197 -0.2527
  385TMC3    O2 5818   4.706   0.108  12.034  0.4562  0.4534 -0.3994
  386TMC3    C1 5819   0.553   3.060  11.379 -0.8166  0.4210  0.2725
  386TMC3    C2 5820   0.526   3.126  11.261  0.2318  0.0996 -0.2416
  386TMC3    C3 5821   0.404   3.192  11.245  0.3511  0.6641 -0.1948
  386TMC3    C4 5822   0.466   3.060  11.481 -0.0532  0.7511 -0.1617
  386TMC3    C5 5823   0.346   3.122  11.459 -0.5942 -0.1091  0.0323
  386TMC3    C6 5824   0.312   3.185  11.346  0.0307  0.3299  0.5172
  386TMC3     C 5825   0.692   3.040  11.406  0.3148  0.4227  0.0450
  386TMC3     O 5826   0.779   3.094  11.337 -0.2141  0.1447 -0.4736
  386TMC3     H 5827   0.601   3.123  11.183 -0.1389 -0.1786 -0.5858
  386TMC3    H1 5828   0.480   2.998  11.569  2.6414 -0.6361 -1.5330
  386TMC3    H2 5829   0.217   3.233  11.326 -0.3712 -0.8142 -0.3563
  386TMC3    C7 5830   0.275   3.169  11.573 -0.2002 -0.3007 -0.5034
  386TMC3    C8 5831   0.354   3.178  11.112  0.3780  0.6390 -0.2410
  386TMC3    O1 5832   0.165   3.216  11.550 -0.0745 -0.1776  0.1498
  386TMC3    O2 5833   0.241   3.129  11.101 -0.0409  0.7922 -0.0861
  387MPD2     C 5834   2.513   3.591   9.462  0.9090 -0.5604 -0.7701
  387MPD2    C1 5835   2.594   3.524   9.549 -0.2320  0.5821 -0.5011
  387MPD2    C2 5836   2.636   3.396   9.528  1.0443 -0.1829  0.1138
  387MPD2    C3 5837   2.597   3.334   9.409 -0.6517 -0.4412 -0.5480
  387MPD2    C4 5838   2.505   3.390   9.326  0.5845  0.1633  0.0549
  387MPD2    C5 5839   2.459   3.515   9.358  0.0059  0.3479 -0.2888
  387MPD2     H 5840   2.708   3.366   9.602 -1.8735 -2.4337  2.0467
  387MPD2    H1 5841   2.462   3.341   9.239 -0.6102 -0.5123  1.0275
  387MPD2    H2 5842   2.471   3.690   9.478 -3.0292 -2.2745 -0.5661
  387MPD2    H3 5843   2.388   3.557   9.288  1.0947 -0.1451 -1.7039
  387MPD2     N 5844   2.659   3.213   9.380  0.1480  0.0017 -0.0223
  387MPD2    H5 5845   2.731   3.177   9.442  0.5210  0.1636 -0.3626
  387MPD2    N1 5846   2.657   3.586   9.661  0.0842 -0.1550  0.2118
  387MPD2    H7 5847   2.709   3.518   9.716  4.0637  1.7305 -1.2192
  388TMC3    C1 5848   2.756   3.745   9.809  0.4941  0.2582  0.1443
  388TMC3    C2 5849   2.798   3.873   9.837  0.4087  1.0452 -0.2675
  388TMC3    C3 5850   2.910   3.893   9.906 -0.3554 -0.5148  0.0382
  388TMC3    C4 5851   2.822   3.636   9.857 -0.5386  0.0894 -1.1865
  388TMC3    C5 5852   2.945   3.661   9.914  0.5504 -0.1900  0.8308
  388TMC3    C6 5853   2.984   3.794   9.948 -0.0789 -0.1422  0.1476
  388TMC3     C 5854   2.660   3.714   9.702  0.2264  0.3931 -0.1239
  388TMC3     O 5855   2.626   3.813   9.639  0.2168 -0.3013  0.3307
  388TMC3     H 5856   2.737   3.957   9.804  0.0095  1.7028  2.1815
  388TMC3    H1 5857   2.779   3.537   9.869  2.3475 -0.9286  0.8485
  388TMC3    H2 5858   3.072   3.805  10.010 -1.3682  2.2112  1.5923
  388TMC3    C7 5859   3.027   3.543   9.942  0.1124 -0.0462  0.1258
  388TMC3    C8 5860   2.965   4.025   9.934 -0.2787  0.5476 -1.1424
  388TMC3    O1 5861   3.096   3.546  10.044  0.2776 -0.2743 -0.4552
  388TMC3    O2 5862   3.076   4.029   9.986  0.3711 -0.1066 -0.0834
  389MPD2     C 5863   1.408   1.695  10.455 -0.5032  0.5502  0.0276
  389MPD2    C1 5864   1.407   1.594  10.358 -0.4101  0.3299 -0.0430
  389MPD2    C2 5865   1.335   1.479  10.382  0.2440 -0.2652 -0.5887
  389MPD2    C3 5866   1.288   1.451  10.509 -0.0581 -0.0558 -0.0571
  389MPD2    C4 5867   1.313   1.546  10.611  0.8319 -0.1746 -0.0584
  389MPD2    C5 5868   1.376   1.667  10.587 -0.4962  0.4599  0.5740
  389MPD2     H 5869   1.310   1.418  10.296 -1.0041  0.2968 -0.6352
  389MPD2    H1 5870   1.269   1.545  10.710  1.0627  0.7820  0.0566
  389MPD2    H2 5871   1.444   1.796  10.435  1.1461  0.5635  3.1052
  389MPD2    H3 5872   1.366   1.748  10.659  0.8215 -0.2237  1.5251
  389MPD2     N 5873   1.226   1.332  10.543 -0.2375 -0.0074  0.1752
  389MPD2    H5 5874   1.204   1.318  10.641  0.3140 -1.6043  0.0805
  389MPD2    N1 5875   1.457   1.628  10.229 -0.5234  0.6547 -0.5765
  389MPD2    H7 5876   1.430   1.580  10.144  0.4388  0.1471 -0.5933
  390TMC3    C1 5877   1.130   1.125  10.520  0.2545  0.5266 -0.2915
  390TMC3    C2 5878   1.214   1.107  10.629  0.7703  0.6614  0.6111
  390TMC3    C3 5879   1.158   1.056  10.745 -0.0678  0.5917 -0.3498
  390TMC3    C4 5880   0.996   1.100  10.517  0.7861  0.2847  0.7464
  390TMC3    C5 5881   0.942   1.066  10.637  0.0844  0.4931 -0.2424
  390TMC3    C6 5882   1.023   1.048  10.746 -0.0953 -0.6380 -0.6824
  390TMC3     C 5883   1.184   1.241  10.449  0.0903  0.3399  0.4576
  390TMC3     O 5884   1.172   1.242  10.325 -0.1864 -0.0575 -0.2498
  390TMC3     H 5885   1.319   1.102  10.605 -0.2324 -1.5400 -3.3311
  390TMC3    H1 5886   0.938   1.128  10.430 -1.1251 -2.3680  1.1798
  390TMC3    H2 5887   0.985   0.994  10.831  0.6104  0.9275  0.6331
  390TMC3    C7 5888   0.822   0.995  10.629 -0.5762  0.2621  0.2855
  390TMC3    C8 5889   1.224   0.948  10.818  0.2974 -0.3288 -0.7806
  390TMC3    O1 5890   0.810   0.912  10.542 -0.2023 -0.0817  0.1506
  390TMC3    O2 5891   1.172   0.835  10.825 -0.4350 -0.0500  0.3205
  391MPD2     C 5892   1.169   2.841  11.196  0.6291 -0.5846 -0.4589
  391MPD2    C1 5893   1.281   2.876  11.116  0.1961 -0.6033  0.2990
  391MPD2    C2 5894   1.267   2.883  10.977 -0.2857  0.5841 -0.4127
  391MPD2    C3 5895   1.144   2.867  10.919 -0.0512  0.0776  0.3498
  391MPD2    C4 5896   1.040   2.834  11.003  0.1527  0.0595  0.0303
  391MPD2    C5 5897   1.054   2.807  11.134  1.1609 -0.4140  0.8271
  391MPD2     H 5898   1.348   2.905  10.909  2.1152  1.9810  2.8980
  391MPD2    H1 5899   0.941   2.811  10.963  0.0169  0.5605  0.0746
  391MPD2    H2 5900   1.178   2.837  11.304  1.2973 -2.8682 -0.6011
  391MPD2    H3 5901   0.969   2.772  11.191 -0.3038 -0.3238 -1.3213
  391MPD2     N 5902   1.129   2.894  10.782 -0.2024 -0.8600  0.2446
  391MPD2    H5 5903   1.216   2.911  10.732 -0.0266 -1.3513  0.3739
  391MPD2    N1 5904   1.402   2.900  11.183 -0.3652  0.6841  0.2399
  391MPD2    H7 5905   1.395   2.874  11.281  0.2994  1.2874  0.4457
  392TMC3    C1 5906   1.042   2.919  10.565  0.0428  0.4664 -0.5650
  392TMC3    C2 5907   0.969   2.872  10.463  0.2403  0.0311 -0.0351
  392TMC3    C3 5908   0.948   2.959  10.356 -0.1758  0.4055 -0.8832
  392TMC3    C4 5909   1.122   3.032  10.553 -0.3420 -0.7129  0.4440
  392TMC3    C5 5910   1.109   3.109  10.436  0.0864  0.3572 -0.0928
  392TMC3    C6 5911   1.020   3.078  10.339  0.1502 -0.1345  0.5385
  392TMC3     C 5912   1.018   2.873  10.705  0.2532  0.8504  0.1115
  392TMC3     O 5913   0.904   2.827  10.726  0.4701  0.1059 -0.4769
  392TMC3     H 5914   0.911   2.780  10.474  1.5728 -0.5409  2.1391
  392TMC3    H1 5915   1.198   3.060  10.625 -0.2396 -2.8989  1.2045
  392TMC3    H2 5916   1.016   3.136  10.248 -1.2736 -0.6244  0.2820
  392TMC3    C7 5917   1.187   3.241  10.431  0.0119 -0.9738  0.1508
  392TMC3    C8 5918   0.870   2.908  10.243 -0.3949  0.0066 -0.2282
  392TMC3    O1 5919   1.239   3.283  10.533  0.2660 -0.3140 -0.4059
  392TMC3    O2 5920   0.853   2.789  10.238 -0.3355 -0.1991 -0.0195
  393TMC3    C1 5921   3.931   0.974  10.393  0.2181  0.1168 -0.4651
  393TMC3    C2 5922   3.797   0.996  10.372  0.0631  0.0564  0.1281
  393TMC3    C3 5923   3.725   1.030  10.487  0.1612  0.0040  0.2700
  393TMC3    C4 5924   3.995   0.981  10.517 -0.7838 -0.1190 -0.1299
  393TMC3    C5 5925   3.917   0.999  10.627  0.4542  0.2869 -0.1204
  393TMC3    C6 5926   3.779   1.016  10.618 -0.1850 -0.0583 -0.9110
  393TMC3     C 5927   4.005   1.005  10.277  0.4800  0.0547  0.2848
  393TMC3     O 5928   3.950   1.052  10.180 -0.4358  0.4043  0.5891
  393TMC3     H 5929   3.754   1.006  10.273  0.8111  0.0677 -0.1916
  393TMC3    H1 5930   4.093   0.940  10.539 -0.3323  0.8048 -0.4235
  393TMC3    H2 5931   3.715   1.035  10.703  1.4998 -3.1880  1.0845
  393TMC3    C7 5932   3.971   1.021  10.757  0.9998 -0.1052 -0.0889
  393TMC3    C8 5933   3.575   1.025  10.500 -0.6297  0.1294  0.0090
  393TMC3    O1 5934   3.909   0.979  10.854  0.3956  0.2172 -0.4796
  393TMC3    O2 5935   3.526   1.083  10.601 -0.4558 -0.1116 -0.3852
  394TMC3    C1 5936   1.564   1.759  10.063 -0.5090  0.5805 -0.0044
  394TMC3    C2 5937   1.461   1.743   9.968  0.1087 -0.2410 -0.7431
  394TMC3    C3 5938   1.482   1.774   9.839  0.4487 -0.0974 -0.0587
  394TMC3    C4 5939   1.678   1.824  10.023 -0.1806 -0.1720  0.4120
  394TMC3    C5 5940   1.695   1.855   9.887  0.2225 -0.3253  0.2518
  394TMC3    C6 5941   1.594   1.829   9.795  0.6920 -0.0098  0.2261
  394TMC3     C 5942   1.539   1.732  10.201  0.5028 -0.3460  0.4371
  394TMC3     O 5943   1.610   1.795  10.278 -0.2360  0.0029 -0.6141
  394TMC3     H 5944   1.369   1.694   9.999  0.3686 -1.3870 -1.7802
  394TMC3    H1 5945   1.760   1.837  10.092 -0.4125 -1.2089  0.8785
  394TMC3    H2 5946   1.625   1.826   9.691 -0.3841 -2.4538 -0.0155
  394TMC3    C7 5947   1.829   1.860   9.827 -0.1760 -0.8001 -0.0418
  394TMC3    C8 5948   1.396   1.726   9.736 -0.1166 -0.2291  0.1763
  394TMC3    O1 5949   1.848   1.912   9.718  0.2326  0.4816 -0.1112
  394TMC3    O2 5950   1.390   1.779   9.631  0.5561  0.2507  0.4493
  395TMC3    C1 5951   1.733   3.411  14.417 -0.2463 -1.1022  0.4281
  395TMC3    C2 5952   1.605   3.434  14.391  0.3176  0.3773 -0.4709
  395TMC3    C3 5953   1.573   3.563  14.361  0.0973  0.4432  0.4779
  395TMC3    C4 5954   1.829   3.502  14.423 -0.4218  0.2713 -0.1425
  395TMC3    C5 5955   1.798   3.636  14.394 -0.5547 -0.4658  0.2624
  395TMC3    C6 5956   1.660   3.668  14.357  0.2243 -0.6017  0.1003
  395TMC3     C 5957   1.758   3.287  14.492  0.6633 -0.1867 -0.7254
  395TMC3     O 5958   1.854   3.217  14.460  0.2224 -0.4751  0.0133
  395TMC3     H 5959   1.538   3.350  14.405  0.8700  0.3755  2.3165
  395TMC3    H1 5960   1.929   3.471  14.454 -2.5035 -4.6206  1.7054
  395TMC3    H2 5961   1.635   3.767  14.320 -0.8317 -1.7206 -2.1253
  395TMC3    C7 5962   1.882   3.744  14.425 -0.1515  0.4331 -0.6335
  395TMC3    C8 5963   1.434   3.598  14.388  0.5792  0.2683 -0.1720
  395TMC3    O1 5964   1.832   3.850  14.452 -0.3939  0.5490 -0.3247
  395TMC3    O2 5965   1.426   3.711  14.436 -0.1956  0.1561  0.1272
  396MPD2     C 5966   1.370   4.465  17.055 -0.4008 -0.2616 -0.1005
  396MPD2    C1 5967   1.479   4.548  17.051  0.6086 -0.0554 -0.0796
  396MPD2    C2 5968   1.502   4.621  16.938  0.2947 -0.5392 -0.0971
  396MPD2    C3 5969   1.421   4.630  16.827  0.0065  0.7926  0.2606
  396MPD2    C4 5970   1.312   4.546  16.834  0.0800  0.4689  0.6256
  396MPD2    C5 5971   1.284   4.473  16.948 -0.0861  0.1815 -0.0596
  396MPD2     H 5972   1.597   4.672  16.932  1.3066 -2.4217  0.1839
  396MPD2    H1 5973   1.243   4.540  16.751 -0.1060 -2.3526  0.9881
  396MPD2    H2 5974   1.348   4.410  17.146  1.7334 -0.1959  0.4591
  396MPD2    H3 5975   1.185   4.431  16.960  0.5225 -1.7070 -1.8107
  396MPD2     N 5976   1.450   4.712  16.719  0.3722 -0.2388  0.1720
  396MPD2    H5 5977   1.527   0.042  16.725 -0.6458  1.1222 -1.5608
  396MPD2    N1 5978   1.565   4.551  17.159 -0.0387  0.1423 -1.1958
  396MPD2    H7 5979   1.550   4.478  17.228  1.4068  0.0988 -0.9246
  397TMC3    C1 5980   1.749   4.634  17.283  0.7586 -0.4521  0.6474
  397TMC3    C2 5981   1.867   4.678  17.226  0.0110  0.2552 -0.1447
  397TMC3    C3 5982   1.940   4.579  17.161 -0.0641  0.1434  0.2366
  397TMC3    C4 5983   1.751   4.501  17.330 -0.3513  0.1192  0.0390
  397TMC3    C5 5984   1.845   4.410  17.292 -0.5288  0.8028  0.7697
  397TMC3    C6 5985   1.943   4.451  17.203  0.1824  0.1823 -0.7023
  397TMC3     C 5986   1.641   4.659  17.187  0.1373  0.3242 -0.3740
  397TMC3     O 5987   1.651   0.034  17.130  0.4840 -0.5348 -0.4660
  397TMC3     H 5988   1.861   0.040  17.182 -1.5314  0.7790  1.1933
  397TMC3    H1 5989   1.670   4.465  17.392 -1.0803 -2.1192 -2.2128
  397TMC3    H2 5990   2.010   4.383  17.152  0.0506  0.7382 -1.6345
  397TMC3    C7 5991   1.822   4.263  17.308  0.3829 -0.0066  0.1947
  397TMC3    C8 5992   1.918   4.589  17.024  0.3008  0.2832  0.0119
  397TMC3    O1 5993   1.857   4.189  17.216  0.0712  0.4507  0.2505
  397TMC3    O2 5994   1.847   4.496  16.991 -0.2943  0.6367 -0.1979
  398MPD2     C 5995   4.636   1.313   0.484 -0.6690  0.1079  0.0172
  398MPD2    C1 5996   4.727   1.211   0.480  0.7391  0.7029 -0.3243
  398MPD2    C2 5997   0.123   1.233   0.510  0.5882  0.0443 -0.4982
  398MPD2    C3 5998   0.172   1.353   0.549 -0.6349  0.3118 -0.2704
  398MPD2    C4 5999   0.085   1.455   0.547 -0.1239  0.8611  0.3150
  398MPD2    C5 6000   4.692   1.432   0.514  0.4854  0.4303  0.2038
  398MPD2     H 6001   0.199   1.156   0.508  2.7097  2.0760  1.1550
  398MPD2    H1 6002   0.117   1.554   0.579  1.2407  0.2145  0.9367
  398MPD2    H2 6003   4.530   1.302   0.461 -0.5332  0.0788 -0.5989
  398MPD2    H3 6004   4.625   1.517   0.505 -0.9418 -0.8063 -0.7955
  398MPD2     N 6005   0.303   1.365   0.592 -0.3485 -0.1094 -0.1043
  398MPD2    H5 6006   0.367   1.287   0.599  1.4479  1.3149 -0.3935
  398MPD2    N1 6007   4.694   1.077   0.450  0.2354 -0.4074 -0.2093
  398MPD2    H7 6008   0.032   1.010   0.467  0.8332  0.3164  0.0156
  399TMC3    C1 6009   4.552   0.899   0.398  0.7930 -0.7494 -0.4942
  399TMC3    C2 6010   4.620   0.823   0.490 -0.8810 -0.2362  0.3029
  399TMC3    C3 6011   4.570   0.700   0.517  0.1794  0.1660  0.1927
  399TMC3    C4 6012   4.447   0.845   0.312  0.4179 -0.0742 -0.0068
  399TMC3    C5 6013   4.413   0.719   0.342 -0.0208  0.3346 -0.0927
  399TMC3    C6 6014   4.462   0.650   0.446  0.0330  0.2433  0.4784
  399TMC3     C 6015   4.577   1.040   0.390 -0.9789 -0.6336 -0.1215
  399TMC3     O 6016   4.502   1.110   0.323 -0.5281 -0.4041  0.1522
  399TMC3     H 6017   4.703   0.860   0.550  0.7282 -0.5717 -1.7217
  399TMC3    H1 6018   4.395   0.913   0.245 -0.5143 -0.7747  0.0175
  399TMC3    H2 6019   4.425   0.550   0.461  1.1254 -0.2214  0.0784
  399TMC3    C7 6020   4.309   0.647   0.263  0.4445  0.5080  0.3197
  399TMC3    C8 6021   4.653   0.610   0.603 -0.3381 -0.1190 -0.1743
  399TMC3    O1 6022   4.250   0.550   0.316 -0.2015  0.6656 -0.6709
  399TMC3    O2 6023   0.025   0.644   0.637 -0.1207 -0.3139  0.1418
  400TMC3    C1 6024   2.928   4.123  16.707  0.3552  0.1874  0.3855
  400TMC3    C2 6025   2.793   4.108  16.665 -0.5915 -0.2120  0.7812
  400TMC3    C3 6026   2.726   4.227  16.638 -1.3641 -0.0463  0.1613
  400TMC3    C4 6027   2.977   4.251  16.727  0.0408 -0.3175 -0.5624
  400TMC3    C5 6028   2.896   4.360  16.722  0.2015 -0.3700  0.5027
  400TMC3    C6 6029   2.770   4.350  16.675 -0.2642  0.0136 -0.6506
  400TMC3     C 6030   2.979   3.999  16.764  0.2478  0.2471  0.2099
  400TMC3     O 6031   2.945   3.899  16.697 -0.2327 -0.2221 -0.1528
  400TMC3     H 6032   2.758   4.007  16.648  1.2786 -0.7559  0.1541
  400TMC3    H1 6033   3.074   4.265  16.774  0.3121  2.2891 -1.8968
  400TMC3    H2 6034   2.702   4.430  16.644 -0.6157  0.0751  0.2818
  400TMC3    C7 6035   2.976   4.481  16.704 -0.3294 -0.4030  0.1948
  400TMC3    C8 6036   2.583   4.209  16.633 -0.5735 -0.3052  0.6614
  400TMC3    O1 6037   3.094   4.480  16.712 -0.3398 -0.2877 -0.2747
  400TMC3    O2 6038   2.515   4.278  16.711  0.3868  0.0988  0.5159
  401MPD2     C 6039   0.927   2.871   0.705 -0.1622  0.0755  0.1972
  401MPD2    C1 6040   1.039   2.800   0.738 -0.3936 -0.1196  0.8078
  401MPD2    C2 6041   1.039   2.663   0.702 -0.4182  0.6323  0.0567
  401MPD2    C3 6042   0.940   2.602   0.627  0.2357 -0.5824 -0.4325
  401MPD2    C4 6043   0.826   2.676   0.599  0.2397 -0.3142  0.0265
  401MPD2    C5 6044   0.826   2.812   0.634  0.4748  0.1118 -0.0297
  401MPD2     H 6045   1.118   2.599   0.738 -0.1543  0.5254 -0.7145
  401MPD2    H1 6046   0.744   2.624   0.550 -0.2913  1.2654 -0.7409
  401MPD2    H2 6047   0.913   2.974   0.734 -1.1129 -0.1790  0.6543
  401MPD2    H3 6048   0.733   2.862   0.609 -0.0814 -0.9520 -0.0692
  401MPD2     N 6049   0.956   2.465   0.591  0.5881  0.0633  0.0580
  401MPD2    H5 6050   1.035   2.414   0.630  0.9621  0.4047 -0.2451
  401MPD2    N1 6051   1.152   2.846   0.820  0.0149 -0.5509  0.6826
  401MPD2    H7 6052   1.215   2.773   0.853 -0.5944 -0.8776  1.1115
  402TMC3    C1 6053   0.940   2.272   0.469  0.5837 -0.4177  1.1469
  402TMC3    C2 6054   0.967   2.190   0.572 -0.1199 -0.2537  0.6858
  402TMC3    C3 6055   0.998   2.065   0.542  0.3656 -0.9671  0.5387
  402TMC3    C4 6056   0.957   2.239   0.337 -0.2038 -0.2761  0.3487
  402TMC3    C5 6057   1.004   2.112   0.310  0.0684  0.6691  0.0759
  402TMC3    C6 6058   1.020   2.019   0.410 -0.7615 -0.5670 -0.3485
  402TMC3     C 6059   0.889   2.408   0.489  0.5045 -0.1348 -0.2369
  402TMC3     O 6060   0.799   2.439   0.412  0.3581 -0.6463  0.3341
  402TMC3     H 6061   0.962   2.224   0.674  1.8350  2.1477 -0.0346
  402TMC3    H1 6062   0.943   2.317   0.263 -1.8341 -2.4910 -1.6900
  402TMC3    H2 6063   1.054   1.916   0.404 -0.4218 -0.4820  0.1018
  402TMC3    C7 6064   1.043   2.089   0.178  0.1033 -0.6632 -0.3727
  402TMC3    C8 6065   1.011   1.965   0.644  0.8798 -0.5795  0.2281
  402TMC3    O1 6066   0.974   2.138   0.089 -0.8660 -0.3075  0.5033
  402TMC3    O2 6067   1.089   1.874   0.627  0.1138  0.1524 -1.0032
  403MPD2     C 6068   3.842   1.133  13.108  0.0229 -0.1471  0.1332
  403MPD2    C1 6069   3.891   1.039  13.194 -0.8806  0.2450  0.5043
  403MPD2    C2 6070   3.971   1.078  13.300  0.0303 -0.1393 -1.0601
  403MPD2    C3 6071   3.998   1.211  13.316 -0.0619  1.2973  0.4263
  403MPD2    C4 6072   3.949   1.307  13.231 -1.0574 -0.2664 -0.1547
  403MPD2    C5 6073   3.869   1.264  13.126 -0.3848 -0.1494  0.0403
  403MPD2     H 6074   4.014   1.011  13.375 -0.8711  0.1921 -0.2529
  403MPD2    H1 6075   3.979   1.411  13.224  0.3880 -0.3943  4.3406
  403MPD2    H2 6076   3.768   1.109  13.032 -1.4577  2.0031  0.8923
  403MPD2    H3 6077   3.822   1.339  13.064 -1.3971 -0.9718 -0.1746
  403MPD2     N 6078   4.091   1.250  13.412 -0.7684 -0.0989 -0.3749
  403MPD2    H5 6079   4.153   1.178  13.447  0.0865  0.2908 -1.0754
  403MPD2    N1 6080   3.844   0.904  13.173 -0.1582  0.9035  0.3085
  403MPD2    H7 6081   3.775   0.881  13.102  0.1365 -0.3754  0.4278
  404TMC3    C1 6082   3.805   0.674  13.226  0.3069  0.3551  0.2126
  404TMC3    C2 6083   3.821   0.581  13.333  0.1558  0.3703  0.0080
  404TMC3    C3 6084   3.826   0.450  13.291  0.5121 -0.0303  0.1578
  404TMC3    C4 6085   3.795   0.641  13.088  0.0143 -0.5038 -0.5154
  404TMC3    C5 6086   3.802   0.505  13.062 -0.0612  0.3086  0.5066
  404TMC3    C6 6087   3.824   0.411  13.161  0.0107 -0.6642 -0.2155
  404TMC3     C 6088   3.858   0.807  13.267  0.1933  0.1272  0.3726
  404TMC3     O 6089   3.916   0.806  13.373  0.3895 -0.7332  0.8017
  404TMC3     H 6090   3.818   0.603  13.439  1.6056  0.4162  0.0452
  404TMC3    H1 6091   3.793   0.722  13.016  1.3709  1.3158  1.5094
  404TMC3    H2 6092   3.845   0.312  13.122  0.6228 -0.2379 -0.9832
  404TMC3    C7 6093   3.870   0.477  12.941  0.0828  0.1161 -0.6626
  404TMC3    C8 6094   3.910   0.372  13.375 -0.5419 -0.7310 -0.0654
  404TMC3    O1 6095   3.938   0.573  12.898  0.0732  0.2323  0.0559
  404TMC3    O2 6096   3.988   0.291  13.320 -0.0822  0.6727  0.2194
  405MPD2     C 6097   4.713   1.646  14.890 -0.1423  0.5266 -0.0320
  405MPD2    C1 6098   4.662   1.569  14.790 -0.9532  0.4895  0.5998
  405MPD2    C2 6099   4.559   1.620  14.714  0.4182 -0.4019  0.4165
  405MPD2    C3 6100   4.506   1.740  14.742  0.9162  0.0141  0.0269
  405MPD2    C4 6101   4.558   1.825  14.832  0.9515 -0.1450  0.2676
  405MPD2    C5 6102   4.656   1.771  14.907  0.0839 -0.0348 -0.3344
  405MPD2     H 6103   4.516   1.566  14.631  0.5057 -3.0162  2.1031
  405MPD2    H1 6104   4.511   1.919  14.860 -0.6866 -1.1874  0.9781
  405MPD2    H2 6105   0.060   1.613  14.952  0.4340  0.7935 -0.6638
  405MPD2    H3 6106   4.689   1.830  14.992 -0.5363 -0.0318 -0.0922
  405MPD2     N 6107   4.379   1.761  14.684  0.6020  0.2955  0.2925
  405MPD2    H5 6108   4.350   1.680  14.629  1.7138  0.7389 -0.9128
  405MPD2    N1 6109   4.703   1.433  14.770  0.6202  0.4891 -0.1073
  405MPD2    H7 6110   0.030   1.390  14.838  1.9206  0.9847 -1.0045
  406TMC3    C1 6111   3.929   1.853  14.623  0.0690 -0.0660  0.3225
  406TMC3    C2 6112   3.898   1.732  14.569 -0.0582 -0.4547  0.0069
  406TMC3    C3 6113   4.003   1.646  14.585 -0.0113 -0.3599 -0.7501
  406TMC3    C4 6114   4.048   1.899  14.665 -0.6486 -0.2073  0.5266
  406TMC3    C5 6115   4.149   1.811  14.682  1.0665 -0.2402  0.0572
  406TMC3    C6 6116   4.124   1.680  14.643 -0.1221  0.4205 -0.2575
  406TMC3     C 6117   3.819   1.939  14.673 -0.6306 -0.8192  0.3192
  406TMC3     O 6118   3.840   2.058  14.690 -0.0936  0.1429  0.4356
  406TMC3     H 6119   3.812   1.703  14.510 -0.6007  0.8587  0.1553
  406TMC3    H1 6120   4.069   1.999  14.701  1.0012 -0.2936 -0.2029
  406TMC3    H2 6121   4.196   1.602  14.667  0.1235  1.3796  2.1857
  406TMC3    C7 6122   4.283   1.859  14.722  0.3277  0.6642  0.7600
  406TMC3    C8 6123   3.987   1.512  14.531 -0.1840  0.2430 -0.4751
  406TMC3    O1 6124   4.299   1.975  14.757  0.1393 -0.5535 -0.2574
  406TMC3    O2 6125   3.880   1.460  14.526 -0.4727  0.1404 -0.0895
  407MPD2     C 6126   2.101   2.957   9.369 -0.4104 -0.0773  0.3290
  407MPD2    C1 6127   2.193   3.043   9.309 -0.3777 -0.7862  0.5932
  407MPD2    C2 6128   2.234   3.151   9.389 -0.0535 -0.3519  0.8552
  407MPD2    C3 6129   2.190   3.170   9.523  0.9893 -0.4730  0.2338
  407MPD2    C4 6130   2.110   3.074   9.572 -0.6739 -0.1639  0.9296
  407MPD2    C5 6131   2.062   2.971   9.499  0.2578 -0.5436  0.4295
  407MPD2     H 6132   2.296   3.229   9.348 -0.3257  0.2120  1.5109
  407MPD2    H1 6133   2.078   3.086   9.675 -1.3029  0.4857  0.6668
  407MPD2    H2 6134   2.076   2.865   9.318  0.5022 -0.4532  0.5551
  407MPD2    H3 6135   2.006   2.888   9.542  2.1867 -1.6782  0.7497
  407MPD2     N 6136   2.233   3.285   9.595  0.0047  0.3368  0.4031
  407MPD2    H5 6137   2.277   3.358   9.541  0.4535 -0.3600 -0.1813
  407MPD2    N1 6138   2.243   3.032   9.178  0.0007  0.5324  0.8333
  407MPD2    H7 6139   2.302   3.110   9.151 -1.2953  0.9045 -0.9579
  408TMC3    C1 6140   2.316   2.954   8.980 -0.5024 -0.6592 -0.0801
  408TMC3    C2 6141   2.398   2.853   8.953  0.2985  0.0671  0.1722
  408TMC3    C3 6142   2.528   2.884   8.919  0.6110 -0.4209 -0.2498
  408TMC3    C4 6143   2.355   3.085   8.969  0.7320  0.1538  0.3919
  408TMC3    C5 6144   2.479   3.112   8.926  0.6179  0.4536 -0.3861
  408TMC3    C6 6145   2.572   3.012   8.911 -0.1075  0.2395  0.3421
  408TMC3     C 6146   2.236   2.926   9.097  0.9610 -1.0806  0.6124
  408TMC3     O 6147   2.204   2.812   9.123 -0.1457  0.0481 -0.1744
  408TMC3     H 6148   2.370   2.750   8.969  1.4586 -0.2791 -0.0141
  408TMC3    H1 6149   2.276   3.159   8.978  1.0880  0.5652  0.1160
  408TMC3    H2 6150   2.679   3.028   8.904  0.0656 -1.3673 -0.6476
  408TMC3    C7 6151   2.541   3.244   8.916 -0.5427 -0.1415 -0.2443
  408TMC3    C8 6152   2.627   2.780   8.967 -0.2773  0.2121 -0.1156
  408TMC3    O1 6153   2.663   3.242   8.900 -0.0327 -0.5059  0.3559
  408TMC3    O2 6154   2.601   2.661   8.954 -0.0298 -0.0088 -0.0736
  409MPD2     C 6155   1.784   3.851  16.802  0.1792  0.1668  0.2170
  409MPD2    C1 6156   1.884   3.881  16.898 -0.4805 -0.0779 -0.6839
  409MPD2    C2 6157   1.938   4.004  16.903 -0.3239 -0.4274  0.0329
  409MPD2    C3 6158   1.897   4.100  16.818 -0.1388 -1.0504  0.5408
  409MPD2    C4 6159   1.795   4.080  16.725  0.0484 -1.1888  0.1318
  409MPD2    C5 6160   1.740   3.950  16.722 -0.1017  0.0200 -0.6889
  409MPD2     H 6161   2.026   4.016  16.965 -1.5423 -3.5769  2.3311
  409MPD2    H1 6162   1.764   4.159  16.658 -1.0764 -2.3248 -0.6958
  409MPD2    H2 6163   1.735   3.754  16.801  1.0387 -0.2498 -1.9002
  409MPD2    H3 6164   1.653   3.934  16.659  0.7647  1.4581 -2.2381
  409MPD2     N 6165   1.953   4.228  16.806 -0.2189  0.3622  0.8396
  409MPD2    H5 6166   1.919   4.289  16.732 -1.8491 -1.1609  0.3425
  409MPD2    N1 6167   1.933   3.790  16.983  0.4845  0.2437 -0.0712
  409MPD2    H7 6168   1.974   3.834  17.065  0.9995 -1.0167  0.3573
  410TMC3    C1 6169   2.126   4.395  16.802 -0.7853  0.4138  0.1069
  410TMC3    C2 6170   2.214   4.470  16.874  0.0254 -0.2452  0.4598
  410TMC3    C3 6171   2.260   4.582  16.807 -0.9505  0.1675  0.0517
  410TMC3    C4 6172   2.102   4.416  16.668  0.0116  0.0344  0.1455
  410TMC3    C5 6173   2.157   4.528  16.618 -0.0067  0.0120  0.6749
  410TMC3    C6 6174   2.234   4.624  16.682 -0.5441 -0.0484  0.9096
  410TMC3     C 6175   2.065   4.275  16.866  0.4745  0.4030 -0.3853
  410TMC3     O 6176   2.127   4.219  16.957 -0.3010  0.5015  0.3963
  410TMC3     H 6177   2.228   4.458  16.981 -0.3537  0.2643  0.5679
  410TMC3    H1 6178   2.052   4.342  16.606 -0.3045  2.5103 -2.5516
  410TMC3    H2 6179   2.282   4.708  16.633  1.6774 -0.8002  1.8479
  410TMC3    C7 6180   2.129   4.555  16.477  0.5786 -0.7398  1.1465
  410TMC3    C8 6181   2.382   4.625  16.862  0.2731 -0.3537 -0.7869
  410TMC3    O1 6182   2.079   4.463  16.413 -0.2571 -0.3042 -0.3049
  410TMC3    O2 6183   2.413   0.007  16.848 -0.0958  0.9686 -0.4468
  411MPD2     C 6184   2.543   0.299  14.359  0.3013 -0.3242  0.5184
  411MPD2    C1 6185   2.434   0.220  14.385  0.1246  0.2234  0.1319
  411MPD2    C2 6186   2.435   0.085  14.345  0.4160  0.0972  0.2121
  411MPD2    C3 6187   2.549   0.033  14.281 -0.1403  0.1744  0.1866
  411MPD2    C4 6188   2.655   0.115  14.259  0.4938 -0.7080  0.2206
  411MPD2    C5 6189   2.654   0.246  14.300  0.0741 -0.2386  0.3037
  411MPD2     H 6190   2.339   0.035  14.347  0.6589 -0.3617  0.5436
  411MPD2    H1 6191   2.755   0.077  14.238  0.3496 -1.4103  0.8117
  411MPD2    H2 6192   2.542   0.400  14.400 -3.8654 -0.8981  1.8459
  411MPD2    H3 6193   2.733   0.318  14.284 -0.1626  0.1717  1.0201
  411MPD2     N 6194   2.558   4.637  14.237  0.3363  0.2181 -0.1825
  411MPD2    H5 6195   2.639   4.616  14.179  0.4782 -1.3602  0.5797
  411MPD2    N1 6196   2.322   0.282  14.447  0.5191  0.6554 -0.3075
  411MPD2    H7 6197   2.325   0.383  14.455  0.8889  0.6036  0.2520
  412TMC3    C1 6198   2.463   4.445  14.152  0.5427 -0.5291  0.1353
  412TMC3    C2 6199   2.379   4.337  14.179  0.5787  0.2357 -0.3014
  412TMC3    C3 6200   2.290   4.303  14.082 -0.0068 -0.0645  0.0948
  412TMC3    C4 6201   2.457   4.511  14.032  0.1208 -0.0068  0.6993
  412TMC3    C5 6202   2.371   4.467  13.938 -0.7161  0.3598 -0.2647
  412TMC3    C6 6203   2.288   4.360  13.956 -0.4599 -0.4614  0.0343
  412TMC3     C 6204   2.468   4.540  14.258 -0.2802 -0.1844  0.0044
  412TMC3     O 6205   2.388   4.527  14.349  0.5882  0.1923 -0.3760
  412TMC3     H 6206   2.389   4.282  14.272 -0.8860  0.7363  0.1508
  412TMC3    H1 6207   2.512   4.601  14.006  2.6080 -2.1766 -1.5012
  412TMC3    H2 6208   2.260   4.311  13.863 -0.8669  0.1432 -0.1661
  412TMC3    C7 6209   2.354   4.552  13.827  0.2019 -0.6057 -0.1791
  412TMC3    C8 6210   2.233   4.166  14.088  0.2935 -0.6491  0.1002
  412TMC3    O1 6211   2.449   4.609  13.773 -0.4471  0.4714  0.4554
  412TMC3    O2 6212   2.301   4.078  14.142 -0.1032  0.0425 -0.2147
  413MPD2     C 6213   3.372   2.304  15.571  0.6234 -0.7992 -0.1591
  413MPD2    C1 6214   3.358   2.371  15.453 -1.1630 -0.1290  0.5685
  413MPD2    C2 6215   3.427   2.320  15.339 -0.5045 -0.8769 -0.2545
  413MPD2    C3 6216   3.498   2.207  15.347 -0.4216 -0.0730 -0.3579
  413MPD2    C4 6217   3.498   2.132  15.463 -0.6149 -0.4970 -0.8614
  413MPD2    C5 6218   3.440   2.181  15.580 -0.4906  0.1126  0.3141
  413MPD2     H 6219   3.434   2.379  15.248  4.6068  1.8355  1.8852
  413MPD2    H1 6220   3.557   2.042  15.478  0.0496  0.0725 -0.0239
  413MPD2    H2 6221   3.320   2.336  15.660  1.1536  0.8783 -0.4543
  413MPD2    H3 6222   3.451   2.134  15.677  2.3000 -2.1169 -1.0661
  413MPD2     N 6223   3.581   2.181  15.237  0.3770 -0.1694 -0.6397
  413MPD2    H5 6224   3.593   2.261  15.176 -2.4558  0.2163 -0.6972
  413MPD2    N1 6225   3.272   2.483  15.445 -0.0843 -0.6315  0.3009
  413MPD2    H7 6226   3.231   2.516  15.532  0.3712  0.0367  0.2621
  414TMC3    C1 6227   3.757   2.068  15.117 -0.8629  0.0274 -0.4349
  414TMC3    C2 6228   3.800   1.945  15.080  0.1118 -0.9367  0.2802
  414TMC3    C3 6229   3.914   1.931  15.009 -0.5541  0.3752  0.0345
  414TMC3    C4 6230   3.828   2.180  15.087 -0.1931 -0.5394 -0.5926
  414TMC3    C5 6231   3.943   2.162  15.012  0.4219  0.4243 -1.3831
  414TMC3    C6 6232   3.993   2.040  14.978 -0.0888  0.6654  0.2735
  414TMC3     C 6233   3.658   2.067  15.222  0.6218  0.2113 -0.3119
  414TMC3     O 6234   3.640   1.959  15.279  0.5813 -0.3976  0.0939
  414TMC3     H 6235   3.760   1.853  15.121  0.1195 -1.0941 -0.0652
  414TMC3    H1 6236   3.788   2.274  15.122  0.5141 -0.8817  1.1284
  414TMC3    H2 6237   4.089   2.024  14.932  0.5442  1.7278  1.2462
  414TMC3    C7 6238   4.010   2.278  14.954 -0.3675 -0.3250 -0.6539
  414TMC3    C8 6239   3.979   1.802  15.026 -0.3003  1.0028  0.7089
  414TMC3    O1 6240   4.062   2.364  15.025  0.3671 -0.4747  0.0163
  414TMC3    O2 6241   3.910   1.701  15.013  0.6398  0.7503 -0.5809
  415TMC3    C1 6242   3.407   0.387  10.274 -0.0298 -0.6053 -1.0267
  415TMC3    C2 6243   3.493   0.450  10.184  0.6201 -0.1070 -0.4908
  415TMC3    C3 6244   3.437   0.529  10.089  0.4016  0.0280 -0.3325
  415TMC3    C4 6245   3.270   0.394  10.264 -0.5647  0.6387  0.0880
  415TMC3    C5 6246   3.220   0.453  10.150  0.1990 -0.4127 -0.3982
  415TMC3    C6 6247   3.303   0.526  10.070 -0.0088 -0.0177 -0.0483
  415TMC3     C 6248   3.452   0.281  10.372  0.4778 -1.0440 -0.1068
  415TMC3     O 6249   3.378   0.253  10.467  0.0387 -0.9840 -0.4380
  415TMC3     H 6250   3.601   0.444  10.187  0.7387  1.1600 -2.3196
  415TMC3    H1 6251   3.220   0.327  10.333 -2.1553 -0.2030 -1.8848
  415TMC3    H2 6252   3.259   0.593   9.997 -3.8414 -0.6546  1.6977
  415TMC3    C7 6253   3.110   0.391  10.078 -0.1405  0.0722 -0.4497
  415TMC3    C8 6254   3.513   0.578   9.975  0.4440 -0.3687 -0.3475
  415TMC3    O1 6255   3.100   0.416   9.960 -0.1719  0.8862 -0.4257
  415TMC3    O2 6256   3.453   0.595   9.870 -0.3900  0.0265  0.0881
  416MPD2     C 6257   1.393   4.342  11.307 -0.4351 -0.0333 -0.0147
  416MPD2    C1 6258   1.258   4.336  11.265 -0.4444  0.8813  0.1688
  416MPD2    C2 6259   1.230   4.248  11.160  0.4030 -0.4839 -0.2499
  416MPD2    C3 6260   1.320   4.153  11.121 -0.4996 -0.1319  0.1146
  416MPD2    C4 6261   1.451   4.161  11.162  0.3064  0.2769 -0.5352
  416MPD2    C5 6262   1.487   4.262  11.244 -0.1761  0.2685  0.6481
  416MPD2     H 6263   1.125   4.231  11.136 -0.1472  1.1623  0.9200
  416MPD2    H1 6264   1.527   4.089  11.135  0.7839 -0.0603  1.7332
  416MPD2    H2 6265   1.437   4.409  11.380 -0.6029  0.0292  0.0308
  416MPD2    H3 6266   1.587   4.263  11.286  0.6007  1.0601 -1.1783
  416MPD2     N 6267   1.279   4.037  11.055 -0.5677 -0.4008 -0.0727
  416MPD2    H5 6268   1.348   3.964  11.042  1.1490  1.2477 -0.2033
  416MPD2    N1 6269   1.160   4.401  11.346  0.1000  0.7700  0.4132
  416MPD2    H7 6270   1.198   4.414  11.439  3.1042 -0.9041 -0.5723
  417TMC3    C1 6271   0.921   4.437  11.422 -0.1369  0.5487  0.2303
  417TMC3    C2 6272   0.930   4.366  11.538 -1.1916 -0.6452 -0.5273
  417TMC3    C3 6273   0.818   4.362  11.621  0.3584 -0.2415  0.0501
  417TMC3    C4 6274   0.803   4.496  11.384 -0.3911 -0.1272 -0.1798
  417TMC3    C5 6275   0.700   4.503  11.482 -0.0684 -0.0392 -1.1675
  417TMC3    C6 6276   0.708   4.450  11.606 -0.4251 -0.1611  0.6015
  417TMC3     C 6277   1.023   4.409  11.314  0.6020 -0.3488 -0.6173
  417TMC3     O 6278   0.986   4.412  11.198 -0.0538 -0.1116  0.6637
  417TMC3     H 6279   1.025   4.319  11.561 -0.6217 -0.5742 -2.7502
  417TMC3    H1 6280   0.799   4.540  11.285 -1.3658  2.2755  0.9290
  417TMC3    H2 6281   0.626   4.452  11.676 -2.5960 -0.8682 -1.9053
  417TMC3    C7 6282   0.605   4.613  11.472 -0.4970 -0.1042 -0.1458
  417TMC3    C8 6283   0.837   4.328  11.762  0.1053 -0.7341 -0.6222
  417TMC3    O1 6284   0.577   4.643  11.358 -0.0323 -0.6699  0.1269
  417TMC3    O2 6285   0.758   4.375  11.842  0.2402  0.9407  0.3185
  418TMC3    C1 6286   0.683   1.315   0.601 -0.2383 -0.2349  0.4240
  418TMC3    C2 6287   0.561   1.373   0.569 -0.2773  0.2806  0.5305
  418TMC3    C3 6288   0.504   1.458   0.662 -0.0394  0.1252  0.7790
  418TMC3    C4 6289   0.739   1.338   0.724  0.2130 -0.1989 -0.4988
  418TMC3    C5 6290   0.665   1.408   0.823  0.1819  0.6885  0.3935
  418TMC3    C6 6291   0.556   1.485   0.788 -0.0168  0.5348  0.1404
  418TMC3     C 6292   0.757   1.252   0.494  0.3402  0.1971  0.6039
  418TMC3     O 6293   0.879   1.279   0.486  0.1732  0.5107 -0.4404
  418TMC3     H 6294   0.531   1.382   0.465 -0.2935  0.7140  0.5718
  418TMC3    H1 6295   0.831   1.288   0.754  0.1073 -0.0216  0.1207
  418TMC3    H2 6296   0.492   1.526   0.866  1.1710  0.3248  1.2330
  418TMC3    C7 6297   0.663   1.343   0.952  0.0056 -0.2742  1.0364
  418TMC3    C8 6298   0.361   1.481   0.643 -0.1145 -0.3533  0.5224
  418TMC3    O1 6299   0.552   1.327   1.004  0.2455 -0.0249  0.2015
  418TMC3    O2 6300   0.317   1.590   0.671 -0.4161 -0.2150  0.3901
  419MPD2     C 6301   3.021   3.865  12.243  0.4993  0.2122 -0.2323
  419MPD2    C1 6302   2.997   3.980  12.188  0.6707 -0.4347  0.2754
  419MPD2    C2 6303   3.043   4.097  12.247  0.2144  0.4904 -0.0883
  419MPD2    C3 6304   3.088   4.093  12.374 -0.4591  0.1412 -0.2648
  419MPD2    C4 6305   3.110   3.972  12.435 -0.4790  0.2060  0.4392
  419MPD2    C5 6306   3.084   3.852  12.363  1.1906  0.2211  0.4266
  419MPD2     H 6307   3.029   4.195  12.205 -2.4805  0.1432  0.0062
  419MPD2    H1 6308   3.143   3.958  12.537 -0.1469 -1.5031  0.1085
  419MPD2    H2 6309   2.992   3.775  12.191  3.1332  0.0405 -1.4185
  419MPD2    H3 6310   3.096   3.755  12.410  2.2818  0.2173  0.1540
  419MPD2     N 6311   3.138   4.215  12.429 -0.2520  0.3149  0.1329
  419MPD2    H5 6312   3.137   4.295  12.367  0.9729 -0.2807 -0.6516
  419MPD2    N1 6313   2.944   3.990  12.054 -0.2819 -0.0353  0.2836
  419MPD2    H7 6314   2.919   4.084  12.025  0.0366 -0.6720 -1.9956
  420TMC3    C1 6315   3.193   4.378  12.591  0.6517  1.0543 -0.5078
  420TMC3    C2 6316   3.108   4.467  12.528 -0.4309 -0.2344  0.1191
  420TMC3    C3 6317   3.092   4.594  12.579 -0.1493 -0.2787  0.3931
  420TMC3    C4 6318   3.251   4.413  12.707  0.3914 -0.4914  0.4534
  420TMC3    C5 6319   3.241   4.538  12.756  0.2826 -0.0224 -0.8293
  420TMC3    C6 6320   3.163   4.634  12.687  0.5300  0.6115  0.0548
  420TMC3     C 6321   3.186   4.235  12.560  0.1578  0.3797 -0.2982
  420TMC3     O 6322   3.227   4.153  12.642  0.0250  0.1288 -0.3406
  420TMC3     H 6323   3.063   4.440  12.433 -0.1346 -1.7009  0.3902
  420TMC3    H1 6324   3.324   4.350  12.757  0.2789 -0.5853  0.4992
  420TMC3    H2 6325   3.162   0.006  12.702 -1.6109  0.8799 -1.8887
  420TMC3    C7 6326   3.239   4.533  12.896 -0.2984 -0.9278 -0.5905
  420TMC3    C8 6327   3.030   4.695  12.497  0.1307  0.2456  0.2598
  420TMC3    O1 6328   3.240   4.421  12.941 -0.1819 -0.1069 -0.2422
  420TMC3    O2 6329   3.086   0.067  12.479  0.0869 -0.2551  0.0831
  421TMC3    C1 6330   4.219   1.373  13.555  0.4735 -0.2252  0.0081
  421TMC3    C2 6331   4.196   1.456  13.668 -0.5688 -0.5504 -0.3901
  421TMC3    C3 6332   4.303   1.473  13.754 -0.1152  0.6732  0.2610
  421TMC3    C4 6333   4.322   1.292  13.540  0.2754 -0.1545 -1.1122
  421TMC3    C5 6334   4.416   1.312  13.633 -0.0873 -0.6937 -0.8359
  421TMC3    C6 6335   4.419   1.391  13.739 -0.1808 -0.2432  1.0058
  421TMC3     C 6336   4.113   1.378  13.455  0.3808 -0.0419  0.3520
  421TMC3     O 6337   4.038   1.476  13.439  0.3080 -0.1611  0.0117
  421TMC3     H 6338   4.103   1.512  13.675  0.2723  1.0389 -2.0585
  421TMC3    H1 6339   4.339   1.243  13.445  0.5657 -2.8728  0.3476
  421TMC3    H2 6340   4.507   1.378  13.800  2.3833  2.3307 -2.1527
  421TMC3    C7 6341   4.538   1.235  13.608  0.4140  0.3333 -0.0821
  421TMC3    C8 6342   4.312   1.572  13.858  0.7301 -0.1199 -0.6914
  421TMC3    O1 6343   4.639   1.292  13.650  0.2201 -0.4630  0.3274
  421TMC3    O2 6344   4.425   1.608  13.885  0.0004 -0.3167 -0.8317
  422TMC3    C1 6345   2.401   2.290  12.591  0.2350 -0.0758  0.1942
  422TMC3    C2 6346   2.378   2.413  12.649  0.6586 -0.5415 -0.7079
  422TMC3    C3 6347   2.261   2.466  12.635 -0.0823  0.0044 -0.8686
  422TMC3    C4 6348   2.294   2.211  12.551 -0.8492  0.7130  0.2035
  422TMC3    C5 6349   2.166   2.264  12.559 -0.1924 -0.2183  0.4563
  422TMC3    C6 6350   2.148   2.396  12.596 -0.2834 -0.0825  0.0119
  422TMC3     C 6351   2.506   2.289  12.495 -0.3251 -0.5653  0.2742
  422TMC3     O 6352   2.516   2.390  12.426  0.5068  0.2026  0.1964
  422TMC3     H 6353   2.468   2.465  12.679 -0.4877  0.6688  0.6218
  422TMC3    H1 6354   2.298   2.104  12.533  0.6376  0.2207  3.4235
  422TMC3    H2 6355   2.049   2.433  12.618 -0.3165 -0.2416  0.1289
  422TMC3    C7 6356   2.063   2.168  12.588  0.0663 -0.2998 -0.8565
  422TMC3    C8 6357   2.245   2.614  12.635  0.4141  0.0060  0.3280
  422TMC3    O1 6358   2.102   2.052  12.592  0.1269  0.2516 -0.7139
  422TMC3    O2 6359   2.323   2.682  12.705  0.3015 -0.2725  0.0271
  423MPD2     C 6360   3.065   3.473   0.129 -0.4541 -0.1542  0.1649
  423MPD2    C1 6361   3.149   3.403   0.212 -0.1144  0.2052  0.1431
  423MPD2    C2 6362   3.273   3.362   0.163  0.2823  0.8508 -0.0558
  423MPD2    C3 6363   3.321   3.393   0.041  0.2592  1.0947  0.1920
  423MPD2    C4 6364   3.232   3.458  17.698 -0.3047  0.0824 -0.7165
  423MPD2    C5 6365   3.109   3.505   0.002 -0.7886 -0.1187 -0.4808
  423MPD2     H 6366   3.334   3.305   0.232 -0.3981  0.0509 -0.1172
  423MPD2    H1 6367   3.272   3.486  17.601 -0.4456  2.5182 -0.0842
  423MPD2    H2 6368   2.975   3.522   0.166 -2.4710 -2.2343 -2.0441
  423MPD2    H3 6369   3.038   3.550  17.677  0.4732  2.2039 -0.2616
  423MPD2     N 6370   3.452   3.359  17.742 -0.1177 -0.2508 -0.3879
  423MPD2    H5 6371   3.480   3.376  17.646  0.0043  3.1486  0.2255
  423MPD2    N1 6372   3.126   3.377   0.350 -0.1732  0.4082  0.0717
  423MPD2    H7 6373   3.185   3.312   0.400  1.4261  1.2985 -0.6614
  424TMC3    C1 6374   3.013   3.376   0.561  0.0960  0.6475 -1.1103
  424TMC3    C2 6375   3.132   3.378   0.626  0.7206  0.0965  0.7597
  424TMC3    C3 6376   3.129   3.354   0.758  0.1064  0.3867  0.2327
  424TMC3    C4 6377   2.896   3.346   0.619  0.8411 -0.5875 -0.0237
  424TMC3    C5 6378   2.907   3.309   0.747  0.7147  0.1189 -0.5706
  424TMC3    C6 6379   3.016   3.314   0.824  0.2533 -0.0589 -0.5008
  424TMC3     C 6380   3.009   3.412   0.420  0.5225  0.8390  0.0112
  424TMC3     O 6381   2.907   3.464   0.384  0.2323  0.3205  0.2723
  424TMC3     H 6382   3.231   3.384   0.582  1.0991 -1.4599  1.3972
  424TMC3    H1 6383   2.803   3.363   0.566  0.7590  0.0664  0.3223
  424TMC3    H2 6384   3.023   3.273   0.924 -2.5920  1.2750  0.2638
  424TMC3    C7 6385   2.793   3.258   0.821 -0.8906  0.0568 -0.4532
  424TMC3    C8 6386   3.253   3.328   0.824 -0.5220  0.8307 -0.6466
  424TMC3    O1 6387   2.790   3.237   0.941  0.8874 -0.6775 -0.1260
  424TMC3    O2 6388   3.337   3.276   0.761  0.2365 -0.0029 -0.4268
  425MPD2     C 6389   2.792   2.516  17.366 -0.0105  0.0747 -0.3372
  425MPD2    C1 6390   2.696   2.418  17.385 -0.0352 -0.0459 -0.1421
  425MPD2    C2 6391   2.561   2.456  17.410  0.5570  0.3165  0.1942
  425MPD2    C3 6392   2.541   2.593  17.438  0.4960 -0.0888 -0.0837
  425MPD2    C4 6393   2.641   2.688  17.423 -0.2047 -0.0312 -0.0746
  425MPD2    C5 6394   2.764   2.649  17.380 -0.8694  0.3580 -0.0254
  425MPD2     H 6395   2.475   2.390  17.415  0.5526  0.2250 -1.1754
  425MPD2    H1 6396   2.622   2.794  17.438 -0.2314  0.0182 -0.4569
  425MPD2    H2 6397   2.889   2.481  17.333 -0.2294  1.5233 -2.4450
  425MPD2    H3 6398   2.836   2.729  17.370 -0.5710  0.4606  3.1723
  425MPD2     N 6399   2.404   2.618  17.464 -0.0451 -0.0434  0.2432
  425MPD2    H5 6400   2.349   2.533  17.468 -0.1728  0.0465  0.4261
  425MPD2    N1 6401   2.732   2.284  17.354  0.2635  0.1293  0.0876
  425MPD2    H7 6402   2.828   2.271  17.322  0.2933 -0.6424  0.4925
  426TMC3    C1 6403   2.729   2.043  17.355  0.2247 -0.2876  0.1846
  426TMC3    C2 6404   2.747   2.034  17.220  1.8777  1.2264  0.5036
  426TMC3    C3 6405   2.715   1.916  17.161 -0.3998 -0.4822  0.5330
  426TMC3    C4 6406   2.675   1.940  17.430  0.0859 -0.0653  0.3530
  426TMC3    C5 6407   2.633   1.829  17.364  0.2131 -0.3183 -0.3964
  426TMC3    C6 6408   2.652   1.818  17.228  0.5320  0.3426  0.1775
  426TMC3     C 6409   2.672   2.171  17.390  0.2123  0.2430 -0.7848
  426TMC3     O 6410   2.588   2.163  17.479 -0.2141 -0.5594 -0.9408
  426TMC3     H 6411   2.755   2.124  17.160 -0.8065  1.4628  0.4969
  426TMC3    H1 6412   2.670   1.958  17.537  0.9084  3.1736 -0.1359
  426TMC3    H2 6413   2.618   1.733  17.170 -2.9951  1.7554  0.1762
  426TMC3    C7 6414   2.556   1.735  17.444  1.0927  0.2950 -0.1636
  426TMC3    C8 6415   2.732   1.900  17.023 -0.9445  0.7690 -0.1547
  426TMC3    O1 6416   2.523   1.773  17.555 -0.6930  0.2124 -0.3284
  426TMC3    O2 6417   2.677   1.808  16.959  0.0067 -0.5547  0.3352
  427MPD2     C 6418   1.412   4.558  14.531  0.4275 -0.4458 -0.4057
  427MPD2    C1 6419   1.349   4.499  14.638 -0.5145  0.4131  0.3706
  427MPD2    C2 6420   1.210   4.500  14.638 -0.2188 -0.1021  0.1597
  427MPD2    C3 6421   1.135   4.558  14.539 -0.5279 -0.6613 -0.3554
  427MPD2    C4 6422   1.203   4.610  14.429 -0.1991 -0.5967 -0.4340
  427MPD2    C5 6423   1.340   4.611  14.429 -0.2718 -0.1603  0.6544
  427MPD2     H 6424   1.167   4.453  14.726 -3.3842 -0.4201 -1.5436
  427MPD2    H1 6425   1.148   4.644  14.341  1.5182 -0.5411 -1.4878
  427MPD2    H2 6426   1.519   4.569  14.522  0.2854  0.5964 -0.8154
  427MPD2    H3 6427   1.403   4.657  14.354  0.3339  1.0921  1.9352
  427MPD2     N 6428   0.994   4.564  14.543  0.3601 -0.2289 -0.3280
  427MPD2    H5 6429   0.946   4.614  14.469  0.1554 -0.1577 -0.1473
  427MPD2    N1 6430   1.412   4.444  14.752  0.1736  0.9561  0.0070
  427MPD2    H7 6431   1.346   4.426  14.826 -1.3853  0.8443 -1.4153
  428TMC3    C1 6432   1.599   4.422  14.906  0.1512 -0.3381  0.0485
  428TMC3    C2 6433   1.545   4.316  14.969  0.3615 -0.1657 -0.0648
  428TMC3    C3 6434   1.580   4.305  15.101 -0.3588 -0.2287  0.1910
  428TMC3    C4 6435   1.679   4.520  14.965 -0.3722 -0.5060  0.7128
  428TMC3    C5 6436   1.726   4.491  15.094 -0.1363 -0.0230  0.6442
  428TMC3    C6 6437   1.676   4.384  15.158  0.4503 -0.0173  0.1588
  428TMC3     C 6438   1.546   4.454  14.780 -0.0362  0.8793 -0.3936
  428TMC3     O 6439   1.629   4.513  14.714  0.2818 -0.2547  0.0522
  428TMC3     H 6440   1.479   4.240  14.928 -0.2141 -0.6140  1.6925
  428TMC3    H1 6441   1.687   4.623  14.932  0.8770 -0.7603  0.1973
  428TMC3    H2 6442   1.718   4.361  15.255  1.3048  1.5794  0.1793
  428TMC3    C7 6443   1.783   4.597  15.178  0.6126  0.0990  1.0330
  428TMC3    C8 6444   1.540   4.186  15.179  0.2471  0.8589  0.2407
  428TMC3    O1 6445   1.762   4.595  15.296  0.0019 -0.3411 -0.0924
  428TMC3    O2 6446   1.520   4.091  15.103  0.2520  0.1938  0.3872
  429MPD2     C 6447   2.246   0.405  17.604 -0.3719  0.0764 -0.2681
  429MPD2    C1 6448   2.246   0.301  17.514  0.1703  0.0562  0.5371
  429MPD2    C2 6449   2.293   0.325  17.383 -0.4439 -0.5128  0.1079
  429MPD2    C3 6450   2.336   0.452  17.351  1.1226 -0.5040 -0.7627
  429MPD2    C4 6451   2.334   0.551  17.440  0.0357  0.3221  0.3279
  429MPD2    C5 6452   2.296   0.526  17.569 -0.1342  0.2946  0.3474
  429MPD2     H 6453   2.292   0.244  17.311 -0.2003 -1.2129  0.9000
  429MPD2    H1 6454   2.367   0.651  17.416 -0.8592  0.5698  0.1607
  429MPD2    H2 6455   2.205   0.393  17.703 -0.8309 -0.7830 -0.5658
  429MPD2    H3 6456   2.293   0.607  17.642  2.7018  0.6060  0.0901
  429MPD2     N 6457   2.400   0.472  17.224 -0.3341 -0.1679  0.6708
  429MPD2    H5 6458   2.405   0.389  17.166 -1.7171  0.6037 -0.5338
  429MPD2    N1 6459   2.202   0.174  17.565  0.4020 -0.0790 -0.0543
  429MPD2    H7 6460   2.190   0.176  17.666  1.2746 -0.0599  0.0538
  430TMC3    C1 6461   2.527   0.575  17.053  0.5136  0.4339 -1.1079
  430TMC3    C2 6462   2.539   0.685  16.968  0.3941 -0.0503  0.1678
  430TMC3    C3 6463   2.598   0.672  16.847 -0.2683  0.1976  0.0036
  430TMC3    C4 6464   2.580   0.453  17.016 -0.2281  0.0626 -0.4595
  430TMC3    C5 6465   2.664   0.452  16.907 -0.4777 -1.0227 -0.0857
  430TMC3    C6 6466   2.657   0.553  16.811 -0.1584 -0.0223  0.1747
  430TMC3     C 6467   2.446   0.592  17.172  0.6977 -1.0917 -0.1632
  430TMC3     O 6468   2.448   0.707  17.210  0.0810 -0.4542  0.1166
  430TMC3     H 6469   2.493   0.779  16.997 -1.0945 -1.1055  1.2451
  430TMC3    H1 6470   2.587   0.383  17.099 -1.8533  0.7244  0.2229
  430TMC3    H2 6471   2.705   0.554  16.714  0.9868  1.0650  0.7556
  430TMC3    C7 6472   2.723   0.323  16.869 -0.3937  0.6156 -0.1244
  430TMC3    C8 6473   2.512   0.714  16.736 -0.1045 -0.6305  0.1030
  430TMC3    O1 6474   2.674   0.230  16.936  0.6477 -0.1344  0.1532
  430TMC3    O2 6475   2.456   0.629  16.665  0.0095  0.4211  0.1776
  431MPD2     C 6476   3.111   4.714  12.119  0.1622  0.1842 -0.1817
  431MPD2    C1 6477   3.200   4.608  12.134  0.0125 -0.2048  0.1440
  431MPD2    C2 6478   3.173   4.499  12.052  0.3140  0.0210 -0.2651
  431MPD2    C3 6479   3.070   4.498  11.952 -0.4426  0.2625 -0.7884
  431MPD2    C4 6480   2.994   4.610  11.942 -0.1189 -0.7478  0.1978
  431MPD2    C5 6481   3.010   4.715  12.029 -0.9955  0.0366 -0.3237
  431MPD2     H 6482   3.228   4.408  12.071  1.5528  0.5942 -1.1464
  431MPD2    H1 6483   2.914   4.606  11.869 -0.6675  0.1952  0.7530
  431MPD2    H2 6484   3.121   0.063  12.186 -2.7946  0.9212 -0.7052
  431MPD2    H3 6485   2.950   0.069  12.022  1.6054  1.9335  1.8588
  431MPD2     N 6486   3.053   4.396  11.852  0.1879 -0.4468 -0.0532
  431MPD2    H5 6487   2.962   4.399  11.807 -0.5324 -0.1250  1.4278
  431MPD2    N1 6488   3.291   4.603  12.246 -0.3205  0.2687 -0.3479
  431MPD2    H7 6489   3.330   4.692  12.279  0.0050 -0.0518  0.1385
  432TMC3    C1 6490   3.071   4.185  11.748  0.2164 -0.2090  0.0543
  432TMC3    C2 6491   3.150   4.119  11.662 -0.4041 -0.3448  0.3618
  432TMC3    C3 6492   3.166   3.988  11.662 -0.0528  0.2363  0.0467
  432TMC3    C4 6493   2.991   4.103  11.825 -0.1335 -0.2749  0.6715
  432TMC3    C5 6494   3.008   3.967  11.829 -0.1053 -0.5884  0.4562
  432TMC3    C6 6495   3.098   3.905  11.746  0.4183 -0.1225 -0.1512
  432TMC3     C 6496   3.132   4.290  11.829  0.1977  0.6201  0.0943
  432TMC3     O 6497   3.235   4.261  11.882  0.0086  0.3980 -0.0200
  432TMC3     H 6498   3.221   4.176  11.603  1.5200  0.0680  3.0821
  432TMC3    H1 6499   2.912   4.149  11.884 -1.4471 -1.8077  0.1148
  432TMC3    H2 6500   3.128   3.801  11.751  0.3996 -0.0647  1.0617
  432TMC3    C7 6501   2.976   3.901  11.954 -0.0481 -0.0444  0.0657
  432TMC3    C8 6502   3.261   3.944  11.582  0.0442  0.7238  0.6186
  432TMC3    O1 6503   3.014   3.785  11.965 -0.0021 -0.1269  0.0558
  432TMC3    O2 6504   3.235   3.954  11.464 -0.0408 -0.3458 -0.5699
  433MPD2     C 6505   1.904   3.354  10.380  0.1252 -0.3041 -1.0203
  433MPD2    C1 6506   1.999   3.273  10.439  0.0860 -0.8990  0.1053
  433MPD2    C2 6507   2.039   3.304  10.566  1.0246 -0.4207  0.0647
  433MPD2    C3 6508   1.971   3.398  10.642  0.1187 -0.7551 -0.1516
  433MPD2    C4 6509   1.865   3.465  10.591  0.5741 -0.5177  0.2702
  433MPD2    C5 6510   1.833   3.441  10.455  0.0896  0.2072 -0.9474
  433MPD2     H 6511   2.122   3.258  10.617  0.3971 -1.6910 -0.0628
  433MPD2    H1 6512   1.810   3.539  10.648 -1.3130 -0.5527 -1.5044
  433MPD2    H2 6513   1.879   3.344  10.275  1.3562 -2.7195 -1.0912
  433MPD2    H3 6514   1.756   3.499  10.406  0.0224  2.1703  1.4979
  433MPD2     N 6515   2.030   3.415  10.767 -0.1956  0.3199  0.6737
  433MPD2    H5 6516   2.123   3.379  10.785 -0.5021 -0.8152 -0.0570
  433MPD2    N1 6517   2.032   3.159  10.370  0.1838 -0.8821 -0.6822
  433MPD2    H7 6518   2.023   3.163  10.269  1.4222 -0.5129 -0.7839
  434TMC3    C1 6519   2.163   2.964  10.340  0.8066  0.3405 -0.6773
  434TMC3    C2 6520   2.294   2.937  10.382  0.5693 -0.1579 -0.0437
  434TMC3    C3 6521   2.359   2.832  10.329 -0.1830  0.5431  0.2670
  434TMC3    C4 6522   2.098   2.882  10.249 -0.4508  0.5830 -0.0046
  434TMC3    C5 6523   2.168   2.779  10.199  0.0719  0.8455  0.4276
  434TMC3    C6 6524   2.297   2.747  10.239  0.1949 -0.2274  0.6088
  434TMC3     C 6525   2.093   3.052  10.434 -0.5439 -0.5634 -0.8983
  434TMC3     O 6526   2.112   3.030  10.554 -0.5993  0.0678 -0.4190
  434TMC3     H 6527   2.347   3.004  10.449 -0.1358  0.9104 -0.5595
  434TMC3    H1 6528   2.003   2.916  10.210  0.5234  1.9860 -1.1477
  434TMC3    H2 6529   2.364   2.678  10.189  0.1943  0.2556 -0.0691
  434TMC3    C7 6530   2.102   2.693  10.108  0.3319 -0.6271 -0.6084
  434TMC3    C8 6531   2.478   2.786  10.412 -0.5852  0.1893 -0.4652
  434TMC3    O1 6532   2.000   2.732  10.050 -0.0978  0.2141 -0.1208
  434TMC3    O2 6533   2.522   2.856  10.500  0.1001 -0.4324 -0.0643
  435MPD2     C 6534   4.075   3.566  15.397 -0.4112  0.3424 -0.2737
  435MPD2    C1 6535   4.025   3.499  15.509 -0.0385  0.2033 -0.1429
  435MPD2    C2 6536   4.114   3.432  15.587  0.0516  0.0398 -0.3446
  435MPD2    C3 6537   4.245   3.411  15.555  0.7519 -0.1603  0.7055
  435MPD2    C4 6538   4.293   3.461  15.431 -0.0021  0.5459 -0.4420
  435MPD2    C5 6539   4.206   3.542  15.363 -0.0582  0.1652 -0.5357
  435MPD2     H 6540   4.072   3.383  15.675  0.7045 -2.2335 -1.2952
  435MPD2    H1 6541   4.387   3.431  15.386  0.3574  1.0770 -0.0451
  435MPD2    H2 6542   4.021   3.628  15.326 -2.0193 -0.4327  0.2652
  435MPD2    H3 6543   4.237   3.587  15.270 -1.3960  3.1466  0.4590
  435MPD2     N 6544   4.326   3.338  15.641 -0.6344 -0.0301 -0.2748
  435MPD2    H5 6545   4.283   3.294  15.722 -1.1436  1.0042  0.0209
  435MPD2    N1 6546   3.893   3.496  15.545  1.3517  0.1073  0.2698
  435MPD2    H7 6547   3.862   3.433  15.618 -0.9427 -1.0764 -1.7381
  436TMC3    C1 6548   3.522   3.405  15.674  0.3880  0.5122 -0.8761
  436TMC3    C2 6549   3.647   3.452  15.656  0.8541  0.7817  0.1182
  436TMC3    C3 6550   3.658   3.530  15.544  0.4382 -0.0082 -0.1148
  436TMC3    C4 6551   3.406   3.431  15.603 -0.0129 -0.0590 -0.1137
  436TMC3    C5 6552   3.429   3.496  15.487 -0.6991  0.3440  0.3048
  436TMC3    C6 6553   3.554   3.549  15.457 -0.1378 -0.6144 -0.1131
  436TMC3     C 6554   3.518   3.340  15.805 -0.1402 -0.8223 -0.0613
  436TMC3     O 6555   3.601   3.253  15.832  0.4478 -0.3406 -0.1875
  436TMC3     H 6556   3.723   3.417  15.724  0.5769  0.5415  0.3063
  436TMC3    H1 6557   3.308   3.400  15.636  0.8580 -2.5654  0.1077
  436TMC3    H2 6558   3.577   3.596  15.361  1.3525  0.6442  0.8601
  436TMC3    C7 6559   3.317   3.519  15.394  0.0319  0.0895 -0.4558
  436TMC3    C8 6560   3.793   3.575  15.489  0.6870  0.3661 -0.4158
  436TMC3    O1 6561   3.346   3.600  15.310 -0.5597  0.3816  0.0907
  436TMC3    O2 6562   3.794   3.652  15.393  0.5465 -0.2071  0.5391
  437TMC3    C1 6563   3.760   4.546  11.543  0.0179 -0.7542  0.5774
  437TMC3    C2 6564   3.629   4.585  11.517  0.0149  0.0717  0.1527
  437TMC3    C3 6565   3.585   4.696  11.581  0.0740 -0.4644 -0.1208
  437TMC3    C4 6566   3.845   4.604  11.630 -0.3477  0.4007  0.5140
  437TMC3    C5 6567   3.789   4.708  11.696 -0.2247  0.2695 -0.4263
  437TMC3    C6 6568   3.665   0.025  11.670  0.2299  0.2256 -0.3094
  437TMC3     C 6569   3.808   4.422  11.484 -0.1900 -0.3702  0.6062
  437TMC3     O 6570   3.721   4.338  11.457 -0.4932 -0.7002 -0.5904
  437TMC3     H 6571   3.570   4.527  11.447  2.1680 -0.0425 -1.5339
  437TMC3    H1 6572   3.944   4.574  11.664 -0.5877 -0.9626 -0.0147
  437TMC3    H2 6573   3.627   0.116  11.715 -0.0273  0.4261 -0.9396
  437TMC3    C7 6574   3.892   0.046  11.780  0.2472 -0.0445  0.2950
  437TMC3    C8 6575   3.458   0.021  11.541  0.1678 -0.8284 -0.8356
  437TMC3    O1 6576   4.005   0.054  11.740  0.7935 -0.4112  0.7783
  437TMC3    O2 6577   3.443   0.015  11.420  0.1846 -0.0597 -0.6484
  438MPD2     C 6578   0.553   1.240  16.992 -0.6574 -0.3281  0.1863
  438MPD2    C1 6579   0.597   1.114  17.024  0.0047  0.4592 -0.0795
  438MPD2    C2 6580   0.604   1.072  17.156 -0.1859 -0.1794 -0.3999
  438MPD2    C3 6581   0.566   1.151  17.263 -0.2466  0.0461  0.1071
  438MPD2    C4 6582   0.530   1.279  17.233  0.2042 -0.8342  0.3255
  438MPD2    C5 6583   0.521   1.321  17.101  0.1387  0.1520 -0.7128
  438MPD2     H 6584   0.627   0.969  17.183 -1.5083 -0.2660  0.4126
  438MPD2    H1 6585   0.505   1.355  17.306  5.2078 -0.5279  1.7121
  438MPD2    H2 6586   0.551   1.288  16.895  0.0226 -1.6358 -0.4750
  438MPD2    H3 6587   0.498   1.425  17.081  1.2827  0.9368  2.1224
  438MPD2     N 6588   0.555   1.109  17.399 -0.4795 -0.7390 -0.9102
  438MPD2    H5 6589   0.535   1.185  17.463 -0.0292 -2.2421  1.0060
  438MPD2    N1 6590   0.636   1.025  16.924 -0.0263  0.2696 -0.3225
  438MPD2    H7 6591   0.674   0.938  16.959 -2.9880 -0.2934  1.4818
  439TMC3    C1 6592   0.673   0.924  16.715 -0.1949 -0.5710 -0.4123
  439TMC3    C2 6593   0.629   0.909  16.588 -0.6544  0.4564 -0.3349
  439TMC3    C3 6594   0.683   0.804  16.517 -0.2330 -0.5029 -0.2575
  439TMC3    C4 6595   0.755   0.839  16.782 -0.2615 -0.1855 -0.0900
  439TMC3    C5 6596   0.797   0.732  16.715  0.2897 -0.6987 -0.1978
  439TMC3    C6 6597   0.769   0.717  16.584  0.5165 -0.5300 -0.0028
  439TMC3     C 6598   0.635   1.046  16.786  0.1089  0.4492 -0.2246
  439TMC3     O 6599   0.596   1.132  16.706 -0.1812 -0.3329  0.9271
  439TMC3     H 6600   0.567   0.990  16.550 -0.5891  0.1233 -1.1350
  439TMC3    H1 6601   0.788   0.858  16.883 -1.5607  2.9977 -0.2723
  439TMC3    H2 6602   0.812   0.636  16.525 -0.7316  0.8325 -2.8038
  439TMC3    C7 6603   0.917   0.678  16.765  0.3315  0.8689 -0.1102
  439TMC3    C8 6604   0.670   0.794  16.372 -0.1921  0.0794 -0.3013
  439TMC3    O1 6605   0.991   0.753  16.823 -0.9570  0.8438 -0.1146
  439TMC3    O2 6606   0.759   0.728  16.323  0.1344  1.0962 -0.2960
  440MPD2     C 6607   3.493   1.118  14.770  0.8373  0.2786 -0.1230
  440MPD2    C1 6608   3.575   1.200  14.842  0.0540 -0.0572  0.9802
  440MPD2    C2 6609   3.713   1.182  14.843  0.5050  0.2768  0.4763
  440MPD2    C3 6610   3.762   1.069  14.785 -0.2609 -0.7085  0.4648
  440MPD2    C4 6611   3.682   0.987  14.714  0.0086 -0.6311 -0.0164
  440MPD2    C5 6612   3.545   1.006  14.716 -0.8784  0.5920  0.0764
  440MPD2     H 6613   3.764   1.255  14.904 -0.4594  2.1382 -0.9563
  440MPD2    H1 6614   3.720   0.901  14.659 -0.2420 -0.1214 -0.9741
  440MPD2    H2 6615   3.386   1.136  14.774  0.4184 -1.9072 -1.2086
  440MPD2    H3 6616   3.492   0.929  14.660  2.1635 -1.1970 -0.3205
  440MPD2     N 6617   3.901   1.046  14.778  0.1047  0.4522 -0.2000
  440MPD2    H5 6618   3.917   0.954  14.738 -0.8533  0.4961 -0.7044
  440MPD2    N1 6619   3.524   1.311  14.924 -0.5869  0.5428 -0.1520
  440MPD2    H7 6620   3.603   1.368  14.952 -0.3165  0.0493  0.1079
  441TMC3    C1 6621   4.138   1.070  14.831  0.6755 -0.2684  0.4790
  441TMC3    C2 6622   4.233   1.167  14.840  0.0925 -0.5204 -0.1923
  441TMC3    C3 6623   4.337   1.145  14.929  0.0801  0.3009 -0.2371
  441TMC3    C4 6624   4.148   0.963  14.916  0.2038 -0.1859  0.7459
  441TMC3    C5 6625   4.249   0.939  15.007 -0.2911 -0.5983 -0.0584
  441TMC3    C6 6626   4.346   1.033  15.011 -0.0444 -0.3013 -0.4635
  441TMC3     C 6627   4.003   1.128  14.812 -0.7034  0.2661  0.1171
  441TMC3     O 6628   3.995   1.247  14.851  0.3814  0.3902  1.0036
  441TMC3     H 6629   4.220   1.254  14.776  0.9680  0.2163  0.6143
  441TMC3    H1 6630   4.062   0.899  14.936  1.1966 -1.4019  1.1117
  441TMC3    H2 6631   4.438   1.024  15.069  0.9647  1.0319 -1.8666
  441TMC3    C7 6632   4.193   0.908  15.141  0.3535 -0.5615 -0.1328
  441TMC3    C8 6633   4.389   1.259  14.987 -0.5323  0.1960 -0.4875
  441TMC3    O1 6634   4.073   0.918  15.163  0.0605 -0.1744 -0.0559
  441TMC3    O2 6635   4.504   1.258  15.032 -0.2619  0.2561 -0.2876
  442MPD2     C 6636   2.242   2.241  16.394  1.0551 -0.3328  0.5378
  442MPD2    C1 6637   2.114   2.211  16.426 -0.5180 -0.9133  0.6976
  442MPD2    C2 6638   2.061   2.094  16.363 -0.0468  0.1950 -0.2335
  442MPD2    C3 6639   2.140   2.018  16.278 -0.4924 -0.3549 -0.3895
  442MPD2    C4 6640   2.271   2.050  16.268  0.1385 -0.3588 -0.4492
  442MPD2    C5 6641   2.320   2.163  16.314 -0.9528  0.0965  0.1150
  442MPD2     H 6642   1.958   2.064  16.381 -0.1025  0.2849 -0.4081
  442MPD2    H1 6643   2.336   1.981  16.214  0.1651 -0.7027  0.0314
  442MPD2    H2 6644   2.303   2.319  16.440  0.0854  0.2050  0.9007
  442MPD2    H3 6645   2.424   2.184  16.294 -0.3361 -2.0918  1.0131
  442MPD2     N 6646   2.113   1.895  16.222  0.0085  0.4102  0.3023
  442MPD2    H5 6647   2.188   1.852  16.169 -0.2315  1.3021 -0.7727
  442MPD2    N1 6648   2.038   2.280  16.526 -0.2649  0.3752  0.1903
  442MPD2    H7 6649   1.945   2.244  16.542 -0.2344  0.4058  0.4365
  443TMC3    C1 6650   1.965   2.432  16.691 -0.0337  0.4418  0.5137
  443TMC3    C2 6651   1.896   2.541  16.660 -0.1233  0.0123 -0.2621
  443TMC3    C3 6652   1.762   2.546  16.685 -0.0078 -0.7249  0.0299
  443TMC3    C4 6653   1.911   2.329  16.759 -0.1811 -0.3800 -0.0480
  443TMC3    C5 6654   1.777   2.336  16.792  0.7237 -0.6619 -0.2381
  443TMC3    C6 6655   1.700   2.446  16.744  0.1661  0.3012  0.2978
  443TMC3     C 6656   2.074   2.393  16.599 -0.2199 -0.4517  0.5635
  443TMC3     O 6657   2.170   2.471  16.582  0.0282 -0.4646 -0.7026
  443TMC3     H 6658   1.948   2.620  16.606  2.1142 -0.8492  0.6047
  443TMC3    H1 6659   1.974   2.244  16.784 -1.0097 -1.0308 -0.1954
  443TMC3    H2 6660   1.593   2.441  16.762  0.0380  1.9273  0.0140
  443TMC3    C7 6661   1.715   2.218  16.856  0.6113  0.5516 -0.1355
  443TMC3    C8 6662   1.686   2.617  16.585 -0.5898  0.6590  0.1778
  443TMC3    O1 6663   1.765   2.109  16.845 -0.5419 -0.2332 -0.5086
  443TMC3    O2 6664   1.713   2.735  16.561  0.0898 -0.2151  0.3498
  444MPD2     C 6665   2.109   1.773  16.622 -0.0755 -0.5466 -0.4108
  444MPD2    C1 6666   2.048   1.660  16.668 -0.3868 -1.0932 -0.2545
  444MPD2    C2 6667   2.078   1.534  16.617  0.0503  0.1273  0.0314
  444MPD2    C3 6668   2.175   1.524  16.521 -0.1043  0.0516  0.2129
  444MPD2    C4 6669   2.237   1.645  16.471 -0.3315 -0.4889 -0.6104
  444MPD2    C5 6670   2.206   1.766  16.524  0.2120  0.0573  0.5764
  444MPD2     H 6671   2.035   1.446  16.663 -1.5807  2.1487  2.3582
  444MPD2    H1 6672   2.312   1.646  16.393 -1.0424  3.8326 -1.2510
  444MPD2    H2 6673   2.084   1.870  16.664  1.2806 -0.1601 -0.5188
  444MPD2    H3 6674   2.247   1.862  16.495  0.3625  0.2699  1.4885
  444MPD2     N 6675   2.210   1.400  16.469 -0.0470 -0.3201  0.0364
  444MPD2    H5 6676   2.149   1.319  16.473  0.8300 -0.9300  1.2616
  444MPD2    N1 6677   1.947   1.660  16.768 -0.2604 -0.3724 -0.1898
  444MPD2    H7 6678   1.901   1.576  16.803 -1.2233 -0.3868 -1.5054
  445TMC3    C1 6679   2.379   1.242  16.406  0.1756 -0.5292  0.2323
  445TMC3    C2 6680   2.302   1.168  16.326  0.4667 -0.3147  0.1143
  445TMC3    C3 6681   2.315   1.030  16.322 -0.0851  0.5266 -0.2282
  445TMC3    C4 6682   2.486   1.180  16.465  0.9047 -0.7643  0.1222
  445TMC3    C5 6683   2.513   1.048  16.450 -0.1399 -0.3251  0.1459
  445TMC3    C6 6684   2.426   0.972  16.376  0.5131 -0.4959  0.0785
  445TMC3     C 6685   2.342   1.373  16.447 -0.1153  0.7894 -0.4273
  445TMC3     O 6686   2.439   1.436  16.480  0.4409  0.4092  0.2589
  445TMC3     H 6687   2.219   1.216  16.275  0.5488  0.4334  0.6837
  445TMC3    H1 6688   2.561   1.236  16.519 -1.4233 -0.6156  3.1884
  445TMC3    H2 6689   2.442   0.865  16.371  1.3270 -0.4598  1.6488
  445TMC3    C7 6690   2.654   1.012  16.442 -0.2889 -0.0258 -0.3626
  445TMC3    C8 6691   2.244   0.953  16.226  0.1054  0.2019 -0.0196
  445TMC3    O1 6692   2.733   1.085  16.500  0.2549  0.2374  0.0309
  445TMC3    O2 6693   2.283   0.838  16.201  0.2915 -0.1874 -0.3801
  446MPD2     C 6694   2.064   2.448  10.618  0.6825 -0.4054  0.8371
  446MPD2    C1 6695   2.007   2.564  10.577  0.8955 -0.3979  0.0925
  446MPD2    C2 6696   2.080   2.682  10.594 -0.2608  0.6957  0.8048
  446MPD2    C3 6697   2.194   2.681  10.671  0.4254  0.2110 -0.5764
  446MPD2    C4 6698   2.246   2.568  10.722  0.4934 -0.0458 -0.1286
  446MPD2    C5 6699   2.187   2.451  10.682  0.1846 -0.2219 -0.3795
  446MPD2     H 6700   2.042   2.779  10.564 -0.8834  0.2161  0.0598
  446MPD2    H1 6701   2.343   2.556  10.767  0.3779 -0.6645 -0.0401
  446MPD2    H2 6702   2.009   2.356  10.601  0.8704 -0.5502  1.0173
  446MPD2    H3 6703   2.239   2.358  10.702  0.4264  0.3739  1.7894
  446MPD2     N 6704   2.267   2.807  10.690  0.6806  0.4604  0.2094
  446MPD2    H5 6705   2.250   2.885  10.628 -0.9149  0.4924  0.6963
  446MPD2    N1 6706   1.884   2.562  10.520  0.8309  0.4622 -0.0523
  446MPD2    H7 6707   1.825   2.645  10.528 -1.0213 -0.9270  0.8668
  447TMC3    C1 6708   2.450   2.954  10.776 -0.0634 -0.1605  0.0552
  447TMC3    C2 6709   2.430   3.060  10.693 -0.0394  0.2565  0.2384
  447TMC3    C3 6710   2.537   3.138  10.661 -0.0602  0.3536  0.0078
  447TMC3    C4 6711   2.575   2.943  10.828 -0.5266 -0.5072 -0.2669
  447TMC3    C5 6712   2.686   3.015  10.790  0.3265  0.6333 -0.4522
  447TMC3    C6 6713   2.669   3.119  10.708 -0.2250 -0.4683  0.3234
  447TMC3     C 6714   2.367   2.829  10.788  0.3972  0.3841  0.3516
  447TMC3     O 6715   2.395   2.750  10.878  0.4828  0.3402  0.7078
  447TMC3     H 6716   2.332   3.076  10.649  2.0123  2.2366 -3.6141
  447TMC3    H1 6717   2.588   2.866  10.903  0.6276 -0.2377 -0.1812
  447TMC3    H2 6718   2.751   3.169  10.659 -0.3462 -1.3175 -0.7259
  447TMC3    C7 6719   2.807   2.947  10.786 -0.7444  0.3910  0.1440
  447TMC3    C8 6720   2.509   3.251  10.575 -0.3976  0.8156  0.0380
  447TMC3    O1 6721   2.805   2.826  10.768  0.0805 -0.7811 -0.3401
  447TMC3    O2 6722   2.394   3.264  10.543  0.2818  0.0037 -0.2065
  448TMC3    C1 6723   4.723   2.170  17.515  0.0476  0.1651 -0.0615
  448TMC3    C2 6724   4.729   2.115  17.392  0.5857 -0.3139  0.0899
  448TMC3    C3 6725   0.087   2.028  17.356 -0.2632 -0.0358 -0.3962
  448TMC3    C4 6726   0.063   2.125  17.615 -0.2958 -0.3075 -0.1763
  448TMC3    C5 6727   0.151   2.020  17.597  0.3156  0.7820 -0.1164
  448TMC3    C6 6728   0.167   1.982  17.457 -0.1268  0.3922  0.8742
  448TMC3     C 6729   4.641   2.291  17.520 -0.6805 -0.9923  0.3691
  448TMC3     O 6730   4.544   2.295  17.443 -0.2276  0.1738  0.6598
  448TMC3     H 6731   4.661   2.149  17.315 -0.9333  0.1778  1.6565
  448TMC3    H1 6732   0.051   2.164  17.715 -0.5579 -1.4664  0.2388
  448TMC3    H2 6733   0.252   1.917  17.441 -0.3763  0.1029  0.7125
  448TMC3    C7 6734   0.271   1.991  17.686 -0.3798 -0.2500 -0.0707
  448TMC3    C8 6735   0.107   2.002  17.213  0.2282 -1.0360  0.1253
  448TMC3    O1 6736   0.356   1.931  17.626  0.0555  0.9396 -0.0990
  448TMC3    O2 6737   0.162   1.894  17.192  0.2070 -0.8105 -0.0762
  449MPD2     C 6738   1.764   1.548  13.918 -0.1181 -1.0065  0.2515
  449MPD2    C1 6739   1.662   1.565  13.829  0.1693  0.5205 -0.1341
  449MPD2    C2 6740   1.557   1.477  13.832  0.0062  0.6285  0.6420
  449MPD2    C3 6741   1.534   1.393  13.940  0.1822 -0.5034  0.3250
  449MPD2    C4 6742   1.633   1.379  14.034  0.7760 -0.2315  0.0911
  449MPD2    C5 6743   1.756   1.451  14.019 -0.0753  0.1389 -0.6481
  449MPD2     H 6744   1.479   1.477  13.756  0.2092 -2.6708  0.4451
  449MPD2    H1 6745   1.619   1.306  14.113  1.4724 -0.6842 -0.2058
  449MPD2    H2 6746   1.851   1.612  13.914  0.0588 -1.3073 -0.7218
  449MPD2    H3 6747   1.830   1.435  14.096 -1.9097  1.2404  1.3294
  449MPD2     N 6748   1.411   1.327  13.939 -0.2226  0.2429  0.1357
  449MPD2    H5 6749   1.364   1.339  13.850  2.8452 -1.1989 -1.7165
  449MPD2    N1 6750   1.655   1.670  13.732 -0.0227  0.1102  0.5429
  449MPD2    H7 6751   1.573   1.664  13.672 -0.3831  0.7484  0.9629
  450TMC3    C1 6752   1.715   1.807  13.561 -0.4035  0.1393 -0.4241
  450TMC3    C2 6753   1.774   1.747  13.451  0.2849  0.7392 -0.4962
  450TMC3    C3 6754   1.689   1.724  13.349  0.3416  0.2001  0.0412
  450TMC3    C4 6755   1.581   1.848  13.564  0.3063  0.7218  0.8863
  450TMC3    C5 6756   1.496   1.819  13.455  0.1883  0.4475  0.3783
  450TMC3    C6 6757   1.554   1.755  13.351 -0.0221 -0.0612 -0.3481
  450TMC3     C 6758   1.749   1.762  13.696  0.2365 -0.2607 -0.3968
  450TMC3     O 6759   1.858   1.777  13.749 -0.7062 -0.1485  0.7245
  450TMC3     H 6760   1.866   1.693  13.472 -1.5931 -2.0772  0.5006
  450TMC3    H1 6761   1.541   1.904  13.648  0.8991 -1.5822  2.6986
  450TMC3    H2 6762   1.490   1.721  13.270 -1.6392  0.5862  0.6763
  450TMC3    C7 6763   1.387   1.743  13.503 -0.6269 -0.1196  0.3306
  450TMC3    C8 6764   1.737   1.627  13.245  0.0423  0.1755 -0.4055
  450TMC3    O1 6765   1.415   1.676  13.600  0.3458  0.3235 -0.2867
  450TMC3    O2 6766   1.653   1.549  13.194 -0.1668  0.6929  0.1462
  451MPD2     C 6767   3.559   0.461   0.918  0.2843 -0.9546 -0.5599
  451MPD2    C1 6768   3.432   0.424   0.951 -0.2569 -0.1781  0.0683
  451MPD2    C2 6769   3.409   0.292   0.964  0.7407  0.0740  0.0365
  451MPD2    C3 6770   3.512   0.203   0.946 -0.8627 -0.0380 -0.2310
  451MPD2    C4 6771   3.636   0.240   0.917 -0.1111  0.2707 -0.4787
  451MPD2    C5 6772   3.660   0.373   0.902 -0.0195 -0.0449 -0.0409
  451MPD2     H 6773   3.310   0.248   0.964  0.4862  0.6454 -1.3469
  451MPD2    H1 6774   3.715   0.167   0.903 -0.5656 -0.3020 -0.0841
  451MPD2    H2 6775   3.576   0.563   0.885  0.0680 -0.7776 -0.1261
  451MPD2    H3 6776   3.755   0.411   0.867 -0.7014  3.0931  1.5349
  451MPD2     N 6777   3.490   0.065   0.935  0.4944  0.1248 -0.1506
  451MPD2    H5 6778   3.577   0.013   0.932 -0.6801 -1.8107 -0.6159
  451MPD2    N1 6779   3.327   0.513   0.915 -0.1256  0.0121 -0.1749
  451MPD2    H7 6780   3.355   0.594   0.861 -1.5423  0.4847 -0.1973
  452TMC3    C1 6781   3.395   4.588   0.938  0.4041 -0.1505  0.2459
  452TMC3    C2 6782   3.292   4.510   0.970 -0.0960 -1.0264  0.7925
  452TMC3    C3 6783   3.249   4.405   0.900 -0.5555  0.1417  0.3904
  452TMC3    C4 6784   3.474   4.557   0.836 -0.3115 -0.0368  0.3202
  452TMC3    C5 6785   3.429   4.450   0.759 -0.6212 -0.3265 -0.4613
  452TMC3    C6 6786   3.321   4.370   0.790 -0.5024  0.2207  0.2955
  452TMC3     C 6787   3.377   4.731   0.964  0.4749 -0.0567 -0.5381
  452TMC3     O 6788   3.271   0.032   1.006  0.3865 -0.3896 -0.5804
  452TMC3     H 6789   3.232   4.545   1.053 -1.5069 -0.3806 -0.5049
  452TMC3    H1 6790   3.549   4.628   0.801  0.0947 -0.9135 -0.5930
  452TMC3    H2 6791   3.289   4.292   0.722  0.0987  0.3766 -0.1686
  452TMC3    C7 6792   3.472   4.462   0.614  0.1179  0.8066  1.0075
  452TMC3    C8 6793   3.125   4.346   0.930 -0.5831 -0.7829  0.2139
  452TMC3    O1 6794   3.511   4.571   0.583  0.0298  0.2096  0.8816
  452TMC3    O2 6795   3.060   4.411   1.011  0.4008 -0.1382  0.3836
  453TMC3    C1 6796   3.352   1.639  12.359  0.2099  0.1175  0.1244
  453TMC3    C2 6797   3.271   1.527  12.349 -0.5551 -0.4277 -0.0433
  453TMC3    C3 6798   3.200   1.507  12.233 -0.0967  0.2788 -0.3785
  453TMC3    C4 6799   3.366   1.731  12.262  0.3886 -0.4351 -0.6635
  453TMC3    C5 6800   3.293   1.712  12.146  0.1700  0.0078 -0.4290
  453TMC3    C6 6801   3.211   1.605  12.132 -0.5856 -0.4507 -0.5392
  453TMC3     C 6802   3.465   1.624  12.445  0.4492 -0.9364  0.3939
  453TMC3     O 6803   3.444   1.588  12.562 -0.0771 -0.3706 -0.4502
  453TMC3     H 6804   3.271   1.453  12.429  1.0187  0.8439  1.1336
  453TMC3    H1 6805   3.449   1.799  12.266 -0.1936  0.2941 -1.0502
  453TMC3    H2 6806   3.165   1.595  12.034  2.3233  0.4164 -2.0056
  453TMC3    C7 6807   3.335   1.788  12.029  0.1632  0.4008 -0.2360
  453TMC3    C8 6808   3.234   1.382  12.175 -0.0488  0.0471  0.4202
  453TMC3    O1 6809   3.390   1.893  12.048  0.0967  0.9633 -0.1318
  453TMC3    O2 6810   3.290   1.398  12.066  0.3635 -0.0438 -0.2456
  454MPD2     C 6811   3.054   1.282  16.092 -0.0982  0.1779  0.2395
  454MPD2    C1 6812   2.961   1.331  16.000 -0.2965  0.7552  0.2842
  454MPD2    C2 6813   2.914   1.461  16.013  0.5381 -0.3500  0.3476
  454MPD2    C3 6814   2.961   1.541  16.116  0.5710  0.1913 -0.6676
  454MPD2    C4 6815   3.047   1.488  16.209  0.9876  0.2642  0.3297
  454MPD2    C5 6816   3.091   1.363  16.193 -0.3539 -0.5708  0.4014
  454MPD2     H 6817   2.846   1.492  15.935 -0.2788 -1.3925  0.6474
  454MPD2    H1 6818   3.081   1.562  16.281  0.6853  0.7035  0.0266
  454MPD2    H2 6819   3.086   1.179  16.101 -3.0444 -0.8186 -0.5869
  454MPD2    H3 6820   3.159   1.316  16.264 -0.1885  0.6572  1.0512
  454MPD2     N 6821   2.917   1.671  16.127 -0.3155 -0.3187  0.0113
  454MPD2    H5 6822   2.947   1.714  16.214  0.2747  0.2454 -0.4686
  454MPD2    N1 6823   2.920   1.264  15.883 -0.6210  0.2684  0.4420
  454MPD2    H7 6824   2.856   1.318  15.827 -0.1364  1.0603  0.6464
  455TMC3    C1 6825   2.734   1.815  16.114 -0.1096  0.3079 -0.7878
  455TMC3    C2 6826   2.768   1.831  16.242  0.7078 -0.0113 -0.2288
  455TMC3    C3 6827   2.687   1.807  16.342  0.1700  0.0198 -0.1935
  455TMC3    C4 6828   2.604   1.764  16.081  0.2207 -0.1543  0.5983
  455TMC3    C5 6829   2.530   1.715  16.186  0.0765  0.2853 -0.2729
  455TMC3    C6 6830   2.579   1.738  16.315  0.5434  0.3943 -0.4046
  455TMC3     C 6831   2.830   1.736  16.041 -0.6950 -0.5718  0.0124
  455TMC3     O 6832   2.801   1.714  15.923 -0.2294  0.1538 -0.5634
  455TMC3     H 6833   2.865   1.863  16.279 -0.5496  2.4538  0.9615
  455TMC3    H1 6834   2.568   1.745  15.981  1.6710  0.8480 -0.1222
  455TMC3    H2 6835   2.523   1.694  16.396  2.7033  0.2798  1.0276
  455TMC3    C7 6836   2.490   1.580  16.152  0.5158 -0.4349 -0.3158
  455TMC3    C8 6837   2.705   1.846  16.479 -0.6499  0.1565  0.0235
  455TMC3    O1 6838   2.395   1.573  16.078  0.0557  0.5492 -0.2265
  455TMC3    O2 6839   2.652   1.779  16.567  0.4302  0.1369 -0.4398
  456MPD2     C 6840   0.432   1.408  15.907  0.2472 -0.5785 -0.1094
  456MPD2    C1 6841   0.539   1.366  15.974 -0.4211  0.4061 -0.0644
  456MPD2    C2 6842   0.547   1.396  16.113  0.1376  0.4353  0.1919
  456MPD2    C3 6843   0.436   1.457  16.174  0.5957 -1.0995  0.1152
  456MPD2    C4 6844   0.329   1.509  16.101 -0.2397 -0.1831  0.1418
  456MPD2    C5 6845   0.334   1.478  15.969  0.7976 -0.0885 -0.0208
  456MPD2     H 6846   0.626   1.361  16.179 -1.6354  0.4581  2.3673
  456MPD2    H1 6847   0.242   1.555  16.147  0.3909  1.4879 -0.3261
  456MPD2    H2 6848   0.435   1.400  15.799  2.0201 -0.0316 -0.0987
  456MPD2    H3 6849   0.263   1.521  15.899 -0.6128  1.0400  2.0664
  456MPD2     N 6850   0.469   1.494  16.308 -0.4197  0.0977 -0.4232
  456MPD2    H5 6851   0.526   1.427  16.359  1.0041  2.7524  1.4219
  456MPD2    N1 6852   0.640   1.298  15.898 -0.1012  0.4552  0.3560
  456MPD2    H7 6853   0.626   1.261  15.804  0.4861  0.5347  0.2395
  457TMC3    C1 6854   0.456   1.634  16.508 -0.1876 -0.6975  0.0727
  457TMC3    C2 6855   0.393   1.732  16.581  0.3254 -0.1698 -0.0998
  457TMC3    C3 6856   0.439   1.759  16.702 -0.2565  1.4182 -0.0622
  457TMC3    C4 6857   0.568   1.573  16.559  0.2624  0.8060 -0.6209
  457TMC3    C5 6858   0.612   1.609  16.678 -0.5258 -0.0718 -0.2813
  457TMC3    C6 6859   0.543   1.696  16.758  0.0212 -0.0733 -0.4364
  457TMC3     C 6860   0.420   1.609  16.367  0.6610 -0.4145  0.2625
  457TMC3     O 6861   0.330   1.681  16.323 -0.1246 -0.1060 -0.1779
  457TMC3     H 6862   0.300   1.772  16.544  0.1259  0.5143  1.1450
  457TMC3    H1 6863   0.626   1.507  16.496  0.8023  0.6142  0.0832
  457TMC3    H2 6864   0.568   1.712  16.862  2.5154 -0.3682 -0.9944
  457TMC3    C7 6865   0.713   1.528  16.736 -0.2824  0.3003  0.3385
  457TMC3    C8 6866   0.358   1.832  16.796  0.1210  0.3900 -0.1333
  457TMC3    O1 6867   0.732   1.557  16.855 -0.0593 -0.2428 -0.3356
  457TMC3    O2 6868   0.371   1.803  16.912  0.0778  0.3299  0.7157
  458MPD2     C 6869   3.998   0.397  12.156 -0.0344  0.4062  0.2000
  458MPD2    C1 6870   3.870   0.359  12.164 -0.6139 -0.5174 -1.0064
  458MPD2    C2 6871   3.819   0.260  12.076  0.0634 -0.0719 -0.7546
  458MPD2    C3 6872   3.897   0.193  11.983  0.5907 -0.1638  0.1355
  458MPD2    C4 6873   4.035   0.224  11.989  0.8577  0.4919 -0.4482
  458MPD2    C5 6874   4.083   0.328  12.072  0.0913  0.5514  0.0152
  458MPD2     H 6875   3.712   0.245  12.087  0.2226 -0.2291  0.6261
  458MPD2    H1 6876   4.101   0.172  11.921  0.9383 -0.0172  0.0245
  458MPD2    H2 6877   4.041   0.467  12.227 -0.4186 -0.2133  1.0373
  458MPD2    H3 6878   4.188   0.352  12.063  0.6174 -1.7570  0.0003
  458MPD2     N 6879   3.830   0.107  11.887  0.8834 -0.6471 -0.2857
  458MPD2    H5 6880   3.732   0.085  11.900  0.9873 -1.8697 -1.5513
  458MPD2    N1 6881   3.794   0.431  12.258  0.2196 -0.0915 -0.7592
  458MPD2    H7 6882   3.849   0.498  12.311  0.7705  0.4306 -1.9953
  459TMC3    C1 6883   3.628   0.486  12.418 -0.0167 -0.0292 -0.7991
  459TMC3    C2 6884   3.662   0.618  12.425 -0.3667  0.1754  0.4562
  459TMC3    C3 6885   3.610   0.697  12.526 -0.3908 -0.0256  0.5229
  459TMC3    C4 6886   3.548   0.436  12.510 -0.3570  0.4289 -0.1861
  459TMC3    C5 6887   3.497   0.514  12.619 -0.2702  0.0293 -0.1557
  459TMC3    C6 6888   3.518   0.645  12.616 -0.0728 -0.0560 -0.3215
  459TMC3     C 6889   3.663   0.406  12.299  0.0898  0.0192  0.4008
  459TMC3     O 6890   3.594   0.305  12.284  0.5134  0.0442  0.3566
  459TMC3     H 6891   3.724   0.668  12.351  0.2019 -1.0753  0.1020
  459TMC3    H1 6892   3.541   0.328  12.518 -0.1693  0.3221 -1.4816
  459TMC3    H2 6893   3.481   0.722  12.683 -1.0947 -0.1313 -0.7874
  459TMC3    C7 6894   3.482   0.445  12.746 -0.0761 -0.0175  0.2517
  459TMC3    C8 6895   3.637   0.838  12.522 -0.2625 -0.0770 -0.6507
  459TMC3    O1 6896   3.502   0.323  12.743  0.2993  0.1703 -0.6698
  459TMC3    O2 6897   3.549   0.923  12.539 -0.5940  0.6772  0.6462
  460MPD2     C 6898   2.730   3.499  10.442 -0.1192  0.4813 -0.4549
  460MPD2    C1 6899   2.630   3.414  10.438 -0.1799  0.1107  0.2002
  460MPD2    C2 6900   2.549   3.408  10.325  0.0379  0.1703  0.0557
  460MPD2    C3 6901   2.558   3.508  10.227  0.0704  0.5073 -0.2431
  460MPD2    C4 6902   2.671   3.592  10.235  0.2585  0.2511  0.4694
  460MPD2    C5 6903   2.750   3.590  10.344  0.0527  0.1385 -0.1840
  460MPD2     H 6904   2.463   3.341  10.320 -0.9389  1.3443  1.2728
  460MPD2    H1 6905   2.697   3.666  10.160 -1.8025  1.5891  1.0799
  460MPD2    H2 6906   2.801   3.503  10.524 -0.0894 -1.4954 -0.3810
  460MPD2    H3 6907   2.835   3.656  10.343  1.0721 -1.1570  2.0828
  460MPD2     N 6908   2.468   3.515  10.122  0.3230 -0.2614  0.7586
  460MPD2    H5 6909   2.400   3.440  10.129 -1.5904  1.2164 -2.1304
  460MPD2    N1 6910   2.620   3.325  10.547 -0.6264  0.0784  0.4434
  460MPD2    H7 6911   2.696   3.326  10.614  2.2224  2.9070 -2.8512
  461TMC3    C1 6912   2.377   3.584   9.908  0.5255  0.3972 -0.1566
  461TMC3    C2 6913   2.346   3.451   9.886 -0.1290  0.5819 -0.6116
  461TMC3    C3 6914   2.287   3.438   9.763  0.0921 -0.0783  0.3405
  461TMC3    C4 6915   2.346   3.693   9.828 -0.4080 -0.8703  0.1834
  461TMC3    C5 6916   2.269   3.669   9.717  0.6903  0.2906 -0.0199
  461TMC3    C6 6917   2.251   3.541   9.673 -0.1902 -0.6335  0.5352
  461TMC3     C 6918   2.465   3.613  10.020 -0.4745  0.8090 -0.7074
  461TMC3     O 6919   2.540   3.710  10.005 -0.5435 -0.2297  0.1636
  461TMC3     H 6920   2.357   3.367   9.953 -0.0266 -1.3844 -3.0903
  461TMC3    H1 6921   2.377   3.792   9.862 -1.1145 -0.5290 -0.1688
  461TMC3    H2 6922   2.188   3.524   9.586  1.5198 -2.3379 -0.3960
  461TMC3    C7 6923   2.192   3.769   9.638  0.1222  0.2987 -0.2894
  461TMC3    C8 6924   2.247   3.300   9.726  0.1762 -0.3813  0.6423
  461TMC3    O1 6925   2.116   3.732   9.550 -0.5273  0.3283  0.1582
  461TMC3    O2 6926   2.258   3.215   9.812  0.0837  0.0065  0.2850
  462TMC3    C1 6927   2.479   4.208  17.638 -0.5547  0.5571 -0.0780
  462TMC3    C2 6928   2.442   4.166  17.514  0.5976 -0.1433  0.0964
  462TMC3    C3 6929   2.405   4.031  17.495 -0.2073 -0.3671 -0.4077
  462TMC3    C4 6930   2.486   4.114  17.738  0.1887  0.7240 -0.5244
  462TMC3    C5 6931   2.465   3.980  17.713 -0.1759  0.3877  0.8034
  462TMC3    C6 6932   2.415   3.934  17.587  0.4602 -0.3397 -1.1998
  462TMC3     C 6933   2.490   4.344  17.680  0.0662 -0.0744  0.1977
  462TMC3     O 6934   2.498   4.367   0.057 -0.0298 -0.0897 -0.3528
  462TMC3     H 6935   2.404   4.237  17.441  1.9822  1.3318  0.7971
  462TMC3    H1 6936   2.527   4.147   0.091 -2.4914  0.5043  0.7043
  462TMC3    H2 6937   2.407   3.831  17.552 -1.9517 -0.0145 -1.5928
  462TMC3    C7 6938   2.503   3.872   0.067 -0.0995 -0.1672  0.5406
  462TMC3    C8 6939   2.366   4.002  17.357  0.5143  1.0943  0.5232
  462TMC3    O1 6940   2.463   3.759   0.051 -0.0543  0.5527 -1.1073
  462TMC3    O2 6941   2.314   4.082  17.283 -0.7127  0.4792 -0.1789
  463MPD2     C 6942   2.656   3.328   1.382  0.1444 -0.1198  0.3899
  463MPD2    C1 6943   2.718   3.304   1.265  0.2683 -0.0276  0.1704
  463MPD2    C2 6944   2.818   3.386   1.222  0.3234 -0.3119 -0.0042
  463MPD2    C3 6945   2.851   3.505   1.288 -0.6109  0.1951  0.7223
  463MPD2    C4 6946   2.781   3.530   1.406 -1.0438  0.2875  0.1875
  463MPD2    C5 6947   2.688   3.439   1.458  0.0797 -0.3683 -0.5233
  463MPD2     H 6948   2.880   3.367   1.135  1.1675  0.2625  0.4681
  463MPD2    H1 6949   2.785   3.627   1.455 -0.7282  0.6590 -0.5583
  463MPD2    H2 6950   2.578   3.268   1.427  0.5320 -0.0399  1.1675
  463MPD2    H3 6951   2.631   3.446   1.550 -1.0994  1.1466 -1.3767
  463MPD2     N 6952   2.945   3.603   1.247 -0.0560  0.3711  0.0073
  463MPD2    H5 6953   2.948   3.685   1.306  0.8741  0.8797 -0.7495
  463MPD2    N1 6954   2.686   3.193   1.189 -0.3730  0.1091 -0.5436
  463MPD2    H7 6955   2.738   3.177   1.104  1.3218 -0.5724  0.6345
  464TMC3    C1 6956   2.582   2.986   1.127  0.2665 -0.2909 -0.1979
  464TMC3    C2 6957   2.463   2.924   1.118 -0.1246 -0.8861 -0.2587
  464TMC3    C3 6958   2.459   2.795   1.061 -0.1069 -0.1590  0.0711
  464TMC3    C4 6959   2.698   2.918   1.108  0.3277 -0.5511 -1.2052
  464TMC3    C5 6960   2.693   2.785   1.059 -0.4083 -0.7150 -0.2671
  464TMC3    C6 6961   2.574   2.724   1.045 -0.0716 -0.0721  0.5906
  464TMC3     C 6962   2.578   3.107   1.211  0.2333 -0.5505  0.7212
  464TMC3     O 6963   2.470   3.139   1.263  0.2942 -0.4692 -0.4954
  464TMC3     H 6964   2.374   2.982   1.140 -0.8945 -1.6835 -1.2616
  464TMC3    H1 6965   2.792   2.970   1.121  0.4202 -1.5313  1.9855
  464TMC3    H2 6966   2.571   2.626   0.998  1.3300  0.2369 -0.1547
  464TMC3    C7 6967   2.806   2.721   1.006  0.4581 -0.0116  0.5826
  464TMC3    C8 6968   2.340   2.754   0.990  0.3432  0.0473  0.0095
  464TMC3    O1 6969   2.896   2.796   0.984 -0.6021  0.1748 -0.1022
  464TMC3    O2 6970   2.337   2.666   0.906 -0.4450 -0.1817 -0.4676
  465MPD2     C 6971   0.253   1.291  16.629 -0.7498  0.0735  0.1784
  465MPD2    C1 6972   0.210   1.307  16.758  0.3116 -0.5040 -0.0209
  465MPD2    C2 6973   0.141   1.422  16.780 -0.1769  0.0155 -0.3601
  465MPD2    C3 6974   0.098   1.508  16.677  0.2885  0.0406  0.1458
  465MPD2    C4 6975   0.141   1.483  16.548  0.0494 -0.1742 -0.2060
  465MPD2    C5 6976   0.225   1.375  16.529  0.0298  0.3293  1.0244
  465MPD2     H 6977   0.096   1.431  16.878  0.5504 -0.2209 -0.0024
  465MPD2    H1 6978   0.125   1.552  16.466 -2.6186  0.4134  0.8026
  465MPD2    H2 6979   0.316   1.212  16.591 -1.8925 -0.1478 -1.2431
  465MPD2    H3 6980   0.263   1.365  16.428 -0.0795 -1.7298  1.1877
  465MPD2     N 6981   0.014   1.617  16.713 -0.6071 -0.0475 -0.4087
  465MPD2    H5 6982   4.732   1.628  16.813  0.7833  0.7912 -0.2437
  465MPD2    N1 6983   0.237   1.212  16.866  0.7062  0.6407  0.2574
  465MPD2    H7 6984   0.216   1.250  16.958  0.7947  0.0735  0.5146
  466TMC3    C1 6985   4.522   1.902  16.878  0.4338 -0.0118  0.1871
  466TMC3    C2 6986   4.517   2.026  16.819 -0.2349  0.2250 -0.0389
  466TMC3    C3 6987   4.588   2.050  16.704 -0.3224  0.2310  0.0553
  466TMC3    C4 6988   4.595   1.799  16.824  0.3342  0.7597 -0.8410
  466TMC3    C5 6989   4.658   1.829  16.711 -0.6751  0.9217  0.3835
  466TMC3    C6 6990   4.663   1.953  16.654  0.3162  0.6808  0.3528
  466TMC3     C 6991   4.473   1.900  17.020  0.2182 -0.4329  0.0979
  466TMC3     O 6992   4.398   1.990  17.057 -0.4780 -0.2756 -0.2759
  466TMC3     H 6993   4.457   2.104  16.864  1.1682  0.1245  1.9800
  466TMC3    H1 6994   4.589   1.699  16.865  0.3517  1.1657  0.1433
  466TMC3    H2 6995   4.722   1.969  16.565 -2.1455 -1.7635 -1.7125
  466TMC3    C7 6996   4.719   1.725  16.632  0.5049 -0.0977  0.1680
  466TMC3    C8 6997   4.581   2.169  16.630 -0.4946 -0.2749 -0.7003
  466TMC3    O1 6998   0.006   1.743  16.508  0.2842  0.6664 -0.3210
  466TMC3    O2 6999   4.637   2.162  16.520 -0.2445 -0.2638  0.0932
  467TMC3    C1 7000   0.855   0.209  13.768 -0.0762 -0.6610 -0.3631
  467TMC3    C2 7001   0.843   0.325  13.690 -0.1087 -0.1691  0.0242
  467TMC3    C3 7002   0.718   0.366  13.656 -0.5072 -0.4703 -0.0798
  467TMC3    C4 7003   0.755   0.127  13.806  0.3814 -0.2245  0.2537
  467TMC3    C5 7004   0.633   0.168  13.759 -0.1046  0.1814 -0.6819
  467TMC3    C6 7005   0.612   0.279  13.679  0.0276  0.5991  0.0269
  467TMC3     C 7006   0.983   0.138  13.753  0.2087  0.5467 -0.1516
  467TMC3     O 7007   1.076   0.209  13.733 -0.4215 -0.0469  0.1083
  467TMC3     H 7008   0.934   0.379  13.665 -0.7524  0.7114 -0.4122
  467TMC3    H1 7009   0.767   0.033  13.858 -1.6608  1.1188  3.0819
  467TMC3    H2 7010   0.511   0.304  13.648  0.2405  1.1169 -0.2462
  467TMC3    C7 7011   0.539   0.063  13.744 -0.7568  0.0803 -0.2699
  467TMC3    C8 7012   0.717   0.462  13.550 -0.4646  0.4095 -0.6213
  467TMC3    O1 7013   0.581   4.682  13.743  0.2293  0.8925 -0.2644
  467TMC3    O2 7014   0.822   0.526  13.537  0.3014 -0.0951  1.1696
  468MPD2     C 7015   0.065   2.290  10.144  1.0093 -0.4211  0.0594
  468MPD2    C1 7016   4.723   2.304  10.255 -0.1201  0.4138  0.0376
  468MPD2    C2 7017   4.612   2.230  10.263 -0.0888  0.1540 -0.0243
  468MPD2    C3 7018   4.575   2.140  10.165  0.5616  0.0109 -0.1569
  468MPD2    C4 7019   4.649   2.127  10.046  0.1594 -0.5228  0.6180
  468MPD2    C5 7020   0.029   2.207  10.041 -0.0484 -0.1371 -0.0841
  468MPD2     H 7021   4.545   2.238  10.348  0.2238 -0.8613  0.3194
  468MPD2    H1 7022   4.635   2.053   9.968  0.4607  0.1913 -0.1143
  468MPD2    H2 7023   0.157   2.344  10.127  0.6972  0.4793  1.2452
  468MPD2    H3 7024   0.101   2.195   9.961  0.7623 -0.1554  0.6510
  468MPD2     N 7025   4.464   2.054  10.186 -0.3801 -0.0004  0.4497
  468MPD2    H5 7026   4.444   1.977  10.124  0.6139  1.3319 -1.5330
  468MPD2    N1 7027   0.006   2.409  10.351  0.2156 -0.4115  0.0971
  468MPD2    H7 7028   4.674   2.406  10.426  0.4656 -0.3132  0.3256
  469TMC3    C1 7029   0.085   2.614  10.445 -0.5536 -0.6116 -0.0059
  469TMC3    C2 7030   0.169   2.720  10.444 -0.6239  0.2547 -0.1576
  469TMC3    C3 7031   0.143   2.833  10.519 -0.1365  0.4296  0.4662
  469TMC3    C4 7032   4.704   2.629  10.518 -0.0917  0.2663  0.2693
  469TMC3    C5 7033   4.672   2.746  10.587 -0.3778 -0.6641 -0.2806
  469TMC3    C6 7034   0.025   2.852  10.586 -0.5695  0.1027 -0.5190
  469TMC3     C 7035   0.108   2.503  10.345  0.3668  0.0300 -0.3644
  469TMC3     O 7036   0.195   2.516  10.264 -0.3269  0.2205  0.0729
  469TMC3     H 7037   0.266   2.706  10.398 -1.6260  0.6244 -2.4316
  469TMC3    H1 7038   4.625   2.554  10.515  0.5600 -0.4961  2.2848
  469TMC3    H2 7039   4.730   2.954  10.607 -1.5181 -0.5033  1.0753
  469TMC3    C7 7040   4.557   2.744  10.666 -0.2432 -0.0945 -0.1681
  469TMC3    C8 7041   0.247   2.936  10.521 -0.0844  0.8879 -0.7244
  469TMC3    O1 7042   4.485   2.646  10.650  0.0190  0.4353  0.1712
  469TMC3    O2 7043   0.350   2.940  10.453 -0.5977  0.0709  0.0341
  470TMC3    C1 7044   2.358   3.972   0.661  0.3023  0.5110 -0.0695
  470TMC3    C2 7045   2.385   4.098   0.630  0.6356 -0.5037 -0.2650
  470TMC3    C3 7046   2.435   4.186   0.727  0.1599  0.6430  0.3556
  470TMC3    C4 7047   2.380   3.921   0.785 -0.0403 -0.0603 -0.5634
  470TMC3    C5 7048   2.410   4.014   0.884 -0.1182  0.2098 -0.3556
  470TMC3    C6 7049   2.438   4.147   0.857  0.5650 -0.4288 -0.3127
  470TMC3     C 7050   2.310   3.892   0.546 -0.1995  0.6311 -0.3890
  470TMC3     O 7051   2.333   3.941   0.432  0.0329  0.6745  0.0326
  470TMC3     H 7052   2.354   4.133   0.532  1.7956  1.4084  0.0274
  470TMC3    H1 7053   2.353   3.820   0.816  1.0048  0.2893  1.5032
  470TMC3    H2 7054   2.475   4.225   0.922  3.5048 -2.2963  0.2572
  470TMC3    C7 7055   2.386   3.975   1.018  0.3524 -0.4092 -0.1312
  470TMC3    C8 7056   2.419   4.329   0.704  0.2616  0.2607  0.1854
  470TMC3    O1 7057   2.385   3.856   1.056 -0.2466 -0.4963 -0.3572
  470TMC3    O2 7058   2.385   4.404   0.794  0.3782 -0.0790  0.3913
  471MPD2     C 7059   2.128   1.034  16.608  0.4104 -0.2832 -0.9274
  471MPD2    C1 7060   2.135   0.897  16.598 -0.4631  0.2160 -0.1975
  471MPD2    C2 7061   2.244   0.830  16.658  0.1422 -0.1376 -0.6321
  471MPD2    C3 7062   2.352   0.903  16.709  0.3479 -0.2037 -0.1699
  471MPD2    C4 7063   2.343   1.034  16.722  0.2137  0.0166  0.4984
  471MPD2    C5 7064   2.231   1.100  16.679  0.1347  0.5722  0.2865
  471MPD2     H 7065   2.247   0.722  16.653 -2.8699 -0.1002 -3.5172
  471MPD2    H1 7066   2.416   1.096  16.772  1.3151  0.7005 -1.9786
  471MPD2    H2 7067   2.046   1.096  16.573  0.5028  0.6851  0.5338
  471MPD2    H3 7068   2.224   1.207  16.695 -0.4686  0.6235 -0.3059
  471MPD2     N 7069   2.475   0.842  16.759  0.4618  0.1995 -0.1548
  471MPD2    H5 7070   2.530   0.899  16.821 -0.6250  1.3541 -0.2440
  471MPD2    N1 7071   2.060   0.820  16.510 -0.1865  0.1394 -0.1661
  471MPD2    H7 7072   2.083   0.721  16.509 -1.3576 -0.0997 -2.2395
  472TMC3    C1 7073   1.941   0.753  16.324 -0.3590 -1.0556 -0.2208
  472TMC3    C2 7074   1.827   0.756  16.248 -0.3259  0.0008  0.2305
  472TMC3    C3 7075   1.825   0.671  16.142  0.2320 -0.6736  0.0832
  472TMC3    C4 7076   2.045   0.663  16.302  0.0277  0.7723  0.0247
  472TMC3    C5 7077   2.024   0.565  16.205 -0.7543  0.0955  0.2337
  472TMC3    C6 7078   1.918   0.570  16.118 -0.1023 -0.5801 -0.1252
  472TMC3     C 7079   1.960   0.856  16.430 -0.1900 -0.8195  0.3021
  472TMC3     O 7080   1.907   0.966  16.412 -0.2266 -0.2937  0.3929
  472TMC3     H 7081   1.750   0.829  16.270  0.2937  0.2172  1.7258
  472TMC3    H1 7082   2.146   0.668  16.342  0.8015  0.8607 -1.9109
  472TMC3    H2 7083   1.909   0.517  16.024 -0.6522 -0.4792 -0.1257
  472TMC3    C7 7084   2.095   0.441  16.228  0.7604  0.6820 -0.1798
  472TMC3    C8 7085   1.694   0.619  16.099 -0.1229 -0.8875 -0.4902
  472TMC3    O1 7086   2.172   0.431  16.324 -0.1252  0.0282  0.2691
  472TMC3    O2 7087   1.612   0.698  16.064 -0.1644  0.3469 -0.3806
  473MPD2     C 7088   2.321   2.377  13.541 -0.3100 -0.4230  0.6354
  473MPD2    C1 7089   2.265   2.479  13.460  0.0039  0.4733 -0.0118
  473MPD2    C2 7090   2.262   2.609  13.512 -0.4767 -0.7845  0.1612
  473MPD2    C3 7091   2.304   2.626  13.648  0.5109 -0.3333  0.4819
  473MPD2    C4 7092   2.347   2.519  13.724 -0.0189 -0.1545 -0.8025
  473MPD2    C5 7093   2.349   2.394  13.672 -0.0236  0.1024  0.0233
  473MPD2     H 7094   2.234   2.691  13.446  1.0476 -0.1171  0.3227
  473MPD2    H1 7095   2.386   2.532  13.825 -0.7413  2.3168 -0.8312
  473MPD2    H2 7096   2.317   2.269  13.530  0.2650 -0.3074 -0.7483
  473MPD2    H3 7097   2.363   2.307  13.735  0.3653  1.2322  1.5017
  473MPD2     N 7098   2.321   2.754  13.712 -0.2636 -0.8405 -0.0424
  473MPD2    H5 7099   2.350   2.746  13.808  1.0631 -0.7126 -0.4352
  473MPD2    N1 7100   2.223   2.451  13.327  0.2365  0.3599  0.2841
  473MPD2    H7 7101   2.189   2.533  13.277 -1.4751  0.2176  1.1893
  474TMC3    C1 7102   2.300   2.991  13.733 -0.3806  0.4193  0.6203
  474TMC3    C2 7103   2.236   3.104  13.697 -0.4065  0.1503  0.5288
  474TMC3    C3 7104   2.264   3.217  13.765 -0.6418 -0.4777  0.6483
  474TMC3    C4 7105   2.380   2.978  13.843  0.6958  0.3184  0.3126
  474TMC3    C5 7106   2.391   3.088  13.918 -0.2830  0.5574  0.4670
  474TMC3    C6 7107   2.335   3.207  13.886 -0.1962 -0.1346 -0.0501
  474TMC3     C 7108   2.285   2.874  13.651  0.2543 -0.0796 -0.2855
  474TMC3     O 7109   2.250   2.894  13.537 -0.2217  0.2423 -0.1061
  474TMC3     H 7110   2.155   3.089  13.626 -0.8654  2.6372  0.5247
  474TMC3    H1 7111   2.439   2.893  13.874 -1.1474 -2.1293 -2.8866
  474TMC3    H2 7112   2.343   3.292  13.953  0.8539 -0.6074  0.4171
  474TMC3    C7 7113   2.493   3.086  14.024 -0.2648  0.1254 -0.3231
  474TMC3    C8 7114   2.172   3.329  13.728  0.7733 -0.0471  1.1324
  474TMC3    O1 7115   2.600   3.043  13.990 -0.1486  0.2702 -0.4014
  474TMC3    O2 7116   2.066   3.295  13.679  0.1556  0.6746 -0.2965
  475MPD2     C 7117   4.322   1.142  11.107  0.2138 -0.0880 -0.6830
  475MPD2    C1 7118   4.342   1.224  11.000  0.7958  0.3475 -0.0837
  475MPD2    C2 7119   4.268   1.203  10.886 -0.5603  0.1064 -0.0023
  475MPD2    C3 7120   4.169   1.103  10.879  0.9034  0.0852  0.0327
  475MPD2    C4 7121   4.153   1.026  10.994 -0.3929  0.2887  0.5817
  475MPD2    C5 7122   4.224   1.045  11.106 -0.8561 -0.1993 -0.0682
  475MPD2     H 7123   4.282   1.263  10.796 -0.3808  2.1305  1.3818
  475MPD2    H1 7124   4.100   0.932  10.989 -1.6523  0.9373  1.7694
  475MPD2    H2 7125   4.364   1.162  11.205  0.1555 -4.0365  0.1501
  475MPD2    H3 7126   4.204   0.979  11.189  0.1788  2.3485  2.1785
  475MPD2     N 7127   4.094   1.086  10.759 -0.3736  0.3359  0.5995
  475MPD2    H5 7128   4.125   1.120  10.668  1.7000  1.7343  1.8248
  475MPD2    N1 7129   4.439   1.320  10.985  0.1762 -0.3680  0.5348
  475MPD2    H7 7130   4.459   1.345  10.889  3.3675 -1.6829  0.8686
  476TMC3    C1 7131   4.642   1.433  11.030 -0.5848 -0.1739  0.2143
  476TMC3    C2 7132   4.664   1.451  10.894  0.5739  0.6779 -0.7174
  476TMC3    C3 7133   0.048   1.503  10.853 -0.3065  0.4724  0.1632
  476TMC3    C4 7134   4.725   1.480  11.126  0.4731 -0.1715 -0.0620
  476TMC3    C5 7135   0.107   1.545  11.083  0.1620  0.3711  0.3745
  476TMC3    C6 7136   0.137   1.556  10.944 -0.2216  0.0830 -0.4529
  476TMC3     C 7137   4.529   1.361  11.080 -0.3775 -0.4051  0.2770
  476TMC3     O 7138   4.538   1.326  11.195 -0.4636  0.7352 -0.1334
  476TMC3     H 7139   4.591   1.414  10.824  1.3015 -2.7494  0.3680
  476TMC3    H1 7140   4.707   1.469  11.233 -0.4670 -1.7101 -0.3712
  476TMC3    H2 7141   0.232   1.593  10.906  0.0550  0.5193  0.6554
  476TMC3    C7 7142   0.186   1.598  11.189  0.2095 -0.1067 -0.7780
  476TMC3    C8 7143   0.108   1.459  10.732  0.3144  0.6514 -0.7149
  476TMC3    O1 7144   0.157   1.574  11.305 -0.1897 -0.2772 -0.3031
  476TMC3    O2 7145   0.211   1.512  10.698 -0.8304  0.0483  0.2968
  477MPD2     C 7146   3.258   2.577  11.581 -0.0790  0.0267 -0.0683
  477MPD2    C1 7147   3.173   2.492  11.508  0.2941 -0.2046  0.9029
  477MPD2    C2 7148   3.117   2.390  11.579  0.4206 -0.2218  0.6824
  477MPD2    C3 7149   3.156   2.362  11.713 -0.4986  0.6729  0.3281
  477MPD2    C4 7150   3.225   2.457  11.782  0.0904  0.6103  0.3301
  477MPD2    C5 7151   3.280   2.562  11.714  0.3633  0.4005  0.2756
  477MPD2     H 7152   3.055   2.317  11.528 -2.8910  2.8308  0.4029
  477MPD2    H1 7153   3.255   2.443  11.886  1.6439 -1.0691 -0.3455
  477MPD2    H2 7154   3.298   2.668  11.538  0.6559 -0.6942 -0.9207
  477MPD2    H3 7155   3.341   2.631  11.771 -0.3568 -0.1860  1.7461
  477MPD2     N 7156   3.108   2.244  11.769 -0.0568 -0.6199 -0.3355
  477MPD2    H5 7157   3.041   2.189  11.715  0.2265  0.6359 -1.9629
  477MPD2    N1 7158   3.134   2.533  11.376  0.3714 -0.2086 -0.0838
  477MPD2    H7 7159   3.189   2.610  11.339 -0.0141 -0.1315 -0.4956
  478TMC3    C1 7160   2.997   2.558  11.193  0.0957  0.2014  0.1528
  478TMC3    C2 7161   2.979   2.697  11.216  1.1873  0.2532 -0.5151
  478TMC3    C3 7162   2.883   2.765  11.145  0.0943  0.1818 -0.2958
  478TMC3    C4 7163   2.922   2.491  11.105  0.5791 -0.0132  0.1116
  478TMC3    C5 7164   2.831   2.566  11.031 -0.3196  0.4204 -0.0960
  478TMC3    C6 7165   2.812   2.703  11.044  0.7904  1.0693 -0.1008
  478TMC3     C 7166   3.039   2.467  11.301 -0.4976 -1.1568 -0.2889
  478TMC3     O 7167   2.968   2.372  11.319 -0.1990  0.5261  0.6576
  478TMC3     H 7168   3.035   2.746  11.295  2.0116 -2.4586  0.5737
  478TMC3    H1 7169   2.945   2.388  11.079 -0.9121 -0.5176  0.7685
  478TMC3    H2 7170   2.741   2.763  10.990 -0.4903 -1.1145 -0.8257
  478TMC3    C7 7171   2.762   2.485  10.935  1.1075 -0.0320 -0.2575
  478TMC3    C8 7172   2.894   2.909  11.147 -0.5146  0.2692  0.4519
  478TMC3    O1 7173   2.754   2.365  10.952 -0.3198 -0.0227  0.0315
  478TMC3    O2 7174   3.013   2.950  11.158 -0.1085  0.1880 -0.1933
  479MPD2     C 7175   2.016   0.119  15.041  0.2304 -0.1487  0.8057
  479MPD2    C1 7176   1.936   0.060  15.133  0.9053 -0.3497  0.2048
  479MPD2    C2 7177   1.921   0.118  15.255  0.6423  0.4709 -0.3589
  479MPD2    C3 7178   1.955   0.257  15.278 -0.6330 -0.6342  0.3245
  479MPD2    C4 7179   2.024   0.320  15.176 -0.3885  0.4643  0.6983
  479MPD2    C5 7180   2.074   0.239  15.075 -0.4086 -0.6854 -1.1366
  479MPD2     H 7181   1.883   0.050  15.331  3.1413 -1.8820 -1.2295
  479MPD2    H1 7182   2.075   0.414  15.194  1.3562 -0.5161  0.8841
  479MPD2    H2 7183   2.046   0.062  14.953  0.2173  1.5312 -0.2814
  479MPD2    H3 7184   2.143   0.275  14.999  0.1001  1.3710  0.3169
  479MPD2     N 7185   1.930   0.338  15.391 -0.0868 -0.0367 -0.1090
  479MPD2    H5 7186   1.976   0.428  15.386  0.9138 -0.6180 -1.1383
  479MPD2    N1 7187   1.870   4.677  15.101 -0.6874  0.2188  0.4261
  479MPD2    H7 7188   1.882   4.647  15.005  0.5999 -1.1314  1.0140
  480TMC3    C1 7189   1.631   0.050  15.625 -0.4749 -0.4419  0.2648
  480TMC3    C2 7190   1.540   0.046  15.520 -0.1466 -0.2240 -0.3605
  480TMC3    C3 7191   1.567   0.119  15.410  0.5071 -0.3041 -0.6421
  480TMC3    C4 7192   1.745   0.125  15.616  1.1813 -1.0730 -0.2412
  480TMC3    C5 7193   1.770   0.196  15.501 -0.5570  0.3794 -0.1478
  480TMC3    C6 7194   1.673   0.203  15.409  0.0483 -0.5808  0.4177
  480TMC3     C 7195   1.621   4.698  15.739 -0.0605 -0.1775 -0.0498
  480TMC3     O 7196   1.718   4.672  15.807 -0.3049  0.2019 -0.0707
  480TMC3     H 7197   1.455   4.714  15.519  0.0236 -0.4459  1.6310
  480TMC3    H1 7198   1.805   0.148  15.704 -1.1260 -0.7784  1.2506
  480TMC3    H2 7199   1.693   0.275  15.330  1.1259 -0.4177  0.8457
  480TMC3    C7 7200   1.867   0.305  15.508 -1.4942  0.6386 -0.6092
  480TMC3    C8 7201   1.503   0.089  15.283 -0.1154  0.7894 -0.1951
  480TMC3    O1 7202   1.871   0.365  15.612  0.3351  0.1889 -0.1611
  480TMC3    O2 7203   1.425   4.725  15.289  0.0204  0.1208 -0.4020
  481MPD2     C 7204   3.555   4.260  13.969 -0.7037 -0.2046 -0.3065
  481MPD2    C1 7205   3.437   4.201  13.987  0.0960  0.5611  0.9698
  481MPD2    C2 7206   3.429   4.111  14.090 -0.3667 -0.1197  0.6262
  481MPD2    C3 7207   3.538   4.087  14.183  0.3061 -0.1583 -0.5496
  481MPD2    C4 7208   3.652   4.166  14.166  0.1750 -0.0810 -0.4855
  481MPD2    C5 7209   3.659   4.244  14.052  0.3489 -0.8717 -0.1077
  481MPD2     H 7210   3.337   4.056  14.104 -1.4656  1.6154  0.2223
  481MPD2    H1 7211   3.735   4.167  14.235  0.6099 -1.0188 -0.9996
  481MPD2    H2 7212   3.570   4.325  13.883  0.0120  0.0590  0.0183
  481MPD2    H3 7213   3.751   4.296  14.027 -0.0285  1.8860  4.2206
  481MPD2     N 7214   3.517   4.018  14.310  0.7057 -0.3035  0.3667
  481MPD2    H5 7215   3.605   4.003  14.359  0.5252  1.5663  1.2442
  481MPD2    N1 7216   3.327   4.232  13.901 -0.0866  0.6145  0.0879
  481MPD2    H7 7217   3.343   4.284  13.816  1.0887 -1.6045 -1.0589
  482TMC3    C1 7218   3.117   4.256  13.808 -0.6797 -0.2408  0.1629
  482TMC3    C2 7219   3.010   4.194  13.771 -0.4967  0.1452 -0.0176
  482TMC3    C3 7220   2.939   4.225  13.660  0.2889 -0.2103 -0.7096
  482TMC3    C4 7221   3.173   4.353  13.726 -0.2540  0.2360  0.0283
  482TMC3    C5 7222   3.112   4.382  13.608  0.1205  0.7092  0.8406
  482TMC3    C6 7223   2.993   4.316  13.570 -0.2397  0.1796 -0.2708
  482TMC3     C 7224   3.190   4.209  13.920 -0.3093  0.7283  0.1702
  482TMC3     O 7225   3.139   4.136  14.004 -0.8647  0.6550  0.2844
  482TMC3     H 7226   2.986   4.110  13.836 -1.6335  2.0321  1.9942
  482TMC3    H1 7227   3.250   4.420  13.764  1.3866  0.2153 -3.2908
  482TMC3    H2 7228   2.929   4.362  13.496 -1.8238 -0.8727  0.4482
  482TMC3    C7 7229   3.139   4.515  13.543  0.0276  0.9212  0.0508
  482TMC3    C8 7230   2.842   4.121  13.625  0.1569  0.9207  0.1690
  482TMC3    O1 7231   3.199   4.596  13.618  0.1233 -0.1517 -0.2933
  482TMC3    O2 7232   2.812   4.042  13.714 -0.1998 -0.2400  1.0766
  483TMC3    C1 7233   1.288   3.000   0.937  0.2002 -0.0808 -0.0477
  483TMC3    C2 7234   1.311   3.129   0.962  0.5444 -0.1086 -0.2403
  483TMC3    C3 7235   1.414   3.146   1.049  0.2923  0.6794  0.0054
  483TMC3    C4 7236   1.340   2.893   1.007  0.0236  0.4705 -0.4687
  483TMC3    C5 7237   1.447   2.917   1.089 -0.2568  0.6688 -0.0083
  483TMC3    C6 7238   1.482   3.048   1.112  0.4221  0.3629 -0.3951
  483TMC3     C 7239   1.171   2.976   0.849 -0.0952  0.7245  0.8563
  483TMC3     O 7240   1.100   3.073   0.823 -0.2881  0.4475 -0.2475
  483TMC3     H 7241   1.273   3.210   0.900  2.0757  0.4857 -0.4115
  483TMC3    H1 7242   1.325   2.788   0.987  2.5218 -0.4093  2.2634
  483TMC3    H2 7243   1.567   3.077   1.173 -1.0512 -1.8104  2.6954
  483TMC3    C7 7244   1.515   2.806   1.143  0.2080 -0.1808 -0.1688
  483TMC3    C8 7245   1.462   3.272   1.074 -0.2835 -0.0803 -0.1931
  483TMC3    O1 7246   1.499   2.689   1.106  0.2205 -0.4210  0.7839
  483TMC3    O2 7247   1.404   3.363   1.133 -0.7241 -0.5097  0.2823
  484MPD2     C 7248   3.739   1.093  12.402 -0.4990 -0.1126  0.3141
  484MPD2    C1 7249   3.822   0.992  12.452 -0.2385 -0.2789 -0.4275
  484MPD2    C2 7250   3.961   1.004  12.453 -0.5635  0.5678 -0.6400
  484MPD2    C3 7251   4.016   1.124  12.409 -0.2069  0.5101  0.2221
  484MPD2    C4 7252   3.938   1.225  12.362 -0.3721  0.1853  0.1826
  484MPD2    C5 7253   3.804   1.211  12.359  0.1558 -0.6886  0.4338
  484MPD2     H 7254   4.030   0.928  12.486  0.9599  2.2794  0.0975
  484MPD2    H1 7255   3.978   1.320  12.328 -0.7308  0.4054  0.3766
  484MPD2    H2 7256   3.633   1.084  12.381 -0.4154  0.2574 -0.2674
  484MPD2    H3 7257   3.746   1.300  12.338  1.5106  0.0881 -0.0245
  484MPD2     N 7258   4.156   1.142  12.415 -0.0681  0.3456 -0.2866
  484MPD2    H5 7259   4.192   1.228  12.374 -0.5431  1.4140  1.5306
  484MPD2    N1 7260   3.765   0.862  12.488  0.4606 -0.1587  0.0216
  484MPD2    H7 7261   3.834   0.788  12.496  3.6284  2.4229 -3.1852
  485TMC3    C1 7262   4.389   1.118  12.448  0.1892  0.4326 -0.2669
  485TMC3    C2 7263   4.490   1.040  12.513  0.3177 -0.4322 -1.2416
  485TMC3    C3 7264   4.624   1.061  12.475  0.0710  0.1323 -0.4104
  485TMC3    C4 7265   4.410   1.185  12.335  0.6209 -0.4033  0.0310
  485TMC3    C5 7266   4.542   1.189  12.292 -0.1889 -0.0835  0.6803
  485TMC3    C6 7267   4.648   1.148  12.370 -0.3681  0.1882 -0.4418
  485TMC3     C 7268   4.255   1.065  12.474  0.3304  0.2340  0.2126
  485TMC3     O 7269   4.250   0.962  12.528 -0.3775 -0.4704 -0.0460
  485TMC3     H 7270   4.466   0.976  12.597  1.3344  0.0617 -0.5791
  485TMC3    H1 7271   4.333   1.205  12.262 -0.3924  2.4749  1.9058
  485TMC3    H2 7272   0.012   1.146  12.329 -1.0729 -0.5036 -2.1425
  485TMC3    C7 7273   4.556   1.162  12.150 -0.7534  0.3880  0.2568
  485TMC3    C8 7274   4.712   0.949  12.463 -0.0668 -0.2368  0.4845
  485TMC3    O1 7275   4.475   1.216  12.079  0.4224  0.7380  0.4852
  485TMC3    O2 7276   0.055   0.936  12.369  0.3265 -0.4495 -0.2326
  486MPD2     C 7277   1.323   4.629  12.706 -0.2716  0.6066 -0.3467
  486MPD2    C1 7278   1.287   4.567  12.589 -0.8242 -0.2571 -0.2882
  486MPD2    C2 7279   1.171   4.608  12.518  0.3815  0.8377 -0.4062
  486MPD2    C3 7280   1.094   4.709  12.568 -0.1075 -0.3043 -0.3467
  486MPD2    C4 7281   1.130   0.033  12.682 -0.0595  0.4539  0.2099
  486MPD2    C5 7282   1.245   4.732  12.745  0.1809  0.5771  0.5592
  486MPD2     H 7283   1.144   4.566  12.422  1.8242 -0.7566 -0.1222
  486MPD2    H1 7284   1.083   0.125  12.715 -1.4184 -0.9891  2.3175
  486MPD2    H2 7285   1.400   4.599  12.776  0.4410  0.4262 -1.2180
  486MPD2    H3 7286   1.283   0.061  12.823  1.4821  0.1528  0.2752
  486MPD2     N 7287   0.979   0.016  12.501  0.0187 -0.1601  0.1912
  486MPD2    H5 7288   0.954   4.708  12.413 -1.3001  0.7711  0.0931
  486MPD2    N1 7289   1.376   4.471  12.540 -0.3894 -0.0109 -0.1904
  486MPD2    H7 7290   1.469   4.464  12.582 -0.8768  2.6375  1.3109
  487TMC3    C1 7291   1.458   4.271  12.448 -0.5048 -0.0286 -0.7207
  487TMC3    C2 7292   1.423   4.157  12.377 -0.4450 -0.0600 -0.0271
  487TMC3    C3 7293   1.518   4.060  12.379  0.0783 -0.1837 -0.0750
  487TMC3    C4 7294   1.583   4.289  12.514 -0.2690 -0.1373  0.5660
  487TMC3    C5 7295   1.664   4.185  12.499  0.2280  0.4876  0.4529
  487TMC3    C6 7296   1.647   4.079  12.417 -0.7145  0.2289 -0.8912
  487TMC3     C 7297   1.353   4.375  12.446  0.4086 -0.0087 -0.7907
  487TMC3     O 7298   1.257   4.361  12.375  0.1481 -0.2788 -0.2451
  487TMC3     H 7299   1.330   4.144  12.323 -0.7120  1.4867  0.0468
  487TMC3    H1 7300   1.608   4.385  12.558  2.2416 -0.0570 -1.0850
  487TMC3    H2 7301   1.716   3.996  12.410 -2.0677 -0.9532 -0.1371
  487TMC3    C7 7302   1.724   4.149  12.627  0.6474 -0.3037  0.2824
  487TMC3    C8 7303   1.466   3.951  12.460  0.2159  0.4269  1.0884
  487TMC3    O1 7304   1.684   4.198  12.730 -0.0822 -0.0265  0.4314
  487TMC3    O2 7305   1.362   3.976  12.516  0.4410 -0.4172  0.3131
  488MPD2     C 7306   1.295   1.493  16.094  0.4690  0.6563  0.2250
  488MPD2    C1 7307   1.375   1.595  16.152  0.3016 -0.0162  0.2330
  488MPD2    C2 7308   1.421   1.571  16.275 -0.2715 -0.2711 -0.3395
  488MPD2    C3 7309   1.376   1.471  16.356  0.0768  0.1951 -0.6674
  488MPD2    C4 7310   1.278   1.388  16.305 -0.3329  0.0480 -0.5801
  488MPD2    C5 7311   1.239   1.395  16.173 -0.3921  0.3313 -0.2865
  488MPD2     H 7312   1.491   1.641  16.320 -1.5290  0.6289  0.2283
  488MPD2    H1 7313   1.237   1.307  16.364  0.4769 -0.4335 -0.6725
  488MPD2    H2 7314   1.258   1.498  15.992  1.5980  0.1073 -0.2100
  488MPD2    H3 7315   1.163   1.329  16.132 -0.4775  2.7121 -3.9914
  488MPD2     N 7316   1.424   1.470  16.491  0.3724  0.5517  0.4236
  488MPD2    H5 7317   1.480   1.550  16.517 -0.0775  1.4670 -1.4331
  488MPD2    N1 7318   1.422   1.711  16.086 -0.0585 -0.0682  0.0966
  488MPD2    H7 7319   1.489   1.769  16.134 -1.1824  1.3487 -0.0665
  489TMC3    C1 7320   1.411   1.417  16.723 -0.2524  0.9315 -0.3252
  489TMC3    C2 7321   1.434   1.548  16.744  0.0909 -0.5797  0.0620
  489TMC3    C3 7322   1.452   1.595  16.874  0.7693  0.1611  0.0892
  489TMC3    C4 7323   1.404   1.331  16.827 -0.5421  0.6201 -0.1234
  489TMC3    C5 7324   1.431   1.380  16.951  0.0623 -0.6289 -0.0396
  489TMC3    C6 7325   1.468   1.507  16.973  0.3989  0.5457 -0.3053
  489TMC3     C 7326   1.388   1.375  16.588 -0.1246  0.5056 -0.7281
  489TMC3     O 7327   1.321   1.278  16.566  0.4927  0.3255 -0.5868
  489TMC3     H 7328   1.438   1.623  16.666 -0.5919 -0.7706 -0.1497
  489TMC3    H1 7329   1.386   1.226  16.813  2.3782  0.1097 -0.0842
  489TMC3    H2 7330   1.491   1.554  17.068 -0.1035 -0.5496  0.3523
  489TMC3    C7 7331   1.419   1.299  17.067  0.3169  0.2142  0.6052
  489TMC3    C8 7332   1.492   1.727  16.882 -0.2876  0.0983  0.2540
  489TMC3    O1 7333   1.449   1.360  17.168  0.0858 -0.2622 -0.1874
  489TMC3    O2 7334   1.551   1.778  16.787  0.6205 -0.5938 -0.0564
  490MPD2     C 7335   2.311   1.378  16.865 -0.2312 -0.0574  0.3591
  490MPD2    C1 7336   2.340   1.285  16.967  0.3859 -0.2049 -0.2473
  490MPD2    C2 7337   2.465   1.287  17.028 -0.1881  0.1881  0.5390
  490MPD2    C3 7338   2.567   1.364  16.978 -0.1630  0.3223 -0.2527
  490MPD2    C4 7339   2.539   1.446  16.869 -0.9294 -0.1718 -0.6876
  490MPD2    C5 7340   2.407   1.458  16.817 -0.8179  0.2341 -0.0349
  490MPD2     H 7341   2.479   1.220  17.112 -4.6145  0.0762  1.1898
  490MPD2    H1 7342   2.616   1.517  16.838 -0.4974 -1.2639 -2.1024
  490MPD2    H2 7343   2.216   1.387  16.815  0.9915  1.6346 -1.6678
  490MPD2    H3 7344   2.385   1.531  16.740  0.2060  0.1694 -0.3824
  490MPD2     N 7345   2.696   1.363  17.031 -0.4041 -0.6262  0.3751
  490MPD2    H5 7346   2.767   1.401  16.970 -3.8790  1.2698 -2.4830
  490MPD2    N1 7347   2.242   1.199  17.022  0.2074 -0.1807 -0.1517
  490MPD2    H7 7348   2.279   1.120  17.074  1.3688  1.9120  2.2066
  491TMC3    C1 7349   2.041   1.068  17.022 -0.1766  0.4107  0.6731
  491TMC3    C2 7350   2.088   1.028  17.142 -0.1752 -0.8403  0.2617
  491TMC3    C3 7351   2.079   0.892  17.170 -0.0588 -0.4878 -0.0956
  491TMC3    C4 7352   1.986   0.991  16.923  0.3488 -0.8025 -0.1791
  491TMC3    C5 7353   1.976   0.859  16.957  0.7266 -0.2699 -0.5101
  491TMC3    C6 7354   2.031   0.808  17.076  0.6127 -0.6274 -0.1624
  491TMC3     C 7355   2.104   1.190  16.981 -0.5970  0.0730  0.2831
  491TMC3     O 7356   2.046   1.263  16.902 -0.1346 -0.0284 -0.4206
  491TMC3     H 7357   2.123   1.104  17.211  2.1557 -0.0595 -1.8194
  491TMC3    H1 7358   1.979   1.031  16.822 -0.1798  0.4485  0.3606
  491TMC3    H2 7359   2.020   0.702  17.092 -0.7389 -0.7705 -2.1234
  491TMC3    C7 7360   1.886   0.785  16.871 -0.0251  0.8771 -0.1938
  491TMC3    C8 7361   2.091   0.858  17.310  0.2195 -0.3710  0.0927
  491TMC3    O1 7362   1.906   0.665  16.853  0.6537 -0.1235 -0.1966
  491TMC3    O2 7363   2.028   0.766  17.363  0.7890  0.5993  0.3763
  492MPD2     C 7364   2.359   1.475  10.631  0.7276  0.6615 -0.1934
  492MPD2    C1 7365   2.274   1.367  10.617  0.2149  0.2671  0.0290
  492MPD2    C2 7366   2.267   1.275  10.719 -0.6152  0.2288 -0.6318
  492MPD2    C3 7367   2.363   1.275  10.822 -0.0562 -0.3508  0.0584
  492MPD2    C4 7368   2.441   1.388  10.832 -0.1096  0.1933 -0.0957
  492MPD2    C5 7369   2.429   1.492  10.743 -0.1618  0.4879  0.5344
  492MPD2     H 7370   2.201   1.190  10.708  0.5063 -0.8267  0.7561
  492MPD2    H1 7371   2.516   1.391  10.911 -0.1263  0.3675 -0.0877
  492MPD2    H2 7372   2.370   1.541  10.546 -2.6537 -1.3737 -2.2329
  492MPD2    H3 7373   2.493   1.579  10.754  0.9208  0.0752 -2.6339
  492MPD2     N 7374   2.399   1.170  10.908 -0.2230  0.1163 -0.3378
  492MPD2    H5 7375   2.477   1.185  10.971 -1.5347  2.0905  0.8002
  492MPD2    N1 7376   2.182   1.369  10.508 -0.6044  0.5500 -0.4196
  492MPD2    H7 7377   2.198   1.442  10.440  2.4307 -0.1426 -0.4768
  493TMC3    C1 7378   2.023   1.274  10.349 -0.6893  0.5167  0.2563
  493TMC3    C2 7379   2.097   1.318  10.244  0.1436  0.4969 -0.2042
  493TMC3    C3 7380   2.047   1.290  10.116  0.3087  0.3806  0.3706
  493TMC3    C4 7381   1.913   1.204  10.334  0.0514 -0.2053  0.2336
  493TMC3    C5 7382   1.871   1.167  10.211  0.8311  0.4781 -1.0275
  493TMC3    C6 7383   1.940   1.207  10.102 -0.3416  0.0750 -0.1235
  493TMC3     C 7384   2.080   1.282  10.485  0.3385 -0.3881 -0.2332
  493TMC3     O 7385   2.035   1.193  10.556  0.0007 -0.2965 -0.0911
  493TMC3     H 7386   2.197   1.360  10.253  0.1941  0.6066 -1.2637
  493TMC3    H1 7387   1.852   1.172  10.418 -0.6170  0.2588 -0.0825
  493TMC3    H2 7388   1.903   1.179  10.004 -0.9131 -0.3549  0.2126
  493TMC3    C7 7389   1.742   1.101  10.200 -0.4627  0.3491 -0.6278
  493TMC3    C8 7390   2.116   1.327   9.998 -0.0091  0.3165 -0.6949
  493TMC3    O1 7391   1.688   1.114  10.086  0.4315  0.0354  0.1501
  493TMC3    O2 7392   2.082   1.271   9.894  0.5139  0.5693 -0.5442
  494TMC3    C1 7393   2.701   2.658   0.089  0.5060 -0.1122 -0.3868
  494TMC3    C2 7394   2.783   2.564   0.148  0.4693 -0.0437 -0.3306
  494TMC3    C3 7395   2.915   2.602   0.172  0.3315  0.6004  0.0192
  494TMC3    C4 7396   2.742   2.785   0.052 -0.5274  0.4210 -0.0004
  494TMC3    C5 7397   2.866   2.815   0.082  0.3119  0.5560  1.1255
  494TMC3    C6 7398   2.957   2.731   0.141  0.5426 -0.3846 -0.0554
  494TMC3     C 7399   2.556   2.634   0.072  0.2281 -0.1134 -0.1672
  494TMC3     O 7400   2.483   2.726   0.108  0.2053  0.4858  0.2822
  494TMC3     H 7401   2.737   2.474   0.185 -0.2918  0.6557  0.4232
  494TMC3    H1 7402   2.678   2.851  17.738 -0.6141 -0.4290 -0.8832
  494TMC3    H2 7403   3.061   2.759   0.153 -0.9093  4.0644  2.0835
  494TMC3    C7 7404   2.930   2.919   0.005 -0.0406 -0.6969  0.2264
  494TMC3    C8 7405   3.013   2.511   0.216 -0.0788  0.0233 -0.1426
  494TMC3    O1 7406   3.053   2.911  17.738 -0.4205 -0.5931  0.1126
  494TMC3    O2 7407   3.123   2.523   0.168 -0.2155 -0.1037  0.4741
  495TMC3    C1 7408   2.112   0.298  14.534  0.7792 -0.2280 -0.6399
  495TMC3    C2 7409   2.062   0.352  14.417 -0.8251  0.1554  0.7533
  495TMC3    C3 7410   1.922   0.370  14.402 -0.3210 -0.2230 -0.1083
  495TMC3    C4 7411   2.026   0.246  14.626  0.6700  0.6084 -0.0082
  495TMC3    C5 7412   1.891   0.267  14.614 -0.1573 -0.1584 -0.4264
  495TMC3    C6 7413   1.839   0.325  14.504 -0.1367  0.9645  0.1152
  495TMC3     C 7414   2.217   0.209  14.498 -0.2765 -0.4713 -0.2193
  495TMC3     O 7415   2.189   0.090  14.508 -0.3453  0.3076  0.3430
  495TMC3     H 7416   2.128   0.367  14.332 -2.4323  0.4618 -0.4314
  495TMC3    H1 7417   2.070   0.208  14.718  0.6272 -1.7102 -0.9500
  495TMC3    H2 7418   1.732   0.340  14.497 -0.2813 -0.5433 -0.6549
  495TMC3    C7 7419   1.806   0.250  14.729  0.0643  0.7190 -0.4298
  495TMC3    C8 7420   1.859   0.329  14.278 -0.0832 -0.1963 -0.4125
  495TMC3    O1 7421   1.868   0.277  14.831 -0.1239  0.7151  0.1930
  495TMC3    O2 7422   1.741   0.308  14.283 -0.3077  0.3929  0.6242
  496MPD2     C 7423   3.688   4.591  14.759 -0.1079 -0.1699  0.0468
  496MPD2    C1 7424   3.697   4.513  14.874 -0.3454 -0.7275 -0.5502
  496MPD2    C2 7425   3.577   4.488  14.943  0.2476 -0.1606  0.0721
  496MPD2    C3 7426   3.458   4.524  14.882 -0.1661 -0.4911 -0.0950
  496MPD2    C4 7427   3.454   4.596  14.763  0.0901  0.6154  1.3057
  496MPD2    C5 7428   3.570   4.636  14.714  0.1181 -0.0653  0.7533
  496MPD2     H 7429   3.575   4.434  15.037 -0.8653 -0.4994 -0.1586
  496MPD2    H1 7430   3.360   4.639  14.730 -1.0523 -0.5803  3.0520
  496MPD2    H2 7431   3.775   4.618  14.700  0.3724  0.3562  1.0042
  496MPD2    H3 7432   3.571   4.697  14.624  0.9322 -0.1638  0.6889
  496MPD2     N 7433   3.344   4.497  14.949 -0.1318  0.0312  0.2444
  496MPD2    H5 7434   3.350   4.466  15.045 -1.4115 -0.2054  0.2378
  496MPD2    N1 7435   3.820   4.465  14.916 -0.1009 -0.0090 -0.1573
  496MPD2    H7 7436   3.892   4.470  14.844 -1.2085  2.4785 -1.1012
  497TMC3    C1 7437   3.123   4.468  14.996 -0.2741  0.0004 -0.9718
  497TMC3    C2 7438   3.046   4.355  14.997 -0.4088 -0.6011 -0.4185
  497TMC3    C3 7439   2.962   4.328  15.097  0.5258  1.0846 -0.1427
  497TMC3    C4 7440   3.106   4.558  15.094  0.5124 -0.0833  0.2521
  497TMC3    C5 7441   3.013   4.534  15.186 -0.2157 -0.1244  0.0498
  497TMC3    C6 7442   2.938   4.426  15.184 -0.0005  0.0950 -0.0865
  497TMC3     C 7443   3.215   4.491  14.887 -1.1887 -0.4751  0.6242
  497TMC3     O 7444   3.194   4.457  14.772  0.7918  0.2370 -0.5962
  497TMC3     H 7445   3.073   4.280  14.923  0.9581 -0.7562  0.2340
  497TMC3    H1 7446   3.158   4.653  15.096  0.5292 -0.0435 -2.6299
  497TMC3    H2 7447   2.854   4.414  15.251 -0.5603 -1.1689 -1.0225
  497TMC3    C7 7448   2.974   4.625  15.295 -0.4985 -0.1563  1.1257
  497TMC3    C8 7449   2.901   4.197  15.103 -0.1864  0.3134  0.2141
  497TMC3    O1 7450   2.855   4.626  15.310 -0.1620  0.0953 -0.0429
  497TMC3    O2 7451   2.874   4.153  14.995  0.3172  1.0111  0.4167
  498MPD2     C 7452   3.916   0.806   9.762  0.2498 -0.1581 -0.0963
  498MPD2    C1 7453   3.944   0.782   9.893  0.0401 -0.6037 -0.5937
  498MPD2    C2 7454   3.850   0.727   9.970 -0.0946 -0.2184  0.3321
  498MPD2    C3 7455   3.727   0.689   9.924 -0.3090 -0.1574 -0.0531
  498MPD2    C4 7456   3.712   0.690   9.787  0.2882  0.3498 -0.2487
  498MPD2    C5 7457   3.803   0.758   9.710  0.1852  0.2926 -0.1280
  498MPD2     H 7458   3.870   0.702  10.074 -2.6050 -0.6565  0.6929
  498MPD2    H1 7459   3.637   0.637   9.729  0.9563 -0.1563 -0.6389
  498MPD2    H2 7460   3.985   0.852   9.692 -0.8603  1.1134 -0.3489
  498MPD2    H3 7461   3.782   0.765   9.604  1.0958 -0.2253 -0.3483
  498MPD2     N 7462   3.637   0.623  10.013 -0.0322  0.3534  0.0883
  498MPD2    H5 7463   3.668   0.623  10.110  0.6766  0.0255 -0.1326
  498MPD2    N1 7464   4.068   0.815   9.948  0.0751  1.3820 -0.2874
  498MPD2    H7 7465   4.089   0.785  10.043 -1.5125  1.4644  0.0835
  499TMC3    C1 7466   4.310   0.822   9.925 -0.6102  0.6036  0.3235
  499TMC3    C2 7467   4.326   0.744  10.036  0.2333  0.3095 -0.0791
  499TMC3    C3 7468   4.453   0.710  10.078  0.8233 -0.1785 -0.2157
  499TMC3    C4 7469   4.416   0.882   9.861 -0.0309 -0.0307  0.6675
  499TMC3    C5 7470   4.540   0.862   9.911  0.6561  0.3564  0.5443
  499TMC3    C6 7471   4.563   0.768  10.015  0.3629  0.7904 -0.0648
  499TMC3     C 7472   4.179   0.853   9.877  0.3061  0.0002  0.6477
  499TMC3     O 7473   4.184   0.910   9.764  0.2181 -0.3319 -0.1120
  499TMC3     H 7474   4.247   0.704  10.097  0.0048  0.1944 -0.4513
  499TMC3    H1 7475   4.402   0.957   9.783 -1.8341  0.6524  1.6485
  499TMC3    H2 7476   4.659   0.742  10.057 -0.9547 -2.1376  1.1216
  499TMC3    C7 7477   4.653   0.947   9.873  0.1948  0.5518  0.3799
  499TMC3    C8 7478   4.468   0.608  10.179 -0.6517 -0.7550 -0.5038
  499TMC3    O1 7479   4.628   1.024   9.785 -0.7220  0.1087  0.2598
  499TMC3    O2 7480   4.377   0.601  10.261 -0.3079  0.1512  0.1471
  500MPD2     C 7481   1.587   2.082  10.763  0.7361  1.1225 -0.0108
  500MPD2    C1 7482   1.639   2.081  10.635  0.4353  0.0200  0.2189
  500MPD2    C2 7483   1.558   2.068  10.524  0.1557  0.1184  0.8288
  500MPD2    C3 7484   1.421   2.048  10.550 -0.0833  0.1438 -0.3510
  500MPD2    C4 7485   1.370   2.047  10.680 -0.1438 -0.0304 -0.8222
  500MPD2    C5 7486   1.453   2.054  10.786  0.0626  0.0526  0.9014
  500MPD2     H 7487   1.594   2.055  10.423 -0.8552 -1.0580  0.6147
  500MPD2    H1 7488   1.263   2.038  10.688 -0.2003  1.2060 -0.2851
  500MPD2    H2 7489   1.652   2.081  10.851  4.1526  0.3394 -2.5421
  500MPD2    H3 7490   1.407   2.069  10.883 -0.0955 -0.4232  0.8979
  500MPD2     N 7491   1.335   2.046  10.445 -0.1201 -0.7677 -0.0453
  500MPD2    H5 7492   1.239   2.030  10.476  0.1162  1.5310  1.9657
  500MPD2    N1 7493   1.777   2.088  10.608 -0.3072 -0.5294 -0.0020
  500MPD2    H7 7494   1.801   2.082  10.510  1.8014  0.9178  0.4380
  501TMC3    C1 7495   2.004   2.085  10.642  0.3547 -0.6703 -0.5407
  501TMC3    C2 7496   2.011   2.073  10.507 -0.6677  0.1839  0.0045
  501TMC3    C3 7497   2.132   2.028  10.454  0.4493 -0.3665 -0.1284
  501TMC3    C4 7498   2.110   2.066  10.730  1.0450  0.3180  0.1645
  501TMC3    C5 7499   2.227   2.015  10.672  0.1754 -0.2381  0.3265
  501TMC3    C6 7500   2.239   2.000  10.536 -0.0038  0.1173  0.1200
  501TMC3     C 7501   1.877   2.111  10.696 -0.6864 -0.5287  0.1476
  501TMC3     O 7502   1.870   2.120  10.816  0.0586  0.1648  0.1977
  501TMC3     H 7503   1.938   2.112  10.439 -0.6858 -0.1465 -0.1675
  501TMC3    H1 7504   2.102   2.077  10.837  0.9432  1.2994  0.0603
  501TMC3    H2 7505   2.328   1.948  10.500  1.0344  0.9842  1.4172
  501TMC3    C7 7506   2.249   1.889  10.727  0.4043 -0.3055 -0.2992
  501TMC3    C8 7507   2.171   2.120  10.346 -0.4694 -0.2220  0.0013
  501TMC3    O1 7508   2.249   1.798  10.646 -0.6204  0.5236  0.1616
  501TMC3    O2 7509   2.282   2.168  10.359  0.8227 -0.1787 -0.5325
  502TMC3    C1 7510   1.567   1.134  14.999  0.3831 -0.8063 -0.3925
  502TMC3    C2 7511   1.523   1.248  14.940 -0.1072 -0.1842 -0.1210
  502TMC3    C3 7512   1.406   1.245  14.873  0.2227 -0.2194 -0.3862
  502TMC3    C4 7513   1.479   1.025  15.005  0.0408  0.4822 -0.3698
  502TMC3    C5 7514   1.356   1.027  14.948 -0.3470 -0.0110  0.0793
  502TMC3    C6 7515   1.319   1.138  14.874 -0.7340  0.5739  0.3921
  502TMC3     C 7516   1.612   1.157  15.134 -0.5805 -0.0872 -0.4671
  502TMC3     O 7517   1.715   1.216  15.146  0.4144  0.3109 -0.3061
  502TMC3     H 7518   1.570   1.346  14.945 -1.1497  0.3090  0.0165
  502TMC3    H1 7519   1.520   0.937  15.055  1.7061  0.9412 -0.9247
  502TMC3    H2 7520   1.239   1.132  14.802  0.1070  2.7655 -0.7258
  502TMC3    C7 7521   1.264   0.923  15.001 -0.0305  0.2695  0.0036
  502TMC3    C8 7522   1.362   1.371  14.810 -0.7217 -0.4719  0.5481
  502TMC3    O1 7523   1.314   0.835  15.068 -0.2025  0.1862 -0.0173
  502TMC3    O2 7524   1.439   1.469  14.808 -0.4801 -0.2010  0.3575
  503MPD2     C 7525   3.556   1.650  16.873 -0.1531  0.3782 -0.3922
  503MPD2    C1 7526   3.611   1.740  16.965 -0.2777 -0.4401 -0.3879
  503MPD2    C2 7527   3.695   1.684  17.059 -0.3796  0.5416 -0.0302
  503MPD2    C3 7528   3.727   1.549  17.070 -0.4169  0.6214 -0.4209
  503MPD2    C4 7529   3.668   1.461  16.976  0.1176 -0.1935  0.1540
  503MPD2    C5 7530   3.584   1.518  16.884  0.2234 -0.5349 -0.2980
  503MPD2     H 7531   3.746   1.754  17.124 -2.3668  0.3213  1.7512
  503MPD2    H1 7532   3.690   1.355  16.968 -3.2062 -0.9269  0.5575
  503MPD2    H2 7533   3.484   1.675  16.795 -0.5334 -4.6317 -1.6595
  503MPD2    H3 7534   3.532   1.443  16.826 -0.5369  0.5279 -1.0065
  503MPD2     N 7535   3.821   1.505  17.163 -0.3174  0.4671  0.5102
  503MPD2    H5 7536   3.874   1.570  17.219  0.4033 -0.3071  0.7270
  503MPD2    N1 7537   3.584   1.875  16.974 -0.2600 -0.1050 -1.0644
  503MPD2    H7 7538   3.624   1.923  17.055 -1.0287  2.6513 -2.3002
  504TMC3    C1 7539   3.910   1.354  17.330 -0.1326 -0.1271  0.3074
  504TMC3    C2 7540   3.878   1.255  17.414 -0.1818 -0.1284 -0.0214
  504TMC3    C3 7541   3.973   1.224  17.511 -0.1333  0.2838  0.3419
  504TMC3    C4 7542   4.038   1.412  17.325  0.6300 -0.4041 -0.7663
  504TMC3    C5 7543   4.133   1.357  17.406  0.0792  0.1924  0.8664
  504TMC3    C6 7544   4.104   1.260  17.501  0.2152 -0.8201 -0.1212
  504TMC3     C 7545   3.817   1.379  17.221  0.3382 -0.3437  0.2382
  504TMC3     O 7546   3.738   1.287  17.202  0.1394  0.3090 -0.1806
  504TMC3     H 7547   3.787   1.196  17.405  0.2614 -0.8024 -0.0623
  504TMC3    H1 7548   4.058   1.481  17.243  1.2530  0.4009  0.0687
  504TMC3    H2 7549   4.173   1.220  17.575 -0.9301 -0.5297  1.1121
  504TMC3    C7 7550   4.265   1.351  17.343  0.2420 -0.5807  0.3821
  504TMC3    C8 7551   3.964   1.103  17.588 -0.2673  0.2018  0.3819
  504TMC3    O1 7552   4.294   1.428  17.253 -0.1736 -0.3208  0.3693
  504TMC3    O2 7553   3.882   1.024  17.547 -0.0244  0.2925 -0.3343
  505MPD2     C 7554   2.761   4.715  10.860 -0.1507 -0.0711 -0.4116
  505MPD2    C1 7555   2.763   4.586  10.802  0.3242  0.5946 -0.2275
  505MPD2    C2 7556   2.868   4.504  10.836  0.1107 -0.6883 -0.4340
  505MPD2    C3 7557   2.964   4.545  10.928  0.0641  0.0242  0.3282
  505MPD2    C4 7558   2.950   4.667  10.986  0.0824 -0.4594 -0.1891
  505MPD2    C5 7559   2.846   0.011  10.954 -0.4441  0.0107 -0.1945
  505MPD2     H 7560   2.887   4.410  10.786 -0.2490 -0.6790 -0.5874
  505MPD2    H1 7561   3.020   4.701  11.061 -1.0817  0.1048  0.6317
  505MPD2    H2 7562   2.680   0.043  10.826  0.8245  1.3064 -0.1370
  505MPD2    H3 7563   2.849   0.105  11.007 -0.6004  1.0705 -2.0666
  505MPD2     N 7564   3.084   4.468  10.932 -0.1002  0.4433 -0.0263
  505MPD2    H5 7565   3.080   4.386  10.873 -2.1123  0.2546  0.3401
  505MPD2    N1 7566   2.675   4.558  10.696 -0.1393  0.0971 -0.0616
  505MPD2    H7 7567   2.615   4.635  10.668 -2.4791 -1.8669 -0.4838
  506TMC3    C1 7568   2.587   4.433  10.509 -0.0882 -0.0360  0.5014
  506TMC3    C2 7569   2.595   4.533  10.415 -0.9017 -0.3019 -0.0863
  506TMC3    C3 7570   2.570   4.505  10.282  0.1612 -0.3912 -0.5409
  506TMC3    C4 7571   2.563   4.303  10.470  0.2448 -0.0441  0.0843
  506TMC3    C5 7572   2.563   4.279  10.336 -0.1857 -0.2414 -0.0088
  506TMC3    C6 7573   2.548   4.374  10.243 -0.0763  0.4821 -0.6020
  506TMC3     C 7574   2.677   4.437  10.628  0.0229 -0.2792  0.1366
  506TMC3     O 7575   2.729   4.330  10.656 -0.2920 -0.2886  0.1135
  506TMC3     H 7576   2.613   4.635  10.445  0.0197  0.2017 -2.3476
  506TMC3    H1 7577   2.566   4.228  10.548 -1.1296  1.7257  1.8674
  506TMC3    H2 7578   2.517   4.348  10.143 -0.8352 -0.4256 -0.1362
  506TMC3    C7 7579   2.667   4.180  10.300  0.4212 -0.2415  0.1316
  506TMC3    C8 7580   2.620   4.590  10.180  0.2943  0.5456 -0.4314
  506TMC3    O1 7581   2.669   4.122  10.191 -0.6072  0.0604  0.5407
  506TMC3    O2 7582   2.567   4.584  10.074 -0.3881 -0.5182 -0.0491
  507TMC3    C1 7583   4.676   1.033  14.828 -0.0269  0.9539  0.3299
  507TMC3    C2 7584   4.628   0.957  14.727 -0.3513 -0.3028 -0.0844
  507TMC3    C3 7585   4.612   1.012  14.607  0.2380  0.1785  0.1997
  507TMC3    C4 7586   4.714   1.162  14.813 -0.4744  0.2218  0.5967
  507TMC3    C5 7587   4.707   1.212  14.691  0.7005 -0.0138 -0.0763
  507TMC3    C6 7588   4.667   1.135  14.583  0.0593 -0.2235 -0.0243
  507TMC3     C 7589   4.706   0.965  14.953  0.4787  0.9154 -0.2007
  507TMC3     O 7590   4.717   0.847  14.948  0.0955  0.2490 -0.3881
  507TMC3     H 7591   4.572   0.870  14.761 -1.2449  0.4848  0.4342
  507TMC3    H1 7592   0.003   1.217  14.903 -1.5787 -0.5966  1.4085
  507TMC3    H2 7593   4.669   1.184  14.486  3.6697 -2.3447 -1.0464
  507TMC3    C7 7594   4.658   1.344  14.677  0.2569 -0.2202  0.3994
  507TMC3    C8 7595   4.482   0.997  14.550 -0.0135 -0.6234 -0.7010
  507TMC3    O1 7596   4.581   1.366  14.584 -0.2425 -0.7477 -0.4437
  507TMC3    O2 7597   4.423   0.895  14.579 -1.0661  0.3841 -0.0326
  508MPD2     C 7598   0.494   3.589  16.019  0.0775  0.0055 -0.1121
  508MPD2    C1 7599   0.539   3.715  15.994  0.5354 -0.2271  0.8278
  508MPD2    C2 7600   0.545   3.755  15.859  0.7976  0.0925  0.2033
  508MPD2    C3 7601   0.512   3.674  15.755  0.0467  0.4157  0.1612
  508MPD2    C4 7602   0.473   3.545  15.780 -0.6486 -0.3754 -0.8484
  508MPD2    C5 7603   0.466   3.506  15.912 -0.1770  0.5531  0.2177
  508MPD2     H 7604   0.573   3.857  15.834 -0.2076 -0.1398 -1.8852
  508MPD2    H1 7605   0.452   3.476  15.700  0.2789 -2.4372  0.6956
  508MPD2    H2 7606   0.508   3.553  16.120  0.2858 -2.2824 -0.9623
  508MPD2    H3 7607   0.421   3.412  15.942  1.6814  0.0383  1.3843
  508MPD2     N 7608   0.528   3.716  15.619  0.4034  1.1735 -0.1138
  508MPD2    H5 7609   0.582   3.801  15.610 -2.2710  2.7925 -1.1384
  508MPD2    N1 7610   0.575   3.788  16.111 -0.0582  0.1766 -0.3327
  508MPD2    H7 7611   0.557   3.751  16.204  0.7019  0.4135 -0.0864
  509TMC3    C1 7612   0.475   3.770  15.159 -0.0124 -0.4474  0.2045
  509TMC3    C2 7613   0.610   3.801  15.145  1.0393 -0.3825 -0.2311
  509TMC3    C3 7614   0.690   3.795  15.251 -0.0692 -0.4426  1.1091
  509TMC3    C4 7615   0.425   3.725  15.280 -0.6520  0.6362  0.4574
  509TMC3    C5 7616   0.510   3.726  15.388  0.2515 -0.0065  0.6218
  509TMC3    C6 7617   0.645   3.757  15.380  0.7138  0.4255 -0.2659
  509TMC3     C 7618   0.375   3.808  15.061  0.4723 -0.3498  0.1683
  509TMC3     O 7619   0.259   3.777  15.092 -0.3561  0.4738 -0.6030
  509TMC3     H 7620   0.658   3.815  15.049 -0.9477  0.7689 -1.0680
  509TMC3    H1 7621   0.326   3.680  15.283 -0.9563  1.3290  0.7727
  509TMC3    H2 7622   0.711   3.739  15.464  1.0428 -0.1132 -0.6429
  509TMC3    C7 7623   0.460   3.666  15.509  0.1129  0.2153  0.2496
  509TMC3    C8 7624   0.827   3.843  15.234  0.2199  0.6906  0.1224
  509TMC3    O1 7625   0.369   3.589  15.485  0.3703 -0.0503 -0.1528
  509TMC3    O2 7626   0.873   3.853  15.123 -0.2307  0.0813 -0.2946
  510MPD2     C 7627   2.959   0.463  14.497 -0.3508  0.2429 -0.5023
  510MPD2    C1 7628   3.049   0.467  14.605  0.0328  0.2082 -0.3405
  510MPD2    C2 7629   3.184   0.475  14.570 -0.1463 -0.0473 -0.1382
  510MPD2    C3 7630   3.228   0.454  14.440 -1.0066 -0.0166 -0.1180
  510MPD2    C4 7631   3.132   0.427  14.348  0.0489 -0.3491  1.1925
  510MPD2    C5 7632   3.001   0.437  14.370  0.1505  0.2510 -0.1590
  510MPD2     H 7633   3.251   0.479  14.655 -1.7218 -0.5293  1.1358
  510MPD2    H1 7634   3.168   0.410  14.247 -0.3630 -1.4856  1.2349
  510MPD2    H2 7635   2.854   0.446  14.519 -0.4839  0.8633 -0.6577
  510MPD2    H3 7636   2.931   0.400  14.296  0.1861  1.5903 -0.8677
  510MPD2     N 7637   3.365   0.466  14.411  0.5861 -0.7863  0.3494
  510MPD2    H5 7638   3.422   0.487  14.493 -2.6888  0.0690  2.4205
  510MPD2    N1 7639   3.017   0.473  14.746  0.4230 -0.2246 -0.5054
  510MPD2    H7 7640   3.095   0.463  14.811 -0.5899 -1.9470  0.4376
  511TMC3    C1 7641   2.883   0.433  14.929 -0.3213  0.2260 -0.3812
  511TMC3    C2 7642   2.769   0.457  14.998 -0.5218 -0.0227 -0.7229
  511TMC3    C3 7643   2.712   0.363  15.079  0.2337 -1.0370 -0.7261
  511TMC3    C4 7644   2.952   0.313  14.951 -0.7132  0.3590  0.1829
  511TMC3    C5 7645   2.885   0.216  15.021 -0.0251 -0.5094  0.0774
  511TMC3    C6 7646   2.765   0.239  15.090 -0.2885  0.4182  0.2520
  511TMC3     C 7647   2.889   0.482  14.792  0.5112  0.5906  0.3556
  511TMC3     O 7648   2.785   0.525  14.742 -0.4917 -0.3803  0.6700
  511TMC3     H 7649   2.720   0.548  14.967 -1.6152 -1.4690 -3.2283
  511TMC3    H1 7650   3.035   0.282  14.890 -0.8623  0.2268  0.0462
  511TMC3    H2 7651   2.738   0.163  15.162 -0.0168 -0.2814 -0.3928
  511TMC3    C7 7652   2.912   0.085  14.963  0.1052 -0.2696 -0.4339
  511TMC3    C8 7653   2.619   0.409  15.166 -0.4311  0.4005 -0.0765
  511TMC3    O1 7654   3.026   0.067  14.927 -0.1668  0.3583 -0.2679
  511TMC3    O2 7655   2.619   0.528  15.172 -0.0662  0.1745  0.1157
  512TMC3    C1 7656   1.876   4.483  12.738 -0.0398  0.8225  0.7742
  512TMC3    C2 7657   1.953   4.447  12.844  0.3037 -0.7273  0.2004
  512TMC3    C3 7658   2.032   4.339  12.820  0.2604  0.6455 -0.3561
  512TMC3    C4 7659   1.883   4.428  12.616 -0.1539  0.2656  0.2512
  512TMC3    C5 7660   1.979   4.331  12.589 -0.0200  0.6735  0.1787
  512TMC3    C6 7661   2.041   4.283  12.699 -0.1837  0.5868  0.0171
  512TMC3     C 7662   1.772   4.579  12.756 -0.1626 -0.1568 -0.5625
  512TMC3     O 7663   1.678   4.566  12.681  0.0892  0.1731 -0.1277
  512TMC3     H 7664   1.942   4.485  12.945  0.8814  0.2786 -0.1261
  512TMC3    H1 7665   1.823   4.460  12.532  0.7805  0.4539 -0.3492
  512TMC3    H2 7666   2.129   4.222  12.679  0.2186  1.0783  0.2901
  512TMC3    C7 7667   1.988   4.268  12.455  0.1539 -0.1699  0.1107
  512TMC3    C8 7668   2.148   4.316  12.899  0.2079 -0.3588 -0.0333
  512TMC3    O1 7669   1.917   4.306  12.362 -0.3523  0.2569  0.0968
  512TMC3    O2 7670   2.212   4.209  12.882  0.0728 -0.3707  0.3895
  513MPD2     C 7671   3.852   4.134  13.498 -0.6448 -0.2409 -0.1324
  513MPD2    C1 7672   3.920   4.075  13.402  0.3803 -0.2946  0.6551
  513MPD2    C2 7673   4.032   4.135  13.343 -0.3138 -0.1037  0.6797
  513MPD2    C3 7674   4.090   4.254  13.391  0.2665 -0.1228  0.1215
  513MPD2    C4 7675   4.031   4.300  13.507  0.9002  0.0238 -0.0267
  513MPD2    C5 7676   3.912   4.245  13.549 -0.3753  0.2927 -0.1053
  513MPD2     H 7677   4.081   4.088  13.259 -0.5866  0.0330  0.4451
  513MPD2    H1 7678   4.063   4.389  13.559 -0.5542  0.5491 -0.0090
  513MPD2    H2 7679   3.767   4.102  13.558 -0.9244 -3.6363 -2.3674
  513MPD2    H3 7680   3.856   4.289  13.630  0.3188 -0.9987  1.0735
  513MPD2     N 7681   4.198   4.314  13.327  0.4675 -0.2430 -0.2718
  513MPD2    H5 7682   4.225   4.269  13.240  0.6459 -0.5079 -0.0803
  513MPD2    N1 7683   3.868   3.945  13.377 -0.9196  0.0464 -0.0069
  513MPD2    H7 7684   3.805   3.922  13.453 -0.5477  0.9063  0.5608
  514TMC3    C1 7685   3.991   3.887  13.171  0.0273 -0.4364 -0.8660
  514TMC3    C2 7686   3.956   3.978  13.074 -0.2105  0.1073 -0.4300
  514TMC3    C3 7687   4.009   3.978  12.951 -0.4094  0.2747 -0.3933
  514TMC3    C4 7688   4.074   3.782  13.135  0.0062  0.3905 -0.1136
  514TMC3    C5 7689   4.131   3.798  13.017  1.2068  0.0733 -0.7321
  514TMC3    C6 7690   4.087   3.880  12.913 -0.3526 -0.5155  0.4359
  514TMC3     C 7691   3.888   3.857  13.273 -0.4843  0.1933 -0.7199
  514TMC3     O 7692   3.859   3.739  13.285  0.1819  0.0927 -0.2375
  514TMC3     H 7693   3.873   4.043  13.097  0.0259  0.3295 -0.2144
  514TMC3    H1 7694   4.116   3.710  13.204  0.1799 -0.6262 -1.2753
  514TMC3    H2 7695   4.112   3.860  12.810 -0.6394 -2.0068  0.6534
  514TMC3    C7 7696   4.203   3.681  12.981 -0.4863  1.0415  0.4767
  514TMC3    C8 7697   3.978   4.093  12.871  0.9469 -0.7780  0.2369
  514TMC3    O1 7698   4.156   3.575  13.021  0.2857 -0.1360  0.0784
  514TMC3    O2 7699   3.950   4.191  12.938  0.4312 -0.4769  0.3231
  515MPD2     C 7700   2.148   1.773  14.543  0.4918 -0.2844  0.1012
  515MPD2    C1 7701   2.046   1.707  14.601 -0.9955  0.2621 -0.8210
  515MPD2    C2 7702   2.058   1.676  14.735 -0.0790 -0.6937  0.2417
  515MPD2    C3 7703   2.173   1.707  14.808  0.0247  0.4860  0.1375
  515MPD2    C4 7704   2.280   1.777  14.750  1.2066 -0.0244  0.3258
  515MPD2    C5 7705   2.257   1.808  14.616  0.0235  0.6042 -0.5163
  515MPD2     H 7706   1.967   1.646  14.785  0.1785 -1.7828  0.0580
  515MPD2    H1 7707   2.372   1.797  14.803  0.5814 -0.2499  1.4858
  515MPD2    H2 7708   2.157   1.780  14.435 -0.5192 -0.0523  0.0257
  515MPD2    H3 7709   2.334   1.865  14.564  0.9063 -0.9445 -0.8918
  515MPD2     N 7710   2.185   1.672  14.946  0.4864  0.5903 -0.8560
  515MPD2    H5 7711   2.277   1.691  14.984  0.4058 -1.4792  0.3815
  515MPD2    N1 7712   1.937   1.668  14.521  0.0963  0.0343  0.9076
  515MPD2    H7 7713   1.873   1.601  14.560 -1.0564  0.6107 -0.0021
  516TMC3    C1 7714   1.777   1.645  14.348 -0.3830  0.4579 -0.7474
  516TMC3    C2 7715   1.697   1.727  14.278  0.1157 -0.0127  0.1975
  516TMC3    C3 7716   1.568   1.679  14.246  0.7343  0.0273  0.6688
  516TMC3    C4 7717   1.741   1.532  14.406  0.5459  0.1890 -0.5923
  516TMC3    C5 7718   1.613   1.488  14.374  0.0147  0.4607  0.1461
  516TMC3    C6 7719   1.524   1.564  14.295 -0.6214 -0.1004 -0.2910
  516TMC3     C 7720   1.897   1.707  14.397  0.2670  0.1973 -0.3776
  516TMC3     O 7721   1.948   1.798  14.333 -0.1405  0.2119  0.0687
  516TMC3     H 7722   1.731   1.826  14.248 -0.2869  0.3277  0.8629
  516TMC3    H1 7723   1.807   1.473  14.469  1.3144  0.8838 -0.7429
  516TMC3    H2 7724   1.421   1.534  14.286 -1.0293  0.8860  1.0891
  516TMC3    C7 7725   1.584   1.358  14.436  0.2283  0.2181  0.6234
  516TMC3    C8 7726   1.487   1.740  14.145  0.1414  0.2808  0.2149
  516TMC3    O1 7727   1.671   1.303  14.499  0.0646 -0.1417  0.2729
  516TMC3    O2 7728   1.374   1.702  14.137 -0.5359  0.4452  0.7493
  517MPD2     C 7729   1.786   2.923   0.192 -0.0502 -0.6512 -0.0835
  517MPD2    C1 7730   1.919   2.932   0.165  0.3470 -0.7994 -0.5011
  517MPD2    C2 7731   1.999   3.008   0.253  0.8805  0.9053 -0.8102
  517MPD2    C3 7732   1.942   3.080   0.361  0.6551 -0.0816 -0.0383
  517MPD2    C4 7733   1.803   3.076   0.379  0.3210  0.2929 -0.0385
  517MPD2    C5 7734   1.725   2.992   0.298  1.1956 -0.5701  0.0844
  517MPD2     H 7735   2.105   3.007   0.227  0.5462  1.2220 -2.1846
  517MPD2    H1 7736   1.751   3.126   0.459  0.0505  0.8805 -0.5873
  517MPD2    H2 7737   1.723   2.853   0.138  0.4731 -2.2392  1.3516
  517MPD2    H3 7738   1.618   2.982   0.316  1.5198 -1.1218  1.7361
  517MPD2     N 7739   2.018   3.154   0.452 -0.2804  0.5395 -0.0469
  517MPD2    H5 7740   1.965   3.185   0.533 -1.0326  2.2339 -1.2010
  517MPD2    N1 7741   1.978   2.872   0.052  0.1362  0.4875 -0.2307
  517MPD2    H7 7742   2.079   2.875   0.039  0.2807  0.8952  0.9401
  518TMC3    C1 7743   1.990   2.769  17.576 -0.0732  0.4275 -0.9079
  518TMC3    C2 7744   1.927   2.676  17.503 -0.6739 -1.0137  0.8819
  518TMC3    C3 7745   2.003   2.582  17.434 -0.2796  0.3857  0.4915
  518TMC3    C4 7746   2.126   2.788  17.571 -0.0686  0.5860 -0.3358
  518TMC3    C5 7747   2.197   2.696  17.505  0.2500 -0.4196  0.8154
  518TMC3    C6 7748   2.138   2.592  17.436 -0.3789 -0.7654 -0.4594
  518TMC3     C 7749   1.912   2.813  17.687 -0.5137  0.6159 -0.0115
  518TMC3     O 7750   1.796   2.773  17.692  0.5126 -0.0020  0.3902
  518TMC3     H 7751   1.820   2.666  17.501 -0.6416 -1.3419  0.7871
  518TMC3    H1 7752   2.173   2.877  17.612 -0.6924  0.8135 -0.1088
  518TMC3    H2 7753   2.190   2.521  17.373  0.5343  0.7614 -1.4205
  518TMC3    C7 7754   2.338   2.736  17.493  0.6159  0.3236 -0.1884
  518TMC3    C8 7755   1.951   2.457  17.387  0.2342 -0.7028 -0.0470
  518TMC3    O1 7756   2.379   2.849  17.510  0.4629 -0.4523 -1.2169
  518TMC3    O2 7757   2.029   2.365  17.364  0.2647  0.1971 -0.2860
  519MPD2     C 7758   3.527   1.136  14.384  0.5448 -0.3564 -0.2838
  519MPD2    C1 7759   3.440   1.086  14.292 -0.2681  0.9456  0.1384
  519MPD2    C2 7760   3.488   0.984  14.212 -0.0225 -0.0050  0.0647
  519MPD2    C3 7761   3.615   0.937  14.217  0.1282 -0.7749 -0.5294
  519MPD2    C4 7762   3.702   0.995  14.309 -0.5063  0.1640  0.7621
  519MPD2    C5 7763   3.659   1.094  14.390 -0.3308 -0.0989 -0.2491
  519MPD2     H 7764   3.412   0.938  14.149 -0.6340 -1.3411  1.7664
  519MPD2    H1 7765   3.807   0.969  14.306 -0.2051  1.3227  1.4043
  519MPD2    H2 7766   3.487   1.201  14.461  0.9898  1.0142 -1.2064
  519MPD2    H3 7767   3.731   1.141  14.457  0.1994  0.2961 -1.0966
  519MPD2     N 7768   3.663   0.841  14.120 -0.0821 -0.0048 -0.2034
  519MPD2    H5 7769   3.764   0.827  14.115 -0.1776 -0.7188 -0.0775
  519MPD2    N1 7770   3.319   1.146  14.267 -0.2890 -0.2770 -0.3860
  519MPD2    H7 7771   3.255   1.105  14.199 -1.1770  1.4745 -0.6418
  520TMC3    C1 7772   3.675   0.737  13.903  0.5462 -0.9543 -0.0402
  520TMC3    C2 7773   3.605   0.748  13.785  0.3179  0.4726  0.2574
  520TMC3    C3 7774   3.673   0.815  13.687 -0.2622  0.2376  0.0545
  520TMC3    C4 7775   3.810   0.762  13.922 -0.1423  0.1994 -0.4461
  520TMC3    C5 7776   3.872   0.811  13.812  0.0447  0.1030  0.1723
  520TMC3    C6 7777   3.810   0.836  13.701  0.4255  0.8290  0.9090
  520TMC3     C 7778   3.590   0.781  14.018 -0.2766  0.0122 -0.5365
  520TMC3     O 7779   3.467   0.779  14.009 -0.0288 -0.1467 -0.4744
  520TMC3     H 7780   3.503   0.712  13.779  0.5733 -0.0247 -0.9197
  520TMC3    H1 7781   3.860   0.747  14.017 -0.6137 -1.6561 -0.4860
  520TMC3    H2 7782   3.861   0.898  13.628 -1.9550  0.2500 -1.2208
  520TMC3    C7 7783   4.008   0.765  13.789 -0.1872 -0.6142  0.8918
  520TMC3    C8 7784   3.616   0.866  13.566 -0.4285  0.2078 -0.8454
  520TMC3    O1 7785   4.087   0.786  13.880  0.3462  0.2011 -0.0529
  520TMC3    O2 7786   3.681   0.917  13.478 -0.4718  1.0182  0.0984
  521MPD2     C 7787   4.167   4.451  17.514  0.4358 -0.6596  0.6077
  521MPD2    C1 7788   4.139   4.430  17.382  0.6466 -0.3672  0.5699
  521MPD2    C2 7789   4.252   4.408  17.296  0.0468  0.2451  0.0871
  521MPD2    C3 7790   4.380   4.410  17.334  0.0433  0.4816 -0.7108
  521MPD2    C4 7791   4.405   4.434  17.469 -0.2818 -0.4522 -0.2557
  521MPD2    C5 7792   4.296   4.451  17.556  0.5002  0.1756 -0.5006
  521MPD2     H 7793   4.236   4.394  17.190  0.1407 -1.0313  0.2433
  521MPD2    H1 7794   4.496   4.434  17.528 -0.6202 -0.9848  0.2696
  521MPD2    H2 7795   4.088   4.460  17.587  0.5613  2.9814  0.2997
  521MPD2    H3 7796   4.322   4.461  17.661 -3.1840 -0.7701  0.5292
  521MPD2     N 7797   4.489   4.392  17.246 -1.0296 -1.1000 -0.1463
  521MPD2    H5 7798   4.459   4.375  17.150 -0.7757  1.2060 -0.6505
  521MPD2    N1 7799   4.009   4.412  17.345 -0.1665 -0.3095  0.0541
  521MPD2    H7 7800   3.937   4.407  17.416  0.3721  0.1677  0.6330
  522TMC3    C1 7801   4.702   4.345  17.161 -0.2521  0.3117 -0.1225
  522TMC3    C2 7802   0.079   4.273  17.195 -0.2340 -0.1337 -0.2076
  522TMC3    C3 7803   0.179   4.280  17.108  0.2286 -0.2183  0.2993
  522TMC3    C4 7804   4.691   4.410  17.043 -0.2055 -0.0821  0.1660
  522TMC3    C5 7805   0.062   4.420  16.957  0.0460 -0.0981 -0.7296
  522TMC3    C6 7806   0.179   4.354  16.989 -0.2535 -0.8928  0.9211
  522TMC3     C 7807   4.623   4.375  17.277  0.6289 -0.8647 -0.7614
  522TMC3     O 7808   4.679   4.377  17.388 -0.2335  0.0155 -0.3445
  522TMC3     H 7809   0.080   4.228  17.293  2.7507 -0.5365 -0.4170
  522TMC3    H1 7810   4.604   4.472  17.027  0.6995  0.9275 -0.8576
  522TMC3    H2 7811   0.270   4.367  16.931 -2.1422  1.4908 -1.4859
  522TMC3    C7 7812   0.044   4.472  16.818  0.0843 -0.4735 -0.1954
  522TMC3    C8 7813   0.272   4.171  17.115 -0.9178  0.3239 -0.5720
  522TMC3    O1 7814   0.143   4.515  16.762 -0.0233 -0.2326  0.3272
  522TMC3    O2 7815   0.280   4.114  17.222  0.4125  0.7778  0.0690
  523MPD2     C 7816   2.250   4.131   9.648 -0.3880  0.4214 -0.2939
  523MPD2    C1 7817   2.173   4.014   9.641 -0.2020 -0.3772  0.4152
  523MPD2    C2 7818   2.045   4.027   9.598  0.1837  0.0323 -0.3239
  523MPD2    C3 7819   1.976   4.147   9.588 -0.3474  0.8529 -1.2729
  523MPD2    C4 7820   2.047   4.261   9.597 -0.1807 -0.0806  0.4878
  523MPD2    C5 7821   2.184   4.254   9.622  0.1572 -0.0812 -0.2031
  523MPD2     H 7822   1.994   3.934   9.574  0.3732 -0.2086  0.2032
  523MPD2    H1 7823   1.997   4.357   9.585 -0.8611 -0.2916  1.6089
  523MPD2    H2 7824   2.357   4.136   9.667 -0.7022 -0.7564  1.7550
  523MPD2    H3 7825   2.242   4.345   9.623 -3.3220  2.0985 -0.4252
  523MPD2     N 7826   1.832   4.156   9.559  0.4023 -0.2749  0.6419
  523MPD2    H5 7827   1.792   4.249   9.561  1.5243  0.2039  0.8318
  523MPD2    N1 7828   2.236   3.891   9.669 -0.8858  0.3690 -0.3777
  523MPD2    H7 7829   2.324   3.891   9.721 -0.5773  0.9805 -0.8954
  524TMC3    C1 7830   1.617   4.080   9.498  0.4021  0.0044  0.0367
  524TMC3    C2 7831   1.551   4.027   9.394 -0.4146  0.6105 -0.2523
  524TMC3    C3 7832   1.414   4.048   9.382  0.2442  0.4253 -0.7898
  524TMC3    C4 7833   1.557   4.160   9.597 -0.1095 -0.2703 -0.3103
  524TMC3    C5 7834   1.424   4.182   9.580  0.2629  0.3416 -0.5873
  524TMC3    C6 7835   1.353   4.121   9.477  0.1600 -0.5280 -0.0957
  524TMC3     C 7836   1.761   4.044   9.515  0.4473  0.0902 -0.4316
  524TMC3     O 7837   1.801   3.945   9.454 -0.4262  0.2249 -0.6612
  524TMC3     H 7838   1.612   3.971   9.324  0.1704  2.0709 -0.9171
  524TMC3    H1 7839   1.612   4.215   9.672 -0.3381  1.0438 -1.1028
  524TMC3    H2 7840   1.246   4.134   9.466  0.2723 -1.4280 -2.2557
  524TMC3    C7 7841   1.370   4.285   9.665 -0.1015 -0.0877 -0.4083
  524TMC3    C8 7842   1.343   4.012   9.262 -0.0837  0.1572  0.1576
  524TMC3    O1 7843   1.438   4.315   9.766 -0.1487  0.2546 -0.1001
  524TMC3    O2 7844   1.242   4.071   9.237  0.0070 -0.1598 -0.1084
  525MPD2     C 7845   0.241   0.820  14.007  0.9802 -0.3506 -0.3702
  525MPD2    C1 7846   0.331   0.881  14.091 -0.6191 -0.6586 -0.0830
  525MPD2    C2 7847   0.352   1.016  14.080  0.5798  0.2319 -0.6550
  525MPD2    C3 7848   0.279   1.088  13.991  0.0114 -0.1371  0.6080
  525MPD2    C4 7849   0.187   1.025  13.910 -1.1515  0.3608 -0.0155
  525MPD2    C5 7850   0.161   0.894  13.925 -0.5204 -0.7067  0.2785
  525MPD2     H 7851   0.432   1.057  14.140 -1.0793  1.2387  0.8503
  525MPD2    H1 7852   0.127   1.076  13.835  0.6073 -0.4669 -1.9601
  525MPD2    H2 7853   0.214   0.715  14.008  0.4847 -0.2264 -0.9129
  525MPD2    H3 7854   0.086   0.846  13.864 -2.7269 -0.0934  2.4952
  525MPD2     N 7855   0.302   1.227  13.975  0.2754 -0.2733  0.5784
  525MPD2    H5 7856   0.237   1.287  13.925  0.8321 -0.2820 -0.1492
  525MPD2    N1 7857   0.403   0.802  14.187  0.1960 -0.1382  0.4981
  525MPD2    H7 7858   0.491   0.839  14.222 -0.1410 -0.4698  1.6874
  526TMC3    C1 7859   0.473   0.620  14.307  0.8039 -0.3665 -0.4912
  526TMC3    C2 7860   0.429   0.542  14.412 -0.3761  0.0933  0.1974
  526TMC3    C3 7861   0.525   0.497  14.496  0.3794  0.2679  0.0854
  526TMC3    C4 7862   0.603   0.648  14.281 -0.1187  0.7919  0.5070
  526TMC3    C5 7863   0.696   0.599  14.366  0.4646  0.5749 -0.1872
  526TMC3    C6 7864   0.660   0.518  14.475 -0.4152  0.0989 -0.3362
  526TMC3     C 7865   0.358   0.683  14.238 -0.4494 -0.9343 -0.2274
  526TMC3     O 7866   0.243   0.639  14.232  0.2289 -0.3266  0.5985
  526TMC3     H 7867   0.327   0.509  14.425 -0.7775  1.8440  1.4999
  526TMC3    H1 7868   0.648   0.721  14.215  1.0743 -1.4543 -1.1896
  526TMC3    H2 7869   0.731   0.478  14.547 -0.0449 -0.9235 -1.2677
  526TMC3    C7 7870   0.837   0.619  14.337  0.2033  0.1290 -0.3619
  526TMC3    C8 7871   0.483   0.490  14.633 -0.0745  0.2553  0.4233
  526TMC3    O1 7872   0.868   0.736  14.314  0.0310 -0.2305 -0.1554
  526TMC3    O2 7873   0.568   0.523  14.713  0.5374 -0.2216 -0.2670
  527MPD2     C 7874   2.330   3.058   0.774 -0.3724 -0.3488  0.6164
  527MPD2    C1 7875   2.379   3.147   0.863  0.4999 -0.8967  0.1183
  527MPD2    C2 7876   2.510   3.199   0.860 -0.9106  0.2976 -0.1449
  527MPD2    C3 7877   2.582   3.151   0.756  0.7211  0.3172 -0.5838
  527MPD2    C4 7878   2.542   3.056   0.669  0.5517  0.1083  0.5180
  527MPD2    C5 7879   2.413   3.018   0.671 -0.6834  0.3578 -0.0323
  527MPD2     H 7880   2.545   3.272   0.932 -1.6477 -0.2237  0.7419
  527MPD2    H1 7881   2.619   3.032   0.597 -1.3243 -0.8403 -1.1625
  527MPD2    H2 7882   2.226   3.030   0.773 -0.7607  1.1419  0.0359
  527MPD2    H3 7883   2.374   2.952   0.593  0.9269 -1.9687  1.1244
  527MPD2     N 7884   2.709   3.201   0.730  0.6750  0.3308 -0.2848
  527MPD2    H5 7885   2.749   3.181   0.639  1.9513 -1.0224  0.5795
  527MPD2    N1 7886   2.302   3.194   0.972  0.2598  0.1247  0.3631
  527MPD2    H7 7887   2.354   3.255   1.034 -1.2281  1.2067  0.5302
  528TMC3    C1 7888   2.135   3.240   1.119  0.3482  0.1784 -1.2216
  528TMC3    C2 7889   2.230   3.307   1.188  0.2170 -0.0375  0.0323
  528TMC3    C3 7890   2.189   3.352   1.308 -0.1582 -0.5844  0.5323
  528TMC3    C4 7891   2.009   3.213   1.168  0.0330 -0.2610  0.2777
  528TMC3    C5 7892   1.974   3.262   1.292 -0.5474 -0.2670 -0.2297
  528TMC3    C6 7893   2.067   3.335   1.367 -0.0138  0.2256 -0.7738
  528TMC3     C 7894   2.170   3.164   1.003 -0.1081 -0.1444 -0.0779
  528TMC3     O 7895   2.082   3.107   0.941 -1.0702 -0.1152 -0.0022
  528TMC3     H 7896   2.334   3.315   1.160 -0.0402  1.5820 -0.4477
  528TMC3    H1 7897   1.931   3.164   1.111  0.4626 -1.6824  0.9219
  528TMC3    H2 7898   2.048   3.366   1.469 -0.9369  0.2011 -0.9378
  528TMC3    C7 7899   1.835   3.269   1.319 -0.9454 -0.2387  0.4592
  528TMC3    C8 7900   2.288   3.451   1.369 -0.0105  0.5473 -0.9341
  528TMC3    O1 7901   1.762   3.174   1.282 -0.0591  0.0865  0.5858
  528TMC3    O2 7902   2.352   3.512   1.289  0.2036  0.7391 -0.4729
  529MPD2     C 7903   1.091   1.412   1.005  0.2666 -0.8261  0.0998
  529MPD2    C1 7904   1.027   1.478   1.106 -0.1273  0.4866 -0.3387
  529MPD2    C2 7905   0.948   1.582   1.071 -0.4061 -1.1175  1.0218
  529MPD2    C3 7906   0.921   1.612   0.942 -0.1541 -0.2583  0.4877
  529MPD2    C4 7907   1.001   1.559   0.842 -0.4265 -0.2443 -0.0587
  529MPD2    C5 7908   1.082   1.457   0.876 -0.5976  0.3633  0.0087
  529MPD2     H 7909   0.894   1.645   1.141 -0.6830  0.4283 -0.5763
  529MPD2    H1 7910   0.996   1.599   0.741 -0.5501  0.0858  0.0772
  529MPD2    H2 7911   1.149   1.321   1.014  0.9903 -0.4276 -0.5296
  529MPD2    H3 7912   1.129   1.400   0.797  1.9000 -1.0976  2.5618
  529MPD2     N 7913   0.814   1.700   0.907 -0.1889 -0.2463 -0.0105
  529MPD2    H5 7914   0.811   1.737   0.813 -1.0207 -0.4789 -0.0753
  529MPD2    N1 7915   1.058   1.447   1.242 -0.2256  0.1756  0.7614
  529MPD2    H7 7916   1.012   1.495   1.318 -1.0808  0.5064  0.0446
  530TMC3    C1 7917   1.197   1.378   1.417  0.1082 -0.7593 -0.4975
  530TMC3    C2 7918   1.322   1.417   1.458 -0.4430  0.3635 -0.7924
  530TMC3    C3 7919   1.351   1.406   1.592  0.0651 -0.1831 -0.1662
  530TMC3    C4 7920   1.092   1.343   1.493  0.4043 -0.6767  0.1943
  530TMC3    C5 7921   1.123   1.350   1.626 -0.3672  0.4498  0.2786
  530TMC3    C6 7922   1.249   1.386   1.678  0.3417 -0.9800  0.2008
  530TMC3     C 7923   1.177   1.381   1.274  0.2998 -0.1085  0.4587
  530TMC3     O 7924   1.271   1.334   1.212 -0.3598  0.3740 -0.3547
  530TMC3     H 7925   1.381   1.447   1.372  1.0816 -2.0790 -0.6165
  530TMC3    H1 7926   0.994   1.308   1.464 -0.4131  2.4211 -0.7442
  530TMC3    H2 7927   1.277   1.390   1.783 -1.1070  1.5541  0.4883
  530TMC3    C7 7928   1.038   1.286   1.728 -0.9078 -0.7944  0.6839
  530TMC3    C8 7929   1.467   1.482   1.637 -0.0978  0.3099 -0.2058
  530TMC3    O1 7930   1.100   1.235   1.817 -0.5019 -0.1574  0.0449
  530TMC3    O2 7931   1.456   1.522   1.756 -0.0233  0.4066  0.2673
  531MPD2     C 7932   4.591   3.975  12.821  0.5653 -0.4207  1.1344
  531MPD2    C1 7933   4.512   3.985  12.934  0.2587  0.1249  0.8004
  531MPD2    C2 7934   4.402   3.903  12.954 -0.4188  0.7594 -0.0536
  531MPD2    C3 7935   4.385   3.803  12.860 -0.7630 -0.3672  0.6411
  531MPD2    C4 7936   4.474   3.776  12.754  0.4420 -0.1419 -0.5805
  531MPD2    C5 7937   4.575   3.867  12.735  0.2530  0.1409  0.3453
  531MPD2     H 7938   4.345   3.919  13.045  1.5865 -3.2812  1.8793
  531MPD2    H1 7939   4.462   3.692  12.687  1.7012 -1.5745  0.9910
  531MPD2    H2 7940   4.677   4.036  12.799  1.5457 -2.0851  0.3699
  531MPD2    H3 7941   4.637   3.849  12.648 -1.1665 -0.8847 -0.4535
  531MPD2     N 7942   4.292   3.697  12.876 -0.4342 -0.0388  0.6823
  531MPD2    H5 7943   4.306   3.622  12.809  2.1611  0.6099  0.5106
  531MPD2    N1 7944   4.538   4.102  13.016  0.0332 -0.3382  0.9082
  531MPD2    H7 7945   4.630   4.144  13.015 -0.2056  0.1598 -0.7422
  532TMC3    C1 7946   4.489   4.286  13.156 -0.1360  0.1200  0.3529
  532TMC3    C2 7947   4.384   4.367  13.186  0.3163 -1.2396  0.2397
  532TMC3    C3 7948   4.390   4.440  13.298 -0.2962  0.1846  0.8624
  532TMC3    C4 7949   4.600   4.269  13.230 -0.5082  0.4463  1.4412
  532TMC3    C5 7950   4.613   4.355  13.338  0.1984 -0.8061 -0.7103
  532TMC3    C6 7951   4.512   4.445  13.365 -0.2732 -0.5440  0.5270
  532TMC3     C 7952   4.445   4.163  13.094  0.3622 -0.1122 -0.0416
  532TMC3     O 7953   4.329   4.125  13.112 -0.0985 -0.3544 -0.1371
  532TMC3     H 7954   4.298   4.367  13.119 -0.6083 -0.4118  1.4323
  532TMC3    H1 7955   4.669   4.190  13.203  0.3643  1.5171  0.4793
  532TMC3    H2 7956   4.534   4.504  13.453 -1.5036  0.3341  0.2453
  532TMC3    C7 7957   0.003   4.361  13.414  0.0647 -0.6817  0.2074
  532TMC3    C8 7958   4.275   4.426  13.381  0.5930  0.1110 -0.5190
  532TMC3    O1 7959   0.050   4.468  13.434  0.0068 -0.4138 -0.1846
  532TMC3    O2 7960   4.278   4.467  13.497 -0.4709  0.0951  0.3250
  533TMC3    C1 7961   0.385   1.438  14.037  0.3508 -0.4405  0.1371
  533TMC3    C2 7962   0.488   1.520  14.075  0.3849  0.2477  0.0495
  533TMC3    C3 7963   0.459   1.639  14.137 -0.1688 -0.1732  0.7863
  533TMC3    C4 7964   0.255   1.480  14.073 -0.3702  0.0758 -0.1764
  533TMC3    C5 7965   0.238   1.586  14.151 -0.6016  0.7433 -0.0441
  533TMC3    C6 7966   0.340   1.677  14.177 -0.9265  0.2539  0.0994
  533TMC3     C 7967   0.409   1.297  14.027  0.5200 -0.5788 -0.7825
  533TMC3     O 7968   0.520   1.250  14.055  0.4939  0.5142 -0.3360
  533TMC3     H 7969   0.589   1.488  14.055  1.2107  1.4153  2.2703
  533TMC3    H1 7970   0.169   1.414  14.070  0.9604 -1.7754  2.0127
  533TMC3    H2 7971   0.329   1.758  14.248  0.6956 -0.4980  1.1967
  533TMC3    C7 7972   0.161   1.541  14.273 -0.1128 -0.3609 -0.6706
  533TMC3    C8 7973   0.568   1.726  14.162  0.3864  1.1018  0.3599
  533TMC3    O1 7974   0.122   1.425  14.281 -0.0374  0.3752  0.2784
  533TMC3    O2 7975   0.680   1.690  14.145 -0.2386  0.5113  0.8311
  534MPD2     C 7976   3.000   2.534   0.879 -0.2862  0.0571 -0.6175
  534MPD2    C1 7977   2.875   2.504   0.932 -0.3289 -0.2577 -0.4158
  534MPD2    C2 7978   2.820   2.378   0.913 -0.1993 -0.0308  0.0801
  534MPD2    C3 7979   2.890   2.288   0.829 -0.2501 -0.1010  0.6525
  534MPD2    C4 7980   2.998   2.331   0.755 -0.1724 -0.0423 -0.5817
  534MPD2    C5 7981   3.062   2.452   0.786  0.1164 -0.4123 -1.1334
  534MPD2     H 7982   2.725   2.355   0.960 -0.6657 -1.2012 -1.4439
  534MPD2    H1 7983   3.048   2.262   0.688 -0.8778 -0.2379 -0.9071
  534MPD2    H2 7984   3.048   2.623   0.917 -0.3212 -0.2485  0.1457
  534MPD2    H3 7985   3.163   2.467   0.749  1.1493  0.1385  1.9697
  534MPD2     N 7986   2.834   2.160   0.805 -0.2186 -0.0935  0.5320
  534MPD2    H5 7987   2.878   2.110   0.729  1.2656  1.8609  0.0789
  534MPD2    N1 7988   2.801   2.584   1.008  0.0312  0.9660  0.1713
  534MPD2    H7 7989   2.722   2.542   1.057  1.2521 -0.5562  0.8505
  535TMC3    C1 7990   2.681   1.975   0.852 -0.0495 -0.7897  0.7681
  535TMC3    C2 7991   2.555   1.964   0.903  0.2610 -0.1138  0.1488
  535TMC3    C3 7992   2.457   1.904   0.836 -0.0549  0.4473 -0.1350
  535TMC3    C4 7993   2.722   1.915   0.740 -0.2571  0.0917  0.0266
  535TMC3    C5 7994   2.624   1.846   0.675  0.3206 -0.7811  0.1220
  535TMC3    C6 7995   2.487   1.841   0.717  0.7068  0.0679  0.2915
  535TMC3     C 7996   2.750   2.097   0.889  0.1347 -0.9063  0.1151
  535TMC3     O 7997   2.735   2.119   1.006 -0.1436 -0.0596  0.2647
  535TMC3     H 7998   2.531   2.019   0.994  1.1320 -2.0621  1.5325
  535TMC3    H1 7999   2.821   1.922   0.697  0.0458 -1.2357  0.5216
  535TMC3    H2 8000   2.412   1.793   0.656  0.9335  0.1317 -0.0410
  535TMC3    C7 8001   2.650   1.836   0.528  0.2400  0.0793  0.0036
  535TMC3    C8 8002   2.320   1.882   0.886 -0.4174 -0.6884  0.0413
  535TMC3    O1 8003   2.764   1.797   0.498 -0.5244  0.0033  0.0460
  535TMC3    O2 8004   2.245   1.800   0.836  0.2517 -0.3178 -0.0080
  536MPD2     C 8005   0.949   0.168  16.129  0.3172  1.1607  0.5283
  536MPD2    C1 8006   1.058   0.252  16.117  0.3400  0.4285 -0.5533
  536MPD2    C2 8007   1.071   0.346  16.017 -0.0180  0.4325  0.7109
  536MPD2    C3 8008   0.978   0.349  15.919  0.4881 -0.4942  0.5261
  536MPD2    C4 8009   0.868   0.272  15.929 -0.1408 -0.0049 -0.1420
  536MPD2    C5 8010   0.850   0.184  16.035  0.4973 -0.0832 -0.6538
  536MPD2     H 8011   1.162   0.401  15.997  1.1547 -0.7464  2.7439
  536MPD2    H1 8012   0.780   0.269  15.867 -0.4867 -0.1797  0.3560
  536MPD2    H2 8013   0.942   0.099  16.212  1.1496  0.0118 -0.3569
  536MPD2    H3 8014   0.756   0.138  16.062  1.9329 -2.2636  0.6404
  536MPD2     N 8015   0.966   0.457  15.822  0.5112  0.0158 -0.2926
  536MPD2    H5 8016   0.880   0.456  15.768  1.3652 -2.9286 -1.6081
  536MPD2    N1 8017   1.149   0.233  16.221 -0.7348  0.2090 -0.4261
  536MPD2    H7 8018   1.129   0.150  16.274 -2.7128  1.8887  1.4360
  537TMC3    C1 8019   1.335   0.269  16.370  0.0029  0.5266  0.3718
  537TMC3    C2 8020   1.412   0.371  16.427 -0.6928  0.0629  0.1627
  537TMC3    C3 8021   1.492   0.332  16.535  0.0604 -0.2533  0.2568
  537TMC3    C4 8022   1.331   0.145  16.422  0.1173  0.2799  0.5415
  537TMC3    C5 8023   1.416   0.108  16.524 -0.1600  0.3131 -0.7018
  537TMC3    C6 8024   1.502   0.202  16.580 -0.4522  0.4114  0.1530
  537TMC3     C 8025   1.244   0.325  16.266  0.2928 -0.5345  0.5721
  537TMC3     O 8026   1.276   0.433  16.220  0.0963 -0.1932  0.6011
  537TMC3     H 8027   1.437   0.455  16.363  2.5088  0.3112  1.7751
  537TMC3    H1 8028   1.276   0.071  16.365 -0.1851  1.3339 -0.5304
  537TMC3    H2 8029   1.574   0.179  16.657  1.9466  2.0922 -1.6014
  537TMC3    C7 8030   1.367   4.733  16.605  0.2066 -0.0661  0.0033
  537TMC3    C8 8031   1.572   0.438  16.592 -0.0550 -0.3387 -0.3162
  537TMC3    O1 8032   1.265   4.675  16.571  0.6860 -0.6036 -0.6780
  537TMC3    O2 8033   1.672   0.410  16.654  0.4393  1.0258  0.0243
  538TMC3    C1 8034   2.816   3.700  11.046 -0.4346  0.1126  0.1246
  538TMC3    C2 8035   2.892   3.627  10.963 -0.4317 -0.7083 -0.0121
  538TMC3    C3 8036   2.821   3.562  10.865 -0.3250 -0.4202 -0.2912
  538TMC3    C4 8037   2.679   3.716  11.032 -0.5654  0.1614  0.5478
  538TMC3    C5 8038   2.615   3.642  10.934 -0.2148 -0.0957 -0.8509
  538TMC3    C6 8039   2.683   3.553  10.856 -0.0302  0.2362  0.0883
  538TMC3     C 8040   2.857   3.723  11.186 -0.5619 -0.1154 -0.0654
  538TMC3     O 8041   2.765   3.750  11.263 -0.1608 -0.6780 -0.1585
  538TMC3     H 8042   2.999   3.613  10.965 -0.0679  2.2401  1.2142
  538TMC3    H1 8043   2.616   3.771  11.101 -1.6131  1.0105 -1.1030
  538TMC3    H2 8044   2.639   3.496  10.775 -2.3637 -1.0802  2.2896
  538TMC3    C7 8045   2.470   3.663  10.897 -0.4580 -0.8007 -0.7015
  538TMC3    C8 8046   2.900   3.475  10.774 -0.1557 -0.3870  0.1215
  538TMC3    O1 8047   2.395   3.722  10.979  0.5159  0.2085 -0.0908
  538TMC3    O2 8048   2.831   3.374  10.748  0.0642 -0.7077  0.3950
  539MPD2     C 8049   2.854   3.186  11.213  0.2236  0.1130  0.3964
  539MPD2    C1 8050   2.753   3.108  11.159  0.2550  0.5983  0.8781
  539MPD2    C2 8051   2.627   3.161  11.133  0.3817 -0.2504 -0.0647
  539MPD2    C3 8052   2.608   3.296  11.162  0.4430  0.5621  0.0015
  539MPD2    C4 8053   2.705   3.378  11.219 -0.0374  0.0066 -0.1449
  539MPD2    C5 8054   2.824   3.318  11.254  0.0872 -0.6174  0.6859
  539MPD2     H 8055   2.550   3.095  11.095  2.1658 -1.2978 -1.9121
  539MPD2    H1 8056   2.698   3.486  11.227  0.1846  0.1812 -2.2914
  539MPD2    H2 8057   2.953   3.151  11.237  0.1944 -0.2814 -0.0669
  539MPD2    H3 8058   2.907   3.376  11.292 -0.7648  2.1673 -1.7044
  539MPD2     N 8059   2.484   3.365  11.145  0.5844  0.0658 -0.1130
  539MPD2    H5 8060   2.482   3.459  11.183  1.3933  0.9315 -2.2356
  539MPD2    N1 8061   2.768   2.971  11.129 -0.2819  0.2740  0.0005
  539MPD2    H7 8062   2.682   2.917  11.127  0.1252 -0.4747  2.6451
  540TMC3    C1 8063   2.272   3.409  11.068  0.1797  0.1143 -0.0750
  540TMC3    C2 8064   2.190   3.408  10.960 -0.0513  0.4562  0.1918
  540TMC3    C3 8065   2.079   3.485  10.978 -0.1993 -0.5584 -0.0324
  540TMC3    C4 8066   2.246   3.472  11.190  0.0075  0.2091  0.1916
  540TMC3    C5 8067   2.141   3.558  11.185 -0.1076 -0.0176  0.0562
  540TMC3    C6 8068   2.050   3.559  11.088 -0.4179  0.1408  0.4735
  540TMC3     C 8069   2.382   3.317  11.067 -0.3697  0.0676  0.4720
  540TMC3     O 8070   2.374   3.212  11.004  0.3479 -0.1738 -0.1967
  540TMC3     H 8071   2.216   3.343  10.877  0.2800  0.1984  0.4968
  540TMC3    H1 8072   2.312   3.456  11.275  1.1531 -1.6529 -1.0386
  540TMC3    H2 8073   1.965   3.627  11.091  0.4589  1.2438  0.1402
  540TMC3    C7 8074   2.102   3.630  11.312  0.0331 -0.5200  0.0159
  540TMC3    C8 8075   1.980   3.485  10.867  0.4620  0.2526 -0.1058
  540TMC3    O1 8076   1.994   3.695  11.304 -0.4800  0.2608 -0.0102
  540TMC3    O2 8077   1.879   3.555  10.877  0.0966 -0.1454 -0.3009
  541MPD2     C 8078   1.204   4.354  13.250 -0.2424 -0.0765 -0.6991
  541MPD2    C1 8079   1.246   4.267  13.147  0.5806  0.6509 -0.4096
  541MPD2    C2 8080   1.219   4.303  13.020 -0.3691  1.0538 -0.1259
  541MPD2    C3 8081   1.134   4.416  12.995 -0.2739  0.5591  0.0686
  541MPD2    C4 8082   1.106   4.504  13.097  0.1010  0.1328  0.8100
  541MPD2    C5 8083   1.143   4.474  13.215  0.0898  0.3171 -0.7083
  541MPD2     H 8084   1.237   4.232  12.940  2.4370  0.2773  1.2026
  541MPD2    H1 8085   1.058   4.601  13.082 -0.6879 -0.4681 -0.5076
  541MPD2    H2 8086   1.222   4.333  13.355 -0.9558 -1.6615 -0.8975
  541MPD2    H3 8087   1.114   4.535  13.300 -0.2308  0.6832 -1.0857
  541MPD2     N 8088   1.073   4.446  12.867 -0.2016 -0.6496 -0.6986
  541MPD2    H5 8089   1.018   4.532  12.860  1.8547  0.6077 -1.4340
  541MPD2    N1 8090   1.304   4.139  13.177 -0.1488  0.1422  0.0155
  541MPD2    H7 8091   1.330   4.078  13.100 -0.4767 -0.3706  0.3143
  542TMC3    C1 8092   0.976   4.408  12.663 -0.1399  0.1376 -0.4508
  542TMC3    C2 8093   0.977   4.353  12.541  0.3827  0.8191 -0.4252
  542TMC3    C3 8094   0.875   4.358  12.454  0.7740 -0.0805  0.3720
  542TMC3    C4 8095   0.867   4.476  12.702  0.3203  0.3405  0.5285
  542TMC3    C5 8096   0.762   4.499  12.613 -0.2350  0.0420  0.1793
  542TMC3    C6 8097   0.758   4.430  12.490 -0.2930  0.1063 -0.3830
  542TMC3     C 8098   1.078   4.368  12.752  0.5082  0.4246 -0.1875
  542TMC3     O 8099   1.131   4.257  12.735  0.2538 -0.0404  0.1484
  542TMC3     H 8100   1.067   4.302  12.511 -0.1246 -0.0330 -0.4809
  542TMC3    H1 8101   0.847   4.511  12.803 -0.7736  0.0383  0.4187
  542TMC3    H2 8102   0.678   4.442  12.417 -0.7994  0.8478  0.2988
  542TMC3    C7 8103   0.641   4.568  12.667 -0.2274  0.9757  0.0043
  542TMC3    C8 8104   0.874   4.305  12.313 -0.1393 -0.6363  0.0900
  542TMC3    O1 8105   0.626   4.580  12.786 -0.3371  0.3723 -0.4148
  542TMC3    O2 8106   0.769   4.324  12.247  0.5161  0.0210  0.5518
  543TMC3    C1 8107   0.527   0.952  17.575 -0.4476  0.3380 -0.1370
  543TMC3    C2 8108   0.465   0.832  17.607  0.2079  0.2157  0.1931
  543TMC3    C3 8109   0.451   0.805  17.740  0.1896 -0.2300 -0.0135
  543TMC3    C4 8110   0.549   1.043  17.673  0.3670  0.0496 -0.8293
  543TMC3    C5 8111   0.518   1.019   0.059 -0.4195 -0.2233 -0.0042
  543TMC3    C6 8112   0.471   0.895   0.099  0.1599  0.5155  0.5818
  543TMC3     C 8113   0.554   0.981  17.437 -0.8138 -0.3004 -0.2060
  543TMC3     O 8114   0.548   0.877  17.371  0.3807 -0.4824  0.0162
  543TMC3     H 8115   0.442   0.762  17.527 -0.0416 -0.1415  0.5786
  543TMC3    H1 8116   0.587   1.137  17.633  0.3608 -0.6291 -2.4113
  543TMC3    H2 8117   0.476   0.869   0.204  1.4484 -0.8306  0.1958
  543TMC3    C7 8118   0.477   1.119   0.156 -0.3719 -0.2034  0.1589
  543TMC3    C8 8119   0.393   0.677   0.028 -0.7230 -0.3173 -0.6550
  543TMC3    O1 8120   0.396   1.084   0.246  0.3862 -0.0900 -0.1278
  543TMC3    O2 8121   0.427   0.582  17.700 -0.0837  0.0214  0.1912
  544MPD2     C 8122   0.173   0.346   0.355  0.0219 -0.4774 -0.3614
  544MPD2    C1 8123   0.221   0.322   0.227 -0.1770  0.5143 -0.9442
  544MPD2    C2 8124   0.264   0.435   0.156 -0.1991  0.2611 -0.1396
  544MPD2    C3 8125   0.275   0.562   0.215  0.3525  0.1202 -0.1485
  544MPD2    C4 8126   0.226   0.578   0.344 -0.2763 -0.0608  0.4149
  544MPD2    C5 8127   0.174   0.474   0.411  0.0061 -0.0843 -0.1036
  544MPD2     H 8128   0.309   0.427   0.058  3.0565 -0.8474  1.4547
  544MPD2    H1 8129   0.222   0.672   0.398  0.4514  0.3335 -0.1984
  544MPD2    H2 8130   0.138   0.265   0.419 -0.0436 -0.8717 -0.9026
  544MPD2    H3 8131   0.142   0.483   0.514 -0.7218 -0.6760 -0.2810
  544MPD2     N 8132   0.326   0.677   0.149 -0.6351 -0.2907  0.5832
  544MPD2    H5 8133   0.320   0.767   0.197  1.5232  0.0908  0.1297
  544MPD2    N1 8134   0.220   0.193   0.178 -0.0679 -0.3785 -0.5493
  544MPD2    H7 8135   0.176   0.123   0.238  0.3244 -0.8221 -0.7757
  545TMC3    C1 8136   0.243   0.014   0.014  0.9214  0.2742  0.3027
  545TMC3    C2 8137   0.221   4.718  17.627  0.3522 -0.2853 -0.3598
  545TMC3    C3 8138   0.275   4.612  17.564 -0.0252 -0.9624 -0.3771
  545TMC3    C4 8139   0.330   4.676   0.089  0.3591 -0.1914  0.0263
  545TMC3    C5 8140   0.383   4.559   0.029  0.0419  0.4066  0.7539
  545TMC3    C6 8141   0.353   4.528  17.637 -0.5602  0.4133  0.1956
  545TMC3     C 8142   0.252   0.160   0.044  1.0484 -0.0728  0.5314
  545TMC3     O 8143   0.288   0.231  17.692  1.0034 -0.8448  0.2837
  545TMC3     H 8144   0.176   0.061  17.568  1.6201 -1.3528 -2.7688
  545TMC3    H1 8145   0.370   4.725   0.178  0.9779  1.7374 -1.2998
  545TMC3    H2 8146   0.385   4.430  17.605 -0.7838  0.1468  0.7859
  545TMC3    C7 8147   0.435   4.461   0.119  0.2638  0.7364 -0.7062
  545TMC3    C8 8148   0.277   4.615  17.417  0.0885  0.5414  0.4916
  545TMC3    O1 8149   0.429   4.495   0.235 -0.1502  0.4166  0.6660
  545TMC3    O2 8150   0.229   4.713  17.365 -0.0836 -0.2101  0.5673
  546MPD2     C 8151   1.829   1.044  17.513 -0.3656  0.3857  0.0905
  546MPD2    C1 8152   1.783   1.036  17.383  1.2673  0.1346  0.5882
  546MPD2    C2 8153   1.789   1.150  17.298  0.5016 -0.0219  0.2859
  546MPD2    C3 8154   1.840   1.266  17.359 -0.2729  0.4004 -0.3115
  546MPD2    C4 8155   1.886   1.270  17.489 -0.4789  0.8252 -0.0954
  546MPD2    C5 8156   1.894   1.151  17.558 -0.0901 -0.5286  0.3575
  546MPD2     H 8157   1.755   1.151  17.195 -0.7120  0.1177  0.6803
  546MPD2    H1 8158   1.904   1.366  17.536  3.0671 -0.5807  1.3935
  546MPD2    H2 8159   1.817   0.964  17.586  2.7279  1.6827  1.9923
  546MPD2    H3 8160   1.925   1.147  17.662  0.9467 -1.7021  0.0089
  546MPD2     N 8161   1.835   1.397  17.292 -0.0308  0.3957 -0.3007
  546MPD2    H5 8162   1.870   1.476  17.345 -4.1537  1.8428  0.2910
  546MPD2    N1 8163   1.733   0.908  17.342 -0.2991 -0.1691 -0.0512
  546MPD2    H7 8164   1.714   0.841  17.416  3.5485 -1.1607  0.0123
  547TMC3    C1 8165   1.646   0.744  17.196 -0.4947  1.0528  0.0568
  547TMC3    C2 8166   1.579   0.721  17.072 -0.1176  0.0634 -0.4482
  547TMC3    C3 8167   1.526   0.594  17.049  0.1563  0.0060 -0.1528
  547TMC3    C4 8168   1.671   0.643  17.285  0.3672 -0.0086  0.2393
  547TMC3    C5 8169   1.617   0.524  17.257 -0.5178 -0.0719  0.2464
  547TMC3    C6 8170   1.543   0.490  17.142 -0.1548  0.2815  0.0482
  547TMC3     C 8171   1.708   0.873  17.214  0.4981 -0.5965 -0.4259
  547TMC3     O 8172   1.715   0.942  17.113 -0.7198  0.3394  0.0486
  547TMC3     H 8173   1.560   0.796  16.996  1.2097  0.0762 -0.7558
  547TMC3    H1 8174   1.727   0.654  17.378  1.9235 -0.2329 -0.6683
  547TMC3    H2 8175   1.505   0.390  17.123 -0.0600  0.8164 -2.9807
  547TMC3    C7 8176   1.559   0.454  17.369  0.3184  0.3473 -0.6352
  547TMC3    C8 8177   1.425   0.586  16.942  0.4204  0.0120 -0.4013
  547TMC3    O1 8178   1.539   0.519  17.470 -0.3256  0.0654 -0.0751
  547TMC3    O2 8179   1.386   0.695  16.894  0.0268 -0.4718 -0.0300
  548MPD2     C 8180   0.814   1.035  12.177  0.3994 -0.1785  0.3010
  548MPD2    C1 8181   0.780   0.974  12.294  0.1306 -0.0644 -0.4434
  548MPD2    C2 8182   0.838   0.852  12.321 -0.5959 -0.3764  0.3394
  548MPD2    C3 8183   0.916   0.791  12.231 -0.0721  0.3425 -0.5719
  548MPD2    C4 8184   0.943   0.847  12.111  0.3650  0.4945 -0.7086
  548MPD2    C5 8185   0.892   0.972  12.085  0.0845  0.1819 -0.1207
  548MPD2     H 8186   0.816   0.804  12.416  0.1493 -1.3650  0.0081
  548MPD2    H1 8187   1.006   0.802  12.035  0.6047 -0.6689  0.1856
  548MPD2    H2 8188   0.783   1.136  12.152 -1.4385 -1.3892 -2.3678
  548MPD2    H3 8189   0.910   1.002  11.983 -0.7834 -2.5093 -1.0739
  548MPD2     N 8190   0.972   0.668  12.272 -0.0205  0.1655 -0.4417
  548MPD2    H5 8191   0.945   0.642  12.367  1.0566  0.8434  0.0461
  548MPD2    N1 8192   0.695   1.035  12.385 -0.1889  0.0318  0.0406
  548MPD2    H7 8193   0.669   1.129  12.354 -1.8798  0.4588  2.8173
  549TMC3    C1 8194   0.530   1.057  12.547 -0.2027 -0.0663 -0.3505
  549TMC3    C2 8195   0.458   1.145  12.463  0.2954  0.9598 -0.2733
  549TMC3    C3 8196   0.334   1.178  12.510  0.0101 -0.4924  0.4075
  549TMC3    C4 8197   0.480   1.005  12.664  0.9159 -0.4997  0.3404
  549TMC3    C5 8198   0.351   1.028  12.691 -0.9232  0.1583  0.4600
  549TMC3    C6 8199   0.275   1.116  12.619 -0.4384 -0.5057 -0.2700
  549TMC3     C 8200   0.637   0.979  12.496 -0.5960  0.2834 -0.0276
  549TMC3     O 8201   0.644   0.868  12.546 -0.0797 -0.7124  0.1239
  549TMC3     H 8202   0.518   1.201  12.392 -0.1414  0.3053 -1.1455
  549TMC3    H1 8203   0.536   0.940  12.730  2.3529  0.4867  0.0928
  549TMC3    H2 8204   0.182   1.139  12.670  1.1043 -0.2368  2.4352
  549TMC3    C7 8205   0.277   0.903  12.732 -0.3091 -0.0580 -0.0399
  549TMC3    C8 8206   0.248   1.260  12.427 -1.0271 -1.4833 -0.4852
  549TMC3    O1 8207   0.178   0.913  12.806 -0.2223  0.3725 -0.3380
  549TMC3    O2 8208   0.159   1.322  12.484  0.4507 -0.2101 -0.2587
  550TMC3    C1 8209   0.291   4.251  12.589  0.2810  0.0726 -0.6115
  550TMC3    C2 8210   0.205   4.332  12.664 -1.0295 -0.3386 -0.0899
  550TMC3    C3 8211   0.076   4.302  12.656 -0.5654 -0.3968  0.4341
  550TMC3    C4 8212   0.248   4.153  12.502 -0.2635 -0.2899  0.1442
  550TMC3    C5 8213   0.111   4.142  12.487  0.2113 -0.3163  0.6875
  550TMC3    C6 8214   0.026   4.218  12.562  0.4104  0.0655  0.3742
  550TMC3     C 8215   0.426   4.244  12.636  0.0745 -0.1881 -0.8991
  550TMC3     O 8216   0.452   4.277  12.750  0.5316 -0.7504 -0.3991
  550TMC3     H 8217   0.232   4.396  12.747 -2.6961  1.2425 -0.7529
  550TMC3    H1 8218   0.315   4.084  12.451 -0.1164  0.3552 -0.5177
  550TMC3    H2 8219   4.656   4.196  12.550  0.4023  0.2631  0.0759
  550TMC3    C7 8220   0.064   4.082  12.373 -0.2426 -0.2293  0.5582
  550TMC3    C8 8221   4.713   4.399  12.686 -0.9546  0.1925  0.2606
  550TMC3    O1 8222   4.701   4.011  12.387 -0.0960 -0.5515 -0.2075
  550TMC3    O2 8223   0.023   4.512  12.688  0.3276  0.1743 -0.0904
  551TMC3    C1 8224   2.690   1.948  13.421 -0.1488  0.3862 -0.2914
  551TMC3    C2 8225   2.820   1.950  13.389 -0.7691 -0.0935  0.1258
  551TMC3    C3 8226   2.893   2.060  13.432 -0.6057 -0.2751  0.4647
  551TMC3    C4 8227   2.635   2.040  13.506  0.3859 -0.4634 -0.3100
  551TMC3    C5 8228   2.718   2.128  13.563  0.0337 -0.0062 -0.0111
  551TMC3    C6 8229   2.848   2.152  13.519  0.3500 -0.6421 -0.2172
  551TMC3     C 8230   2.609   1.919  13.308  0.2316 -0.4005 -0.0810
  551TMC3     O 8231   2.617   1.806  13.264  0.2593  0.4096 -0.1770
  551TMC3     H 8232   2.850   1.879  13.313 -2.7333 -0.8350  0.0572
  551TMC3    H1 8233   2.528   2.048  13.521  0.3064 -0.2657 -0.9672
  551TMC3    H2 8234   2.918   2.218  13.570  0.3573 -0.7509 -0.0837
  551TMC3    C7 8235   2.668   2.210  13.666  0.1714  0.0557  1.0706
  551TMC3    C8 8236   3.029   2.081  13.386  0.0871  0.4059  0.2044
  551TMC3    O1 8237   2.586   2.166  13.739 -0.1273  0.0041  0.0559
  551TMC3    O2 8238   3.105   1.990  13.362 -0.8367  0.2439  0.3143
  552MPD2     C 8239   0.274   4.255  13.918 -0.3465 -1.3157 -0.3091
  552MPD2    C1 8240   0.219   4.140  13.969  0.4668 -0.6010 -0.1344
  552MPD2    C2 8241   0.293   4.071  14.065  0.1478  0.0930 -0.0686
  552MPD2    C3 8242   0.419   4.116  14.110  0.3116  0.3518 -0.3299
  552MPD2    C4 8243   0.468   4.227  14.058 -0.1044  0.1198 -0.7147
  552MPD2    C5 8244   0.391   4.297  13.968  0.1778  0.0327  0.3417
  552MPD2     H 8245   0.244   3.984  14.107  1.0882 -0.3564  0.1092
  552MPD2    H1 8246   0.550   4.282  14.104 -0.8665  0.6500  0.0186
  552MPD2    H2 8247   0.223   4.324  13.851  2.5670 -0.0134 -1.1748
  552MPD2    H3 8248   0.429   4.395  13.943 -1.2135  1.4659  3.7977
  552MPD2     N 8249   0.503   4.056  14.209 -0.6636 -0.1774 -1.0983
  552MPD2    H5 8250   0.590   4.105  14.226 -1.8655  0.4502  3.3083
  552MPD2    N1 8251   0.098   4.081  13.917  0.5977 -0.2833  0.9187
  552MPD2    H7 8252   0.088   3.989  13.957  0.8125 -1.3547 -1.5302
  553TMC3    C1 8253   4.631   4.064  13.788  0.0463 -0.3260  0.6161
  553TMC3    C2 8254   4.567   4.094  13.671 -0.1804  0.1638  0.1271
  553TMC3    C3 8255   4.483   3.998  13.615 -0.4333 -0.1007  0.6320
  553TMC3    C4 8256   4.607   3.951  13.866 -0.0876  0.0794 -0.3658
  553TMC3    C5 8257   4.526   3.860  13.807  0.3911  0.7674  0.2421
  553TMC3    C6 8258   4.469   3.880  13.683  0.2568  0.3388  0.6667
  553TMC3     C 8259   0.009   4.148  13.826 -0.4434 -0.9043 -0.6255
  553TMC3     O 8260   4.733   4.265  13.801 -0.4882  0.2099  0.0393
  553TMC3     H 8261   4.600   4.184  13.619 -0.6356 -0.0709 -0.5675
  553TMC3    H1 8262   4.650   3.930  13.964  0.7216  2.1072 -0.2892
  553TMC3    H2 8263   4.422   3.796  13.633  2.4166  0.4255 -1.5169
  553TMC3    C7 8264   4.525   3.719  13.838  0.2790 -0.1505 -0.3256
  553TMC3    C8 8265   4.520   3.975  13.470 -0.1224  0.1166  0.4637
  553TMC3    O1 8266   4.412   3.674  13.852 -0.5030  0.0998  0.4058
  553TMC3    O2 8267   4.620   4.023  13.417  0.5077  0.4700 -0.2363
  554TMC3    C1 8268   1.709   3.008  11.446  0.1542  0.5843  0.3394
  554TMC3    C2 8269   1.611   2.953  11.368  0.7479  0.8456  0.6849
  554TMC3    C3 8270   1.605   2.990  11.233 -0.5838  0.4058  1.0146
  554TMC3    C4 8271   1.806   3.090  11.393  0.0148 -0.0961 -0.2508
  554TMC3    C5 8272   1.804   3.115  11.257  0.2498 -0.0819  0.1743
  554TMC3    C6 8273   1.703   3.063  11.179  0.1053  0.8177  0.8588
  554TMC3     C 8274   1.716   2.961  11.586 -0.0662 -0.3174 -0.2457
  554TMC3     O 8275   1.606   2.932  11.641 -0.0152 -0.3764 -0.3846
  554TMC3     H 8276   1.534   2.889  11.409 -0.0066  0.8814 -0.6733
  554TMC3    H1 8277   1.873   3.152  11.451  0.5242 -1.3230  0.4766
  554TMC3    H2 8278   1.709   3.102  11.078 -0.3680  0.7242  0.7930
  554TMC3    C7 8279   1.828   3.248  11.220 -0.2126 -0.8009  0.6110
  554TMC3    C8 8280   1.511   2.953  11.134  0.2983  0.2371  0.1153
  554TMC3    O1 8281   1.862   3.265  11.103 -0.2680 -0.2799  0.0754
  554TMC3    O2 8282   1.534   2.987  11.016  0.2481 -0.1377 -0.0053
  555TMC3    C1 8283   0.644   2.915  15.261 -0.1539  0.3439 -0.4529
  555TMC3    C2 8284   0.655   2.955  15.391 -0.3282  0.6348  0.5812
  555TMC3    C3 8285   0.652   2.860  15.495  0.3451 -0.3355 -0.1572
  555TMC3    C4 8286   0.664   2.784  15.224 -0.4343  0.0197  0.1453
  555TMC3    C5 8287   0.648   2.697  15.329  0.7295 -0.0255 -0.6877
  555TMC3    C6 8288   0.638   2.731  15.458 -0.5386  0.2032 -0.2085
  555TMC3     C 8289   0.639   3.016  15.166  0.5814 -0.1863 -0.2569
  555TMC3     O 8290   0.679   3.128  15.207  0.2236 -0.6380  0.0153
  555TMC3     H 8291   0.650   3.060  15.416 -0.4662  1.4322 -2.8594
  555TMC3    H1 8292   0.638   2.758  15.122 -0.9689  1.3418 -0.0685
  555TMC3    H2 8293   0.611   2.649  15.524 -0.5232  1.6434  1.5832
  555TMC3    C7 8294   0.638   2.558  15.293  0.4946  0.6177 -0.1824
  555TMC3    C8 8295   0.645   2.905  15.631  0.0719 -0.4058  0.3028
  555TMC3    O1 8296   0.609   2.481  15.383  0.6078  0.3891  0.5503
  555TMC3    O2 8297   0.642   3.025  15.647 -0.3239  0.1783 -0.1559
  556MPD2     C 8298   4.022   4.275  10.371 -0.0997  0.3156  0.1974
  556MPD2    C1 8299   3.925   4.227  10.456  0.4576  0.0998  0.2502
  556MPD2    C2 8300   3.826   4.158  10.390  0.7975 -0.2068  0.3908
  556MPD2    C3 8301   3.819   4.135  10.258  0.3138  0.3434  0.4920
  556MPD2    C4 8302   3.916   4.186  10.178  0.5071  0.0563 -0.3714
  556MPD2    C5 8303   4.017   4.250  10.236  0.3861 -0.4140  0.2640
  556MPD2     H 8304   3.753   4.111  10.456 -0.3053  0.6439 -0.2430
  556MPD2    H1 8305   3.914   4.177  10.070  0.7925  0.6503 -0.4225
  556MPD2    H2 8306   4.101   4.345  10.397  0.4345 -0.2649  0.1243
  556MPD2    H3 8307   4.096   4.292  10.175 -1.8876  0.4034 -2.1543
  556MPD2     N 8308   3.719   4.047  10.210  0.1972  0.3723  0.6682
  556MPD2    H5 8309   3.642   4.027  10.273  1.0394  0.8389  1.8438
  556MPD2    N1 8310   3.907   4.268  10.591  0.5637 -0.4894  0.2013
  556MPD2    H7 8311   3.822   4.233  10.634  1.8250 -1.1599  2.0754
  557TMC3    C1 8312   3.573   3.914  10.076 -0.0824  0.0443  0.7552
  557TMC3    C2 8313   3.536   3.859   9.959 -0.2431  0.0618  0.1064
  557TMC3    C3 8314   3.438   3.763   9.954  0.1043  0.3597  0.4471
  557TMC3    C4 8315   3.517   3.873  10.197  0.2606 -0.0572  0.5381
  557TMC3    C5 8316   3.408   3.782  10.184 -0.0813 -0.0530 -0.7321
  557TMC3    C6 8317   3.368   3.729  10.065 -0.0171 -0.2316  0.0667
  557TMC3     C 8318   3.688   4.008  10.079 -0.5842 -0.2749  0.1858
  557TMC3     O 8319   3.747   4.025   9.970 -0.5736 -0.1288  0.0109
  557TMC3     H 8320   3.586   3.899   9.871 -0.0519 -1.8798 -0.6900
  557TMC3    H1 8321   3.541   3.917  10.293 -1.2716  2.3803 -0.2131
  557TMC3    H2 8322   3.270   3.682  10.065  0.2145 -0.7285  3.3041
  557TMC3    C7 8323   3.351   3.736  10.313  0.2260 -0.4773  0.0340
  557TMC3    C8 8324   3.386   3.739   9.819 -0.1265  0.7557  0.3962
  557TMC3    O1 8325   3.387   3.779  10.421  0.4163 -0.6291 -0.1243
  557TMC3    O2 8326   3.429   3.819   9.733 -0.2235 -0.2541  0.3784
  558TMC3    C1 8327   1.234   2.032  10.228 -0.0007  0.9843  0.2051
  558TMC3    C2 8328   1.118   2.025  10.298 -0.1472  0.4640  0.1253
  558TMC3    C3 8329   1.010   1.972  10.229  0.2124 -0.0707  0.0080
  558TMC3    C4 8330   1.250   2.015  10.091  0.0992  0.1699 -0.8732
  558TMC3    C5 8331   1.139   1.963  10.028  0.1157 -0.4694 -0.5723
  558TMC3    C6 8332   1.017   1.953  10.095 -0.2876  0.1739 -0.1038
  558TMC3     C 8333   1.356   2.034  10.307 -0.7982 -0.0612  0.0554
  558TMC3     O 8334   1.462   2.045  10.249  0.1897  0.2012 -0.2644
  558TMC3     H 8335   1.107   2.039  10.405  1.5117  0.0127  0.3416
  558TMC3    H1 8336   1.317   2.067  10.023  1.3461 -0.9126 -0.4908
  558TMC3    H2 8337   0.924   1.932  10.043  0.2482  2.0834 -1.8281
  558TMC3    C7 8338   1.137   1.957   9.883 -0.1880 -0.1618 -0.6578
  558TMC3    C8 8339   0.882   1.975  10.291  0.4865 -0.2622 -0.5339
  558TMC3    O1 8340   1.218   2.030   9.824  0.2586 -0.4743 -0.0410
  558TMC3    O2 8341   0.791   1.918  10.228 -1.0228  0.4457  0.0356
  559MPD2     C 8342   1.015   2.293   9.944 -0.3586  0.6369 -0.6087
  559MPD2    C1 8343   0.976   2.297  10.077 -1.0275  0.1121  0.4348
  559MPD2    C2 8344   1.070   2.326  10.169  0.0857  0.3902  0.1428
  559MPD2    C3 8345   1.200   2.353  10.130 -0.3894 -0.1998  0.1616
  559MPD2    C4 8346   1.239   2.351   9.995  0.4907 -0.6600 -0.3800
  559MPD2    C5 8347   1.139   2.318   9.905 -0.4710  0.3078 -0.4928
  559MPD2     H 8348   1.044   2.319  10.274  1.2237 -2.5340  0.2271
  559MPD2    H1 8349   1.339   2.370   9.958  0.5246 -0.4396 -0.1764
  559MPD2    H2 8350   0.948   2.270   9.862 -1.3149  3.6336 -0.6622
  559MPD2    H3 8351   1.158   2.318   9.799 -0.6019 -0.4163 -0.5189
  559MPD2     N 8352   1.295   2.386  10.228  0.1530  0.5637 -0.3437
  559MPD2    H5 8353   1.257   2.399  10.321  1.5849  1.2697  0.1247
  559MPD2    N1 8354   0.842   2.272  10.101 -0.0503  0.3598 -0.3029
  559MPD2    H7 8355   0.778   2.234  10.032  0.3641 -0.3001 -0.3241
  560TMC3    C1 8356   1.484   2.423  10.334  0.4528 -0.4227  0.0011
  560TMC3    C2 8357   1.411   2.405  10.453  0.6848 -0.3629 -0.3808
  560TMC3    C3 8358   1.481   2.420  10.571 -0.6622  0.2370  0.9005
  560TMC3    C4 8359   1.620   2.446  10.334  0.1920  0.0481  0.3478
  560TMC3    C5 8360   1.682   2.470  10.451  0.4057  0.3772  0.0932
  560TMC3    C6 8361   1.616   2.454  10.569  0.1987 -0.2060 -0.1723
  560TMC3     C 8362   1.429   2.402  10.207 -0.5164 -0.1050  0.4288
  560TMC3     O 8363   1.507   2.379  10.117  0.7786 -0.6052 -0.0636
  560TMC3     H 8364   1.303   2.403  10.460  0.8110 -2.6520  0.8766
  560TMC3    H1 8365   1.670   2.475  10.242  2.9915  0.3136  1.9722
  560TMC3    H2 8366   1.681   2.451  10.656  0.5391  1.2969 -0.3798
  560TMC3    C7 8367   1.826   2.448  10.464 -0.2910  0.2992 -0.3971
  560TMC3    C8 8368   1.400   2.406  10.690  0.1116 -0.8954  0.2912
  560TMC3    O1 8369   1.872   2.338  10.429  0.1159  0.2023 -0.8315
  560TMC3    O2 8370   1.293   2.345  10.666 -0.2333  0.1285 -0.1272
  561TMC3    C1 8371   3.368   1.610  10.804  0.7120  0.4852  0.1325
  561TMC3    C2 8372   3.272   1.570  10.898  0.3864 -0.6571 -0.2072
  561TMC3    C3 8373   3.282   1.637  11.018 -0.2953  0.3753 -0.9561
  561TMC3    C4 8374   3.474   1.690  10.822  0.4055  0.8767 -0.1083
  561TMC3    C5 8375   3.482   1.745  10.949 -0.1368  0.6458 -0.2267
  561TMC3    C6 8376   3.386   1.724  11.042  0.3528  0.0113 -0.2906
  561TMC3     C 8377   3.364   1.541  10.681  0.4363 -0.1734 -0.5425
  561TMC3     O 8378   3.257   1.497  10.639 -0.3866  1.0992  0.9395
  561TMC3     H 8379   3.193   1.497  10.882 -0.8559  0.7386 -0.3835
  561TMC3    H1 8380   3.545   1.714  10.743  0.2993 -2.1258 -1.1027
  561TMC3    H2 8381   3.408   1.762  11.141 -0.5610  1.3334 -0.6016
  561TMC3    C7 8382   3.584   1.842  10.986 -0.4334 -0.0725 -0.0787
  561TMC3    C8 8383   3.211   1.573  11.130 -0.2903  0.3602 -0.5424
  561TMC3    O1 8384   3.556   1.923  11.074  0.4076  0.0081 -0.0253
  561TMC3    O2 8385   3.158   1.469  11.107 -0.4004 -0.0038 -0.3307
  562TMC3    C1 8386   0.459   2.693  16.230 -0.8859 -0.0593  0.3616
  562TMC3    C2 8387   0.423   2.828  16.203  1.7330  0.8613 -0.2595
  562TMC3    C3 8388   0.384   2.851  16.073 -1.4863  0.6940 -0.3161
  562TMC3    C4 8389   0.462   2.588  16.143  0.3660  0.2103  0.6187
  562TMC3    C5 8390   0.425   2.627  16.015 -0.5920 -0.3651 -0.3160
  562TMC3    C6 8391   0.375   2.750  15.979 -0.7970  0.1049 -0.3743
  562TMC3     C 8392   0.490   2.668  16.376 -0.5333 -0.3032  0.1973
  562TMC3     O 8393   0.492   2.768  16.442  0.2689 -0.5184 -0.3196
  562TMC3     H 8394   0.420   2.904  16.280 -0.4860  0.6183 -0.1285
  562TMC3    H1 8395   0.520   2.500  16.169  2.5119  1.1607 -0.9452
  562TMC3    H2 8396   0.331   2.765  15.881 -2.3079 -0.1850  0.2639
  562TMC3    C7 8397   0.454   2.540  15.900  1.0703 -0.1803 -0.1354
  562TMC3    C8 8398   0.350   2.990  16.035  0.4821 -0.0891  0.1533
  562TMC3    O1 8399   0.432   2.586  15.790 -0.0034  1.1165  0.3283
  562TMC3    O2 8400   0.316   3.062  16.128  0.0236  0.2228  0.0251
  563MPD2     C 8401   2.556   4.502  15.577 -0.4096 -0.3178  0.4674
  563MPD2    C1 8402   2.623   4.541  15.686  0.0106  0.0739  0.0840
  563MPD2    C2 8403   2.755   4.493  15.703 -0.0526 -0.2349 -0.0336
  563MPD2    C3 8404   2.813   4.415  15.605  0.0078  0.3408 -0.0630
  563MPD2    C4 8405   2.740   4.375  15.494  0.0424  0.6499  0.5810
  563MPD2    C5 8406   2.615   4.426  15.482 -0.2263 -0.7275  0.9721
  563MPD2     H 8407   2.825   4.535  15.774 -1.9933 -1.1444  2.3948
  563MPD2    H1 8408   2.776   4.320  15.409 -1.3388  2.1378 -0.9824
  563MPD2    H2 8409   2.456   4.540  15.557  0.0971  0.5870 -0.3410
  563MPD2    H3 8410   2.555   4.403  15.395  0.4733 -0.4833  0.4249
  563MPD2     N 8411   2.949   4.375  15.623  0.0338 -0.4370  0.0527
  563MPD2    H5 8412   2.984   4.400  15.715  0.4338 -0.1399 -0.1816
  563MPD2    N1 8413   2.552   4.608  15.789  0.2607 -0.3974 -0.1879
  563MPD2    H7 8414   2.456   4.627  15.760  0.3798 -1.3956 -1.2332
  564TMC3    C1 8415   2.511   4.677  16.005 -0.7278  0.1825  0.0701
  564TMC3    C2 8416   2.388   4.634  15.976 -0.7511 -0.6158  0.3563
  564TMC3    C3 8417   2.304   4.579  16.065 -0.1810 -0.0351  0.7446
  564TMC3    C4 8418   2.558   4.666  16.131 -0.2334  0.1213  0.7370
  564TMC3    C5 8419   2.486   4.594  16.216 -0.1369 -0.4156  0.5129
  564TMC3    C6 8420   2.359   4.549  16.187 -0.4604 -0.0483 -0.2249
  564TMC3     C 8421   2.608   4.655  15.900  0.2228  0.0890  0.2952
  564TMC3     O 8422   2.727   4.656  15.930  0.6694  0.2613 -0.1459
  564TMC3     H 8423   2.352   4.654  15.876 -2.2887 -1.4449  0.7527
  564TMC3    H1 8424   2.660   4.698  16.148 -0.0360 -0.6947  1.1061
  564TMC3    H2 8425   2.299   4.499  16.263  0.0948  0.4702  0.5556
  564TMC3    C7 8426   2.570   4.483  16.245  0.4099  0.3467  0.8197
  564TMC3    C8 8427   2.220   4.464  16.021  0.8082  0.2339 -0.0303
  564TMC3    O1 8428   2.689   4.502  16.257  0.0545  0.2844 -0.5722
  564TMC3    O2 8429   2.186   4.387  16.112  0.9230  0.3150  0.2660
  565TMC3    C1 8430   2.847   1.043   9.606  0.5656 -0.7798 -0.0973
  565TMC3    C2 8431   2.784   0.942   9.685 -0.7073 -0.6332 -0.1109
  565TMC3    C3 8432   2.678   0.876   9.631  0.4264 -0.4469 -0.0756
  565TMC3    C4 8433   2.800   1.075   9.483  0.3120 -0.4099 -0.2741
  565TMC3    C5 8434   2.686   1.010   9.441 -0.4462  0.2766  0.1008
  565TMC3    C6 8435   2.621   0.908   9.506  0.4792  0.0484 -0.2095
  565TMC3     C 8436   2.982   1.098   9.634  0.4375 -0.3159  0.2309
  565TMC3     O 8437   3.039   1.156   9.541 -0.5101  0.1346  0.0816
  565TMC3     H 8438   2.827   0.906   9.778  0.1279  1.8340  0.4586
  565TMC3    H1 8439   2.843   1.153   9.420  0.7122 -1.5393 -1.4180
  565TMC3    H2 8440   2.513   0.900   9.503  0.4679 -0.0965  0.8238
  565TMC3    C7 8441   2.652   1.038   9.300 -0.5628 -0.1232  0.0677
  565TMC3    C8 8442   2.607   0.775   9.707 -0.1709 -1.0745  0.1412
  565TMC3    O1 8443   2.687   1.143   9.246  0.5331 -0.3576 -0.2691
  565TMC3    O2 8444   2.626   0.785   9.827 -0.8248  0.4840 -0.0284
  566MPD2     C 8445   4.645   2.824  14.228  0.4584  0.0952 -0.2667
  566MPD2    C1 8446   4.720   2.821  14.109 -0.2581  0.2308  0.2859
  566MPD2    C2 8447   4.651   2.800  13.987 -0.7133  0.2491  0.0510
  566MPD2    C3 8448   4.517   2.779  13.990  0.1754 -0.1494  0.4179
  566MPD2    C4 8449   4.441   2.784  14.104  0.0730  0.4449 -0.2658
  566MPD2    C5 8450   4.513   2.809  14.220 -0.6234 -0.1189 -0.2871
  566MPD2     H 8451   4.698   2.784  13.891 -0.1668  1.9037  0.0466
  566MPD2    H1 8452   4.333   2.773  14.106  0.2498 -1.3968 -1.2185
  566MPD2    H2 8453   4.681   2.843  14.329  0.2553  1.1133 -0.3891
  566MPD2    H3 8454   4.461   2.822  14.314 -1.8711  3.3845 -1.4640
  566MPD2     N 8455   4.464   2.743  13.865 -0.1767  0.5772 -0.1616
  566MPD2    H5 8456   4.526   2.751  13.786  2.3068 -0.5289  1.6661
  566MPD2    N1 8457   0.126   2.828  14.121  0.7045  0.1131 -0.0935
  566MPD2    H7 8458   0.156   2.825  14.218  2.1744  2.4833 -0.4806
  567TMC3    C1 8459   0.355   2.828  14.050  0.0657 -0.2224 -0.1161
  567TMC3    C2 8460   0.430   2.870  13.942  0.7142  0.1012 -0.1317
  567TMC3    C3 8461   0.546   2.806  13.917  0.2121 -0.0577 -0.2677
  567TMC3    C4 8462   0.394   2.726  14.138  0.2720 -0.0303 -0.0741
  567TMC3    C5 8463   0.502   2.648  14.091 -0.0089 -0.3108 -0.4227
  567TMC3    C6 8464   0.574   2.685  13.979  0.4854  0.8843 -0.1925
  567TMC3     C 8465   0.212   2.837  14.014 -0.2028  0.3694 -0.3840
  567TMC3     O 8466   0.190   2.859  13.895 -0.3539  0.9505  0.4310
  567TMC3     H 8467   0.416   2.970  13.903 -0.4840 -0.6819 -1.7270
  567TMC3    H1 8468   0.337   2.712  14.230  0.6354 -1.6127 -0.0988
  567TMC3    H2 8469   0.669   2.635  13.960  0.0801 -1.0630  2.8502
  567TMC3    C7 8470   0.561   2.570  14.197 -0.1680 -0.3081  0.0325
  567TMC3    C8 8471   0.600   2.845  13.792 -0.4504  0.4221 -0.4154
  567TMC3    O1 8472   0.686   2.561  14.195 -0.3925  0.1853 -0.3023
  567TMC3    O2 8473   0.612   2.959  13.766  0.1369  0.0777 -0.1408
  568MPD2     C 8474   2.256   2.898  16.162  0.0322  0.0162 -0.1789
  568MPD2    C1 8475   2.330   2.996  16.225 -0.7817 -0.7712  0.5488
  568MPD2    C2 8476   2.295   3.132  16.219 -0.5186  0.4393  0.3424
  568MPD2    C3 8477   2.195   3.169  16.136 -0.4906  0.1803 -0.9532
  568MPD2    C4 8478   2.127   3.077  16.057 -0.2353  0.3539 -0.7905
  568MPD2    C5 8479   2.166   2.944  16.067 -0.7950 -0.4103  0.4848
  568MPD2     H 8480   2.342   3.213  16.274  1.3366 -0.5101  0.1655
  568MPD2    H1 8481   2.053   3.105  15.983  0.5852  0.1670 -1.6833
  568MPD2    H2 8482   2.284   2.794  16.162  0.7277  0.1973  2.6676
  568MPD2    H3 8483   2.117   2.876  15.999 -1.3838  0.2899  0.2107
  568MPD2     N 8484   2.152   3.304  16.139  0.9525 -0.3412 -0.4351
  568MPD2    H5 8485   2.200   3.366  16.203 -1.2214  0.3687  0.5228
  568MPD2    N1 8486   2.445   2.952  16.294  0.1418 -0.1676  0.8435
  568MPD2    H7 8487   2.451   2.851  16.307 -2.0658 -0.6160 -1.6810
  569TMC3    C1 8488   2.068   3.503  16.086 -0.5050 -0.1285 -0.1390
  569TMC3    C2 8489   2.075   3.537  16.216 -0.2558 -0.1416  0.8253
  569TMC3    C3 8490   2.114   3.662  16.234 -0.2234 -0.2034  0.5416
  569TMC3    C4 8491   2.098   3.590  15.981  0.2271 -0.0236  0.6315
  569TMC3    C5 8492   2.123   3.722  16.011 -0.2721  0.8049  0.3245
  569TMC3    C6 8493   2.136   3.760  16.139 -0.2271  0.0559  0.0960
  569TMC3     C 8494   2.058   3.368  16.065  0.1374 -0.0929  0.3205
  569TMC3     O 8495   1.998   3.333  15.964 -0.3294  0.0386 -0.1304
  569TMC3     H 8496   2.038   3.471  16.293  0.1758 -0.2609  0.9297
  569TMC3    H1 8497   2.095   3.555  15.878 -2.9616  2.3483 -0.1016
  569TMC3    H2 8498   2.168   3.858  16.171  0.5708  0.5747 -2.2814
  569TMC3    C7 8499   2.125   3.816  15.900  0.2436 -0.0649 -0.5227
  569TMC3    C8 8500   2.116   3.717  16.372  0.7504 -0.3962 -1.0273
  569TMC3    O1 8501   2.142   3.772  15.788 -0.0888  0.2451  0.3805
  569TMC3    O2 8502   2.040   3.673  16.454  0.3882 -0.2958 -0.6042
  570TMC3    C1 8503   1.442   1.886  15.932  1.2690  0.1792 -0.6741
  570TMC3    C2 8504   1.490   1.931  15.811 -0.1159 -0.2051  0.1796
  570TMC3    C3 8505   1.524   2.061  15.783 -0.2030  0.2919 -0.4113
  570TMC3    C4 8506   1.441   1.979  16.031  0.0806  0.2533  0.1845
  570TMC3    C5 8507   1.483   2.103  16.001 -0.0976 -0.2559 -0.2695
  570TMC3    C6 8508   1.533   2.151  15.881  0.5488  0.1548  0.4557
  570TMC3     C 8509   1.405   1.751  15.951  0.4723  0.1560 -0.0628
  570TMC3     O 8510   1.372   1.689  15.854 -0.1322 -0.7086  0.5089
  570TMC3     H 8511   1.500   1.859  15.730 -0.3990  0.4346 -0.4253
  570TMC3    H1 8512   1.400   1.953  16.128  0.8058 -1.3292  0.0581
  570TMC3    H2 8513   1.574   2.248  15.854 -0.4355  0.6205  0.6514
  570TMC3    C7 8514   1.490   2.188  16.120 -0.5463 -0.5342 -0.8364
  570TMC3    C8 8515   1.595   2.103  15.660 -0.2555 -0.8023 -0.1782
  570TMC3    O1 8516   1.489   2.133  16.228 -0.0843  0.0617  0.0421
  570TMC3    O2 8517   1.685   2.191  15.666 -0.4894 -0.1682 -0.1609
  571MPD2     C 8518   3.729   3.996   0.199  0.5220  0.0177 -0.0033
  571MPD2    C1 8519   3.809   4.044   0.099 -0.1658 -0.2935  0.3749
  571MPD2    C2 8520   3.873   4.163   0.126  0.3616 -0.0666  0.0676
  571MPD2    C3 8521   3.859   4.236   0.242  0.2349  0.6013  0.1374
  571MPD2    C4 8522   3.775   4.183   0.336  0.0778  0.6973  0.8179
  571MPD2    C5 8523   3.715   4.062   0.313  0.0643 -0.2752 -0.0247
  571MPD2     H 8524   3.943   4.195   0.049  0.0408  0.5650  0.0401
  571MPD2    H1 8525   3.732   4.237   0.419 -0.4282  0.0953  0.9432
  571MPD2    H2 8526   3.673   3.904   0.186  0.4063  0.2365 -1.0623
  571MPD2    H3 8527   3.643   4.021   0.383  1.5612 -0.2346  1.5262
  571MPD2     N 8528   3.919   4.353   0.274  0.9805 -0.5351 -0.2480
  571MPD2    H5 8529   3.913   4.385   0.370  1.1546 -1.3331  0.0250
  571MPD2    N1 8530   3.823   3.962  17.732 -0.4908  0.6435  0.0785
  571MPD2    H7 8531   3.787   3.867  17.734 -0.2115  0.4686 -2.1010
  572TMC3    C1 8532   4.072   4.536   0.244 -0.4980 -0.6993  0.3594
  572TMC3    C2 8533   4.074   4.556   0.376  0.2517 -0.1445  0.6355
  572TMC3    C3 8534   4.145   4.667   0.413  0.1591 -0.0291 -0.0155
  572TMC3    C4 8535   4.126   4.628   0.153 -0.0061  0.4592  0.1304
  572TMC3    C5 8536   4.194   0.001   0.194  0.7492 -0.9258 -0.4836
  572TMC3    C6 8537   4.198   0.028   0.328  0.0262  0.6543 -0.1866
  572TMC3     C 8538   4.003   4.419   0.187 -0.3740 -0.5759  0.1922
  572TMC3     O 8539   4.022   4.396   0.066 -0.1548 -0.4972  0.1063
  572TMC3     H 8540   4.076   4.466   0.435  1.4921 -1.1347 -0.9102
  572TMC3    H1 8541   4.117   4.601   0.048 -0.4718  0.4122  0.1813
  572TMC3    H2 8542   4.261   0.103   0.374 -1.2304  1.3561  0.4067
  572TMC3    C7 8543   4.265   0.083   0.101  0.3548 -0.0603  0.2545
  572TMC3    C8 8544   4.197   4.660   0.551 -0.7611 -0.3606  1.0330
  572TMC3    O1 8545   4.228   0.087  17.726  0.0501  0.6107 -0.1191
  572TMC3    O2 8546   4.305   4.717   0.575 -0.1722  0.2054  0.2649
  573MPD2     C 8547   1.610   4.124   0.627  0.4025 -0.8419  0.0574
  573MPD2    C1 8548   1.612   4.195   0.511 -0.0834 -0.1895 -0.1938
  573MPD2    C2 8549   1.557   4.135   0.398  0.0180 -0.1259  0.1816
  573MPD2    C3 8550   1.498   4.009   0.409 -0.1231  0.3942 -0.5392
  573MPD2    C4 8551   1.495   3.940   0.528 -0.3484  1.1997  0.2616
  573MPD2    C5 8552   1.558   3.993   0.630  0.0184 -0.2930  0.0347
  573MPD2     H 8553   1.549   4.181   0.301  1.7366  1.8769  0.9996
  573MPD2    H1 8554   1.454   3.840   0.535  3.5775 -0.4185  0.4453
  573MPD2    H2 8555   1.656   4.170   0.713  1.7703 -2.1537  0.0284
  573MPD2    H3 8556   1.561   3.948   0.729 -0.2177  0.7432  0.5031
  573MPD2     N 8557   1.431   3.945   0.302  0.3378  0.6427  0.5645
  573MPD2    H5 8558   1.376   3.861   0.318  2.6385 -0.4402  2.7003
  573MPD2    N1 8559   1.643   4.337   0.521 -0.5366 -0.1928 -0.7364
  573MPD2    H7 8560   1.641   4.376   0.615 -0.3438 -0.4228 -0.6376
  574TMC3    C1 8561   1.332   3.944   0.084 -0.3401  0.4437  0.5726
  574TMC3    C2 8562   1.207   3.946   0.142 -0.2719 -0.8658 -0.4955
  574TMC3    C3 8563   1.103   3.969   0.060 -0.0715  0.2074  0.0344
  574TMC3    C4 8564   1.356   3.951  17.686  0.6182 -0.0317  0.7925
  574TMC3    C5 8565   1.242   3.965  17.619 -0.0663 -0.4927 -0.1928
  574TMC3    C6 8566   1.120   3.991  17.669 -0.2499  0.1433 -0.7139
  574TMC3     C 8567   1.438   3.990   0.171 -0.1402 -0.6266  0.4146
  574TMC3     O 8568   1.513   4.076   0.121 -0.6701  0.1206 -0.5417
  574TMC3     H 8569   1.188   3.939   0.249 -0.1210  1.2279 -0.3342
  574TMC3    H1 8570   1.457   3.940  17.648  0.6295  0.2816  0.7353
  574TMC3    H2 8571   1.033   4.021  17.612 -0.7960 -1.1993 -0.5990
  574TMC3    C7 8572   1.257   3.981  17.478 -0.2883 -0.4924 -0.6651
  574TMC3    C8 8573   0.974   3.967   0.135 -0.8486  0.0793  0.1046
  574TMC3    O1 8574   1.186   4.072  17.431  0.0762  0.3384 -0.1360
  574TMC3    O2 8575   0.975   3.921   0.247  0.7150 -0.5279 -0.2743
  575TMC3    C1 8576   2.540   0.217  10.389 -1.2806 -0.6073  0.1778
  575TMC3    C2 8577   2.413   0.166  10.414 -0.3006  0.8670 -0.5037
  575TMC3    C3 8578   2.308   0.210  10.337  0.0390 -0.8962  0.0773
  575TMC3    C4 8579   2.566   0.279  10.270  0.3456 -0.0517  0.1265
  575TMC3    C5 8580   2.463   0.301  10.182  0.3190  0.0806 -0.0036
  575TMC3    C6 8581   2.337   0.271  10.216  0.4045  0.3550 -0.1475
  575TMC3     C 8582   2.647   0.210  10.484 -0.1634  0.1068  0.3414
  575TMC3     O 8583   2.632   0.118  10.568  0.0314  0.3409 -0.0437
  575TMC3     H 8584   2.402   0.102  10.501  0.0958  0.3915 -0.8027
  575TMC3    H1 8585   2.668   0.296  10.237  0.4831  1.0852  1.1382
  575TMC3    H2 8586   2.253   0.290  10.151  1.6907 -0.9026 -2.1890
  575TMC3    C7 8587   2.495   0.387  10.063 -0.0301 -0.6936 -0.0719
  575TMC3    C8 8588   2.175   0.155  10.352 -0.0614  0.4978  0.7695
  575TMC3    O1 8589   2.591   0.462  10.068  0.8117  0.4312  0.2540
  575TMC3    O2 8590   2.101   0.197  10.263  0.3208 -0.0405  0.3616
  576MPD2     C 8591   2.968   1.926  12.570  0.2775  0.6968 -0.0895
  576MPD2    C1 8592   2.940   2.031  12.480  0.0355 -0.5017  0.2808
  576MPD2    C2 8593   2.887   2.148  12.536 -0.1326 -0.5918  0.4675
  576MPD2    C3 8594   2.870   2.163  12.669 -0.7937  0.5579 -0.3350
  576MPD2    C4 8595   2.897   2.057  12.751 -0.3848 -0.5532 -0.1606
  576MPD2    C5 8596   2.948   1.942  12.705  0.3046 -0.2242  0.3282
  576MPD2     H 8597   2.872   2.234  12.472  0.1172 -0.2610  0.8591
  576MPD2    H1 8598   2.905   2.064  12.859  1.1453  2.2216 -0.4751
  576MPD2    H2 8599   3.009   1.835  12.530 -0.8571  0.7004 -1.2545
  576MPD2    H3 8600   2.978   1.862  12.771 -0.3274 -1.4899 -0.8976
  576MPD2     N 8601   2.831   2.293  12.711  0.0465  0.8838  0.3836
  576MPD2    H5 8602   2.813   2.355  12.633 -3.9551 -0.3349  0.3458
  576MPD2    N1 8603   2.950   2.022  12.336 -0.2096  0.1338 -0.4929
  576MPD2    H7 8604   2.919   2.103  12.283  1.4163  1.1443  0.1173
  577TMC3    C1 8605   2.995   1.943  12.118  0.0240 -0.2375  0.0529
  577TMC3    C2 8606   2.972   1.840  12.028  0.1273 -0.2812 -0.3285
  577TMC3    C3 8607   3.001   1.856  11.894 -0.3443  0.5658 -0.3667
  577TMC3    C4 8608   3.053   2.065  12.072 -0.2131 -0.1094 -0.1418
  577TMC3    C5 8609   3.070   2.079  11.932  0.3439 -0.0932 -0.0334
  577TMC3    C6 8610   3.048   1.976  11.841 -0.5338  0.6701 -0.2813
  577TMC3     C 8611   2.995   1.915  12.257 -0.3641  0.6188  0.2427
  577TMC3     O 8612   3.028   1.807  12.299  0.2557  0.1023 -0.0285
  577TMC3     H 8613   2.951   1.738  12.058 -1.8855 -0.6179 -2.8872
  577TMC3    H1 8614   3.077   2.140  12.147 -2.2027  0.7856 -0.3949
  577TMC3    H2 8615   3.054   1.993  11.734  0.7827 -2.2501 -0.6721
  577TMC3    C7 8616   3.128   2.205  11.896  0.0651 -0.1287  0.7636
  577TMC3    C8 8617   3.022   1.735  11.820 -0.1387 -0.1228  0.0801
  577TMC3    O1 8618   3.179   2.272  11.982  0.0609  0.1665 -0.0221
  577TMC3    O2 8619   3.015   1.625  11.873 -0.2294  0.6106  0.0321
  578MPD2     C 8620   0.911   2.022   0.995 -0.0179 -0.6571 -0.6721
  578MPD2    C1 8621   0.989   1.972   0.894  0.3422 -0.8490 -0.1962
  578MPD2    C2 8622   1.106   1.900   0.924 -0.6763 -0.0937  0.6290
  578MPD2    C3 8623   1.137   1.869   1.053  0.0242 -0.6717 -0.1890
  578MPD2    C4 8624   1.051   1.910   1.155  0.6030 -0.3665 -0.1283
  578MPD2    C5 8625   0.943   1.985   1.123 -0.2215  0.1454 -1.0213
  578MPD2     H 8626   1.168   1.876   0.838 -0.0945 -1.5437  1.4635
  578MPD2    H1 8627   1.070   1.882   1.258 -2.7901 -4.3786 -0.6167
  578MPD2    H2 8628   0.834   2.093   0.970 -0.4869 -1.0643 -0.3890
  578MPD2    H3 8629   0.893   2.020   1.212  1.7247 -0.2697  0.2375
  578MPD2     N 8630   1.253   1.788   1.067 -0.0817 -0.3441 -0.2846
  578MPD2    H5 8631   1.290   1.756   0.978  0.0236 -0.2420 -0.2793
  578MPD2    N1 8632   0.948   2.004   0.763  0.5420  0.3712 -0.3897
  578MPD2    H7 8633   0.878   2.077   0.758 -1.4886 -1.5971 -0.6580
  579TMC3    C1 8634   1.440   1.712   1.176  0.4860  0.1233  0.3216
  579TMC3    C2 8635   1.542   1.776   1.231 -0.5035  0.1747  0.3682
  579TMC3    C3 8636   1.664   1.714   1.218 -0.1087  0.1296 -0.6750
  579TMC3    C4 8637   1.452   1.613   1.085 -0.4422  0.0792 -0.8318
  579TMC3    C5 8638   1.578   1.558   1.070 -1.0287  0.0578 -0.5518
  579TMC3    C6 8639   1.688   1.607   1.136 -0.1550 -0.5340  0.7965
  579TMC3     C 8640   1.315   1.768   1.189 -0.1818 -0.1888 -0.2005
  579TMC3     O 8641   1.295   1.814   1.299  0.0022  0.2389  0.1684
  579TMC3     H 8642   1.531   1.868   1.286 -2.4223 -0.7092  1.4852
  579TMC3    H1 8643   1.364   1.554   1.062 -0.4737 -0.0278 -0.4349
  579TMC3    H2 8644   1.780   1.560   1.103  0.6714  1.6671 -0.0051
  579TMC3    C7 8645   1.578   1.420   1.037 -0.2560 -0.5150 -0.3473
  579TMC3    C8 8646   1.773   1.799   1.265  1.0624 -0.9815 -0.5739
  579TMC3    O1 8647   1.678   1.362   1.078  0.4468 -0.3806 -0.1446
  579TMC3    O2 8648   1.749   1.885   1.346  0.2647 -0.3190 -0.3013
  580TMC3    C1 8649   0.453   0.984  11.507  0.3142 -0.1883 -0.4981
  580TMC3    C2 8650   0.463   0.947  11.376 -0.0152 -0.3706  0.4332
  580TMC3    C3 8651   0.446   0.815  11.351 -0.2296  1.3042  0.5953
  580TMC3    C4 8652   0.448   0.890  11.608  0.5616  0.6137  0.4611
  580TMC3    C5 8653   0.439   0.761  11.578 -0.3514 -0.0872  0.1875
  580TMC3    C6 8654   0.433   0.717  11.447 -0.8899 -0.2603 -0.6717
  580TMC3     C 8655   0.491   1.127  11.532  0.5876  0.4399  0.2374
  580TMC3     O 8656   0.548   1.190  11.439  0.2572 -0.4020 -0.2523
  580TMC3     H 8657   0.455   1.023  11.299  1.3056 -0.8674 -0.1985
  580TMC3    H1 8658   0.451   0.918  11.713  2.2687  0.1158  0.5460
  580TMC3    H2 8659   0.413   0.614  11.419  2.9426 -2.0887  3.3995
  580TMC3    C7 8660   0.493   0.675  11.689  0.2284 -1.0178 -0.4132
  580TMC3    C8 8661   0.434   0.772  11.212  0.3548 -0.3444  0.1900
  580TMC3    O1 8662   0.453   0.686  11.808 -0.9607  0.1296  0.1991
  580TMC3    O2 8663   0.382   0.665  11.192 -0.1784  0.3090  0.0536
  581MPD2     C 8664   3.486   1.068  15.234 -0.1977  0.0266 -0.5182
  581MPD2    C1 8665   3.469   0.959  15.151  0.1566  0.4911 -0.7632
  581MPD2    C2 8666   3.350   0.946  15.085  0.5546 -1.3851  0.0248
  581MPD2    C3 8667   3.247   1.033  15.099 -0.3860 -0.5989 -0.1321
  581MPD2    C4 8668   3.269   1.142  15.182 -0.1493 -0.3375  0.2137
  581MPD2    C5 8669   3.383   1.156  15.258  0.8007  0.1006 -0.2486
  581MPD2     H 8670   3.329   0.861  15.021  0.1085 -1.3729  0.1525
  581MPD2    H1 8671   3.189   1.211  15.206 -1.4403 -1.4846 -0.7720
  581MPD2    H2 8672   3.579   1.078  15.290  0.8238 -0.2747 -2.1614
  581MPD2    H3 8673   3.394   1.239  15.327  0.3128  0.4360 -0.5743
  581MPD2     N 8674   3.128   1.013  15.038  0.2690 -0.0098 -0.0240
  581MPD2    H5 8675   3.116   0.925  14.988  1.3517 -0.1256 -0.0827
  581MPD2    N1 8676   3.570   0.863  15.146  0.3483 -0.1990 -0.0596
  581MPD2    H7 8677   3.649   0.875  15.208 -0.3301  1.0812  0.5605
  582TMC3    C1 8678   3.686   0.666  15.115  0.5449  0.5071  0.7134
  582TMC3    C2 8679   3.752   0.701  15.230 -0.8725 -0.3883  0.5216
  582TMC3    C3 8680   3.773   0.607  15.323 -0.4307 -0.3593  0.4663
  582TMC3    C4 8681   3.674   0.535  15.080 -0.0842  0.3985  0.1901
  582TMC3    C5 8682   3.698   0.438  15.177 -0.0756 -0.0032  0.3495
  582TMC3    C6 8683   3.750   0.473  15.299  0.2265 -0.9728 -0.2465
  582TMC3     C 8684   3.570   0.748  15.080 -0.5804 -0.3008  0.2467
  582TMC3     O 8685   3.491   0.698  14.999  0.4105  0.2372 -0.0533
  582TMC3     H 8686   3.769   0.802  15.265  0.0546 -1.5144  3.3370
  582TMC3    H1 8687   3.623   0.501  14.990  1.4867  0.0495 -0.5658
  582TMC3    H2 8688   3.768   0.395  15.372 -2.0359 -0.9664  0.3112
  582TMC3    C7 8689   3.592   0.337  15.177 -0.8203  0.2226 -0.2525
  582TMC3    C8 8690   3.751   0.651  15.459  0.2021  0.3149 -0.4509
  582TMC3    O1 8691   3.557   0.296  15.068  0.4840  0.2444  0.0291
  582TMC3    O2 8692   3.652   0.719  15.474  0.0511 -0.5044  0.1727
  583MPD2     C 8693   3.888   2.607  16.974  0.4603 -0.1015  0.2706
  583MPD2    C1 8694   3.847   2.685  16.870  0.2167 -0.4496 -0.3272
  583MPD2    C2 8695   3.761   2.790  16.892 -0.6498 -0.5655  0.4335
  583MPD2    C3 8696   3.720   2.819  17.026  0.5746  0.5346 -0.4028
  583MPD2    C4 8697   3.769   2.732  17.127  0.1048 -0.4564 -0.2871
  583MPD2    C5 8698   3.845   2.626  17.097  0.3687  0.1345  0.5992
  583MPD2     H 8699   3.733   2.847  16.804 -2.3506 -1.5152  0.3466
  583MPD2    H1 8700   3.746   2.746  17.232  3.1959  0.4433  0.2725
  583MPD2    H2 8701   3.961   2.526  16.967 -1.6739 -2.0032  0.0360
  583MPD2    H3 8702   3.871   2.558  17.178  2.0087 -0.8124 -0.7193
  583MPD2     N 8703   3.625   2.923  17.054  0.6340 -0.1086 -0.3842
  583MPD2    H5 8704   3.582   2.972  16.976  1.1536 -2.8273 -2.3834
  583MPD2    N1 8705   3.903   2.669  16.739  0.7888 -0.4228 -0.1956
  583MPD2    H7 8706   3.874   2.728  16.662  0.3917  1.5721  1.4668
  584TMC3    C1 8707   3.503   3.084  17.180 -0.0246  0.2548 -0.6753
  584TMC3    C2 8708   3.484   3.173  17.081 -0.1523  1.1016 -0.4362
  584TMC3    C3 8709   3.394   3.272  17.098  0.2912  0.1350 -0.4445
  584TMC3    C4 8710   3.436   3.101  17.297  0.4865 -0.5531  0.1339
  584TMC3    C5 8711   3.352   3.212  17.315 -0.7478  0.7939  0.7155
  584TMC3    C6 8712   3.332   3.300  17.216 -0.2234 -0.5536 -0.6832
  584TMC3     C 8713   3.588   2.968  17.177  0.8174 -0.3953  0.2051
  584TMC3     O 8714   3.606   2.906  17.282 -0.6112 -0.0283 -0.5266
  584TMC3     H 8715   3.557   3.176  17.001 -0.0578  3.9189 -0.2659
  584TMC3    H1 8716   3.435   3.021  17.371 -1.3388 -1.3131 -0.7225
  584TMC3    H2 8717   3.268   3.387  17.227  1.3847  0.4748  0.6695
  584TMC3    C7 8718   3.244   3.191  17.413 -0.0479  0.0535  0.1855
  584TMC3    C8 8719   3.404   3.378  17.002  0.0887  0.1821  0.1598
  584TMC3    O1 8720   3.280   3.125  17.510  0.1938  0.1271 -0.2570
  584TMC3    O2 8721   3.435   3.350  16.887  0.9390 -0.0357  0.0419
  585MPD2     C 8722   3.190   1.539   0.228  0.6396  0.7072  0.0928
  585MPD2    C1 8723   3.222   1.604   0.116 -0.1490  0.6378 -0.2086
  585MPD2    C2 8724   3.193   1.547  17.735  0.4416 -0.2757  0.1723
  585MPD2    C3 8725   3.136   1.418  17.730  0.9189  1.1161  0.2374
  585MPD2    C4 8726   3.114   1.349   0.107  0.1205  0.1258 -0.4160
  585MPD2    C5 8727   3.135   1.413   0.227  0.7652  0.1562  0.0541
  585MPD2     H 8728   3.213   1.606  17.646 -0.8360  1.2285  0.8712
  585MPD2    H1 8729   3.059   1.256   0.103  0.6029 -0.1549 -0.4315
  585MPD2    H2 8730   3.201   1.593   0.321 -0.7460  0.0163  0.6551
  585MPD2    H3 8731   3.122   1.357   0.319  0.2705 -0.9754 -0.7109
  585MPD2     N 8732   3.093   1.357  17.610  0.1935 -0.5562  0.6000
  585MPD2    H5 8733   3.082   1.257  17.594  0.3554 -0.6732  1.2331
  585MPD2    N1 8734   3.257   1.742   0.122 -0.5961  0.7395 -0.0251
  585MPD2    H7 8735   3.236   1.794   0.207 -1.3468 -0.6873  0.6568
  586TMC3    C1 8736   3.007   1.369  17.390 -1.1689  0.5645  0.1523
  586TMC3    C2 8737   3.096   1.281  17.334 -0.0474 -0.3491 -0.2892
  586TMC3    C3 8738   3.068   1.238  17.207 -0.7985 -0.4977 -0.6597
  586TMC3    C4 8739   2.885   1.400  17.332  0.9593  0.3917  0.3799
  586TMC3    C5 8740   2.859   1.342  17.209 -0.2011  0.5315 -0.0220
  586TMC3    C6 8741   2.949   1.259  17.145 -0.8449 -0.1800 -0.8335
  586TMC3     C 8742   3.034   1.438  17.508 -0.4409  0.6981 -0.6117
  586TMC3     O 8743   2.994   1.554  17.521  0.2771 -0.2968  0.0645
  586TMC3     H 8744   3.194   1.276  17.381 -0.6633  1.4162  1.1756
  586TMC3    H1 8745   2.819   1.478  17.369  0.5263  1.1634 -2.0771
  586TMC3    H2 8746   2.923   1.221  17.047  0.3210 -0.1520 -1.1492
  586TMC3    C7 8747   2.717   1.334  17.166 -0.7047  0.2216  0.0282
  586TMC3    C8 8748   3.191   1.208  17.133  0.0569  0.1526 -0.3904
  586TMC3    O1 8749   2.636   1.328  17.257 -0.1456 -0.5705  0.2361
  586TMC3    O2 8750   3.296   1.189  17.189  0.2668  0.4699  0.1567
  587TMC3    C1 8751   4.562   0.459  15.789  0.3209 -0.0783  0.1802
  587TMC3    C2 8752   4.646   0.565  15.774 -0.0327  0.4141 -0.5234
  587TMC3    C3 8753   4.694   0.621  15.889  1.0889  0.3794 -0.3995
  587TMC3    C4 8754   4.536   0.400  15.911  0.7665  0.1644 -0.5110
  587TMC3    C5 8755   4.611   0.451  16.021 -0.0584 -0.6011 -0.0324
  587TMC3    C6 8756   4.682   0.567  16.013  0.4359  0.5000 -0.0771
  587TMC3     C 8757   4.489   0.413  15.676  0.1312 -0.6172  0.1852
  587TMC3     O 8758   4.529   0.439  15.565 -0.8295 -0.4662  0.6229
  587TMC3     H 8759   4.666   0.606  15.676  1.3953 -4.1725 -2.1566
  587TMC3    H1 8760   4.495   0.300  15.907  0.9816  0.0263  0.8714
  587TMC3    H2 8761   4.729   0.602  16.104 -1.3503 -0.0460  1.0784
  587TMC3    C7 8762   4.602   0.388  16.153  0.3198  0.2817 -0.1161
  587TMC3    C8 8763   0.027   0.743  15.866 -0.2482  0.5184 -0.3972
  587TMC3    O1 8764   4.670   0.414  16.247 -0.1238  0.1267  0.0967
  587TMC3    O2 8765   0.058   0.762  15.753  0.4873  0.4432  0.0314
  588TMC3    C1 8766   2.692   3.000   9.304  0.1302  0.7456 -0.6365
  588TMC3    C2 8767   2.609   2.892   9.316 -0.1130 -0.2496  0.4726
  588TMC3    C3 8768   2.661   2.783   9.369  0.4287 -0.5058  0.1199
  588TMC3    C4 8769   2.814   3.006   9.361 -0.0010 -0.2436  0.4256
  588TMC3    C5 8770   2.854   2.903   9.440 -0.1567 -0.3921  0.4788
  588TMC3    C6 8771   2.786   2.787   9.433 -0.2008 -0.4124  0.8575
  588TMC3     C 8772   2.621   3.123   9.282 -0.3764 -0.5166  0.3366
  588TMC3     O 8773   2.524   3.117   9.211 -0.3388 -0.1457 -0.2836
  588TMC3     H 8774   2.516   2.890   9.260 -1.3715 -0.3041  2.5653
  588TMC3    H1 8775   2.875   3.096   9.360  0.0798 -0.3136 -0.3548
  588TMC3    H2 8776   2.817   2.701   9.491  1.5432 -0.8442 -0.7336
  588TMC3    C7 8777   2.901   2.922   9.579 -0.3267  0.1753 -0.0680
  588TMC3    C8 8778   2.571   2.670   9.387 -0.6791  0.6891 -0.2776
  588TMC3    O1 8779   2.882   2.833   9.657  0.4222 -0.2139  0.0057
  588TMC3    O2 8780   2.459   2.688   9.349  0.2751 -0.4735  0.2358
  589TMC3    C1 8781   1.888   0.278   0.683  0.3089  0.4145 -0.8562
  589TMC3    C2 8782   1.907   0.368   0.784  0.0658 -0.3029  0.4134
  589TMC3    C3 8783   2.029   0.367   0.846  0.1847  0.0384  0.8169
  589TMC3    C4 8784   1.974   0.182   0.639 -0.7870  0.4544  0.1528
  589TMC3    C5 8785   2.091   0.171   0.714 -0.5391 -0.0253 -0.5136
  589TMC3    C6 8786   2.119   0.263   0.816  0.0921  0.2551 -0.1265
  589TMC3     C 8787   1.754   0.274   0.634 -0.2739 -0.2572 -0.3115
  589TMC3     O 8788   1.736   0.207   0.528 -0.6388  0.2077  0.1064
  589TMC3     H 8789   1.853   0.461   0.797  1.4270  0.7740 -1.6253
  589TMC3    H1 8790   1.945   0.113   0.561  0.0729 -1.2937  1.3803
  589TMC3    H2 8791   2.213   0.254   0.869  1.1664  0.6900 -1.9410
  589TMC3    C7 8792   2.177   0.058   0.694  0.5789  0.3602  0.9112
  589TMC3    C8 8793   2.091   0.489   0.880  0.1222  0.0859 -0.2720
  589TMC3    O1 8794   2.246   0.020   0.788 -0.1823 -0.0785  0.7467
  589TMC3    O2 8795   2.016   0.580   0.876 -0.3611  0.5413  0.4666
  590MPD2     C 8796   1.213   3.803  16.655 -0.0222  0.1746 -0.3173
  590MPD2    C1 8797   1.184   3.871  16.538 -0.3876  0.0322  0.4659
  590MPD2    C2 8798   1.292   3.894  16.452  0.0087 -0.4432 -0.5677
  590MPD2    C3 8799   1.420   3.847  16.479 -0.2351 -0.0293  0.3628
  590MPD2    C4 8800   1.444   3.768  16.593  0.7076 -0.1688 -0.3226
  590MPD2    C5 8801   1.338   3.749  16.682  0.3520  0.2462  0.4522
  590MPD2     H 8802   1.285   3.960  16.366  1.5707  1.2752  0.6347
  590MPD2    H1 8803   1.544   3.734  16.616  0.8911 -0.1877 -1.1663
  590MPD2    H2 8804   1.128   3.774  16.716  1.0104 -3.2129 -0.4747
  590MPD2    H3 8805   1.342   3.694  16.775 -0.6609 -0.5873  0.0025
  590MPD2     N 8806   1.516   3.885  16.379 -0.3081 -0.5809  0.4418
  590MPD2    H5 8807   1.494   3.953  16.308  0.3250  2.3718  3.0805
  590MPD2    N1 8808   1.057   3.912  16.520 -0.2382 -0.3505 -0.2882
  590MPD2    H7 8809   0.992   3.893  16.595  0.2746  0.1280  0.2794
  591TMC3    C1 8810   1.717   3.907  16.286 -0.3331  0.0550  0.0388
  591TMC3    C2 8811   1.758   3.823  16.192 -0.5489  0.6826  0.5386
  591TMC3    C3 8812   1.740   3.853  16.058 -0.0599  0.4263 -0.1958
  591TMC3    C4 8813   1.671   4.029  16.253  0.8187  0.4522 -0.9906
  591TMC3    C5 8814   1.659   4.061  16.120 -0.6413  0.3219 -0.4944
  591TMC3    C6 8815   1.675   3.967  16.019 -0.1247 -0.5836 -0.0362
  591TMC3     C 8816   1.642   3.849  16.390 -0.2798  0.3380 -0.1737
  591TMC3     O 8817   1.696   3.758  16.447 -0.2533 -0.3005 -0.2128
  591TMC3     H 8818   1.796   3.729  16.231  0.8145  0.6757 -0.8029
  591TMC3    H1 8819   1.640   4.095  16.333  0.3873  2.7348 -3.0228
  591TMC3    H2 8820   1.630   3.979  15.921 -0.0490  2.2693  0.2822
  591TMC3    C7 8821   1.550   4.154  16.099  0.8050 -0.7632  0.6846
  591TMC3    C8 8822   1.765   3.740  15.966 -0.8455 -0.5259 -0.1440
  591TMC3    O1 8823   1.465   4.154  16.188  0.2652  0.6328  0.4909
  591TMC3    O2 8824   1.774   3.627  16.016  0.1495  0.4862 -0.1265
  592MPD2     C 8825   1.827   4.664  11.283  0.4240 -0.3916 -0.2307
  592MPD2    C1 8826   1.751   4.725  11.385 -0.4964  0.0381  0.2259
  592MPD2    C2 8827   1.698   4.638  11.480  0.3634 -0.3185  0.1890
  592MPD2    C3 8828   1.718   4.502  11.476 -0.6632  0.3777 -0.2903
  592MPD2    C4 8829   1.791   4.450  11.372 -0.3405 -0.2778  0.0577
  592MPD2    C5 8830   1.841   4.527  11.270  0.4466  0.0743  0.1551
  592MPD2     H 8831   1.645   4.679  11.565  1.6669  0.7911  0.4710
  592MPD2    H1 8832   1.816   4.345  11.363 -0.3691 -0.5241  2.7809
  592MPD2    H2 8833   1.864   4.722  11.200 -0.3305 -2.5350 -2.0619
  592MPD2    H3 8834   1.900   4.489  11.187 -0.8121 -0.7838 -0.3473
  592MPD2     N 8835   1.662   4.419  11.578 -0.2799 -0.2786 -0.3987
  592MPD2    H5 8836   1.626   4.473  11.657  3.4648  0.6660  0.7066
  592MPD2    N1 8837   1.743   0.133  11.385 -0.0284 -0.0664  0.4423
  592MPD2    H7 8838   1.789   0.180  11.308  4.6977 -2.1097  1.9991
  593TMC3    C1 8839   1.686   0.348  11.464  0.2118  0.4012  0.8163
  593TMC3    C2 8840   1.655   0.427  11.569 -0.3705 -0.0508  0.2378
  593TMC3    C3 8841   1.715   0.546  11.578 -0.1943 -0.1263  0.1201
  593TMC3    C4 8842   1.764   0.405  11.361 -0.4977 -0.1737  0.3370
  593TMC3    C5 8843   1.800   0.540  11.367  0.1166  0.4785  0.6848
  593TMC3    C6 8844   1.794   0.603  11.481  0.1942 -0.0003 -0.1455
  593TMC3     C 8845   1.677   0.207  11.487 -0.2091  0.2713 -0.1938
  593TMC3     O 8846   1.618   0.178  11.587 -0.0544  0.1400  0.1312
  593TMC3     H 8847   1.592   0.383  11.645  0.0812 -1.8704 -0.4612
  593TMC3    H1 8848   1.784   0.348  11.271 -1.5337  0.9225 -0.5846
  593TMC3    H2 8849   1.825   0.706  11.485  1.4889 -0.4319  0.7778
  593TMC3    C7 8850   1.853   0.615  11.247  0.2185  0.3097  0.6172
  593TMC3    C8 8851   1.718   0.600  11.720  0.4822  0.1995  0.4767
  593TMC3    O1 8852   1.865   0.733  11.263  0.5515 -0.1075  0.0215
  593TMC3    O2 8853   1.648   0.540  11.801  0.5484  0.2508  0.2528
  594MPD2     C 8854   1.187   4.089  14.430 -0.6274 -0.2957  0.4361
  594MPD2    C1 8855   1.076   4.163  14.393  0.1500  0.3635  0.8461
  594MPD2    C2 8856   1.098   4.259  14.296 -0.3016  0.0685 -0.6693
  594MPD2    C3 8857   1.223   4.303  14.256  0.4129  0.2536 -0.1960
  594MPD2    C4 8858   1.336   4.239  14.307  0.0362  0.3371 -0.3247
  594MPD2    C5 8859   1.314   4.138  14.397  0.7901 -0.1524 -0.3102
  594MPD2     H 8860   1.008   4.310  14.262  0.0656  0.7237 -0.6598
  594MPD2    H1 8861   1.437   4.269  14.280  0.9262 -0.9721  1.5955
  594MPD2    H2 8862   1.179   4.007  14.501 -2.4092  0.1979  0.7989
  594MPD2    H3 8863   1.396   4.087  14.446 -0.4621 -3.3825 -1.5998
  594MPD2     N 8864   1.233   4.401  14.159  0.3731 -0.3184  0.0396
  594MPD2    H5 8865   1.145   4.420  14.111  0.8638  2.3347  0.1683
  594MPD2    N1 8866   0.948   4.118  14.425 -0.3322  0.0226 -0.0911
  594MPD2    H7 8867   0.867   4.170  14.391 -0.5988  0.9197  1.9433
  595TMC3    C1 8868   1.429   0.012  13.911 -0.4224  0.2340  0.6518
  595TMC3    C2 8869   1.434   4.616  13.961  0.2355  0.5647 -0.5143
  595TMC3    C3 8870   1.315   4.555  13.998 -0.1891 -1.1076  0.2245
  595TMC3    C4 8871   1.327   0.094  13.924 -0.1755  0.0903 -0.1372
  595TMC3    C5 8872   1.215   0.035  13.980  0.0703  0.1462  0.2500
  595TMC3    C6 8873   1.206   4.635  14.009 -0.2515 -0.1861  0.0994
  595TMC3     C 8874   1.545   0.095  13.942 -1.0414 -0.1497 -0.3669
  595TMC3     O 8875   1.522   0.210  13.979  0.1586 -0.3186 -0.3556
  595TMC3     H 8876   1.517   4.552  13.935  1.4113  2.3173 -1.0507
  595TMC3    H1 8877   1.325   0.185  13.866  0.0475  0.2279  0.0706
  595TMC3    H2 8878   1.112   4.603  14.052 -0.2279 -1.7476 -1.0227
  595TMC3    C7 8879   1.145   0.118  14.076 -0.4974  0.2272 -0.6496
  595TMC3    C8 8880   1.346   4.450  14.096 -0.5257 -0.5837  0.2390
  595TMC3    O1 8881   1.032   0.092  14.110 -0.1796 -0.1779  0.0106
  595TMC3    O2 8882   1.464   4.431  14.117  0.3485  0.8695 -0.9044
  596MPD2     C 8883   0.073   2.748  16.770 -0.6213  0.1520  0.0448
  596MPD2    C1 8884   0.011   2.816  16.667 -0.3001  0.0537  0.2721
  596MPD2    C2 8885   0.046   2.797  16.535  0.5873 -0.2089  0.0740
  596MPD2    C3 8886   0.117   2.682  16.509 -0.1695 -0.2488  0.3759
  596MPD2    C4 8887   0.163   2.602  16.615 -0.2492  0.1328 -0.4947
  596MPD2    C5 8888   0.155   2.639  16.740  0.3333 -0.3127 -0.5951
  596MPD2     H 8889   0.001   2.856  16.455  0.2880 -2.7903 -1.6464
  596MPD2    H1 8890   0.208   2.505  16.600 -0.1308  0.2325 -0.7882
  596MPD2    H2 8891   0.068   2.782  16.873  0.6397  1.5234 -0.3387
  596MPD2    H3 8892   0.199   2.570  16.812  0.5886  2.0865  1.5722
  596MPD2     N 8893   0.129   2.634  16.375  0.2383 -0.5453 -0.4794
  596MPD2    H5 8894   0.164   2.539  16.368 -2.2917 -1.4587 -0.7851
  596MPD2    N1 8895   4.665   2.932  16.698 -0.1932  0.7237 -0.2925
  596MPD2    H7 8896   4.645   2.997  16.623 -0.7976  2.2410  1.2001
  597TMC3    C1 8897   4.548   3.102  16.820  0.2748 -0.0311  0.7023
  597TMC3    C2 8898   4.549   3.172  16.706 -0.0102 -0.2887 -0.1629
  597TMC3    C3 8899   4.472   3.285  16.699  0.0108  0.0944  0.2710
  597TMC3    C4 8900   4.471   3.141  16.929 -0.5058  0.2372  0.2672
  597TMC3    C5 8901   4.397   3.261  16.917  0.8221 -0.1288 -0.2276
  597TMC3    C6 8902   4.397   3.333  16.807 -0.1212 -0.4176 -0.0877
  597TMC3     C 8903   4.632   2.979  16.823 -0.2761  0.4161  0.0682
  597TMC3     O 8904   4.650   2.925  16.932  0.4261 -0.2332 -0.0411
  597TMC3     H 8905   4.616   3.152  16.623 -0.6209 -1.0099 -0.4914
  597TMC3    H1 8906   4.491   3.090  17.022 -1.0216 -1.0407 -0.3218
  597TMC3    H2 8907   4.356   3.433  16.806 -0.9506 -0.7618 -0.2453
  597TMC3    C7 8908   4.279   3.265  17.011  0.0879 -0.7732 -0.2054
  597TMC3    C8 8909   4.501   3.375  16.589  0.4305  0.1172  0.1241
  597TMC3    O1 8910   4.271   3.175  17.095  0.1988  0.1817 -0.1674
  597TMC3    O2 8911   4.616   3.374  16.552 -0.0603 -0.0410 -0.1745
  598TMC3    C1 8912   2.409   4.019  15.197 -0.0520 -0.6816 -0.0602
  598TMC3    C2 8913   2.336   3.943  15.104  0.7549  0.5926  0.6433
  598TMC3    C3 8914   2.318   3.991  14.981 -0.0291 -0.9669 -0.0718
  598TMC3    C4 8915   2.460   4.139  15.171  0.0546 -0.0683 -1.1965
  598TMC3    C5 8916   2.446   4.179  15.044 -0.5241 -0.6154 -0.8160
  598TMC3    C6 8917   2.375   4.108  14.947 -0.4710  0.8485 -0.2355
  598TMC3     C 8918   2.407   3.954  15.329  0.5377 -0.1184 -0.9119
  598TMC3     O 8919   2.366   3.836  15.332  0.1719  0.4466  0.4405
  598TMC3     H 8920   2.274   3.858  15.127 -1.3944  1.7116 -1.0472
  598TMC3    H1 8921   2.514   4.201  15.242  1.6023 -2.6328 -0.0914
  598TMC3    H2 8922   2.362   4.144  14.846  0.7836 -0.0017 -0.7046
  598TMC3    C7 8923   2.495   4.310  15.017  0.1872  0.7692 -0.1370
  598TMC3    C8 8924   2.195   3.941  14.915 -0.3114 -0.5073  0.4566
  598TMC3    O1 8925   2.470   4.396  15.096 -0.1960 -0.2614 -0.0815
  598TMC3    O2 8926   2.115   4.025  14.883  1.0409 -0.6212 -0.6808
  599MPD2     C 8927   2.612   1.635  15.644 -0.0511  0.0244  0.0138
  599MPD2    C1 8928   2.551   1.517  15.682  0.2238 -0.2120  0.0162
  599MPD2    C2 8929   2.425   1.514  15.729 -0.5897  0.0754  0.0591
  599MPD2    C3 8930   2.353   1.630  15.756 -0.6950 -0.3540  0.0437
  599MPD2    C4 8931   2.406   1.747  15.709 -0.2673  0.0534 -0.9286
  599MPD2    C5 8932   2.539   1.750  15.663 -0.0267  0.2166  0.4521
  599MPD2     H 8933   2.387   1.421  15.769  0.3520 -0.8336 -1.1730
  599MPD2    H1 8934   2.351   1.840  15.717 -0.9850 -0.7001  2.8117
  599MPD2    H2 8935   2.714   1.637  15.607 -0.2485 -0.1442 -0.5248
  599MPD2    H3 8936   2.584   1.844  15.632 -0.5755  0.3520  0.0624
  599MPD2     N 8937   2.231   1.634  15.824 -0.2113 -0.2218  0.2689
  599MPD2    H5 8938   2.184   1.723  15.834  1.1736  0.3217  1.7997
  599MPD2    N1 8939   2.628   1.405  15.658 -0.5173  0.1054 -0.4045
  599MPD2    H7 8940   2.727   1.423  15.640 -0.5689 -2.0338 -2.8468
  600TMC3    C1 8941   2.065   1.574  15.977  0.6429  0.0553  0.2097
  600TMC3    C2 8942   1.963   1.486  15.997 -0.4783  0.3532  0.5411
  600TMC3    C3 8943   1.879   1.509  16.101 -0.0158  0.3504 -0.4745
  600TMC3    C4 8944   2.082   1.689  16.054 -0.3287  0.1213  0.4583
  600TMC3    C5 8945   2.002   1.700  16.164  0.1976 -0.0370 -0.1002
  600TMC3    C6 8946   1.897   1.616  16.187 -0.1383  0.3514 -0.5970
  600TMC3     C 8947   2.159   1.530  15.883  0.0313  0.4324  0.1803
  600TMC3     O 8948   2.186   1.410  15.870 -0.3599 -0.1087  0.2428
  600TMC3     H 8949   1.947   1.403  15.929 -1.4577  1.6479 -0.7968
  600TMC3    H1 8950   2.164   1.757  16.034  0.2237 -0.8680 -0.6687
  600TMC3    H2 8951   1.834   1.635  16.272  1.8817 -0.2930  1.0397
  600TMC3    C7 8952   2.002   1.821  16.244 -0.2868 -0.0848  0.2131
  600TMC3    C8 8953   1.794   1.412  16.157 -0.4044  0.8819  0.5536
  600TMC3    O1 8954   1.915   1.835  16.333  0.1413 -0.2524 -0.0143
  600TMC3    O2 8955   1.814   1.388  16.274 -0.4232 -0.4775 -0.1418
  601MPD2     C 8956   4.587   0.468  17.740 -0.4263 -0.4376  0.0549
  601MPD2    C1 8957   4.486   0.417  17.667 -0.3528 -0.1179 -0.5473
  601MPD2    C2 8958   4.416   0.306  17.719 -0.9638 -0.1086  1.5503
  601MPD2    C3 8959   4.438   0.257   0.105 -0.2770  0.3767 -0.4973
  601MPD2    C4 8960   4.531   0.331   0.184 -0.3485 -0.0148 -0.0968
  601MPD2    C5 8961   4.610   0.427   0.127 -0.0999 -0.0942  0.2689
  601MPD2     H 8962   4.340   0.269  17.651 -2.3172  1.1989  2.3436
  601MPD2    H1 8963   4.552   0.302   0.286  0.5522  1.0864  0.0262
  601MPD2    H2 8964   4.656   0.541  17.700  0.2585 -2.0321 -1.6749
  601MPD2    H3 8965   4.683   0.477   0.190 -0.4104 -0.4770  0.9404
  601MPD2     N 8966   4.367   0.149   0.163  0.0805  0.1807  0.5774
  601MPD2    H5 8967   4.377   0.125   0.261 -0.6730 -1.3791  0.2618
  601MPD2    N1 8968   4.439   0.461  17.546 -0.5758 -0.3470  0.5491
  601MPD2    H7 8969   4.371   0.401  17.500 -2.1708  1.8137  0.1093
  602TMC3    C1 8970   4.423   0.610  17.361  0.6873 -0.0755 -0.5833
  602TMC3    C2 8971   4.377   0.735  17.328  1.2377 -0.3462 -0.0563
  602TMC3    C3 8972   4.299   0.753  17.211  0.2323  0.6521 -0.8596
  602TMC3    C4 8973   4.387   0.502  17.286 -0.8639  0.3721 -1.3834
  602TMC3    C5 8974   4.310   0.524  17.177 -0.7881  0.0090  0.1034
  602TMC3    C6 8975   4.268   0.645  17.135  0.0623  0.3199  0.0433
  602TMC3     C 8976   4.470   0.586  17.493  0.1659 -0.4133  0.4119
  602TMC3     O 8977   4.509   0.684  17.551  0.4284  0.8146 -0.3854
  602TMC3     H 8978   4.398   0.817  17.395 -0.6863  2.3903 -2.7974
  602TMC3    H1 8979   4.440   0.409  17.298 -2.9969 -0.6160  0.2912
  602TMC3    H2 8980   4.182   0.668  17.074  0.6439 -0.8283 -1.1915
  602TMC3    C7 8981   4.323   0.427  17.069 -0.6927 -0.4886 -0.0290
  602TMC3    C8 8982   4.242   0.882  17.166 -0.2149 -0.0760 -1.2083
  602TMC3    O1 8983   4.335   0.308  17.095 -0.0977  0.0277 -0.1722
  602TMC3    O2 8984   4.166   0.940  17.240  0.0489  0.6024 -0.3190
  603TMC3    C1 8985   2.135   0.281  10.773 -0.9121 -0.4021  0.6739
  603TMC3    C2 8986   2.237   0.296  10.863  0.3046 -0.4258 -0.2346
  603TMC3    C3 8987   2.340   0.374  10.834  0.2312  0.1373  0.9769
  603TMC3    C4 8988   2.127   0.360  10.667 -0.2752  0.1925  0.2822
  603TMC3    C5 8989   2.235   0.433  10.632 -0.3011  0.2419  0.6489
  603TMC3    C6 8990   2.344   0.442  10.712 -0.0505  1.0568 -0.0876
  603TMC3     C 8991   2.031   0.183  10.798  0.1520 -0.1933 -0.8840
  603TMC3     O 8992   1.916   0.214  10.772 -0.0185 -0.1324 -0.5632
  603TMC3     H 8993   2.232   0.240  10.955 -0.4972  0.0928  0.0263
  603TMC3    H1 8994   2.041   0.354  10.602 -0.2236 -1.0392  0.3340
  603TMC3    H2 8995   2.411   0.527  10.712  1.2806  0.0260  1.3087
  603TMC3    C7 8996   2.249   0.501  10.505 -0.3960 -1.2818  0.0171
  603TMC3    C8 8997   2.457   0.352  10.917 -0.5397  0.4312  0.0616
  603TMC3    O1 8998   2.363   0.526  10.465  0.0581 -0.1275  0.1309
  603TMC3    O2 8999   2.456   0.253  10.985  0.1958  0.4798  0.2485
  604MPD2     C 9000   3.364   3.359  16.294 -0.1383  0.4579  0.0364
  604MPD2    C1 9001   3.323   3.471  16.234  0.3022  0.3962  0.8139
  604MPD2    C2 9002   3.345   3.493  16.099 -0.9263  0.8398  0.2739
  604MPD2    C3 9003   3.405   3.390  16.028 -0.0173  0.1683 -0.1203
  604MPD2    C4 9004   3.434   3.269  16.087 -0.1817  0.4825  0.0443
  604MPD2    C5 9005   3.415   3.259  16.222 -0.3118 -0.8605  0.2503
  604MPD2     H 9006   3.331   3.586  16.046 -2.4010 -0.0295 -0.8532
  604MPD2    H1 9007   3.483   3.195  16.025 -3.5875 -2.1695  0.4932
  604MPD2    H2 9008   3.340   3.328  16.395 -0.5068  0.6175 -0.0003
  604MPD2    H3 9009   3.447   3.171  16.277  1.5182 -0.7487 -0.6173
  604MPD2     N 9010   3.433   3.415  15.888  0.2888 -0.7420  0.3315
  604MPD2    H5 9011   3.406   3.503  15.846  0.5082 -1.3165 -1.0112
  604MPD2    N1 9012   3.255   3.568  16.311 -0.2359 -0.6894 -0.0581
  604MPD2    H7 9013   3.245   3.550  16.410 -0.7263 -2.6363 -0.4681
  605TMC3    C1 9014   3.139   3.764  16.367 -0.5357  0.4883  0.3697
  605TMC3    C2 9015   3.241   3.811  16.438 -0.7243  0.1614 -0.5063
  605TMC3    C3 9016   3.228   3.928  16.500 -0.1961 -0.2279  0.0653
  605TMC3    C4 9017   3.032   3.844  16.328 -0.5694 -0.1776 -0.0815
  605TMC3    C5 9018   3.033   3.970  16.383  0.4134 -0.5599  0.5586
  605TMC3    C6 9019   3.129   4.015  16.472 -0.6887 -0.0293  0.3794
  605TMC3     C 9020   3.178   3.675  16.268 -0.6676 -0.6141  0.0567
  605TMC3     O 9021   3.176   3.711  16.149 -0.6385 -0.1998 -0.2148
  605TMC3     H 9022   3.315   3.745  16.483 -0.0069 -0.2107 -2.2511
  605TMC3    H1 9023   2.976   3.803  16.244 -0.4572  0.2301 -0.3545
  605TMC3    H2 9024   3.122   4.117  16.510  1.2549  0.2086  0.0813
  605TMC3    C7 9025   2.932   4.063  16.339 -0.1161 -0.3649 -0.3410
  605TMC3    C8 9026   3.357   3.978  16.546  0.3194  0.1984 -0.4318
  605TMC3    O1 9027   2.963   4.183  16.349 -0.0598  0.3429 -0.3138
  605TMC3    O2 9028   3.456   3.938  16.489  0.6231 -0.0770  0.0465
  606TMC3    C1 9029   4.523   2.643   1.168  0.2093  0.3756  0.6230
  606TMC3    C2 9030   4.545   2.517   1.213  0.0656  0.5337 -0.5344
  606TMC3    C3 9031   4.537   2.417   1.117 -0.3041  0.9812  0.0303
  606TMC3    C4 9032   4.493   2.665   1.037 -0.0719  0.0074 -0.6858
  606TMC3    C5 9033   4.463   2.562   0.956 -0.6093 -0.2413 -1.0607
  606TMC3    C6 9034   4.487   2.431   0.993 -0.1160 -0.0649 -0.0942
  606TMC3     C 9035   4.478   2.750   1.254 -0.6759 -0.1906  0.1353
  606TMC3     O 9036   4.414   2.840   1.203 -0.0117 -0.1994  0.4902
  606TMC3     H 9037   4.583   2.500   1.313  3.4329  0.6409 -1.7721
  606TMC3    H1 9038   4.484   2.769   1.008  1.5060  1.2132  3.0906
  606TMC3    H2 9039   4.485   2.348   0.924  2.7247  0.3065 -0.6184
  606TMC3    C7 9040   4.521   2.591   0.828  0.6670 -0.4901 -0.1440
  606TMC3    C8 9041   4.623   2.303   1.139 -0.2932 -0.1813  0.4111
  606TMC3    O1 9042   4.607   2.672   0.823  0.0290 -0.4674  0.0291
  606TMC3    O2 9043   4.632   2.229   1.041 -0.4674 -0.0687 -0.6579
  607MPD2     C 9044   2.137   0.376  11.240 -1.0759 -1.2664 -0.8362
  607MPD2    C1 9045   2.151   0.492  11.311 -0.1083  0.0191 -0.3371
  607MPD2    C2 9046   2.117   0.487  11.445  0.1187  0.4225  0.0795
  607MPD2    C3 9047   2.069   0.379  11.511 -0.2245 -0.2156  0.1433
  607MPD2    C4 9048   2.048   0.263  11.444 -0.4777 -0.1111 -0.7249
  607MPD2    C5 9049   2.090   0.265  11.306  0.4692 -0.5134 -0.8306
  607MPD2     H 9050   2.129   0.575  11.508  0.7481 -0.0834  0.6714
  607MPD2    H1 9051   2.016   0.171  11.492 -0.2068 -0.3124 -0.9329
  607MPD2    H2 9052   2.163   0.375  11.135  1.6139  1.1797 -0.2020
  607MPD2    H3 9053   2.092   0.175  11.244  0.0987  1.1956 -3.3271
  607MPD2     N 9054   2.058   0.397  11.649  0.0777 -0.3344  0.3883
  607MPD2    H5 9055   2.076   0.488  11.690 -2.7643  0.9778 -1.2804
  607MPD2    N1 9056   2.199   0.610  11.252  0.3480 -0.0389  0.1625
  607MPD2    H7 9057   2.210   0.685  11.319 -0.6431  2.0188 -1.9827
  608TMC3    C1 9058   2.307   0.761  11.126 -0.5671  0.2019  0.3382
  608TMC3    C2 9059   2.362   0.811  11.235  0.3702  0.0442  0.5373
  608TMC3    C3 9060   2.407   0.940  11.240 -0.4408  0.2865  0.6641
  608TMC3    C4 9061   2.300   0.839  11.008  0.8606  0.3889 -0.3217
  608TMC3    C5 9062   2.358   0.967  11.019 -0.2654  0.6972  0.8445
  608TMC3    C6 9063   2.427   1.012  11.128  0.9600 -0.6919  0.4456
  608TMC3     C 9064   2.247   0.631  11.126  0.1496  0.0607 -0.5033
  608TMC3     O 9065   2.206   0.570  11.026  0.1739 -0.0287 -0.2811
  608TMC3     H 9066   2.377   0.740  11.315 -1.0265  1.1924  1.8267
  608TMC3    H1 9067   2.240   0.803  10.926  0.0908 -1.3411  0.9966
  608TMC3    H2 9068   2.445   1.114  11.160 -0.3680 -0.4615  0.4757
  608TMC3    C7 9069   2.341   1.044  10.901 -0.5440  0.7237  0.0399
  608TMC3    C8 9070   2.459   0.989  11.364  0.2286  0.4917 -0.6395
  608TMC3    O1 9071   2.266   1.003  10.813  0.4330  0.0267  0.3584
  608TMC3    O2 9072   2.559   1.058  11.361 -0.3884  0.4159  0.1404
  609TMC3    C1 9073   0.485   4.069   9.010  0.2418 -0.1284 -0.0216
  609TMC3    C2 9074   0.428   3.973   8.921 -0.0443  0.1330 -0.2398
  609TMC3    C3 9075   0.512   3.871   8.887 -0.2316 -1.1102  0.1517
  609TMC3    C4 9076   0.615   4.071   9.054  0.3426  0.6479 -0.5904
  609TMC3    C5 9077   0.685   3.959   9.020  0.1251  0.0373  0.4727
  609TMC3    C6 9078   0.640   3.869   8.927  0.4899 -0.4756 -0.3838
  609TMC3     C 9079   0.393   4.140   9.092 -0.5539  0.2177  0.6827
  609TMC3     O 9080   0.426   4.186   9.199  0.4959  0.0886  0.2957
  609TMC3     H 9081   0.324   3.977   8.895 -0.1366 -0.2232  0.0587
  609TMC3    H1 9082   0.637   4.148   9.127  1.3613  1.1752 -1.4607
  609TMC3    H2 9083   0.669   3.766   8.946  1.7683  0.3574  2.1844
  609TMC3    C7 9084   0.786   3.911   9.111 -0.2691 -0.0091 -0.2689
  609TMC3    C8 9085   0.464   3.743   8.838  0.6290 -0.2187 -0.7344
  609TMC3    O1 9086   0.776   3.951   9.228  0.1983  0.2481  0.6361
  609TMC3    O2 9087   0.543   3.672   8.774 -0.4411  0.0369  0.8204
  610TMC3    C1 9088   2.854   0.675  12.048  0.0583 -0.0214 -0.0862
  610TMC3    C2 9089   2.798   0.675  11.925 -0.8891  0.4104 -0.6204
  610TMC3    C3 9090   2.759   0.554  11.867  0.3296  0.3714 -1.2303
  610TMC3    C4 9091   2.873   0.556  12.111  0.6271  0.7235 -0.3299
  610TMC3    C5 9092   2.821   0.440  12.057 -0.8627 -0.3904 -0.0341
  610TMC3    C6 9093   2.757   0.435  11.936 -0.1858 -0.4326  0.3490
  610TMC3     C 9094   2.896   0.795  12.123  0.8231  0.7543 -0.3690
  610TMC3     O 9095   2.934   0.783  12.236 -0.3778  0.3204  0.0249
  610TMC3     H 9096   2.793   0.767  11.867 -0.1463  1.6223  1.2410
  610TMC3    H1 9097   2.938   0.547  12.198  2.6432  2.7266 -1.6276
  610TMC3    H2 9098   2.732   0.337  11.896  0.5657 -0.4343 -0.1118
  610TMC3    C7 9099   2.857   0.316  12.119  0.0046 -0.1325  0.4986
  610TMC3    C8 9100   2.701   0.569  11.733  0.3510  0.5230 -0.1988
  610TMC3    O1 9101   2.969   0.306  12.171  0.4566  0.4795 -0.2827
  610TMC3    O2 9102   2.726   0.671  11.667 -0.6459 -0.3388 -0.2655
  611MPD2     C 9103   1.063   0.468  10.346 -0.4584 -1.0851 -0.3504
  611MPD2    C1 9104   1.027   0.513  10.225  1.3554 -0.2124  0.4172
  611MPD2    C2 9105   1.124   0.546  10.139  0.1993  0.5777  0.2768
  611MPD2    C3 9106   1.253   0.528  10.176 -0.2178 -0.2832  0.0963
  611MPD2    C4 9107   1.287   0.474  10.298  0.4933  0.2115 -0.3250
  611MPD2    C5 9108   1.192   0.447  10.381 -0.0781 -0.0892  0.1065
  611MPD2     H 9109   1.096   0.597  10.047  0.6762  0.0261 -0.1728
  611MPD2    H1 9110   1.390   0.441  10.312  0.4325 -0.3998 -1.3265
  611MPD2    H2 9111   0.994   0.450  10.428 -0.0677 -2.2206 -0.2788
  611MPD2    H3 9112   1.223   0.406  10.477 -2.0477 -1.3826  0.1870
  611MPD2     N 9113   1.355   0.585  10.099  0.1445 -0.2193  0.4234
  611MPD2    H5 9114   1.443   0.580  10.148 -0.3615  0.1177  1.3696
  611MPD2    N1 9115   0.886   0.520  10.196 -0.1151 -0.3930  0.7184
  611MPD2    H7 9116   0.830   0.503  10.280 -1.7855  1.5272 -0.0089
  612TMC3    C1 9117   1.465   0.706   9.912  0.2901  0.3562  0.4222
  612TMC3    C2 9118   1.588   0.706   9.973  0.1614  0.0383 -0.3064
  612TMC3    C3 9119   1.682   0.800   9.938 -0.1750  0.7062 -0.1734
  612TMC3    C4 9120   1.431   0.800   9.814  0.5349  0.2535  0.4895
  612TMC3    C5 9121   1.520   0.899   9.790 -0.2733 -0.1122  0.4187
  612TMC3    C6 9122   1.650   0.896   9.838 -0.1844  0.3648  0.1549
  612TMC3     C 9123   1.348   0.634   9.971 -1.1688  0.5350 -0.2366
  612TMC3     O 9124   1.249   0.628   9.896  0.2867  0.3924  0.2135
  612TMC3     H 9125   1.605   0.629  10.047 -0.1049  0.3133  0.0371
  612TMC3    H1 9126   1.330   0.805   9.776 -0.0235  1.9843  2.2009
  612TMC3    H2 9127   1.724   0.974   9.826  0.2115  0.1771  1.4284
  612TMC3    C7 9128   1.488   1.008   9.700  0.4222  0.4809 -0.4240
  612TMC3    C8 9129   1.821   0.782   9.966  0.1221 -0.1381 -0.1014
  612TMC3    O1 9130   1.372   1.019   9.660  0.0493  0.4359  0.3950
  612TMC3    O2 9131   1.899   0.861   9.914  0.2358 -0.4336  0.4197
  613MPD2     C 9132   0.994   1.826  16.572  0.0651 -0.7176  0.4429
  613MPD2    C1 9133   0.926   1.911  16.489 -0.0472  0.0612  0.2238
  613MPD2    C2 9134   0.865   1.865  16.378  0.2057 -0.0053 -0.5792
  613MPD2    C3 9135   0.866   1.730  16.346 -0.0606  0.1252  0.2068
  613MPD2    C4 9136   0.931   1.639  16.435 -0.5198 -0.0195  0.0402
  613MPD2    C5 9137   0.996   1.695  16.537 -0.2815 -0.2423 -0.1275
  613MPD2     H 9138   0.818   1.934  16.309 -1.4167 -0.5285  0.0040
  613MPD2    H1 9139   0.933   1.532  16.422  0.4367  0.0229 -0.1452
  613MPD2    H2 9140   1.038   1.873  16.659 -0.6811  0.0151  0.4234
  613MPD2    H3 9141   1.051   1.630  16.603  2.8079  0.0420 -2.3646
  613MPD2     N 9142   0.799   1.676  16.236  0.1263  0.2095 -0.2003
  613MPD2    H5 9143   0.818   1.577  16.221 -2.4608 -0.2858 -0.2207
  613MPD2    N1 9144   0.950   2.051  16.504 -0.2370 -0.0166  0.1133
  613MPD2    H7 9145   1.032   2.078  16.558  1.0883 -0.9577 -1.4609
  614TMC3    C1 9146   0.976   2.267  16.425 -0.3902 -0.4032 -0.5949
  614TMC3    C2 9147   1.091   2.235  16.348 -0.2488  0.0760 -0.5262
  614TMC3    C3 9148   1.110   2.296  16.221 -0.0810  0.0557 -0.8096
  614TMC3    C4 9149   0.910   2.377  16.388 -0.5725 -0.0777  0.5310
  614TMC3    C5 9150   0.939   2.441  16.272  0.5246 -0.3811  0.2490
  614TMC3    C6 9151   1.036   2.400  16.183  0.2385  0.2527 -0.2539
  614TMC3     C 9152   0.885   2.154  16.441 -0.2653 -0.3884 -0.0419
  614TMC3     O 9153   0.774   2.151  16.389  0.2265  0.2008  0.2153
  614TMC3     H 9154   1.154   2.152  16.378 -1.0556  0.1876  1.4962
  614TMC3    H1 9155   0.819   2.415  16.433 -1.6760 -0.5955 -1.2594
  614TMC3    H2 9156   1.058   2.455  16.092  1.7202  1.4211  0.8199
  614TMC3    C7 9157   0.870   2.566  16.246 -0.3930  0.5170  0.0878
  614TMC3    C8 9158   1.139   2.202  16.112 -0.3755  0.3261  0.4696
  614TMC3    O1 9159   0.854   2.645  16.342  0.5027  0.2354  0.5371
  614TMC3    O2 9160   1.142   2.086  16.154 -0.2590 -0.3987  0.1330
  615MPD2     C 9161   0.417   4.191  15.910 -0.0155 -0.1932 -0.5371
  615MPD2    C1 9162   0.359   4.108  16.004  0.2589 -0.1021 -0.7189
  615MPD2    C2 9163   0.279   4.000  15.963  0.3866 -0.2063 -0.1987
  615MPD2    C3 9164   0.293   3.954  15.828 -0.2526  0.3163 -0.2213
  615MPD2    C4 9165   0.368   4.031  15.740 -0.0009  0.1483  0.2911
  615MPD2    C5 9166   0.430   4.147  15.786 -0.1325  0.1157  0.7278
  615MPD2     H 9167   0.212   3.949  16.031  2.2712 -0.7782  1.2394
  615MPD2    H1 9168   0.358   4.004  15.635 -0.8734  1.8921 -0.0747
  615MPD2    H2 9169   0.471   4.283  15.930 -0.2839 -0.3085  0.6671
  615MPD2    H3 9170   0.492   4.208  15.722 -0.4207 -2.0644 -1.6530
  615MPD2     N 9171   0.215   3.857  15.760 -0.1232 -0.2034 -0.1654
  615MPD2    H5 9172   0.224   3.857  15.658 -0.8470 -0.8292 -0.2273
  615MPD2    N1 9173   0.376   4.130  16.142 -0.1802 -0.3073 -0.4334
  615MPD2    H7 9174   0.325   4.075  16.210  1.3815 -1.0031  0.1693
  616TMC3    C1 9175   0.461   4.227  16.342  0.4461 -0.0169 -0.0373
  616TMC3    C2 9176   0.572   4.285  16.396  0.7120  0.3501  0.4515
  616TMC3    C3 9177   0.565   4.314  16.530  0.1851 -0.4550  0.3604
  616TMC3    C4 9178   0.339   4.221  16.403  0.0961 -1.3593  0.5190
  616TMC3    C5 9179   0.333   4.248  16.540 -0.1474  0.1193 -0.3444
  616TMC3    C6 9180   0.448   4.299  16.603 -0.2980  0.1633 -0.1831
  616TMC3     C 9181   0.465   4.218  16.198 -0.0680 -0.1842 -0.3097
  616TMC3     O 9182   0.548   4.291  16.153  0.1918 -0.1329  0.1753
  616TMC3     H 9183   0.662   4.293  16.336  1.4298  0.3706  1.5279
  616TMC3    H1 9184   0.257   4.167  16.356  0.2922  0.0128 -1.4307
  616TMC3    H2 9185   0.442   4.319  16.710 -3.8583  0.3292 -0.3967
  616TMC3    C7 9186   0.220   4.201  16.621  0.6893 -0.0271 -0.0894
  616TMC3    C8 9187   0.683   4.282  16.611  0.6402 -0.1762  0.2182
  616TMC3    O1 9188   0.239   4.207  16.741  0.2588 -0.1747  0.1768
  616TMC3    O2 9189   0.673   4.246  16.729 -0.0808  0.2523  0.1032
  617MPD2     C 9190   3.081   2.278  14.227  0.3744 -0.2995 -0.0002
  617MPD2    C1 9191   3.104   2.163  14.305 -0.0641  0.1099 -0.0989
  617MPD2    C2 9192   3.006   2.068  14.300 -0.1930  0.8947  0.7171
  617MPD2    C3 9193   2.893   2.078  14.226 -0.1409  0.5654 -0.0670
  617MPD2    C4 9194   2.873   2.188  14.153 -0.3165  0.3056  0.5987
  617MPD2    C5 9195   2.963   2.288  14.156 -1.0765 -0.0222  0.1350
  617MPD2     H 9196   3.020   1.976  14.356 -1.3523  0.9955  1.1676
  617MPD2    H1 9197   2.778   2.205  14.104  0.8889 -0.0706 -1.8400
  617MPD2    H2 9198   3.156   2.356  14.231 -1.7887  1.7934  0.2772
  617MPD2    H3 9199   2.940   2.373  14.092 -2.0054 -1.0425 -0.8878
  617MPD2     N 9200   2.782   1.988  14.229 -0.3177 -0.8399  0.1597
  617MPD2    H5 9201   2.708   2.001  14.160 -2.5959 -2.9724  2.2063
  617MPD2    N1 9202   3.214   2.160  14.390 -0.1015  0.4692 -0.3718
  617MPD2    H7 9203   3.276   2.240  14.381 -0.4316  1.0205  2.2455
  618TMC3    C1 9204   3.394   2.070  14.505  0.8183 -0.0506 -0.2085
  618TMC3    C2 9205   3.480   1.990  14.435  0.2695 -0.4087 -0.5452
  618TMC3    C3 9206   3.608   2.039  14.415 -0.0536 -0.1517 -0.1321
  618TMC3    C4 9207   3.425   2.187  14.548 -0.0273 -0.3515  0.0794
  618TMC3    C5 9208   3.557   2.241  14.535  0.7071  0.4832  0.1812
  618TMC3    C6 9209   3.649   2.161  14.469  0.5383  0.5310  0.2921
  618TMC3     C 9210   3.263   2.050  14.456 -0.5643  0.4727  0.2261
  618TMC3     O 9211   3.218   1.937  14.452 -0.0744 -0.2874 -0.3043
  618TMC3     H 9212   3.436   1.899  14.394 -0.5023  0.8337 -2.4754
  618TMC3    H1 9213   3.349   2.250  14.592 -1.0903 -1.8199  0.3475
  618TMC3    H2 9214   3.747   2.205  14.455 -0.2403  2.5818  1.1686
  618TMC3    C7 9215   3.589   2.367  14.602 -0.4196  0.3050  0.8293
  618TMC3    C8 9216   3.651   2.001  14.283 -0.3137 -0.0169 -0.0971
  618TMC3    O1 9217   3.553   2.380  14.716  0.6157 -0.8324 -0.2487
  618TMC3    O2 9218   3.578   1.920  14.225  0.6003 -0.1727  0.3936
  619MPD2     C 9219   0.125   3.315  13.776 -0.0977 -0.2835  0.3023
  619MPD2    C1 9220   0.080   3.387  13.663 -0.2322  0.6727  0.0930
  619MPD2    C2 9221   4.678   3.403  13.658  0.2793  0.2281  1.1053
  619MPD2    C3 9222   4.579   3.345  13.737  0.8828 -0.2224 -0.0403
  619MPD2    C4 9223   4.622   3.255  13.832  0.8510 -0.4899  0.2113
  619MPD2    C5 9224   0.024   3.251  13.850  0.5224  0.2525  0.0409
  619MPD2     H 9225   4.648   3.461  13.572  2.8526 -1.4400 -0.9018
  619MPD2    H1 9226   4.553   3.204  13.898 -1.5814  1.2527 -0.9776
  619MPD2    H2 9227   0.229   3.306  13.806 -0.6816 -0.4164  2.3274
  619MPD2    H3 9228   0.062   3.189  13.930 -2.4443 -0.9668  0.5267
  619MPD2     N 9229   4.443   3.364  13.713 -0.0151 -0.6442 -0.2608
  619MPD2    H5 9230   4.385   3.305  13.771 -1.7400  2.4524  1.1661
  619MPD2    N1 9231   0.156   3.445  13.566  0.0830 -0.0021 -0.3163
  619MPD2    H7 9232   0.117   3.501  13.491 -0.3280  2.4800  1.7421
  620TMC3    C1 9233   0.336   3.523  13.445 -0.4501 -0.7062  0.0679
  620TMC3    C2 9234   0.263   3.514  13.328 -0.2175  0.0456 -0.4202
  620TMC3    C3 9235   0.284   3.606  13.232  0.0591  0.1291  0.4112
  620TMC3    C4 9236   0.435   3.614  13.464 -0.1442 -0.0380  0.4018
  620TMC3    C5 9237   0.462   3.697  13.356 -0.3899 -0.4648  0.0035
  620TMC3    C6 9238   0.392   3.690  13.240  0.7012 -0.7266 -0.1615
  620TMC3     C 9239   0.294   3.444  13.560 -0.1071 -0.1176 -0.5004
  620TMC3     O 9240   0.370   3.394  13.641  0.1611  0.0110 -0.0472
  620TMC3     H 9241   0.177   3.450  13.314  0.0513 -0.4101 -0.0060
  620TMC3    H1 9242   0.484   3.631  13.559  1.4295 -0.0156 -0.4108
  620TMC3    H2 9243   0.419   3.750  13.154  2.2595  0.4027  1.1096
  620TMC3    C7 9244   0.494   3.832  13.397  0.2637  1.0293  0.1841
  620TMC3    C8 9245   0.162   3.683  13.210  0.2749  0.1740 -0.0283
  620TMC3    O1 9246   0.581   3.848  13.482 -0.0773  0.2607  0.3043
  620TMC3    O2 9247   0.175   3.801  13.234  0.4244  0.2117 -0.0785
  621MPD2     C 9248   4.527   2.807  10.275  0.6039  0.0224  0.2201
  621MPD2    C1 9249   4.639   2.795  10.195  0.1042 -0.9059 -0.7512
  621MPD2    C2 9250   0.005   2.887  10.194  0.0724  0.4132  0.2347
  621MPD2    C3 9251   4.720   3.000  10.266 -0.4075 -0.1282 -0.1789
  621MPD2    C4 9252   4.610   3.021  10.345 -0.6076 -0.5510 -0.4987
  621MPD2    C5 9253   4.520   2.913  10.357 -0.0639  0.1962  0.4399
  621MPD2     H 9254   0.097   2.871  10.138  0.4479  0.6205  0.7883
  621MPD2    H1 9255   4.598   3.108  10.408 -1.1529 -1.9402  1.3446
  621MPD2    H2 9256   4.450   2.734  10.295  1.9645 -1.2241  0.9011
  621MPD2    H3 9257   4.437   2.925  10.426 -1.5815  1.1372 -1.5251
  621MPD2     N 9258   0.073   3.100  10.232  0.7631 -0.3456 -0.4444
  621MPD2    H5 9259   0.133   3.079  10.153  0.8581  1.3864 -0.8323
  621MPD2    N1 9260   4.654   2.682  10.109 -0.7417 -0.0694  0.1425
  621MPD2    H7 9261   4.717   2.702  10.032  2.8320 -1.3045  2.7491
  622TMC3    C1 9262   4.601   2.493   9.987 -0.5458  0.3694 -0.2532
  622TMC3    C2 9263   4.504   2.397   9.957 -0.5371 -0.3174 -0.2979
  622TMC3    C3 9264   4.490   2.353   9.827  0.1114  0.4889 -0.8222
  622TMC3    C4 9265   4.695   2.542   9.892 -0.7629 -0.0972  0.0761
  622TMC3    C5 9266   4.684   2.476   9.771  0.8183 -0.0062  0.2620
  622TMC3    C6 9267   4.593   2.378   9.741 -0.4687  0.4811  0.2470
  622TMC3     C 9268   4.570   2.569  10.108  0.1121  0.2082  0.0005
  622TMC3     O 9269   4.477   2.539  10.185  0.5568  0.0397  0.5802
  622TMC3     H 9270   4.426   2.377  10.029  0.5390 -0.5427  0.8027
  622TMC3    H1 9271   0.049   2.596   9.920  1.6990 -2.9428 -2.3191
  622TMC3    H2 9272   4.591   2.333   9.643  2.5742  2.4804 -0.7480
  622TMC3    C7 9273   0.029   2.527   9.662 -0.0920 -0.8373 -0.5533
  622TMC3    C8 9274   4.369   2.275   9.787 -0.0257 -0.0456 -0.4292
  622TMC3    O1 9275   0.075   2.442   9.586  0.3003  0.1208  0.1913
  622TMC3    O2 9276   4.389   2.194   9.699  0.2557 -0.1667  0.3652
  623MPD2     C 9277   3.778   4.290  15.590 -0.1269 -0.1935  0.0250
  623MPD2    C1 9278   3.682   4.248  15.686  0.6469 -0.2860 -0.2830
  623MPD2    C2 9279   3.724   4.260  15.818 -0.1360 -0.0119 -0.1604
  623MPD2    C3 9280   3.853   4.294  15.865 -0.4224  0.3948  0.6955
  623MPD2    C4 9281   3.943   4.326  15.768  0.3617 -0.0824 -0.7158
  623MPD2    C5 9282   3.907   4.327  15.635  0.6499  0.8119  0.3513
  623MPD2     H 9283   3.642   4.249  15.888 -0.2457 -0.2696 -0.3304
  623MPD2    H1 9284   4.045   4.349  15.796  0.3891 -1.4367  0.3196
  623MPD2    H2 9285   3.760   4.297  15.483 -0.2425 -0.2287  0.0417
  623MPD2    H3 9286   3.985   4.354  15.564  1.8464 -1.3323  0.8681
  623MPD2     N 9287   3.878   4.312  16.002  0.1020 -0.2609 -0.5381
  623MPD2    H5 9288   3.795   4.289  16.056  0.4064  1.0707  0.4870
  623MPD2    N1 9289   3.556   4.184  15.661  0.3082  0.5829 -0.0163
  623MPD2    H7 9290   3.506   4.155  15.744 -2.0339 -0.1957 -1.6865
  624TMC3    C1 9291   4.083   4.392  16.404 -0.3475  0.3040  0.8937
  624TMC3    C2 9292   3.965   4.395  16.470 -0.8402  0.2963 -0.3266
  624TMC3    C3 9293   3.850   4.398  16.396  1.3275  0.0999 -0.2182
  624TMC3    C4 9294   4.099   4.388  16.270 -0.2155  0.5816 -0.4208
  624TMC3    C5 9295   3.981   4.379  16.200  0.2996 -0.0517  0.2442
  624TMC3    C6 9296   3.855   4.386  16.257  0.3190 -0.3119 -0.6796
  624TMC3     C 9297   4.203   4.404  16.488 -0.5095 -0.2624 -0.0157
  624TMC3     O 9298   4.189   4.416  16.609 -0.3197 -0.1975 -0.4168
  624TMC3     H 9299   3.966   4.389  16.578 -0.7490  0.1928 -0.3336
  624TMC3    H1 9300   4.192   4.376  16.215 -0.6864  0.6784 -1.2284
  624TMC3    H2 9301   3.762   4.397  16.203  0.4318 -2.6354 -1.3243
  624TMC3    C7 9302   3.986   4.372  16.062 -0.3495  0.6343 -0.6312
  624TMC3    C8 9303   3.734   4.332  16.450 -0.3658  0.2389 -0.6906
  624TMC3    O1 9304   4.079   4.426  16.008 -0.3327  0.1822 -0.0484
  624TMC3    O2 9305   3.659   4.278  16.374  0.2887  0.0079  0.0665
  625MPD2     C 9306   4.449   0.593   0.933 -0.2539 -0.2833  0.0940
  625MPD2    C1 9307   4.541   0.703   0.917 -0.7666 -0.2254 -0.4346
  625MPD2    C2 9308   4.655   0.701   0.987 -0.2557 -0.0858  0.1310
  625MPD2    C3 9309   4.676   0.612   1.082 -0.1219 -0.5458 -0.6374
  625MPD2    C4 9310   4.589   0.510   1.103 -0.1254 -0.0581  0.4154
  625MPD2    C5 9311   4.479   0.503   1.031  0.2277 -0.6720  0.2082
  625MPD2     H 9312   4.726   0.782   0.976 -0.4821 -0.0364 -1.0090
  625MPD2    H1 9313   4.614   0.425   1.166  2.7521  0.0794 -0.5114
  625MPD2    H2 9314   4.355   0.576   0.883 -0.5877 -1.3102  1.0567
  625MPD2    H3 9315   4.403   0.429   1.055 -1.5019  1.0779  0.1872
  625MPD2     N 9316   0.052   0.616   1.171 -0.2352 -0.3957  0.3217
  625MPD2    H5 9317   0.039   0.563   1.256  4.2773 -0.5327  0.8891
  625MPD2    N1 9318   4.510   0.822   0.844  0.8719 -0.1149  0.3396
  625MPD2    H7 9319   4.588   0.884   0.825  0.7917 -0.2303 -0.3637
  626TMC3    C1 9320   4.387   0.969   0.714 -0.6016 -0.1282 -0.4599
  626TMC3    C2 9321   4.297   0.972   0.610 -0.0333  0.1940  0.0864
  626TMC3    C3 9322   4.220   1.083   0.593  0.6797 -0.6120  0.0021
  626TMC3    C4 9323   4.420   1.074   0.784  0.3756  0.5429  0.3831
  626TMC3    C5 9324   4.357   1.188   0.755  0.3303 -0.1126  0.6591
  626TMC3    C6 9325   4.265   1.202   0.655 -1.1040 -0.1771  0.1982
  626TMC3     C 9326   4.385   0.844   0.785 -0.2996 -0.0152 -0.6786
  626TMC3     O 9327   4.294   0.766   0.766  0.0505 -0.3667  0.2764
  626TMC3     H 9328   4.264   0.883   0.557  3.1242 -0.8188 -0.1849
  626TMC3    H1 9329   4.470   1.057   0.879  1.7053  1.1875 -0.2054
  626TMC3    H2 9330   4.219   1.296   0.626 -0.3988 -0.1631 -0.8772
  626TMC3    C7 9331   4.357   1.294   0.865  0.5535  0.0014  0.0066
  626TMC3    C8 9332   4.168   1.088   0.459  0.6763 -0.5289  0.6865
  626TMC3    O1 9333   4.446   1.276   0.947 -0.5300 -0.5498  0.2463
  626TMC3    O2 9334   4.161   1.194   0.401  0.0792  0.2887 -0.2617
  627MPD2     C 9335   3.173   0.805  14.456 -0.7255 -0.2280 -0.6135
  627MPD2    C1 9336   3.040   0.805  14.477 -0.4817  0.0287 -0.0880
  627MPD2    C2 9337   2.952   0.784  14.369 -0.2987 -0.0508 -0.7942
  627MPD2    C3 9338   2.995   0.747  14.242  0.4418  0.4460 -0.1528
  627MPD2    C4 9339   3.137   0.748  14.220  0.1990  0.5090 -0.1112
  627MPD2    C5 9340   3.214   0.785  14.330 -0.0525  0.3511 -0.2348
  627MPD2     H 9341   2.846   0.777  14.387 -0.1300  1.9220  1.0222
  627MPD2    H1 9342   3.181   0.729  14.123 -0.4797  3.1640 -0.9623
  627MPD2    H2 9343   3.252   0.818  14.529 -0.7579 -1.3772 -0.3824
  627MPD2    H3 9344   3.318   0.772  14.301 -0.6033 -1.2502 -1.4531
  627MPD2     N 9345   2.902   0.707  14.142  0.2491  0.3743  0.2298
  627MPD2    H5 9346   2.810   0.674  14.170  0.2589 -0.1353 -0.3500
  627MPD2    N1 9347   2.996   0.836  14.610 -0.5223 -0.3963  0.1391
  627MPD2    H7 9348   3.069   0.851  14.678 -0.6856  0.6011  0.0945
  628TMC3    C1 9349   2.852   0.873  14.793  0.2301 -0.2296 -0.1379
  628TMC3    C2 9350   2.953   0.936  14.868  0.2188  0.1103 -0.1194
  628TMC3    C3 9351   2.911   1.021  14.968 -0.3920 -0.0777 -0.0514
  628TMC3    C4 9352   2.727   0.881  14.841 -0.4643 -0.0163  0.2873
  628TMC3    C5 9353   2.689   0.965  14.945 -0.5481 -0.2688 -0.1637
  628TMC3    C6 9354   2.780   1.043  14.998  0.6994  0.2090  0.7540
  628TMC3     C 9355   2.865   0.849  14.648  0.3742  0.0080  0.4385
  628TMC3     O 9356   2.762   0.811  14.592  0.2560  0.3329 -0.3900
  628TMC3     H 9357   3.054   0.948  14.830  0.3968  2.3521  1.1181
  628TMC3    H1 9358   2.650   0.829  14.786  1.3290 -0.9802 -1.3042
  628TMC3    H2 9359   2.751   1.105  15.083  1.2323  1.3835  0.0796
  628TMC3    C7 9360   2.562   1.022  14.914  0.2473  0.2694  0.0309
  628TMC3    C8 9361   3.009   1.085  15.051  0.0248 -0.1799  0.2233
  628TMC3    O1 9362   2.476   0.944  14.876 -0.7855  0.0265 -0.1493
  628TMC3    O2 9363   2.973   1.174  15.128  0.3961  0.9219  0.1939
  629MPD2     C 9364   1.198   4.186  16.663  0.0064 -0.3651  0.2393
  629MPD2    C1 9365   1.181   4.276  16.562 -0.2799  0.4276  0.3089
  629MPD2    C2 9366   1.050   4.305  16.523  0.0009  0.8506  1.8082
  629MPD2    C3 9367   0.937   4.261  16.599 -0.7871 -0.7556  0.2208
  629MPD2    C4 9368   0.960   4.173  16.707  0.2560 -0.3531 -0.3248
  629MPD2    C5 9369   1.089   4.139  16.734  0.1132 -0.5620 -0.0343
  629MPD2     H 9370   1.035   4.374  16.441 -1.3199 -0.2940  1.0816
  629MPD2    H1 9371   0.879   4.139  16.770 -2.6894  2.0322 -2.8300
  629MPD2    H2 9372   1.299   4.158  16.691  1.2121  2.3933 -1.3809
  629MPD2    H3 9373   1.096   4.087  16.829  2.4692  1.4280  0.8661
  629MPD2     N 9374   0.809   4.288  16.541  0.0813 -0.4065  0.6963
  629MPD2    H5 9375   0.812   4.337  16.452  0.3130  0.0316  0.9457
  629MPD2    N1 9376   1.301   4.322  16.503  0.4927  0.0591 -0.0168
  629MPD2    H7 9377   1.388   4.292  16.545  0.1931 -1.5730 -0.5385
  630TMC3    C1 9378   1.447   4.450  16.366 -0.1981 -0.1293 -0.2279
  630TMC3    C2 9379   1.459   4.542  16.262  0.0957 -0.4081 -0.0820
  630TMC3    C3 9380   1.584   4.576  16.230 -0.6514  0.1671  0.3526
  630TMC3    C4 9381   1.547   4.398  16.440  0.0605  0.0361  0.4914
  630TMC3    C5 9382   1.673   4.444  16.405  0.2172 -0.4999  0.2781
  630TMC3    C6 9383   1.692   4.532  16.299 -0.0795  0.4137 -0.2665
  630TMC3     C 9384   1.311   4.410  16.394  0.4254 -0.0863  0.3115
  630TMC3     O 9385   1.219   4.452  16.320 -0.6934  0.1996  0.4679
  630TMC3     H 9386   1.375   4.588  16.212  0.0194 -0.6295 -0.1558
  630TMC3    H1 9387   1.524   4.370  16.542 -1.5884 -1.3475 -0.2577
  630TMC3    H2 9388   1.791   4.573  16.284  0.2977 -0.0186  1.1021
  630TMC3    C7 9389   1.743   4.487  16.522  0.0992  0.0656 -0.3342
  630TMC3    C8 9390   1.589   4.716  16.222 -0.6927  0.4171  0.2509
  630TMC3    O1 9391   1.791   4.407  16.605  0.9071 -0.2658  0.1368
  630TMC3    O2 9392   1.642   0.034  16.316  0.0809  0.8657  0.1821
  631MPD2     C 9393   3.973   3.991  15.523 -0.5223 -0.0452  0.1773
  631MPD2    C1 9394   4.086   4.028  15.458 -0.0974 -0.4492 -0.2291
  631MPD2    C2 9395   4.202   3.962  15.480  0.6674  0.2503  0.1769
  631MPD2    C3 9396   4.220   3.865  15.577 -0.1848  0.1985  0.5252
  631MPD2    C4 9397   4.115   3.825  15.644 -0.8770  0.2032  0.1184
  631MPD2    C5 9398   3.995   3.887  15.621  0.7685 -0.1615  0.4363
  631MPD2     H 9399   4.291   3.984  15.422  0.2059 -1.4741 -1.1866
  631MPD2    H1 9400   4.116   3.748  15.721 -0.1338 -0.5145 -0.6020
  631MPD2    H2 9401   3.878   4.040  15.506 -2.6230 -4.0117  0.4949
  631MPD2    H3 9402   3.908   3.861  15.681  1.8718 -2.3126  1.1064
  631MPD2     N 9403   4.352   3.817  15.593  0.6224  0.0679  0.1972
  631MPD2    H5 9404   4.417   3.844  15.520  0.1460  0.8590  0.0628
  631MPD2    N1 9405   4.076   4.126  15.352  0.7549 -0.3361 -0.4863
  631MPD2    H7 9406   3.985   4.141  15.310  1.0565 -1.0388 -1.3859
  632TMC3    C1 9407   4.144   4.257  15.172  0.2417  0.3761  0.2116
  632TMC3    C2 9408   4.020   4.320  15.165  0.0066  0.2825 -0.5967
  632TMC3    C3 9409   3.981   4.368  15.045 -0.1018  0.6058 -0.0200
  632TMC3    C4 9410   4.235   4.273  15.070 -0.7399  0.0188 -0.8641
  632TMC3    C5 9411   4.200   4.343  14.962  0.3388  0.3254 -0.0946
  632TMC3    C6 9412   4.070   4.393  14.940 -0.0362 -0.5713 -0.2369
  632TMC3     C 9413   4.181   4.191  15.296  0.0685 -0.2247  1.0843
  632TMC3     O 9414   4.292   4.208  15.343 -0.0374  0.0063  0.1529
  632TMC3     H 9415   3.948   4.314  15.246  1.8544  0.4403  1.0585
  632TMC3    H1 9416   4.335   4.233  15.081 -1.8071 -2.2908  0.4467
  632TMC3    H2 9417   4.047   4.436  14.844 -2.4974 -0.4053  0.4193
  632TMC3    C7 9418   4.295   4.407  14.867 -0.3229  0.4485  0.1057
  632TMC3    C8 9419   3.843   4.403  15.033 -0.3947 -0.0272 -0.4710
  632TMC3    O1 9420   4.271   4.403  14.749  0.6391 -0.2845 -0.8804
  632TMC3    O2 9421   3.771   4.400  15.133  0.3231  0.7244  0.1290
  633MPD2     C 9422   4.020   2.898  17.515  0.4892 -0.2250 -0.3381
  633MPD2    C1 9423   4.029   2.787  17.433 -0.3260 -0.1242  0.7362
  633MPD2    C2 9424   4.048   2.663  17.491  0.0945 -0.8877  0.1839
  633MPD2    C3 9425   4.035   2.644  17.626  0.0500  0.2142  0.0830
  633MPD2    C4 9426   4.027   2.754  17.709  0.3893  0.1298  0.1969
  633MPD2    C5 9427   4.022   2.879  17.650 -0.0966 -0.2888  0.5381
  633MPD2     H 9428   4.069   2.581  17.423 -1.0479  0.4422 -1.7701
  633MPD2    H1 9429   4.016   2.754   0.074 -0.7751  0.1639  0.0735
  633MPD2    H2 9430   4.023   3.000  17.479 -0.6434 -0.1765 -0.2922
  633MPD2    H3 9431   4.001   2.968  17.709 -1.1056 -0.1264 -0.0556
  633MPD2     N 9432   4.054   2.524  17.701  0.1190  0.5070  0.2847
  633MPD2    H5 9433   4.076   2.527   0.058  1.1531 -1.5968  0.1222
  633MPD2    N1 9434   4.068   2.806  17.296 -0.4441  0.8343  0.2911
  633MPD2    H7 9435   4.107   2.735  17.236  3.4536  2.3530  1.0524
  634TMC3    C1 9436   4.087   2.911  17.077  0.0659 -0.5992 -0.1763
  634TMC3    C2 9437   4.193   2.833  17.041 -0.9962  0.3181  0.1484
  634TMC3    C3 9438   4.225   2.830  16.908 -0.1284  0.1170 -0.1469
  634TMC3    C4 9439   4.012   2.989  16.989 -0.4747  0.1304 -0.0599
  634TMC3    C5 9440   4.054   2.985  16.859  0.3443 -0.5995  0.5596
  634TMC3    C6 9441   4.156   2.904  16.819  0.3229  0.0405 -0.1449
  634TMC3     C 9442   4.053   2.924  17.221  0.2776 -0.1565 -0.4215
  634TMC3     O 9443   3.977   3.014  17.255  0.3351  0.3554 -0.1821
  634TMC3     H 9444   4.256   2.779  17.111 -0.1385  0.8787 -0.1870
  634TMC3    H1 9445   3.934   3.057  17.019 -2.6299 -2.4866  0.2681
  634TMC3    H2 9446   4.182   2.905  16.714  3.1113  1.2256  0.5442
  634TMC3    C7 9447   3.973   3.039  16.751  0.3485 -0.3386  0.2814
  634TMC3    C8 9448   4.326   2.727  16.869  0.2774 -0.0157 -0.9644
  634TMC3    O1 9449   4.008   3.012  16.639 -0.1803 -0.1864 -0.5603
  634TMC3    O2 9450   4.376   2.653  16.955 -1.1269 -0.1281 -0.1231
  635TMC3    C1 9451   3.877   3.892  17.518 -0.4426 -0.7968 -0.1440
  635TMC3    C2 9452   3.901   3.927  17.389 -0.2245  0.1454  0.7783
  635TMC3    C3 9453   3.942   3.827  17.295 -0.5748  0.4608  0.0743
  635TMC3    C4 9454   3.895   3.760  17.559 -1.1593  0.3056 -0.2918
  635TMC3    C5 9455   3.936   3.667  17.467 -0.0767 -0.0154 -0.8665
  635TMC3    C6 9456   3.962   3.701  17.335 -0.1127  0.1254 -0.3381
  635TMC3     C 9457   3.879   3.999  17.612  0.2872  0.7163 -0.7097
  635TMC3     O 9458   3.926   4.109  17.579  0.0807 -0.2363  0.4658
  635TMC3     H 9459   3.892   4.026  17.346  1.1183 -0.7740 -1.6466
  635TMC3    H1 9460   3.896   3.735  17.664 -0.4926 -1.4327 -0.7193
  635TMC3    H2 9461   3.980   3.627  17.257  2.5957 -0.5093  0.9062
  635TMC3    C7 9462   3.965   3.535  17.526 -0.1761 -0.2350  0.1323
  635TMC3    C8 9463   3.985   3.875  17.164  0.1436 -0.0889  0.2692
  635TMC3    O1 9464   3.905   3.511  17.629 -0.5912  0.3260  0.2913
  635TMC3    O2 9465   3.974   3.995  17.144  0.6509  0.0648  0.7399
  636MPD2     C 9466   0.556   2.357  15.699  0.0953 -0.4360 -0.5574
  636MPD2    C1 9467   0.533   2.320  15.835 -0.0962  0.1938 -0.0306
  636MPD2    C2 9468   0.548   2.187  15.863  0.2685  0.8141  0.7759
  636MPD2    C3 9469   0.587   2.091  15.771 -0.5546 -0.3588 -0.8767
  636MPD2    C4 9470   0.606   2.126  15.638  0.1945 -0.1037  0.2137
  636MPD2    C5 9471   0.590   2.259  15.609  0.2346 -0.0157  0.4041
  636MPD2     H 9472   0.532   2.152  15.965  0.1575  2.5480  1.3520
  636MPD2    H1 9473   0.631   2.066  15.551 -0.2769 -1.0987  0.7700
  636MPD2    H2 9474   0.558   2.460  15.663  1.3687 -0.8011 -1.5392
  636MPD2    H3 9475   0.608   2.287  15.506 -2.9105 -1.5529 -0.5553
  636MPD2     N 9476   0.608   1.954  15.811 -0.7948  0.1612  0.1127
  636MPD2    H5 9477   0.602   1.940  15.912  0.1349 -1.2068 -0.0326
  636MPD2    N1 9478   0.502   2.417  15.935 -0.2961  0.2561 -0.7460
  636MPD2    H7 9479   0.500   2.391  16.033  0.3180 -0.9314 -1.0513
  637TMC3    C1 9480   0.667   1.730  15.802 -0.0097  0.2937  0.1442
  637TMC3    C2 9481   0.625   1.719  15.928  0.1204  0.1452 -0.2187
  637TMC3    C3 9482   0.714   1.663  16.021 -0.5853 -0.8466  0.7587
  637TMC3    C4 9483   0.790   1.690  15.768 -0.4116 -0.1240 -0.0111
  637TMC3    C5 9484   0.878   1.650  15.858 -0.4083 -0.1874 -0.6451
  637TMC3    C6 9485   0.833   1.622  15.982  0.1305 -0.6238  0.0951
  637TMC3     C 9486   0.628   1.853  15.726 -0.5893  0.3833  0.0783
  637TMC3     O 9487   0.643   1.857  15.602 -0.2505 -0.2980  0.1167
  637TMC3     H 9488   0.535   1.760  15.972 -0.1436 -1.0245  0.3351
  637TMC3    H1 9489   0.813   1.699  15.663  1.6481  3.5547  0.7580
  637TMC3    H2 9490   0.906   1.577  16.049  0.2784  0.1516  0.4513
  637TMC3    C7 9491   0.986   1.744  15.871 -0.4339 -0.0230 -0.2929
  637TMC3    C8 9492   0.722   1.738  16.146 -0.2956 -0.2516 -0.9292
  637TMC3    O1 9493   1.025   1.758  15.988  0.1565 -0.1153 -0.5973
  637TMC3    O2 9494   0.679   1.855  16.137  0.9470  0.0462  0.0955
  638MPD2     C 9495   0.208   1.686  14.606  0.0139  0.4158  0.2851
  638MPD2    C1 9496   0.200   1.586  14.511 -0.5561 -0.0971 -0.2077
  638MPD2    C2 9497   0.247   1.462  14.537  0.5609  0.5803  0.0039
  638MPD2    C3 9498   0.295   1.428  14.661  0.1337 -0.5035  0.0535
  638MPD2    C4 9499   0.302   1.525  14.761  0.3978 -0.3308  0.1434
  638MPD2    C5 9500   0.257   1.648  14.731  0.1903  0.3463  0.2469
  638MPD2     H 9501   0.278   1.396  14.457 -0.6728 -0.3305  0.2839
  638MPD2    H1 9502   0.342   1.521  14.861  0.6510  1.7115  0.1198
  638MPD2    H2 9503   0.191   1.791  14.582 -1.5743  0.6098  2.2168
  638MPD2    H3 9504   0.269   1.728  14.803 -1.4646  1.9989 -1.3147
  638MPD2     N 9505   0.336   1.298  14.688  0.4870  0.0053 -0.4251
  638MPD2    H5 9506   0.332   1.238  14.606 -0.5293 -0.2870 -0.1690
  638MPD2    N1 9507   0.168   1.629  14.380  0.3024  0.1072 -0.3481
  638MPD2    H7 9508   0.169   1.729  14.362  0.4949 -0.0991 -1.5155
  639TMC3    C1 9509   0.381   1.091  14.806 -0.7186 -0.0147 -0.3972
  639TMC3    C2 9510   0.289   1.022  14.734  0.4201  0.2446 -0.3169
  639TMC3    C3 9511   0.277   0.891  14.766  0.2274  0.0151  0.3935
  639TMC3    C4 9512   0.449   1.038  14.909 -0.1784  0.1877  0.3503
  639TMC3    C5 9513   0.425   0.905  14.941 -0.0395 -0.3362 -0.1792
  639TMC3    C6 9514   0.338   0.828  14.870 -0.9646  0.8338 -0.3786
  639TMC3     C 9515   0.377   1.240  14.810 -0.1237 -0.3001 -0.1715
  639TMC3     O 9516   0.413   1.296  14.914  0.1097  0.0081 -0.3742
  639TMC3     H 9517   0.217   1.072  14.670  0.4543 -0.3425 -0.8094
  639TMC3    H1 9518   0.509   1.101  14.973  0.8467 -1.0954  0.6506
  639TMC3    H2 9519   0.307   0.726  14.892  0.9580  0.4781  0.6255
  639TMC3    C7 9520   0.537   0.840  14.997 -0.0839 -0.1355  0.2524
  639TMC3    C8 9521   0.221   0.804  14.665 -1.0771 -0.1104  0.0592
  639TMC3    O1 9522   0.514   0.731  15.045  0.0281 -0.0737  0.4562
  639TMC3    O2 9523   0.255   0.837  14.552  0.6866  0.0152 -1.3298
  640MPD2     C 9524   0.358   4.646  10.535  1.0678  0.3785 -0.4974
  640MPD2    C1 9525   0.332   4.709  10.421 -0.4440 -0.1666  0.7380
  640MPD2    C2 9526   0.298   0.102  10.416  0.4043 -0.1170 -0.0563
  640MPD2    C3 9527   0.290   0.177  10.535 -0.7101 -0.3312 -0.5114
  640MPD2    C4 9528   0.335   0.115  10.651 -0.2826  0.3647  0.5019
  640MPD2    C5 9529   0.378   4.716  10.654  0.1448  0.4801  0.2368
  640MPD2     H 9530   0.292   0.161  10.326 -0.1153  0.2211  0.2003
  640MPD2    H1 9531   0.355   0.174  10.740 -0.0651 -0.5025  1.0319
  640MPD2    H2 9532   0.391   4.543  10.541  2.4917  0.7477 -2.0182
  640MPD2    H3 9533   0.418   4.667  10.743 -0.7252 -0.6284  0.0233
  640MPD2     N 9534   0.255   0.311  10.549 -0.9170 -0.1845 -0.8658
  640MPD2    H5 9535   0.228   0.344  10.641  0.5577  0.0297 -0.4983
  640MPD2    N1 9536   0.340   4.628  10.304  0.2552 -0.0029 -0.6414
  640MPD2    H7 9537   0.364   4.531  10.322 -0.0607  0.1526  0.6172
  641TMC3    C1 9538   0.305   4.562  10.074  0.2700 -0.4866 -0.1750
  641TMC3    C2 9539   0.408   4.471  10.069  0.5961 -0.2373  0.3531
  641TMC3    C3 9540   0.437   4.419   9.949 -0.6148 -0.0819 -0.0050
  641TMC3    C4 9541   0.226   4.592   9.960 -0.1090 -0.1294 -0.0695
  641TMC3    C5 9542   0.253   4.523   9.843 -0.0414  0.1793 -1.1036
  641TMC3    C6 9543   0.354   4.435   9.838 -0.1515  0.9047  0.8731
  641TMC3     C 9544   0.309   4.670  10.173  0.5322  0.0700  0.4977
  641TMC3     O 9545   0.277   0.048  10.141 -0.0976  0.6373 -0.2544
  641TMC3     H 9546   0.485   4.467  10.145  1.2783  1.3983 -0.2593
  641TMC3    H1 9547   0.149   4.664   9.983  0.5778  0.6406 -0.1867
  641TMC3    H2 9548   0.370   4.370   9.752 -1.7905 -1.4151  2.3308
  641TMC3    C7 9549   0.166   4.538   9.732 -0.2024 -0.3124 -0.2142
  641TMC3    C8 9550   0.535   4.311   9.945 -0.1018  0.1186  0.2473
  641TMC3    O1 9551   0.059   4.588   9.762 -0.2962 -0.1042  0.7918
  641TMC3    O2 9552   0.561   4.280   9.832 -0.8048 -0.4751  0.3424
  642TMC3    C1 9553   1.095   0.478  12.294 -0.6648 -0.4168 -0.4466
  642TMC3    C2 9554   1.087   0.502  12.432  0.5179  0.3111 -0.3677
  642TMC3    C3 9555   1.155   0.412  12.515 -0.4933 -0.0921 -0.0961
  642TMC3    C4 9556   1.131   0.356  12.246  0.3565 -0.4176  0.0270
  642TMC3    C5 9557   1.198   0.274  12.334  0.0973  0.4010 -0.2130
  642TMC3    C6 9558   1.217   0.301  12.469 -0.5833  0.8805  0.4019
  642TMC3     C 9559   1.048   0.579  12.198  0.5192 -0.0553 -0.0951
  642TMC3     O 9560   1.097   0.591  12.084 -0.4510 -0.5856 -0.3457
  642TMC3     H 9561   1.039   0.583  12.485  2.4711  0.6812  0.8156
  642TMC3    H1 9562   1.140   0.338  12.140 -1.7785  0.1936 -0.2574
  642TMC3    H2 9563   1.261   0.236  12.543 -0.3836  0.4024 -0.1389
  642TMC3    C7 9564   1.263   0.162  12.279 -1.0143  0.0176 -0.2452
  642TMC3    C8 9565   1.106   0.397  12.654 -0.1274 -0.1679  0.3235
  642TMC3    O1 9566   1.200   0.115  12.183 -0.3566 -0.0859  0.5531
  642TMC3    O2 9567   1.189   0.355  12.733  0.6805 -0.1987 -0.2915
  643TMC3    C1 9568   1.399   0.476   0.334  1.1439  0.0600 -0.7556
  643TMC3    C2 9569   1.272   0.487   0.297  0.1817  0.9518 -0.0438
  643TMC3    C3 9570   1.211   0.379   0.242 -0.1494  0.1644 -0.4874
  643TMC3    C4 9571   1.469   0.362   0.309  0.0830  0.7398 -1.0201
  643TMC3    C5 9572   1.414   0.252   0.243  0.0938  0.5933 -0.2896
  643TMC3    C6 9573   1.278   0.258   0.219  0.9388 -0.2109 -0.3627
  643TMC3     C 9574   1.463   0.589   0.407 -0.3100 -0.4976  0.2281
  643TMC3     O 9575   1.396   0.689   0.423  0.6168 -0.7252  0.5694
  643TMC3     H 9576   1.215   0.574   0.327  0.5398  0.7806  1.1458
  643TMC3    H1 9577   1.578   0.357   0.306  0.1977  2.5232  0.3298
  643TMC3    H2 9578   1.227   0.180   0.164  0.5822  0.4713 -1.0079
  643TMC3    C7 9579   1.478   0.249   0.120 -0.1174 -0.9058  0.2844
  643TMC3    C8 9580   1.093   0.405   0.161 -0.0538 -0.2688  0.8312
  643TMC3    O1 9581   1.552   0.343   0.085 -0.1079 -0.1782 -0.0732
  643TMC3    O2 9582   1.029   0.304   0.128  0.1222  0.4186  0.4843
  644MPD2     C 9583   0.203   0.193   9.817 -0.1718  0.0555  0.4071
  644MPD2    C1 9584   0.239   0.249   9.692 -0.0301  1.1801  0.3506
  644MPD2    C2 9585   0.164   0.343   9.630 -0.7497 -0.1390 -0.7738
  644MPD2    C3 9586   0.047   0.383   9.690  0.5023 -0.3466  0.3925
  644MPD2    C4 9587   0.005   0.330   9.812  0.1281  0.7552 -0.0452
  644MPD2    C5 9588   0.082   0.237   9.875  0.2537  0.4557 -0.2830
  644MPD2     H 9589   0.189   0.385   9.533 -1.0128  1.0674 -0.3176
  644MPD2    H1 9590   4.653   0.359   9.867 -0.3713 -0.3893 -0.2477
  644MPD2    H2 9591   0.257   0.106   9.852  0.3361  0.1599 -0.1168
  644MPD2    H3 9592   0.054   0.189   9.968 -1.7588  1.8062 -0.1932
  644MPD2     N 9593   4.707   0.487   9.624 -0.5627 -0.1400 -0.4588
  644MPD2    H5 9594   0.012   0.529   9.540  1.9355  0.5014  1.0761
  644MPD2    N1 9595   0.347   0.195   9.624  0.3774  0.0403  0.9517
  644MPD2    H7 9596   0.411   0.139   9.680  1.1906  1.6076  1.5959
  645TMC3    C1 9597   4.551   0.671   9.608 -0.4123 -0.4751  0.2810
  645TMC3    C2 9598   4.416   0.690   9.589 -0.2526 -0.7752 -0.2324
  645TMC3    C3 9599   4.380   0.798   9.513 -0.0929 -0.7120  0.0755
  645TMC3    C4 9600   4.649   0.745   9.553  0.9342 -0.4837  0.3688
  645TMC3    C5 9601   4.611   0.859   9.493 -0.2017  0.1025  0.7208
  645TMC3    C6 9602   4.480   0.886   9.469  0.2394  0.1947 -0.1674
  645TMC3     C 9603   4.585   0.542   9.665 -0.3949  0.5096 -0.9930
  645TMC3     O 9604   4.525   0.514   9.769  0.5622 -0.0794  0.3349
  645TMC3     H 9605   4.351   0.613   9.630 -2.3261  0.4743 -1.1541
  645TMC3    H1 9606   0.012   0.725   9.594  1.5293 -0.1147 -0.8894
  645TMC3    H2 9607   4.450   0.975   9.414  0.1517 -0.2640 -0.8565
  645TMC3    C7 9608   4.704   0.950   9.428 -1.1237 -0.8152  0.3241
  645TMC3    C8 9609   4.248   0.812   9.454 -0.3857 -0.1786  0.4122
  645TMC3    O1 9610   4.654   1.020   9.339 -0.4935  0.2660  0.0387
  645TMC3    O2 9611   4.227   0.907   9.379  0.2949  0.7452  0.6326
  646MPD2     C 9612   0.716   0.239  14.156 -0.1487 -0.5451  0.1393
  646MPD2    C1 9613   0.613   0.192  14.229 -0.3421  0.2205 -0.5629
  646MPD2    C2 9614   0.480   0.222  14.192 -0.1942  1.3098 -0.1877
  646MPD2    C3 9615   0.456   0.311  14.088  0.0409  0.5053  0.0041
  646MPD2    C4 9616   0.563   0.364  14.016 -0.7088  0.2387 -0.4044
  646MPD2    C5 9617   0.694   0.324  14.051  0.4445 -0.7849 -0.1022
  646MPD2     H 9618   0.393   0.183  14.244  0.0267  0.9329 -0.0991
  646MPD2    H1 9619   0.549   0.440  13.940  0.2684 -0.9463 -1.7546
  646MPD2    H2 9620   0.820   0.216  14.176 -0.2701  2.1019  3.6887
  646MPD2    H3 9621   0.776   0.374  14.001 -2.5126  2.1521 -2.0442
  646MPD2     N 9622   0.328   0.352  14.068  0.3458 -0.1833  0.4081
  646MPD2    H5 9623   0.259   0.321  14.136  0.8598  0.5252  1.2426
  646MPD2    N1 9624   0.653   0.107  14.339 -0.0545  0.1784 -0.6043
  646MPD2    H7 9625   0.751   0.086  14.349  0.0177  0.4163 -0.8198
  647TMC3    C1 9626   0.609   4.703  14.525 -0.3140 -0.3808 -0.1134
  647TMC3    C2 9627   0.508   4.615  14.566  0.2189  0.1603  0.1664
  647TMC3    C3 9628   0.539   4.505  14.637  0.4541  0.5694 -0.3792
  647TMC3    C4 9629   0.742   4.665  14.539 -0.6985  0.5227 -0.1024
  647TMC3    C5 9630   0.771   4.546  14.606 -0.1614 -0.8300  0.5685
  647TMC3    C6 9631   0.674   4.472  14.661 -0.8126  0.1639 -0.0775
  647TMC3     C 9632   0.567   0.087  14.446  0.3254  0.1962 -0.0867
  647TMC3     O 9633   0.455   0.132  14.469 -0.6805  0.1462  0.2224
  647TMC3     H 9634   0.402   4.634  14.555  0.1611 -1.0074 -1.3235
  647TMC3    H1 9635   0.822   4.734  14.514 -1.0536  1.1715  0.5602
  647TMC3    H2 9636   0.701   4.395  14.732 -1.5391 -1.0235 -1.0867
  647TMC3    C7 9637   0.905   4.504  14.631  0.0453  0.0335 -0.5954
  647TMC3    C8 9638   0.432   4.410  14.663  0.3313  0.6277  0.2236
  647TMC3    O1 9639   0.930   4.419  14.714  0.0668  0.1723 -0.1916
  647TMC3    O2 9640   0.315   4.441  14.641 -0.2775 -0.0070  0.4146
  648TMC3    C1 9641   0.089   2.614  16.142  0.4348  0.1218 -0.2151
  648TMC3    C2 9642   0.131   2.487  16.150  0.8045 -0.2747  0.1675
  648TMC3    C3 9643   0.105   2.406  16.041 -0.4148  0.1537 -0.2251
  648TMC3    C4 9644   0.006   2.654  16.039  0.6581  0.1360  0.1377
  648TMC3    C5 9645   4.716   2.565  15.939 -0.2033 -0.0604  0.4379
  648TMC3    C6 9646   0.019   2.438  15.938  0.1203  0.0402 -0.5482
  648TMC3     C 9647   0.086   2.700  16.260 -0.4067 -0.3103  0.3815
  648TMC3     O 9648   0.043   2.816  16.244  0.6263  0.1749 -0.2868
  648TMC3     H 9649   0.205   2.458  16.223  1.3827  0.2150 -0.2193
  648TMC3    H1 9650   4.709   2.757  16.034 -1.8806 -0.5522  2.4654
  648TMC3    H2 9651   4.711   2.371  15.865 -0.8854  0.0636  0.0453
  648TMC3    C7 9652   4.607   2.594  15.844  0.2297  0.3546  0.1576
  648TMC3    C8 9653   0.143   2.270  16.049  0.0535 -0.2666 -0.0054
  648TMC3    O1 9654   4.597   2.531  15.734  0.2913  0.2864 -0.0627
  648TMC3    O2 9655   0.163   2.238  16.165 -0.5282  0.1383  0.3730
  649TMC3    C1 9656   3.147   3.512  12.809  0.0089  0.2808 -0.4894
  649TMC3    C2 9657   3.249   3.587  12.846 -0.1315  0.0627 -0.1359
  649TMC3    C3 9658   3.327   3.549  12.950 -0.6437 -0.6108  0.6405
  649TMC3    C4 9659   3.115   3.401  12.876  0.2577  0.4262  0.0776
  649TMC3    C5 9660   3.192   3.357  12.976  0.0049 -0.1401  0.0267
  649TMC3    C6 9661   3.308   3.423  13.009  0.1756  0.5831  0.2078
  649TMC3     C 9662   3.045   3.583  12.738  0.4602  0.3078 -0.7261
  649TMC3     O 9663   3.040   3.705  12.738 -0.5862 -0.4453  0.2240
  649TMC3     H 9664   3.268   3.676  12.787  1.7022 -0.7345 -0.7466
  649TMC3    H1 9665   3.021   3.351  12.858 -0.6022  2.9925 -2.6806
  649TMC3    H2 9666   3.362   3.399  13.100  0.2734 -1.2348 -0.3321
  649TMC3    C7 9667   3.120   3.286  13.084 -0.7249  0.4392 -0.6584
  649TMC3    C8 9668   3.457   3.594  12.970  1.0728 -0.2019 -0.4519
  649TMC3    O1 9669   2.999   3.273  13.075 -0.2320 -0.4209  0.2128
  649TMC3    O2 9670   3.517   3.545  13.064  0.3473 -0.2691  0.3737
  650TMC3    C1 9671   0.786   0.135  12.456  0.4451 -0.0867 -0.3331
  650TMC3    C2 9672   0.666   0.194  12.496  0.6969 -0.3844  0.8493
  650TMC3    C3 9673   0.588   0.265  12.407 -0.7619  0.4268  0.1841
  650TMC3    C4 9674   0.824   0.153  12.324  0.2875  0.0877  0.2557
  650TMC3    C5 9675   0.747   0.225  12.237  0.0683  0.3796  0.5378
  650TMC3    C6 9676   0.621   0.276  12.273 -0.6552 -0.0587 -0.1933
  650TMC3     C 9677   0.881   0.091  12.558  0.1693  0.5887 -0.1158
  650TMC3     O 9678   0.852   0.111  12.676  0.3185  0.1539  0.5053
  650TMC3     H 9679   0.642   0.197  12.601  0.7689 -0.5102  0.8702
  650TMC3    H1 9680   0.918   0.106  12.296  0.1279  0.8400 -1.5472
  650TMC3    H2 9681   0.553   0.320  12.201  1.2573  0.3108 -1.7838
  650TMC3    C7 9682   0.785   0.254  12.100 -0.0179  0.1803 -0.0574
  650TMC3    C8 9683   0.505   0.366  12.463  0.0297  0.1367  0.1054
  650TMC3    O1 9684   0.876   0.184  12.059  0.2186 -0.0667  0.5445
  650TMC3    O2 9685   0.498   0.477  12.401  0.6464 -0.6626  0.6078
  651MPD2     C 9686   0.097   1.666  10.364 -0.4595 -0.3511  0.2566
  651MPD2    C1 9687   0.026   1.780  10.356 -0.5992 -0.5204 -0.0913
  651MPD2    C2 9688   0.082   1.901  10.318 -0.2113 -0.1181 -0.0758
  651MPD2    C3 9689   0.214   1.904  10.281  0.2696  0.4090 -0.3027
  651MPD2    C4 9690   0.287   1.787  10.283 -0.9921  0.1313 -0.1218
  651MPD2    C5 9691   0.229   1.671  10.328 -0.1717  0.3876  0.1981
  651MPD2     H 9692   0.019   1.988  10.310 -1.4903 -1.1104 -0.7375
  651MPD2    H1 9693   0.393   1.784  10.261 -1.1557 -2.4306 -0.5198
  651MPD2    H2 9694   0.048   1.577  10.401 -0.7856 -0.9317 -1.5999
  651MPD2    H3 9695   0.281   1.575  10.332  0.0289  0.4570 -0.8209
  651MPD2     N 9696   0.273   2.023  10.227 -0.0931 -0.0336 -0.2929
  651MPD2    H5 9697   0.222   2.110  10.226 -2.3378 -1.3546  2.0836
  651MPD2    N1 9698   4.626   1.787  10.384 -0.2457 -0.2452 -0.6808
  651MPD2    H7 9699   4.591   1.882  10.381  1.0284  0.2083 -0.8653
  652TMC3    C1 9700   0.642   2.308  10.237  0.0175 -0.0744  0.4405
  652TMC3    C2 9701   0.579   2.200  10.177  0.3047  0.9375 -0.7145
  652TMC3    C3 9702   0.448   2.175  10.203  0.0818  0.2092 -0.4525
  652TMC3    C4 9703   0.578   2.379  10.341  0.8879  0.1477  1.4508
  652TMC3    C5 9704   0.447   2.354  10.359 -0.4114  0.0296 -0.1859
  652TMC3    C6 9705   0.384   2.254  10.295 -0.7045  0.9636  0.2431
  652TMC3     C 9706   0.783   2.320  10.220 -0.1440 -0.9087  0.7405
  652TMC3     O 9707   0.830   2.397  10.303 -0.6803 -0.4205 -0.0107
  652TMC3     H 9708   0.627   2.145  10.097  0.4125 -0.5419  0.3682
  652TMC3    H1 9709   0.633   2.439  10.414 -0.2436  1.5886  1.1338
  652TMC3    H2 9710   0.282   2.237  10.327 -0.3302 -1.5076  0.1585
  652TMC3    C7 9711   0.390   2.391  10.487  0.5214  0.0077  0.6085
  652TMC3    C8 9712   0.395   2.036  10.180 -0.0130 -0.3797 -0.4745
  652TMC3    O1 9713   0.286   2.338  10.525 -0.2740 -0.0870  0.5124
  652TMC3    O2 9714   0.466   1.961  10.121  0.6729 -0.2694  0.1204
  653MPD2     C 9715   3.674   2.555  17.611  0.1609  0.5558 -0.2662
  653MPD2    C1 9716   3.642   2.643  17.510 -0.0887 -0.5578  0.1349
  653MPD2    C2 9717   3.583   2.589  17.397  0.9261  0.1225 -0.0994
  653MPD2    C3 9718   3.555   2.455  17.398 -0.1186 -0.1474  0.0759
  653MPD2    C4 9719   3.574   2.375  17.508  0.1520 -0.6058 -0.2756
  653MPD2    C5 9720   3.645   2.423  17.610 -0.1312  0.6104  0.3440
  653MPD2     H 9721   3.573   2.644  17.304  0.7443 -1.9014 -1.2610
  653MPD2    H1 9722   3.548   2.270  17.511 -0.4372 -0.3560  3.1495
  653MPD2    H2 9723   3.737   2.594  17.691  1.8458 -0.7580 -0.9609
  653MPD2    H3 9724   3.671   2.364  17.697  0.2389  2.0382  1.1990
  653MPD2     N 9725   3.503   2.410  17.272 -0.0856  0.7887 -0.2521
  653MPD2    H5 9726   3.502   2.469  17.189 -0.8075  0.1624 -0.6879
  653MPD2    N1 9727   3.674   2.779  17.509 -0.0988  1.0239  0.0518
  653MPD2    H7 9728   3.683   2.828  17.421 -0.1526  1.2506  0.1700
  654TMC3    C1 9729   3.437   2.245  17.112  0.9736  0.1046  0.2678
  654TMC3    C2 9730   3.374   2.329  17.021  0.1064 -0.2631  0.6626
  654TMC3    C3 9731   3.343   2.277  16.899  0.5723  0.8565  0.1972
  654TMC3    C4 9732   3.477   2.122  17.074  0.1941 -0.8717  0.3030
  654TMC3    C5 9733   3.461   2.078  16.943  0.4662 -0.2717  0.1492
  654TMC3    C6 9734   3.376   2.150  16.860  0.4500  0.1840 -0.0925
  654TMC3     C 9735   3.470   2.278  17.252  0.0827 -0.0226  0.1251
  654TMC3     O 9736   3.456   2.189  17.334  0.0783 -0.0337  0.1269
  654TMC3     H 9737   3.350   2.430  17.051 -0.7634 -0.9510  2.2339
  654TMC3    H1 9738   3.521   2.059  17.150  2.4585  0.4195  0.0656
  654TMC3    H2 9739   3.353   2.116  16.759  1.4786 -0.6412 -0.0519
  654TMC3    C7 9740   3.490   1.942  16.899  1.1523  0.5546  0.0623
  654TMC3    C8 9741   3.276   2.370  16.807 -0.5659 -1.1120 -0.1284
  654TMC3    O1 9742   3.420   1.896  16.813  0.0014 -0.3928 -0.4295
  654TMC3    O2 9743   3.205   2.451  16.862  0.4644 -0.2837 -0.0884
  655MPD2     C 9744   0.204   2.740  15.584 -1.0844  0.1243  0.5480
  655MPD2    C1 9745   0.099   2.815  15.530 -0.8226 -0.4087 -0.9953
  655MPD2    C2 9746   0.081   2.811  15.394 -0.6861  0.7379  0.2580
  655MPD2    C3 9747   0.154   2.732  15.313  0.4609  0.0204  0.5666
  655MPD2    C4 9748   0.245   2.643  15.367 -0.0436 -0.0956  0.6583
  655MPD2    C5 9749   0.273   2.649  15.507 -0.2480 -0.3180  0.7483
  655MPD2     H 9750   0.002   2.875  15.358 -1.1740 -1.2511 -2.2234
  655MPD2    H1 9751   0.293   2.571  15.301 -1.2242 -0.8548  0.6381
  655MPD2    H2 9752   0.213   2.733  15.691  0.0616 -0.1875  0.4299
  655MPD2    H3 9753   0.355   2.585  15.539 -0.9779 -0.8084  1.6157
  655MPD2     N 9754   0.125   2.723  15.170 -0.4825 -0.3678 -0.0124
  655MPD2    H5 9755   0.173   2.653  15.115 -3.4051 -0.8027 -2.0203
  655MPD2    N1 9756   0.004   2.900  15.601 -1.0012  0.2175  0.3393
  655MPD2    H7 9757   4.681   2.963  15.548 -0.7926 -0.6328 -0.9004
  656TMC3    C1 9758   4.656   3.051  15.774  0.1523  0.0689  1.2465
  656TMC3    C2 9759   4.629   3.066  15.906  0.4918 -0.5244  0.5014
  656TMC3    C3 9760   4.530   3.147  15.940 -0.5801 -0.6127 -0.0454
  656TMC3    C4 9761   4.607   3.132  15.687  0.1173 -0.4501 -0.0385
  656TMC3    C5 9762   4.512   3.223  15.724  0.1407 -0.4632 -0.0188
  656TMC3    C6 9763   4.465   3.233  15.855 -0.6210  0.0222  0.2808
  656TMC3     C 9764   0.015   2.942  15.739 -0.0562  1.1884 -0.0971
  656TMC3     O 9765   0.085   2.898  15.831  0.1774  0.0309  0.1110
  656TMC3     H 9766   4.665   2.992  15.977  0.9104  1.1194  2.0055
  656TMC3    H1 9767   4.608   3.115  15.580 -2.0060  0.2377 -0.1774
  656TMC3    H2 9768   4.369   3.277  15.882 -1.0186  0.2793 -1.6042
  656TMC3    C7 9769   4.460   3.310  15.625 -0.1700  0.7137  0.1016
  656TMC3    C8 9770   4.481   3.126  16.072 -0.0522 -0.9108 -0.1015
  656TMC3    O1 9771   4.537   3.366  15.547 -0.4990  0.1093 -0.2744
  656TMC3    O2 9772   4.511   3.019  16.132  0.3320  0.1972 -0.1187
  657TMC3    C1 9773   3.382   1.469  15.028 -0.0065  0.8364  0.1807
  657TMC3    C2 9774   3.478   1.470  15.129 -0.0284  0.5092 -0.4646
  657TMC3    C3 9775   3.459   1.568  15.224  0.7330 -0.1368  0.4474
  657TMC3    C4 9776   3.268   1.541  15.033  0.0891 -0.8839  0.1623
  657TMC3    C5 9777   3.258   1.632  15.133  0.3840  0.2269  0.4487
  657TMC3    C6 9778   3.354   1.656  15.228 -0.3082 -0.2005  0.6308
  657TMC3     C 9779   3.398   1.362  14.927 -0.2436  0.8285 -0.1640
  657TMC3     O 9780   3.295   1.334  14.868  0.5952 -0.3785 -0.2541
  657TMC3     H 9781   3.558   1.398  15.140  0.0847  1.0417  2.2312
  657TMC3    H1 9782   3.192   1.534  14.955  0.5992  3.4779 -0.7138
  657TMC3    H2 9783   3.341   1.734  15.303 -0.4013  1.5531 -1.1974
  657TMC3    C7 9784   3.146   1.723  15.111 -0.3064 -1.0520 -0.6274
  657TMC3    C8 9785   3.559   1.575  15.342  0.2084 -0.3745 -0.7613
  657TMC3    O1 9786   3.052   1.689  15.042  0.1216 -0.1123  0.2856
  657TMC3    O2 9787   3.533   1.646  15.438 -0.0479 -0.1794  0.8840
  658MPD2     C 9788   0.511   2.484  14.703 -0.1164  0.3304 -0.5409
  658MPD2    C1 9789   0.386   2.519  14.649 -0.6139 -1.1880 -0.0668
  658MPD2    C2 9790   0.380   2.523  14.512  0.4674 -0.0797 -0.3452
  658MPD2    C3 9791   0.491   2.523  14.434  0.9317  0.2246  0.0662
  658MPD2    C4 9792   0.619   2.512  14.491 -0.4336  0.0937 -0.0478
  658MPD2    C5 9793   0.624   2.489  14.622 -0.8143  0.0503 -0.2591
  658MPD2     H 9794   0.284   2.543  14.465  0.9487 -1.0258 -1.7269
  658MPD2    H1 9795   0.705   2.518  14.425 -1.8148 -0.8033 -1.9125
  658MPD2    H2 9796   0.534   2.480  14.809 -0.1594 -1.0882 -0.5953
  658MPD2    H3 9797   0.720   2.490  14.674 -1.4892  0.1876  0.9956
  658MPD2     N 9798   0.465   2.538  14.297 -0.5332  0.6074  0.2673
  658MPD2    H5 9799   0.366   2.544  14.276 -0.1309 -0.3777 -1.9573
  658MPD2    N1 9800   0.279   2.557  14.731  0.1509  0.1825 -0.7217
  658MPD2    H7 9801   0.286   2.544  14.831  0.6985 -1.0436 -0.9162
  659TMC3    C1 9802   0.065   2.626  14.799  0.6815 -0.4278 -0.0261
  659TMC3    C2 9803   0.109   2.697  14.907 -0.2510 -0.9599 -0.3769
  659TMC3    C3 9804   0.008   2.755  14.978 -0.0071  0.2461  0.4838
  659TMC3    C4 9805   4.669   2.623  14.760  1.1610 -0.1148  0.1837
  659TMC3    C5 9806   4.569   2.673  14.846 -0.2405 -0.0472  0.3506
  659TMC3    C6 9807   4.611   2.718  14.961  0.2184 -0.3074 -0.3389
  659TMC3     C 9808   0.161   2.613  14.688 -0.4462 -0.2243  0.9298
  659TMC3     O 9809   0.109   2.624  14.576  0.4576 -0.6668  0.3739
  659TMC3     H 9810   0.215   2.713  14.922 -0.1092 -2.1469 -0.0906
  659TMC3    H1 9811   4.645   2.575  14.666 -1.2789  0.5644  0.4598
  659TMC3    H2 9812   4.530   2.745  15.029 -0.1493 -0.3593 -0.7579
  659TMC3    C7 9813   4.444   2.591  14.847  0.8463  0.0556  0.9808
  659TMC3    C8 9814   0.041   2.810  15.104  0.8356  0.7626  0.1259
  659TMC3    O1 9815   4.407   2.561  14.959 -0.0527  0.4117 -0.2339
  659TMC3    O2 9816   4.712   2.913  15.132  0.3867  0.0929  0.0708
  660MPD2     C 9817   2.675   1.605  12.313  0.5643 -0.4206  0.8424
  660MPD2    C1 9818   2.626   1.477  12.348 -0.0178  0.0154 -0.1674
  660MPD2    C2 9819   2.629   1.447  12.488 -0.0263 -0.3046  0.5271
  660MPD2    C3 9820   2.679   1.532  12.584  0.0485 -0.2552  0.3177
  660MPD2    C4 9821   2.741   1.651  12.540 -0.1401  0.0811 -0.1085
  660MPD2    C5 9822   2.735   1.685  12.408  0.2738  0.0333 -1.1946
  660MPD2     H 9823   2.591   1.351  12.521  1.0613 -0.5942  0.9645
  660MPD2    H1 9824   2.789   1.719  12.609 -0.1577  2.5151 -2.4691
  660MPD2    H2 9825   2.651   1.637  12.213 -1.0734  2.5060  2.1784
  660MPD2    H3 9826   2.753   1.788  12.378 -0.7294 -0.2144 -2.6725
  660MPD2     N 9827   2.688   1.487  12.712 -0.9110  0.0728 -0.3101
  660MPD2    H5 9828   2.648   1.397  12.736 -1.5778  0.5048  0.2197
  660MPD2    N1 9829   2.582   1.390  12.252  0.1807 -0.1611  0.0257
  660MPD2    H7 9830   2.570   1.431  12.159  1.7256 -1.4854 -0.7440
  661TMC3    C1 9831   2.490   1.200  12.155  0.3775  0.3247  0.1390
  661TMC3    C2 9832   2.515   1.263  12.038  0.5921 -0.6862  0.3005
  661TMC3    C3 9833   2.418   1.266  11.938  0.5108 -0.3233  0.8611
  661TMC3    C4 9834   2.384   1.116  12.171  0.5234 -0.3173  0.1248
  661TMC3    C5 9835   2.285   1.120  12.078 -0.9187  0.2302  0.4407
  661TMC3    C6 9836   2.298   1.206  11.971 -0.6353  0.1747  0.0738
  661TMC3     C 9837   2.534   1.259  12.278 -1.1372  0.1209 -0.1969
  661TMC3     O 9838   2.501   1.202  12.382  0.4039 -0.5299 -0.0605
  661TMC3     H 9839   2.622   1.277  12.026  0.2589  1.1592 -0.4951
  661TMC3    H1 9840   2.368   1.054  12.259  1.5968 -2.6415 -1.3019
  661TMC3    H2 9841   2.216   1.213  11.900 -0.3122 -0.5648 -0.3790
  661TMC3    C7 9842   2.167   1.041  12.103  0.2207  0.0459  0.2982
  661TMC3    C8 9843   2.452   1.314  11.807 -0.0886 -0.8653  0.4771
  661TMC3    O1 9844   2.142   1.019  12.221 -0.2701 -0.4652  0.0096
  661TMC3    O2 9845   2.556   1.375  11.793 -0.0387 -0.7960  0.0578
  662MPD2     C 9846   3.409   1.211  16.677  0.1646 -0.2552  0.3627
  662MPD2    C1 9847   3.449   1.139  16.789  0.3466 -0.2120  0.0959
  662MPD2    C2 9848   3.372   1.144  16.901  0.0110  0.1084 -0.7964
  662MPD2    C3 9849   3.254   1.223  16.892 -0.5130  0.4577 -0.2582
  662MPD2    C4 9850   3.217   1.291  16.783  1.0534  0.4235  0.9173
  662MPD2    C5 9851   3.295   1.285  16.670 -0.2857 -0.2865  0.4338
  662MPD2     H 9852   3.398   1.082  16.987 -1.0123 -0.6523 -1.0406
  662MPD2    H1 9853   3.125   1.347  16.768  0.5973 -0.5199  0.1751
  662MPD2    H2 9854   3.462   1.197  16.584  0.9654 -1.0656  0.9521
  662MPD2    H3 9855   3.272   1.339  16.579  0.6112 -2.3485 -1.0097
  662MPD2     N 9856   3.172   1.246  17.004  0.3759 -0.6103  0.4225
  662MPD2    H5 9857   3.092   1.305  16.985 -0.1876 -1.7148 -0.6407
  662MPD2    N1 9858   3.570   1.057  16.776  0.0019  0.4476  0.2557
  662MPD2    H7 9859   3.618   1.064  16.687  0.5000  1.7914  0.6409
  663TMC3    C1 9860   3.754   0.928  16.851 -0.3095 -0.3779 -0.5035
  663TMC3    C2 9861   3.828   0.895  16.954  0.0073 -0.3923  0.1184
  663TMC3    C3 9862   3.899   0.776  16.952  0.4852 -0.7659 -0.4033
  663TMC3    C4 9863   3.763   0.862  16.732  0.3638 -0.1485  0.2859
  663TMC3    C5 9864   3.851   0.758  16.722 -0.1290  0.2672  0.2897
  663TMC3    C6 9865   3.930   0.720  16.830  0.9278  0.2721 -0.2292
  663TMC3     C 9866   3.635   0.994  16.883 -0.5093 -0.2350 -0.0049
  663TMC3     O 9867   3.594   0.974  16.996 -0.2130 -0.2409  0.5392
  663TMC3     H 9868   3.816   0.951  17.046  0.9481  1.0052 -0.6260
  663TMC3    H1 9869   3.719   0.890  16.637  1.4611  0.2706 -0.1094
  663TMC3    H2 9870   3.967   0.619  16.822 -2.4191 -1.1316  1.9345
  663TMC3    C7 9871   3.815   0.641  16.645 -0.3452  0.5460 -0.6140
  663TMC3    C8 9872   3.841   0.678  17.032  0.2587  0.1195  0.1976
  663TMC3    O1 9873   3.902   0.566  16.605 -0.5166 -0.0983  0.0827
  663TMC3    O2 9874   3.901   0.576  17.039  0.0597  0.4064  0.3655
  664MPD2     C 9875   1.721   3.989  17.382  0.2378  0.4870 -0.0483
  664MPD2    C1 9876   1.736   4.094  17.470 -0.1725 -0.3977 -0.0894
  664MPD2    C2 9877   1.728   4.068  17.602 -0.5259 -0.3180  0.0919
  664MPD2    C3 9878   1.725   3.932  17.645 -0.3054  0.2394  0.1222
  664MPD2    C4 9879   1.733   3.836  17.554  0.1124 -0.0412 -0.5081
  664MPD2    C5 9880   1.719   3.860  17.423  0.1214 -0.0307 -0.0544
  664MPD2     H 9881   1.731   4.148  17.675  1.9976  1.3917 -1.8806
  664MPD2    H1 9882   1.740   3.735  17.591 -0.9793  1.2526  3.2528
  664MPD2    H2 9883   1.723   3.998  17.274 -0.4367  0.5216 -0.0575
  664MPD2    H3 9884   1.710   3.777  17.354  2.6156 -0.7773  0.5361
  664MPD2     N 9885   1.733   3.905   0.041  0.2823  1.0714 -0.3792
  664MPD2    H5 9886   1.729   3.994   0.090 -0.2704  2.1750 -2.4368
  664MPD2    N1 9887   1.757   4.227  17.427 -0.1645  0.4850  0.3103
  664MPD2    H7 9888   1.730   4.305  17.486  0.8934  1.5708 -0.6290
  665TMC3    C1 9889   1.764   3.821   0.253  0.4581  0.3722  1.0269
  665TMC3    C2 9890   1.737   3.726   0.349  0.2754  0.2262 -1.0138
  665TMC3    C3 9891   1.771   3.749   0.476  0.0332  0.1647 -0.1780
  665TMC3    C4 9892   1.849   3.922   0.283  0.1156 -0.2514 -0.1725
  665TMC3    C5 9893   1.901   3.934   0.406 -0.0189  0.0858  0.4449
  665TMC3    C6 9894   1.855   3.854   0.510 -0.3818 -0.4368  0.3351
  665TMC3     C 9895   1.738   3.791   0.112  0.0460 -0.2184  0.4735
  665TMC3     O 9896   1.724   3.675   0.077 -0.0443  0.5608 -0.4036
  665TMC3     H 9897   1.680   3.639   0.317  1.0151  0.0231 -1.7980
  665TMC3    H1 9898   1.888   3.984   0.203 -3.1600  1.7193 -0.2423
  665TMC3    H2 9899   1.906   3.861   0.606 -1.9400 -1.0785  1.2066
  665TMC3    C7 9900   1.957   4.061   0.435  0.5822  0.3620 -0.0695
  665TMC3    C8 9901   1.712   3.680   0.589  0.5817  0.3887 -0.7100
  665TMC3    O1 9902   1.979   4.137   0.341 -0.3200  0.0242 -0.0529
  665TMC3    O2 9903   1.758   3.699   0.700 -0.4763 -0.0273  0.0462
  666TMC3    C1 9904   0.177   3.320  10.241  0.8163 -0.3233 -0.7646
  666TMC3    C2 9905   0.305   3.284  10.207 -0.1352 -0.0443  0.1264
  666TMC3    C3 9906   0.400   3.381  10.196  0.6116  0.5829  0.2686
  666TMC3    C4 9907   0.138   3.452  10.243  0.1259  0.3407 -0.6633
  666TMC3    C5 9908   0.239   3.541  10.247 -0.4258  0.8992  0.7331
  666TMC3    C6 9909   0.362   3.513  10.213  0.2444 -0.8053 -0.0198
  666TMC3     C 9910   0.067   3.231  10.280  0.3019 -0.2578  1.0076
  666TMC3     O 9911   4.711   3.286  10.339 -0.3192  0.3216 -0.5657
  666TMC3     H 9912   0.337   3.182  10.188 -1.6341 -0.4048 -0.4144
  666TMC3    H1 9913   0.042   3.489  10.274 -1.0558 -4.4458  1.3414
  666TMC3    H2 9914   0.435   3.594  10.218  0.0524 -0.4299 -3.2954
  666TMC3    C7 9915   0.200   3.678  10.260  0.5937  0.6137  0.8690
  666TMC3    C8 9916   0.530   3.336  10.234  0.5090 -0.3714 -0.3680
  666TMC3    O1 9917   0.111   3.709  10.332  0.1693 -0.0585  0.0421
  666TMC3    O2 9918   0.549   3.223  10.284  0.3083 -0.1683 -0.8291
  667MPD2     C 9919   2.341   3.977  14.485  0.1100 -0.8862  0.1361
  667MPD2    C1 9920   2.215   4.013  14.523 -0.4310 -0.3352  0.7033
  667MPD2    C2 9921   2.107   3.929  14.499  0.5806  0.6138  1.0252
  667MPD2    C3 9922   2.122   3.801  14.451  0.1584  1.0692 -0.3369
  667MPD2    C4 9923   2.253   3.760  14.420 -0.0331 -0.4123 -0.3525
  667MPD2    C5 9924   2.358   3.850  14.440 -0.6177 -0.0301 -0.2380
  667MPD2     H 9925   2.010   3.959  14.537  0.6783  0.1868  1.6031
  667MPD2    H1 9926   2.262   3.671  14.360  0.0162  0.5617 -1.7726
  667MPD2    H2 9927   2.429   4.040  14.493 -0.0860 -0.6083  0.1047
  667MPD2    H3 9928   2.449   3.811  14.396 -0.1540 -0.3153  0.9699
  667MPD2     N 9929   2.013   3.710  14.416 -0.7025  0.5833 -0.3890
  667MPD2    H5 9930   2.032   3.616  14.383 -1.2764  0.9935 -1.9146
  667MPD2    N1 9931   2.183   4.139  14.575 -0.0376  0.1538  1.0204
  667MPD2    H7 9932   2.091   4.141  14.617  0.6660  1.9555  2.4796
  668TMC3    C1 9933   2.216   4.347  14.681  0.2140 -0.4000  0.0453
  668TMC3    C2 9934   2.277   4.469  14.668  0.0379 -0.4201  0.3954
  668TMC3    C3 9935   2.262   4.557  14.776  0.1927  0.0934 -0.5886
  668TMC3    C4 9936   2.140   4.316  14.789 -0.4812 -0.3008 -0.6631
  668TMC3    C5 9937   2.142   4.408  14.896  0.0180 -0.2174  0.6752
  668TMC3    C6 9938   2.198   4.529  14.888  0.2736 -0.3593 -0.0188
  668TMC3     C 9939   2.274   4.233  14.614  0.2622 -0.5478  0.2212
  668TMC3     O 9940   2.397   4.249  14.603 -0.0340 -0.1488  0.3027
  668TMC3     H 9941   2.316   4.494  14.570 -1.4736  0.4901  0.0325
  668TMC3    H1 9942   2.103   4.214  14.792  0.3079 -0.5910 -0.8071
  668TMC3    H2 9943   2.190   4.601  14.969 -1.5573 -1.5168  0.8329
  668TMC3    C7 9944   2.094   4.372  15.028  0.6036 -0.9742  0.3943
  668TMC3    C8 9945   2.332   4.680  14.771  0.2786  0.0908 -0.0055
  668TMC3    O1 9946   2.105   4.451  15.118 -0.1760 -0.1530  0.1714
  668TMC3    O2 9947   2.295   0.024  14.852  0.4491 -0.3496 -0.2661
  669TMC3    C1 9948   0.598   3.858  14.610 -0.6886 -0.6642 -0.4445
  669TMC3    C2 9949   0.520   3.867  14.497  0.6419 -0.1924 -0.0146
  669TMC3    C3 9950   0.568   3.926  14.387 -0.4517 -0.2068  0.6244
  669TMC3    C4 9951   0.716   3.925  14.624  0.4424  0.2984 -0.4880
  669TMC3    C5 9952   0.761   3.997  14.517  0.4766 -0.1386 -0.4368
  669TMC3    C6 9953   0.690   3.992  14.393 -0.0593  0.0482 -0.6061
  669TMC3     C 9954   0.568   3.761  14.705  0.2116  0.2304  0.3422
  669TMC3     O 9955   0.453   3.717  14.714  0.3454  0.5601  0.1835
  669TMC3     H 9956   0.425   3.816  14.511  1.5279 -1.6563  0.6982
  669TMC3    H1 9957   0.774   3.925  14.716 -1.0812  2.1945  0.4672
  669TMC3    H2 9958   0.720   4.050  14.307  1.7519  0.5174  0.3330
  669TMC3    C7 9959   0.906   4.022  14.515  0.5908 -0.1837 -0.4048
  669TMC3    C8 9960   0.476   3.947  14.283  0.1261 -0.3461 -0.1449
  669TMC3    O1 9961   0.968   3.971  14.606 -0.4910 -0.2180  0.1414
  669TMC3    O2 9962   0.378   3.876  14.286  0.8414 -0.0556 -0.3108
  670MPD2     C 9963   2.924   1.848  13.872 -0.1965  0.5929 -0.1213
  670MPD2    C1 9964   3.014   1.867  13.976  0.9536  0.6813  0.2342
  670MPD2    C2 9965   3.025   1.776  14.086  0.6549 -0.0109 -0.8457
  670MPD2    C3 9966   2.933   1.670  14.087 -0.4079  0.1933 -0.4998
  670MPD2    C4 9967   2.839   1.649  13.982 -1.0622 -0.2517  0.3469
  670MPD2    C5 9968   2.834   1.743  13.879 -0.3668  0.1960 -0.1908
  670MPD2     H 9969   3.094   1.789  14.168  0.0335 -0.7292 -0.2096
  670MPD2    H1 9970   2.761   1.574  13.986 -0.9480 -0.3242  1.2816
  670MPD2    H2 9971   2.919   1.915  13.786 -0.2575 -1.6092 -1.8359
  670MPD2    H3 9972   2.753   1.723  13.809 -0.3996  1.7743 -0.5952
  670MPD2     N 9973   2.937   1.586  14.196 -0.7164 -0.1101  0.0087
  670MPD2    H5 9974   3.004   1.617  14.266  0.5919  0.4105 -1.4662
  670MPD2    N1 9975   3.110   1.966  13.963 -0.1824  0.1073  0.2686
  670MPD2    H7 9976   3.192   1.950  14.020 -0.1402  0.8137  0.4040
  671TMC3    C1 9977   2.923   1.381  14.319  0.3491 -0.0567  0.3318
  671TMC3    C2 9978   3.060   1.389  14.324  0.1703  0.2543  0.5718
  671TMC3    C3 9979   3.120   1.267  14.304 -0.7498  0.5123 -0.0101
  671TMC3    C4 9980   2.846   1.266  14.321  0.0297  0.0555  0.4875
  671TMC3    C5 9981   2.911   1.145  14.307  0.5730  0.4284  0.4121
  671TMC3    C6 9982   3.048   1.149  14.312 -0.3235 -0.4887 -0.8153
  671TMC3     C 9983   2.868   1.468  14.213  0.2619  0.3888 -0.2202
  671TMC3     O 9984   2.779   1.422  14.140 -0.8604  0.4406  0.4991
  671TMC3     H 9985   3.107   1.486  14.309 -1.0858  0.9337  0.9893
  671TMC3    H1 9986   2.739   1.281  14.319  0.2466  1.8482  2.1680
  671TMC3    H2 9987   3.092   1.050  14.300  0.9396 -0.1849  1.2757
  671TMC3    C7 9988   2.848   1.050  14.220  1.1974 -0.0917  0.2062
  671TMC3    C8 9989   3.269   1.257  14.324 -0.4691 -0.3071  1.2259
  671TMC3    O1 9990   2.908   1.015  14.123 -0.2112  0.7249  0.2325
  671TMC3    O2 9991   3.334   1.349  14.377 -0.5785  0.5152  0.3152
  672MPD2     C 9992   3.824   2.572   0.229  0.6911  0.2994 -0.5495
  672MPD2    C1 9993   3.797   2.500   0.348 -0.0403  0.3716 -0.5488
  672MPD2    C2 9994   3.799   2.558   0.474  0.1728 -0.1674  0.1963
  672MPD2    C3 9995   3.832   2.689   0.488  0.2835 -0.2877  0.2498
  672MPD2    C4 9996   3.850   2.760   0.372 -0.5583  1.0292 -0.2114
  672MPD2    C5 9997   3.834   2.709   0.249  0.6381  1.2633  0.6129
  672MPD2     H 9998   3.769   2.499   0.560 -3.5388  2.8475  0.9871
  672MPD2    H1 9999   3.863   2.868   0.380 -1.0993  1.0270  0.7517
  672MPD2    H210000   3.802   2.535   0.129  0.3768 -1.6137  0.2292
  672MPD2    H310001   3.844   2.776   0.164  0.5641 -0.4632 -0.7474
  672MPD2     N10002   3.861   2.753   0.607 -0.1879 -0.6122 -0.1249
  672MPD2    H510003   3.874   2.853   0.599  1.4321 -0.6938  1.3764
  672MPD2    N110004   3.757   2.368   0.338 -0.2610 -0.2594  0.7208
  672MPD2    H710005   3.709   2.323   0.415 -1.5080 -1.5197 -0.8047
  673TMC3    C110006   3.735   2.159   0.258 -0.2689 -0.8343 -0.4030
  673TMC3    C210007   3.819   2.054   0.250 -0.1618 -0.0427  0.9776
  673TMC3    C310008   3.766   1.931   0.270  0.2760 -0.8636  0.2204
  673TMC3    C410009   3.604   2.152   0.285  0.6180 -0.0756 -0.5962
  673TMC3    C510010   3.549   2.022   0.298 -0.2022 -0.6199  0.6328
  673TMC3    C610011   3.629   1.909   0.298  0.2778  0.5699  0.6144
  673TMC3     C10012   3.788   2.289   0.231  0.8027  0.2558  0.2685
  673TMC3     O10013   3.869   2.303   0.140 -0.6854 -0.4345  0.6159
  673TMC3     H10014   3.925   2.077   0.246 -0.0668 -0.0643  3.2806
  673TMC3    H110015   3.554   2.249   0.280 -0.4022 -0.5602  0.0703
  673TMC3    H210016   3.598   1.811   0.333 -1.4365  1.1443  0.7171
  673TMC3    C710017   3.408   2.005   0.326 -0.6282  0.6110  0.0890
  673TMC3    C810018   3.859   1.832   0.324 -0.7654  0.2749 -0.3219
  673TMC3    O110019   3.368   1.897   0.360  0.0741 -0.2514 -0.0763
  673TMC3    O210020   3.830   1.720   0.287 -0.2327 -0.3366 -0.1711
  674MPD2     C10021   3.408   1.508  17.185  0.4270 -0.4048 -0.1740
  674MPD2    C110022   3.433   1.501  17.324  0.5161 -1.0034 -0.0202
  674MPD2    C210023   3.391   1.612  17.402 -0.5163  0.3531 -0.1361
  674MPD2    C310024   3.333   1.723  17.347  0.2841 -0.1655 -0.4346
  674MPD2    C410025   3.316   1.729  17.212 -0.2154  0.0894  0.6169
  674MPD2    C510026   3.348   1.623  17.141 -0.4325  0.6826  0.5972
  674MPD2     H10027   3.394   1.603  17.510 -2.9239  1.0120 -0.0166
  674MPD2    H110028   3.278   1.813  17.156  3.4972  0.7168 -0.9572
  674MPD2    H210029   3.434   1.432  17.112  1.3973 -1.7531  1.5744
  674MPD2    H310030   3.325   1.632  17.035 -2.3149 -0.0531  0.9449
  674MPD2     N10031   3.303   1.831  17.433 -0.2179  0.4744  0.3416
  674MPD2    H510032   3.337   1.817  17.528 -1.5443  1.7088  1.0142
  674MPD2    N110033   3.469   1.377  17.372  0.3047 -0.1508  0.0501
  674MPD2    H710034   3.486   1.312  17.296  2.9274  0.3176  0.2202
  675TMC3    C110035   3.533   1.428  17.601 -0.5613  0.4771  0.4038
  675TMC3    C210036   3.500   1.377  17.720  0.0671 -0.5181  0.5900
  675TMC3    C310037   3.568   1.420   0.089  0.0717 -0.2290 -0.2902
  675TMC3    C410038   3.646   1.500  17.586  0.2693  0.5547 -0.7474
  675TMC3    C510039   3.713   1.530  17.702 -0.6131 -0.0496  0.0767
  675TMC3    C610040   3.673   1.507   0.083 -0.2358  0.1431 -0.1728
  675TMC3     C10041   3.511   1.329  17.495 -0.3446 -0.0411 -0.2113
  675TMC3     O10042   3.547   1.218  17.523 -0.2345  0.2655 -0.0878
  675TMC3     H10043   3.425   1.300  17.732  0.6929 -1.0463  1.1111
  675TMC3    H110044   3.688   1.522  17.489  0.1312  0.2581 -0.8768
  675TMC3    H210045   3.728   1.543   0.170 -0.6429  2.0864 -0.7080
  675TMC3    C710046   3.851   1.539  17.682  0.0359  0.2681 -0.3612
  675TMC3    C810047   3.506   1.388   0.206  0.8687 -0.8011 -0.0574
  675TMC3    O110048   3.878   1.606  17.582  0.0372 -0.2996  0.3943
  675TMC3    O210049   3.455   1.273   0.211 -0.2696 -0.3135 -0.1525
  676MPD2     C10050   1.513   4.700  10.756 -0.5090  0.0613 -0.1494
  676MPD2    C110051   1.407   4.683  10.845  0.1610  0.2529  0.8294
  676MPD2    C210052   1.311   4.589  10.820  0.0561 -0.6011 -0.5555
  676MPD2    C310053   1.331   4.492  10.722  0.1253 -0.2761 -0.0318
  676MPD2    C410054   1.433   4.508  10.637  0.4062  0.1801  0.1317
  676MPD2    C510055   1.519   4.621  10.645 -0.5773  0.1639 -0.2978
  676MPD2     H10056   1.228   4.584  10.890  1.2646  2.9925  1.1091
  676MPD2    H110057   1.441   4.436  10.556  3.1455  1.6339 -0.8827
  676MPD2    H210058   1.596   0.027  10.786 -0.3419 -0.6619  0.9188
  676MPD2    H310059   1.600   4.628  10.573 -0.9617  0.5847 -0.6921
  676MPD2     N10060   1.239   4.388  10.695  0.4072 -0.3630  0.5450
  676MPD2    H510061   1.269   4.325  10.621 -1.4534 -1.3547  0.6274
  676MPD2    N110062   1.390   0.035  10.955 -0.3765 -0.1120 -0.9246
  676MPD2    H710063   1.311   0.005  11.011  1.1714  1.0288  1.8386
  677TMC3    C110064   1.424   0.216  11.097  0.3856 -0.2034 -0.2346
  677TMC3    C210065   1.379   0.137  11.198 -0.7610 -0.5930 -0.0202
  677TMC3    C310066   1.335   0.197  11.315 -0.0489  0.0898 -0.4130
  677TMC3    C410067   1.454   0.346  11.114  0.5358  0.1575  0.4065
  677TMC3    C510068   1.426   0.396  11.241  0.2125  0.0838  0.2046
  677TMC3    C610069   1.363   0.327  11.334 -0.4012  0.4772 -0.0194
  677TMC3     C10070   1.464   0.151  10.976  0.2013 -0.1251  0.2999
  677TMC3     O10071   1.559   0.195  10.918  0.5297 -0.0360 -0.3718
  677TMC3     H10072   1.375   0.029  11.188 -2.9316 -0.6457  1.5366
  677TMC3    H110073   1.501   0.410  11.040  1.9429 -0.6992  0.5567
  677TMC3    H210074   1.341   0.382  11.425 -1.6210  1.6711 -1.0264
  677TMC3    C710075   1.446   0.533  11.249  0.2073 -0.4390  0.1131
  677TMC3    C810076   1.294   0.099  11.413  0.6567  0.0634 -0.2012
  677TMC3    O110077   1.452   0.574  11.363  0.0749  0.1825  0.0464
  677TMC3    O210078   1.287   4.720  11.374 -0.3311  0.1628  0.5497
  678MPD2     C10079   2.508   0.772   0.953 -0.3504  0.3613 -0.3849
  678MPD2    C110080   2.552   0.659   0.891 -0.3558  0.1745  0.2359
  678MPD2    C210081   2.457   0.560   0.853  0.1438 -0.0119 -0.0471
  678MPD2    C310082   2.322   0.583   0.883 -0.2058  0.1780  0.2231
  678MPD2    C410083   2.282   0.704   0.946  0.0168  0.4947 -0.2367
  678MPD2    C510084   2.374   0.797   0.976  0.1018 -0.5239 -1.1774
  678MPD2     H10085   2.497   0.479   0.792 -2.2131 -0.9273 -0.4046
  678MPD2    H110086   2.176   0.724   0.955  0.1368  0.7954  0.4907
  678MPD2    H210087   2.577   0.855   0.964  1.6310 -1.2590 -0.5956
  678MPD2    H310088   2.339   0.897   0.999 -1.1566 -1.4017  0.7070
  678MPD2     N10089   2.229   0.481   0.853  0.9035  0.1465 -0.3320
  678MPD2    H510090   2.269   0.397   0.813 -0.0671 -0.3968 -0.1431
  678MPD2    N110091   2.681   0.659   0.844 -0.2981  0.0627 -0.0244
  678MPD2    H710092   2.698   0.587   0.774 -0.9989  2.1573 -2.3299
  679TMC3    C110093   3.106   0.567   0.857 -0.1971 -0.9455 -0.1916
  679TMC3    C210094   3.009   0.641   0.914  0.0657 -0.0268 -0.0299
  679TMC3    C310095   2.913   0.684   0.834 -0.4496 -0.1081 -0.4785
  679TMC3    C410096   3.118   0.538   0.720  0.3529  0.7499  0.4341
  679TMC3    C510097   3.011   0.565   0.643  1.3507  0.5891  0.0995
  679TMC3    C610098   2.915   0.650   0.696  0.4327 -0.0679 -0.6629
  679TMC3     C10099   3.195   0.492   0.946  0.0978  0.2919  0.0158
  679TMC3     O10100   3.135   0.414   1.015  0.4858  0.3539  0.5158
  679TMC3     H10101   3.013   0.676   1.016  0.8021 -1.9407  0.5942
  679TMC3    H110102   3.205   0.484   0.683  1.2949  1.6225  1.3583
  679TMC3    H210103   2.831   0.679   0.633  0.2513 -1.8347 -1.2245
  679TMC3    C710104   3.015   0.542   0.498  0.1096 -0.4045 -0.0219
  679TMC3    C810105   2.792   0.709   0.908 -0.2500 -0.3227  0.0311
  679TMC3    O110106   2.936   0.604   0.431  0.4106  0.3737 -0.0731
  679TMC3    O210107   2.803   0.772   1.011  0.0368  0.7925 -0.8015
  680MPD2     C10108   2.609   3.773  13.311  1.0244 -0.1515  0.1994
  680MPD2    C110109   2.666   3.758  13.437 -0.9380 -0.2061 -0.5179
  680MPD2    C210110   2.736   3.868  13.491 -0.4147  0.4871 -0.0895
  680MPD2    C310111   2.747   3.997  13.434  0.9046  0.3652  0.1310
  680MPD2    C410112   2.684   4.011  13.309  0.2470 -0.0275  0.5598
  680MPD2    C510113   2.618   3.902  13.252  0.1004 -0.2905 -0.5318
  680MPD2     H10114   2.781   3.853  13.589  1.7142  1.7632 -0.8769
  680MPD2    H110115   2.677   4.104  13.254  0.5961 -0.9450 -1.0269
  680MPD2    H210116   2.558   3.689  13.265  0.9266 -1.2158  2.2410
  680MPD2    H310117   2.559   3.922  13.163 -1.7767 -1.5170  0.4628
  680MPD2     N10118   2.802   4.110  13.497  0.3026 -0.3420 -0.1092
  680MPD2    H510119   2.805   4.195  13.443  1.4723 -0.0322  0.4579
  680MPD2    N110120   2.644   3.637  13.514  0.8014  0.5873 -0.1196
  680MPD2    H710121   2.685   3.638  13.607  0.6880  1.5879 -0.0847
  681TMC3    C110122   2.571   3.425  13.598 -0.2568  0.0537  0.1242
  681TMC3    C210123   2.565   3.470  13.727 -0.1545  0.4042 -0.1273
  681TMC3    C310124   2.634   3.412  13.826  0.0268  0.2642  0.2713
  681TMC3    C410125   2.651   3.321  13.573 -0.1342  0.0443  0.8619
  681TMC3    C510126   2.721   3.256  13.675 -0.8167 -0.6320 -0.7383
  681TMC3    C610127   2.699   3.290  13.805  0.5635 -0.8241  0.5029
  681TMC3     C10128   2.558   3.529  13.493 -0.2054  0.3320  0.4131
  681TMC3     O10129   2.484   3.498  13.396 -0.2476 -0.4111  0.1496
  681TMC3     H10130   2.514   3.565  13.738  0.6148  0.6028  1.6989
  681TMC3    H110131   2.662   3.296  13.468 -0.5196  0.2495  0.7709
  681TMC3    H210132   2.750   3.242  13.889  0.0879 -0.7153  0.8525
  681TMC3    C710133   2.827   3.164  13.649  0.3666  0.8141  0.6599
  681TMC3    C810134   2.604   3.454  13.961  0.0449 -0.0203 -0.5839
  681TMC3    O110135   2.888   3.121  13.746  0.5093  0.1739 -0.1011
  681TMC3    O210136   2.491   3.504  13.967  0.1105  0.5349  0.1219
  682MPD2     C10137   4.717   0.007  10.740  0.6233 -0.0453  0.2617
  682MPD2    C110138   0.022   4.617  10.707  0.0369  0.1092 -0.1862
  682MPD2    C210139   0.111   4.550  10.795 -0.4774 -0.0641  0.1789
  682MPD2    C310140   0.152   4.619  10.907  0.3390  0.2549 -0.5084
  682MPD2    C410141   0.115   0.017  10.926 -0.8187  0.2534 -0.0400
  682MPD2    C510142   0.032   0.082  10.843 -0.7052 -0.6561 -0.1859
  682MPD2     H10143   0.139   4.447  10.778  1.3264  0.0141  2.7307
  682MPD2    H110144   0.150   0.080  11.006  0.9265 -2.7004  1.5285
  682MPD2    H210145   4.645   0.068  10.687  1.1452 -1.0665 -1.6198
  682MPD2    H310146   0.020   0.190  10.844  0.1723 -0.5541 -0.3930
  682MPD2     N10147   0.235   4.569  11.004 -0.5961  0.3125 -0.1114
  682MPD2    H510148   0.258   4.631  11.081 -1.1338  1.8330 -1.1921
  682MPD2    N110149   4.697   4.547  10.601 -0.4785  0.4316 -0.2404
  682MPD2    H710150   4.735   4.457  10.574  2.4576  1.3869  0.7019
  683TMC3    C110151   0.334   4.380  11.366 -0.2249 -0.4056 -0.2626
  683TMC3    C210152   0.441   4.296  11.362 -0.6634 -0.2351  0.4863
  683TMC3    C310153   0.498   4.259  11.239  0.2541  0.4588 -0.8758
  683TMC3    C410154   0.288   4.438  11.250 -0.5292 -0.1639  0.2749
  683TMC3    C510155   0.353   4.418  11.134 -0.7065 -0.0119  0.7220
  683TMC3    C610156   0.458   4.326  11.130  0.5080  0.1123  0.1144
  683TMC3     C10157   0.271   4.404  11.488  0.0553  0.1312 -0.5178
  683TMC3     O10158   0.278   4.306  11.561  0.2779 -0.0204  0.4349
  683TMC3     H10159   0.479   4.249  11.451 -0.1195 -0.0599  0.3466
  683TMC3    H110160   0.193   4.490  11.250 -1.2038 -1.4042  2.2338
  683TMC3    H210161   0.497   4.303  11.031 -1.0146  1.8328 -0.8650
  683TMC3    C710162   0.287   4.449  11.011  0.4640 -0.5670 -0.5194
  683TMC3    C810163   0.638   4.216  11.237  0.3871  0.0253 -0.6405
  683TMC3    O110164   0.288   4.359  10.931  0.2341  0.3746 -0.6983
  683TMC3    O210165   0.702   4.238  11.137 -0.5240 -0.1645  0.0469
  684MPD2     C10166   3.329   4.219  16.173 -0.2553 -0.0865 -0.6361
  684MPD2    C110167   3.256   4.287  16.075 -0.1646  0.9138  0.1579
  684MPD2    C210168   3.210   4.411  16.094 -0.0508 -0.5661  0.2197
  684MPD2    C310169   3.247   4.477  16.208  0.1479 -0.1819  1.0009
  684MPD2    C410170   3.313   4.416  16.307 -0.6928 -0.8218 -0.2441
  684MPD2    C510171   3.348   4.283  16.294  0.2393  0.5475 -0.3366
  684MPD2     H10172   3.145   4.453  16.018  1.6118  0.3576 -0.6999
  684MPD2    H110173   3.335   4.465  16.401 -2.3200 -0.3454 -0.1173
  684MPD2    H210174   3.352   4.113  16.173  1.9089  0.3933 -2.2619
  684MPD2    H310175   3.387   4.234  16.383  2.4186  1.1593 -0.9582
  684MPD2     N10176   3.213   4.610  16.234 -0.9978  0.2189  0.2584
  684MPD2    H510177   3.249   4.645  16.322  0.9543  2.2369 -1.3703
  684MPD2    N110178   3.217   4.224  15.949  0.2973 -0.2508  0.1221
  684MPD2    H710179   3.144   4.268  15.894  0.1344 -2.3605 -1.3499
  685TMC3    C110180   3.225   4.100  15.754  0.5761 -0.4404  0.4543
  685TMC3    C210181   3.122   4.183  15.712  0.4548 -0.5802  0.0021
  685TMC3    C310182   3.143   4.263  15.601 -0.2443  0.1936  0.0625
  685TMC3    C410183   3.337   4.083  15.677  0.1586 -0.2591 -0.5472
  685TMC3    C510184   3.353   4.153  15.565 -0.3227 -0.3299  0.0587
  685TMC3    C610185   3.260   4.245  15.527 -0.1675 -0.1613 -0.5864
  685TMC3     C10186   3.270   4.114  15.892 -0.4790 -1.5739  0.2268
  685TMC3     O10187   3.362   4.037  15.928 -0.5443 -0.4291 -0.4989
  685TMC3     H10188   3.034   4.198  15.773  0.3012 -0.6950 -0.1899
  685TMC3    H110189   3.415   4.020  15.717 -1.7743 -1.0710  1.9451
  685TMC3    H210190   3.278   4.301  15.436  1.7162  0.1930  0.0097
  685TMC3    C710191   3.488   4.190  15.544 -0.5671 -0.1933 -0.0817
  685TMC3    C810192   3.032   4.309  15.533  0.0238 -0.3797 -0.1654
  685TMC3    O110193   3.513   4.252  15.441 -0.1113 -0.8828  0.3997
  685TMC3    O210194   3.011   4.277  15.416 -0.0704  0.0541 -0.4351
  686MPD2     C10195   0.186   4.179  15.503 -0.3377  0.1541  0.8147
  686MPD2    C110196   0.074   4.122  15.536  0.0625  0.0719  0.5815
  686MPD2    C210197   0.037   4.003  15.471  0.1884  0.6047 -0.2635
  686MPD2    C310198   0.113   3.950  15.368 -0.1989 -0.5805 -0.1119
  686MPD2    C410199   0.228   4.020  15.328  0.1050  0.5332  0.3397
  686MPD2    C510200   0.265   4.135  15.395 -0.2770 -0.5404  0.0549
  686MPD2     H10201   4.680   3.951  15.490  0.4222  0.3911  0.2955
  686MPD2    H110202   0.288   3.997  15.241  1.2283 -2.5428  1.9074
  686MPD2    H210203   0.217   4.272  15.549 -0.6842  1.1932 -1.0462
  686MPD2    H310204   0.359   4.182  15.368 -0.1041 -0.5348  0.6583
  686MPD2     N10205   0.081   3.830  15.304 -0.1061  0.4582 -0.0804
  686MPD2    H510206   0.137   3.825  15.219  1.0546  1.0189  0.6429
  686MPD2    N110207   0.006   4.161  15.652  0.2467 -0.0563 -0.1441
  686MPD2    H710208   0.041   4.243  15.700 -1.7670  0.6080  0.1672
  687TMC3    C110209   4.709   3.703  15.483 -0.8238  0.7417  0.2858
  687TMC3    C210210   4.573   3.692  15.514 -0.2340  0.5300  0.0292
  687TMC3    C310211   4.543   3.690  15.647 -0.3438 -0.5932  0.4957
  687TMC3    C410212   0.075   3.710  15.577  0.1024 -0.6937 -0.1608
  687TMC3    C510213   0.038   3.708  15.709 -0.3716  0.6660 -0.4115
  687TMC3    C610214   4.642   3.690  15.745 -0.0475 -0.4436 -0.2565
  687TMC3     C10215   4.731   3.728  15.345  0.1199  0.3810  0.4048
  687TMC3     O10216   4.689   3.638  15.270 -0.4732  0.0228  0.2495
  687TMC3     H10217   4.502   3.686  15.432 -0.0043 -3.2526  0.0824
  687TMC3    H110218   0.176   3.706  15.538  0.8460 -1.3230  1.8087
  687TMC3    H210219   4.619   3.695  15.851 -0.4713 -0.8842 -0.3258
  687TMC3    C710220   0.119   3.771  15.810  0.7791  0.2274  0.2704
  687TMC3    C810221   4.405   3.720  15.682 -0.0142  0.7318 -0.3136
  687TMC3    O110222   0.080   3.767  15.925 -0.4014  0.6339 -0.2596
  687TMC3    O210223   4.355   3.675  15.786  0.0471  0.0956 -0.1181
  688MPD2     C10224   3.811   3.440  17.135  0.0600 -0.1278  0.3046
  688MPD2    C110225   3.893   3.349  17.198 -0.6672  0.0119  0.1884
  688MPD2    C210226   4.012   3.314  17.136  0.0914  0.1294 -0.2625
  688MPD2    C310227   4.056   3.374  17.019  0.5299 -0.3852  0.4750
  688MPD2    C410228   3.971   3.462  16.963  0.2235  0.6448  0.8885
  688MPD2    C510229   3.848   3.482  17.011  0.0079  0.9979  0.5912
  688MPD2     H10230   4.070   3.239  17.188  1.6645  0.9783 -0.8026
  688MPD2    H110231   4.002   3.516  16.874  1.4774 -0.3314  0.7376
  688MPD2    H210232   3.715   3.463  17.178  0.3895 -0.7787  1.3859
  688MPD2    H310233   3.787   3.552  16.955 -0.6249 -0.8730 -1.0606
  688MPD2     N10234   4.179   3.346  16.959 -0.5199 -0.3963 -0.5504
  688MPD2    H510235   4.199   3.391  16.870 -1.5383 -0.3520 -0.7486
  688MPD2    N110236   3.848   3.276  17.319  0.6002  0.5924  0.2135
  688MPD2    H710237   3.906   3.198  17.347  2.2821  2.6011  2.3534
  689TMC3    C110238   3.705   3.211  17.501  0.6707 -0.5061  0.0470
  689TMC3    C210239   3.648   3.279  17.605  1.0571  0.0434 -0.4424
  689TMC3    C310240   3.622   3.208  17.719 -1.0135 -0.3105  0.2324
  689TMC3    C410241   3.718   3.074  17.505 -0.4408  0.2080  0.7399
  689TMC3    C510242   3.673   3.003  17.617  0.2578 -0.2766  1.0176
  689TMC3    C610243   3.630   3.073  17.728 -0.2757  0.1192  0.2739
  689TMC3     C10244   3.733   3.298  17.389 -0.0618  0.7079 -0.6740
  689TMC3     O10245   3.639   3.375  17.365 -0.1878 -0.6573  0.1850
  689TMC3     H10246   3.651   3.387  17.597 -0.5209  0.2701  2.0275
  689TMC3    H110247   3.765   3.028  17.419 -1.6007 -0.2929  0.3722
  689TMC3    H210248   3.589   3.011   0.065 -0.4972  1.6320  1.3431
  689TMC3    C710249   3.684   2.858  17.625 -0.3166 -0.1786 -0.8561
  689TMC3    C810250   3.537   3.280   0.066 -0.6014  0.1157 -0.8063
  689TMC3    O110251   3.659   2.808  17.734  0.1769  0.4886  0.2872
  689TMC3    O210252   3.547   3.251   0.185  0.0574 -0.6802 -0.3042
  690MPD2     C10253   1.381   0.408  15.544 -0.3044 -0.4802  0.2716
  690MPD2    C110254   1.319   0.342  15.440 -0.2714 -0.1124  0.6906
  690MPD2    C210255   1.336   0.378  15.308 -0.4459 -0.4133  0.3429
  690MPD2    C310256   1.434   0.475  15.279 -0.4892  0.1216  0.5213
  690MPD2    C410257   1.509   0.528  15.378 -0.3866  0.2554  0.4477
  690MPD2    C510258   1.476   0.504  15.511 -0.1582 -0.6795 -0.0533
  690MPD2     H10259   1.283   0.330  15.227  0.0163  1.2973 -0.9776
  690MPD2    H110260   1.586   0.603  15.362  1.5486 -1.9052 -0.3899
  690MPD2    H210261   1.364   0.388  15.649  1.9609  2.1592  1.1284
  690MPD2    H310262   1.525   0.562  15.589  1.6984  1.5166 -2.8731
  690MPD2     N10263   1.465   0.497  15.142 -0.6959  0.3133 -0.3125
  690MPD2    H510264   1.399   0.461  15.074  0.6607  0.7777 -1.8703
  690MPD2    N110265   1.233   0.231  15.469 -0.4148 -0.4907  0.0844
  690MPD2    H710266   1.169   0.196  15.398 -0.8927  1.2561 -0.3248
  691TMC3    C110267   1.139   0.053  15.579 -0.2679  0.1696 -0.6882
  691TMC3    C210268   1.032   0.065  15.664 -0.7849  0.1124  0.4466
  691TMC3    C310269   0.960   4.682  15.685 -0.4011  0.2020  0.2505
  691TMC3    C410270   1.182   4.667  15.537 -0.1445  0.4629  0.0424
  691TMC3    C510271   1.119   4.548  15.579  0.1293 -0.4426 -0.4568
  691TMC3    C610272   0.999   4.562  15.644 -0.0765 -0.4193  0.4729
  691TMC3     C10273   1.239   0.160  15.592  0.0630 -0.5949  0.1607
  691TMC3     O10274   1.325   0.152  15.675 -0.5161 -0.0061  0.0945
  691TMC3     H10275   1.001   0.153  15.718  1.3795  2.7434 -2.6146
  691TMC3    H110276   1.265   4.666  15.468 -0.2633 -0.0391 -0.0989
  691TMC3    H210277   0.939   4.472  15.659 -1.0902  0.0646 -0.6904
  691TMC3    C710278   1.158   4.426  15.508 -0.1968 -0.1441 -0.2699
  691TMC3    C810279   0.827   4.691  15.733  0.3329 -0.3690 -0.5495
  691TMC3    O110280   1.271   4.420  15.460 -0.1798  0.1861  0.0584
  691TMC3    O210281   0.791   4.605  15.812 -0.2777 -0.3878 -0.2982
  692TMC3    C110282   2.677   1.172  15.629 -0.4522 -0.1798  0.3065
  692TMC3    C210283   2.798   1.207  15.682 -0.0472  0.7723 -0.4800
  692TMC3    C310284   2.887   1.105  15.722 -0.6992  0.0986  0.7310
  692TMC3    C410285   2.626   1.048  15.626 -1.2116  0.8656 -0.0974
  692TMC3    C510286   2.710   0.947  15.675 -0.4124  0.0241  0.3145
  692TMC3    C610287   2.838   0.979  15.718  0.0362 -0.1944  0.3816
  692TMC3     C10288   2.577   1.275  15.647  0.0813 -0.2471 -0.2564
  692TMC3     O10289   2.460   1.250  15.627  0.0222 -0.4031 -0.3421
  692TMC3     H10290   2.841   1.299  15.646 -2.2717  1.7458 -0.6569
  692TMC3    H110291   2.530   1.021  15.583 -0.6632  0.2132 -0.9138
  692TMC3    H210292   2.895   0.901  15.767 -0.3290 -0.5323  0.2673
  692TMC3    C710293   2.663   0.808  15.671 -0.7718 -0.5025 -0.0341
  692TMC3    C810294   2.964   1.139  15.845  0.2261  0.2850  0.6921
  692TMC3    O110295   2.566   0.779  15.600  0.0834  0.6879 -0.1618
  692TMC3    O210296   3.043   1.058  15.897  0.5246 -0.1331 -0.0321
  693MPD2     C10297   2.134   3.660  10.494  0.2502  0.3630 -0.6943
  693MPD2    C110298   2.116   3.715  10.622  0.0556 -0.1677  0.1826
  693MPD2    C210299   2.218   3.708  10.722 -0.0494  0.5648  0.2551
  693MPD2    C310300   2.337   3.658  10.675  0.0876 -0.3265  0.1193
  693MPD2    C410301   2.358   3.621  10.541 -0.0722  0.2776  0.3179
  693MPD2    C510302   2.258   3.617  10.455 -0.0063 -0.0365  0.4927
  693MPD2     H10303   2.203   3.755  10.819 -1.2924  0.7025 -0.0001
  693MPD2    H110304   2.455   3.590  10.504 -1.0095 -1.8288 -0.3538
  693MPD2    H210305   2.050   3.631  10.431 -1.0283  3.1165 -0.2479
  693MPD2    H310306   2.273   3.566  10.360  0.0343  0.2929  0.3203
  693MPD2     N10307   2.454   3.643  10.763  0.3428 -0.3017 -0.0945
  693MPD2    H510308   2.541   3.614  10.718  1.0931 -2.1520  2.5804
  693MPD2    N110309   1.985   3.755  10.660 -0.1305  0.4726 -0.3583
  693MPD2    H710310   1.973   3.777  10.758 -0.7243 -0.7706 -0.1627
  694TMC3    C110311   1.753   3.800  10.637 -0.8769  0.1872 -0.6961
  694TMC3    C210312   1.644   3.794  10.553 -0.4576 -0.2340  0.0498
  694TMC3    C310313   1.525   3.792  10.625  1.0820  0.0083 -0.1507
  694TMC3    C410314   1.750   3.800  10.773  0.1008 -0.1630 -1.1590
  694TMC3    C510315   1.624   3.821  10.832 -0.2015 -1.0168 -0.5429
  694TMC3    C610316   1.510   3.808  10.761  0.3879 -0.3877  0.1791
  694TMC3     C10317   1.883   3.789  10.573 -0.5279  0.2245 -0.4312
  694TMC3     O10318   1.886   3.787  10.449 -0.0361 -0.4685 -0.1994
  694TMC3     H10319   1.646   3.793  10.445 -2.6302  0.5318 -0.0050
  694TMC3    H110320   1.837   3.820  10.834 -0.1880  0.7096 -1.0289
  694TMC3    H210321   1.414   3.799  10.812  0.4856 -4.2542 -0.2703
  694TMC3    C710322   1.607   3.804  10.975  0.1954 -0.4151  0.3078
  694TMC3    C810323   1.413   3.729  10.566 -0.0125  0.5740 -0.2747
  694TMC3    O110324   1.508   3.855  11.031 -0.7699 -0.3815  0.0255
  694TMC3    O210325   1.323   3.683  10.638  0.3459  0.6332 -0.1181
  695MPD2     C10326   3.432   0.934  13.342  0.7498 -0.7268  0.2269
  695MPD2    C110327   3.391   0.905  13.473 -0.2193 -0.1124 -0.0489
  695MPD2    C210328   3.258   0.912  13.496  0.2022 -0.2838 -0.3663
  695MPD2    C310329   3.166   0.975  13.407 -0.3756 -0.7104  0.7498
  695MPD2    C410330   3.214   1.008  13.282 -0.1155 -0.9630 -0.0120
  695MPD2    C510331   3.343   0.988  13.250 -0.1681 -0.1428 -0.5618
  695MPD2     H10332   3.217   0.886  13.592  0.3179  0.2890 -0.1620
  695MPD2    H110333   3.152   1.060  13.210 -0.8274 -1.7288  0.0466
  695MPD2    H210334   3.532   0.920  13.303  1.4264  0.6410  1.4548
  695MPD2    H310335   3.382   1.020  13.154  3.0638  0.3601  0.9236
  695MPD2     N10336   3.031   0.999  13.455  0.1235  0.0531 -0.3029
  695MPD2    H510337   3.007   0.942  13.535  1.0045  1.4045  0.9438
  695MPD2    N110338   3.481   0.867  13.571  0.4772 -0.3889 -0.0456
  695MPD2    H710339   3.439   0.849  13.662  0.7960  2.8214  0.7423
  696TMC3    C110340   2.808   1.072  13.462  0.3935 -0.3025 -0.6852
  696TMC3    C210341   2.769   0.977  13.551  1.4612 -0.0011  0.8159
  696TMC3    C310342   2.647   1.003  13.609  0.2438  0.2880  0.6208
  696TMC3    C410343   2.732   1.177  13.430 -0.0534  0.3151  0.1790
  696TMC3    C510344   2.602   1.196  13.487 -0.4854 -0.8916  0.4561
  696TMC3    C610345   2.561   1.109  13.585  0.4437 -0.5348 -0.3587
  696TMC3     C10346   2.939   1.078  13.398 -0.2992  0.3663  0.4534
  696TMC3     O10347   2.957   1.168  13.316 -0.2375 -0.1784 -0.7957
  696TMC3     H10348   2.822   0.885  13.573  0.7315 -0.7999 -0.7214
  696TMC3    H110349   2.752   1.250  13.352 -1.0622  0.9844  0.5596
  696TMC3    H210350   2.461   1.112  13.624 -0.2273  0.2945 -2.1226
  696TMC3    C710351   2.565   1.339  13.495 -0.3848 -0.1856  0.0683
  696TMC3    C810352   2.670   0.971  13.744 -0.4920  0.4088 -0.5263
  696TMC3    O110353   2.564   1.414  13.393  0.4551  0.4689  1.0733
  696TMC3    O210354   2.784   0.952  13.787 -0.1726 -0.7312  0.3487
  697MPD2     C10355   2.421   2.815  15.355  0.3016 -0.6785 -0.1292
  697MPD2    C110356   2.322   2.814  15.259 -0.3267  0.3587  0.1185
  697MPD2    C210357   2.304   2.936  15.187  0.7000 -0.4329 -0.2263
  697MPD2    C310358   2.376   3.051  15.211 -0.5940 -0.2631  0.0891
  697MPD2    C410359   2.469   3.047  15.316 -1.1128 -0.6344 -0.2059
  697MPD2    C510360   2.488   2.929  15.385 -0.2948 -0.2512  0.5480
  697MPD2     H10361   2.221   2.929  15.117  0.9503 -0.4428 -0.5192
  697MPD2    H110362   2.526   3.133  15.348 -2.1799 -0.3247  0.8540
  697MPD2    H210363   2.446   2.725  15.410 -1.4373 -2.1028 -1.6626
  697MPD2    H310364   2.555   2.933  15.469  1.3039 -3.5161 -0.5444
  697MPD2     N10365   2.359   3.163  15.129 -0.5584  0.7750  0.4757
  697MPD2    H510366   2.298   3.155  15.048  0.7705 -0.2768 -0.4121
  697MPD2    N110367   2.259   2.692  15.219 -0.1610 -0.1758 -0.2558
  697MPD2    H710368   2.206   2.695  15.133  0.0375  1.1959 -0.3359
  698TMC3    C110369   2.432   3.354  15.023  0.2531 -0.4660 -0.1443
  698TMC3    C210370   2.506   3.464  15.016 -0.5232 -0.6317  0.1142
  698TMC3    C310371   2.545   3.516  14.902  0.2232  0.8591  0.0716
  698TMC3    C410372   2.389   3.293  14.903  0.6341  0.0124  0.8188
  698TMC3    C510373   2.430   3.353  14.779  0.2159 -0.2421  0.0079
  698TMC3    C610374   2.516   3.458  14.778  0.5211  0.0453 -0.1050
  698TMC3     C10375   2.434   3.274  15.142 -0.0095  0.6292 -0.6914
  698TMC3     O10376   2.509   3.321  15.228 -0.2903 -0.0658  0.4968
  698TMC3     H10377   2.518   3.522  15.106 -0.5802 -3.0205  1.6559
  698TMC3    H110378   2.338   3.197  14.893  0.1055  0.1056  2.6342
  698TMC3    H210379   2.537   3.498  14.680  2.3635 -1.8203 -0.4516
  698TMC3    C710380   2.408   3.285  14.654 -0.4297  0.1886  0.2219
  698TMC3    C810381   2.564   3.653  14.894 -0.0030 -0.1523  0.2716
  698TMC3    O110382   2.304   3.293  14.590  0.6255 -0.2165 -0.3168
  698TMC3    O210383   2.481   3.728  14.940 -0.3017 -0.2455 -0.2775
  699TMC3    C110384   2.704   1.490  12.948 -0.6136 -0.0081 -0.7563
  699TMC3    C210385   2.730   1.359  12.948  0.2446 -0.1750 -0.1284
  699TMC3    C310386   2.647   1.287  13.028 -0.7568  0.4656  0.3332
  699TMC3    C410387   2.601   1.553  13.018  0.0897 -0.1241 -0.4045
  699TMC3    C510388   2.507   1.470  13.079  0.1007 -0.6789 -0.2814
  699TMC3    C610389   2.531   1.335  13.088 -0.8051  0.1598 -0.2436
  699TMC3     C10390   2.726   1.561  12.823  0.4370 -0.3256 -0.9646
  699TMC3     O10391   2.739   1.683  12.834 -0.3652  0.4310 -0.0391
  699TMC3     H10392   2.799   1.312  12.879  0.8011  0.9449 -0.3407
  699TMC3    H110393   2.574   1.657  13.001 -2.0171 -0.9858 -2.4045
  699TMC3    H210394   2.473   1.281  13.162 -0.1356  0.9428  0.8586
  699TMC3    C710395   2.377   1.523  13.112 -0.2551  0.2566  0.8379
  699TMC3    C810396   2.663   1.139  13.035 -0.3215 -0.3161 -0.4925
  699TMC3    O110397   2.371   1.643  13.126 -0.4187 -0.4062 -0.0303
  699TMC3    O210398   2.555   1.080  13.042 -0.1235 -0.4481  0.2934
  700TMC3    C110399   1.995   3.593  17.074  0.3312  0.3062  0.5068
  700TMC3    C210400   2.074   3.487  17.041 -1.3249 -0.6646 -0.1428
  700TMC3    C310401   2.159   3.435  17.133 -0.3235  0.9754  0.0453
  700TMC3    C410402   2.005   3.660  17.196 -0.5898  0.9424 -0.2232
  700TMC3    C510403   2.099   3.612  17.281 -0.5815 -0.2346 -0.7629
  700TMC3    C610404   2.175   3.501  17.248 -0.1364 -0.5449  0.2367
  700TMC3     C10405   1.932   3.656  16.966  0.3734  0.3404  0.3822
  700TMC3     O10406   1.876   3.590  16.879  0.2542 -0.3866  1.1249
  700TMC3     H10407   2.067   3.445  16.941  0.7274  0.3717 -0.7357
  700TMC3    H110408   1.931   3.735  17.222  2.3509  4.5628 -2.2988
  700TMC3    H210409   2.252   3.470  17.318 -0.0799  1.9769  1.2707
  700TMC3    C710410   2.095   3.660  17.420 -0.1343  0.5855  0.5828
  700TMC3    C810411   2.255   3.339  17.091  0.0370  0.3108 -1.0609
  700TMC3    O110412   2.133   3.580  17.501 -0.2389  0.0059 -0.3905
  700TMC3    O210413   2.227   3.289  16.982  0.4405 -0.0106 -0.0841
  701TMC3    C110414   1.417   2.406  15.341 -0.1741 -0.4184 -0.1714
  701TMC3    C210415   1.380   2.423  15.212  0.0468 -0.1400 -0.7005
  701TMC3    C310416   1.467   2.473  15.122  0.0254 -0.2925  0.7162
  701TMC3    C410417   1.548   2.430  15.382 -0.7127  1.0899 -0.2301
  701TMC3    C510418   1.635   2.470  15.282 -0.2893  0.0030  0.4287
  701TMC3    C610419   1.596   2.503  15.156 -0.2011 -0.4466  0.1022
  701TMC3     C10420   1.321   2.436  15.448  0.3437 -1.3474 -1.5358
  701TMC3     O10421   1.353   2.419  15.565  0.0563 -0.0416  0.6514
  701TMC3     H10422   1.279   2.407  15.176 -0.6052 -0.6894  1.3648
  701TMC3    H110423   1.569   2.417  15.488  0.7084  0.7674 -0.5556
  701TMC3    H210424   1.671   2.521  15.080 -0.6283 -0.9234 -0.4339
  701TMC3    C710425   1.770   2.515  15.322  0.1877 -0.7058  0.7368
  701TMC3    C810426   1.420   2.465  14.980 -0.4802 -0.3543 -0.8392
  701TMC3    O110427   1.842   2.588  15.254 -0.3792 -0.1118 -0.4802
  701TMC3    O210428   1.333   2.379  14.962 -0.1080  0.2158 -0.3689
  702MPD2     C10429   0.896   4.394  10.112  0.3514  0.3938  0.3556
  702MPD2    C110430   0.842   4.418  10.236  0.2435 -0.1925 -0.2089
  702MPD2    C210431   0.767   4.533  10.251  0.9504 -0.4833  0.2701
  702MPD2    C310432   0.748   4.620  10.142  0.6734 -0.5455  0.0529
  702MPD2    C410433   0.796   4.585  10.017 -0.0629  0.4595 -0.1621
  702MPD2    C510434   0.875   4.474  10.003  0.4434  0.3586  0.1253
  702MPD2     H10435   0.735   4.565  10.349 -0.8785 -1.6845  0.0717
  702MPD2    H110436   0.782   4.636   9.922  1.7153 -0.3124 -0.8451
  702MPD2    H210437   0.955   4.305  10.098  1.7780  1.3478  0.3025
  702MPD2    H310438   0.910   4.438   9.907 -0.9747 -1.0275  0.1260
  702MPD2     N10439   0.676   0.004  10.169 -0.4745 -0.4087  0.3681
  702MPD2    H510440   0.670   0.029  10.268  1.2229 -0.0817  0.3943
  702MPD2    N110441   0.862   4.336  10.348 -0.1124 -0.6544  0.0736
  702MPD2    H710442   0.807   4.364  10.428 -0.8667 -0.8629 -0.3807
  703TMC3    C110443   0.629   0.237  10.127  0.4499  0.2516  0.2289
  703TMC3    C210444   0.596   0.250  10.261 -0.1611  0.5793  0.5817
  703TMC3    C310445   0.609   0.378  10.311 -0.0306 -0.4008 -0.2591
  703TMC3    C410446   0.669   0.346  10.054  0.8553 -0.0024 -0.3581
  703TMC3    C510447   0.695   0.468  10.106  0.2489  0.1416  0.3995
  703TMC3    C610448   0.651   0.481  10.234 -0.0496  0.0114  0.5900
  703TMC3     C10449   0.649   0.099  10.075  0.5725  0.2386 -0.3582
  703TMC3     O10450   0.663   0.092   9.955 -0.1209  0.0462  0.0642
  703TMC3     H10451   0.557   0.169  10.321  2.0284 -2.3975 -2.0475
  703TMC3    H110452   0.692   0.333   9.949  1.9317  1.4000 -0.2890
  703TMC3    H210453   0.652   0.577  10.283  0.3466  0.7194 -0.8115
  703TMC3    C710454   0.821   0.529  10.074 -0.5300  0.4044  0.4974
  703TMC3    C810455   0.590   0.401  10.448 -0.2127 -0.1200 -0.0744
  703TMC3    O110456   0.867   0.531   9.960 -0.1450  0.1819  0.4306
  703TMC3    O210457   0.563   0.516  10.481 -0.2463  0.1067 -0.6965
  704TMC3    C110458   3.868   2.866  12.617 -0.3394 -0.1707 -0.0510
  704TMC3    C210459   3.983   2.869  12.542  0.4168  0.0630 -0.4936
  704TMC3    C310460   4.077   2.768  12.554 -0.0837  0.6989  0.1487
  704TMC3    C410461   3.847   2.763  12.709 -0.6652  0.0960 -0.0301
  704TMC3    C510462   3.940   2.654  12.710  0.4938  0.4494 -0.0721
  704TMC3    C610463   4.058   2.658  12.636  0.3416 -0.1849 -0.0971
  704TMC3     C10464   3.755   2.914  12.552  0.4182 -0.0558 -0.3599
  704TMC3     O10465   3.649   2.906  12.613 -0.3456  0.5122  0.1489
  704TMC3     H10466   4.010   2.957  12.485 -0.5085 -0.8841 -2.3994
  704TMC3    H110467   3.768   2.759  12.783  0.6006  2.6247  1.4517
  704TMC3    H210468   4.129   2.576  12.641 -0.9498 -1.3023 -0.2697
  704TMC3    C710469   3.883   2.516  12.712 -0.0389 -0.2841 -0.1625
  704TMC3    C810470   4.178   2.761  12.451  0.0095  0.3577 -0.4869
  704TMC3    O110471   3.957   2.423  12.746  0.4645 -0.2345  0.4482
  704TMC3    O210472   4.149   2.818  12.345  0.3993 -0.2847  0.2013
  705MPD2     C10473   2.992   0.731  16.174 -0.5394  0.6913  0.2958
  705MPD2    C110474   3.013   0.845  16.244 -0.7710  0.1915  0.5749
  705MPD2    C210475   2.912   0.903  16.314 -0.6109 -0.0676 -0.4249
  705MPD2    C310476   2.790   0.837  16.325 -0.3238  0.3370  0.2001
  705MPD2    C410477   2.771   0.724  16.255  0.5655 -0.8206  0.7617
  705MPD2    C510478   2.866   0.677  16.173 -0.3581  0.7745  0.1768
  705MPD2     H10479   2.920   1.005  16.351 -0.8379  0.0754 -0.7688
  705MPD2    H110480   2.674   0.676  16.258 -1.2326  2.5898 -2.4836
  705MPD2    H210481   3.061   0.676  16.110 -2.0960 -0.4587 -0.3772
  705MPD2    H310482   2.846   0.585  16.119  0.5840  0.7550 -0.1300
  705MPD2     N10483   2.669   0.892  16.373  0.5389 -0.9970 -0.7315
  705MPD2    H510484   2.586   0.842  16.344 -2.5283  0.9229  4.7998
  705MPD2    N110485   3.133   0.922  16.231  0.3213 -0.7718 -0.0345
  705MPD2    H710486   3.133   1.004  16.291  2.9332 -1.3527  0.7527
  706TMC3    C110487   3.587   0.991  16.109 -0.2647  0.7707  0.5265
  706TMC3    C210488   3.596   1.105  16.182 -0.1445  1.2885 -0.6472
  706TMC3    C310489   3.484   1.154  16.237  0.0085  0.0753  0.0901
  706TMC3    C410490   3.475   0.914  16.114  0.1434  0.2527 -0.0174
  706TMC3    C510491   3.361   0.964  16.170 -0.0022 -0.2936 -1.1503
  706TMC3    C610492   3.360   1.091  16.225 -0.2071 -0.7829 -0.0137
  706TMC3     C10493   3.711   0.942  16.055 -0.9118  0.2232 -0.1911
  706TMC3     O10494   3.815   0.987  16.098 -0.1081 -0.4596  0.6793
  706TMC3     H10495   3.691   1.151  16.205 -1.1714  1.7471  2.6418
  706TMC3    H110496   3.477   0.815  16.071 -1.4699  0.7023 -1.1072
  706TMC3    H210497   3.278   1.136  16.280  0.1809  2.4325 -2.0665
  706TMC3    C710498   3.240   0.884  16.152 -0.0587  0.5629  0.0933
  706TMC3    C810499   3.493   1.295  16.289  0.7611  0.6475 -0.7936
  706TMC3    O110500   3.250   0.795  16.067  0.0256  0.1214 -0.3304
  706TMC3    O210501   3.565   1.320  16.384 -0.3029  0.3194  0.1162
  707TMC3    C110502   0.547   4.500   0.578 -0.4649 -0.7467 -0.3039
  707TMC3    C210503   0.563   4.427   0.694 -0.4254 -0.7076 -0.1889
  707TMC3    C310504   0.452   4.403   0.769  0.6349 -0.0448 -0.1175
  707TMC3    C410505   0.420   4.518   0.526 -0.2157  0.2882  0.4770
  707TMC3    C510506   0.314   4.482   0.607 -0.6460 -0.0402  0.0091
  707TMC3    C610507   0.323   4.430   0.731 -0.0174  0.0064 -0.5039
  707TMC3     C10508   0.668   4.547   0.515 -0.1288  0.1359  0.1921
  707TMC3     O10509   0.754   4.583   0.593 -0.0128 -1.2983  0.2429
  707TMC3     H10510   0.662   4.405   0.733 -0.6342 -0.4254  0.5095
  707TMC3    H110511   0.409   4.569   0.432 -1.2721  2.8337  1.9937
  707TMC3    H210512   0.241   4.430   0.801  0.4779  1.4058  0.0831
  707TMC3    C710513   0.186   4.480   0.547 -0.4069 -0.0708  0.8722
  707TMC3    C810514   0.469   4.372   0.909 -0.7835 -0.1663 -0.4276
  707TMC3    O110515   0.092   4.495   0.626  0.5259 -0.2861  0.1876
  707TMC3    O210516   0.383   4.421   0.980 -0.5028 -0.4424 -0.3100
  708MPD2     C10517   2.107   4.554  13.371  0.0793  0.8242 -0.2589
  708MPD2    C110518   2.033   4.481  13.464 -0.0138 -0.4081 -0.1325
  708MPD2    C210519   2.072   4.475  13.596  0.1094 -0.0477 -0.5007
  708MPD2    C310520   2.189   4.540  13.636  0.5860 -0.6177  0.0957
  708MPD2    C410521   2.267   4.601  13.541 -0.8725  0.3280  0.5668
  708MPD2    C510522   2.225   4.612  13.413  0.2393 -0.2372 -0.8855
  708MPD2     H10523   2.009   4.420  13.665 -0.6863  1.0727 -0.3306
  708MPD2    H110524   2.365   4.643  13.563 -1.4180  1.4591  0.8559
  708MPD2    H210525   2.078   4.548  13.267 -0.2841  0.9447 -0.1615
  708MPD2    H310526   2.297   4.655  13.344 -0.4434  0.8777 -0.9195
  708MPD2     N10527   2.229   4.531  13.773 -0.4233  0.5972 -0.2903
  708MPD2    H510528   2.162   4.485  13.833  0.8985 -2.7621 -1.4332
  708MPD2    N110529   1.937   4.385  13.415  0.1672  0.3192  0.3555
  708MPD2    H710530   1.930   4.366  13.315  3.3447 -0.3567  0.2775
  709TMC3    C110531   1.798   4.189  13.423  0.5000 -0.1498  0.0020
  709TMC3    C210532   1.868   4.121  13.327 -0.1728  0.2727 -0.1907
  709TMC3    C310533   1.850   3.983  13.313  0.7308  0.1743 -0.8484
  709TMC3    C410534   1.719   4.120  13.511  0.6200  0.3746  1.0113
  709TMC3    C510535   1.707   3.981  13.497 -0.8121 -0.5839  0.4588
  709TMC3    C610536   1.766   3.915  13.396  0.0232  0.0645  0.0980
  709TMC3     C10537   1.870   4.293  13.495 -0.2506 -0.3271  0.0834
  709TMC3     O10538   1.856   4.281  13.614  0.0135  0.6962  0.0164
  709TMC3     H10539   1.941   4.170  13.264  1.3065 -0.1409  1.2256
  709TMC3    H110540   1.659   4.175  13.584 -1.1736  0.8693 -0.8374
  709TMC3    H210541   1.755   3.809  13.382 -1.8457  0.6184 -2.6075
  709TMC3    C710542   1.746   3.912  13.619  0.0927 -0.0001  0.5637
  709TMC3    C810543   1.899   3.912  13.196 -0.6189  0.7926 -0.1430
  709TMC3    O110544   1.721   3.794  13.635  0.5251  0.4624  0.3738
  709TMC3    O210545   1.926   3.793  13.210 -0.0757  0.2045 -0.0721
  710TMC3    C110546   2.951   0.878  17.461 -0.5977  0.3503  0.2980
  710TMC3    C210547   3.050   0.863  17.369  0.3414  0.3665  0.3265
  710TMC3    C310548   3.141   0.761  17.390 -0.4545  0.4330 -0.2295
  710TMC3    C410549   2.940   0.796  17.572  0.3984  0.7639  0.4859
  710TMC3    C510550   3.030   0.703  17.594 -0.0157  0.1626 -0.0557
  710TMC3    C610551   3.130   0.679  17.503 -0.3908  0.4334  0.3912
  710TMC3     C10552   2.882   1.004  17.467  0.4948  0.3895 -0.4508
  710TMC3     O10553   2.856   1.051  17.361 -0.5223  0.1445 -0.4095
  710TMC3     H10554   3.061   0.931  17.285 -1.4869 -1.4997 -1.4186
  710TMC3    H110555   2.871   0.821  17.652  0.4001 -2.0399  1.3610
  710TMC3    H210556   3.216   0.617  17.526 -0.2148 -0.1423 -1.8169
  710TMC3    C710557   2.999   0.613  17.707 -0.3290  0.3169 -0.2239
  710TMC3    C810558   3.234   0.736  17.283  0.2603  0.0301 -0.1590
  710TMC3    O110559   2.924   0.653   0.054 -0.0647 -0.2767 -0.2269
  710TMC3    O210560   3.243   0.822  17.201 -0.0810  0.2079  0.7754
  711TMC3    C110561   2.189   1.536  15.135  0.0261  1.0464 -0.4309
  711TMC3    C210562   2.251   1.634  15.205 -0.6558  0.1831  1.2210
  711TMC3    C310563   2.352   1.592  15.286  0.4046  0.1123 -0.2521
  711TMC3    C410564   2.204   1.406  15.157  0.3490  0.2476 -0.4713
  711TMC3    C510565   2.294   1.365  15.253 -0.3229 -0.8240 -0.0795
  711TMC3    C610566   2.372   1.455  15.313  0.1091 -0.2822 -0.0825
  711TMC3     C10567   2.112   1.572  15.013  0.1729  0.1287  0.2859
  711TMC3     O10568   2.020   1.502  14.977  0.5561  0.0517 -0.1722
  711TMC3     H10569   2.248   1.736  15.167 -0.7100 -1.2710 -2.6770
  711TMC3    H110570   2.165   1.327  15.094  0.0926 -0.6969  0.8583
  711TMC3    H210571   2.443   1.425  15.388 -0.9040 -0.7831  0.6670
  711TMC3    C710572   2.353   1.237  15.247 -0.3116  0.5836 -0.0356
  711TMC3    C810573   2.469   1.675  15.304  0.1094  0.0673  1.2194
  711TMC3    O110574   2.474   1.236  15.264 -0.3017  0.3809  0.1423
  711TMC3    O210575   2.463   1.791  15.333 -0.3509 -0.0565 -0.3063
  712MPD2     C10576   3.931   2.725  13.861 -0.6302 -0.2680 -0.4354
  712MPD2    C110577   3.879   2.788  13.755 -0.0084 -0.2173  0.3605
  712MPD2    C210578   3.917   2.916  13.724 -0.0013  0.7128  0.0302
  712MPD2    C310579   4.017   2.980  13.791  0.7373 -0.3597 -0.1132
  712MPD2    C410580   4.064   2.916  13.903 -0.1619  0.1820 -0.3111
  712MPD2    C510581   4.017   2.797  13.941  0.5559 -1.0508 -0.6542
  712MPD2     H10582   3.886   2.954  13.627  2.9813 -1.0097 -1.5798
  712MPD2    H110583   4.129   2.964  13.976  2.8647 -3.2837 -0.6684
  712MPD2    H210584   3.899   2.627  13.896 -2.9700  0.1880 -1.2725
  712MPD2    H310585   4.044   2.764  14.041 -1.6086  1.3029  0.7034
  712MPD2     N10586   4.056   3.113  13.770 -0.2252  0.1834  1.0014
  712MPD2    H510587   4.119   3.147  13.843  2.0062  1.4655 -1.5309
  712MPD2    N110588   3.775   2.729  13.674 -0.1470 -0.8924  0.1641
  712MPD2    H710589   3.732   2.789  13.604  1.5178  0.8158  0.5937
  713TMC3    C110590   4.052   3.322  13.679 -0.1957  0.4022 -0.4551
  713TMC3    C210591   4.185   3.324  13.651 -0.6071 -0.2625 -0.3863
  713TMC3    C310592   4.242   3.451  13.626  0.3849 -0.2904 -0.0102
  713TMC3    C410593   3.978   3.443  13.676  0.3184  1.0467  0.1461
  713TMC3    C510594   4.040   3.564  13.653  0.1404 -0.1962 -0.3647
  713TMC3    C610595   4.176   3.568  13.629 -0.0838 -0.2108 -0.4698
  713TMC3     C10596   3.994   3.196  13.676 -0.1261  0.5487  0.4708
  713TMC3     O10597   3.908   3.181  13.592 -0.9469 -0.3068  0.1861
  713TMC3     H10598   4.242   3.233  13.663 -2.2726 -1.1532  0.7232
  713TMC3    H110599   3.871   3.431  13.681  0.6678 -2.2706 -0.4602
  713TMC3    H210600   4.228   3.662  13.642  0.8926 -0.5222 -2.1137
  713TMC3    C710601   3.968   3.679  13.700 -0.2941 -0.0606  0.4048
  713TMC3    C810602   4.383   3.444  13.621  0.2333  0.3271 -1.0206
  713TMC3    O110603   4.038   3.761  13.767 -0.1918 -0.5149  0.0606
  713TMC3    O210604   4.431   3.530  13.550 -0.4551 -0.1355  0.3749
  714MPD2     C10605   1.929   1.674   1.606  0.2403  0.1968 -0.7441
  714MPD2    C110606   1.921   1.578   1.503 -0.3679 -0.1026 -0.2765
  714MPD2    C210607   1.800   1.512   1.488 -0.3528 -0.7080 -0.3791
  714MPD2    C310608   1.697   1.539   1.576  0.3539  0.0805 -0.5338
  714MPD2    C410609   1.701   1.646   1.663 -0.5810  0.6226  0.2432
  714MPD2    C510610   1.816   1.717   1.674  0.0493  0.2764 -0.0026
  714MPD2     H10611   1.791   1.432   1.415  0.5355  1.0790 -2.4185
  714MPD2    H110612   1.614   1.674   1.722 -0.3300  0.5155  0.6706
  714MPD2    H210613   2.018   1.734   1.617  1.1637 -0.9831 -1.8016
  714MPD2    H310614   1.816   1.793   1.752  0.2616 -0.5065  0.7647
  714MPD2     N10615   1.572   1.477   1.544  0.0560  0.0703  1.0066
  714MPD2    H510616   1.567   1.415   1.463 -1.3360 -0.2179  1.3211
  714MPD2    N110617   2.039   1.553   1.427  0.2551  0.7651 -0.5991
  714MPD2    H710618   2.105   1.628   1.444  0.0213  0.3083  2.3436
  715TMC3    C110619   2.164   1.482   1.237 -0.2365  0.3321  0.6038
  715TMC3    C210620   2.196   1.383   1.156  0.0513  0.0293  0.0323
  715TMC3    C310621   2.315   1.399   1.087  0.4342  0.3632  0.0890
  715TMC3    C410622   2.242   1.595   1.255  0.8702  1.0918  0.9015
  715TMC3    C510623   2.351   1.607   1.174  0.2277 -0.2458 -0.4117
  715TMC3    C610624   2.391   1.507   1.095  0.2416  0.5407  0.0143
  715TMC3     C10625   2.048   1.459   1.324 -0.2787 -0.1929 -0.0220
  715TMC3     O10626   1.974   1.366   1.306  0.7544 -0.1936 -0.0157
  715TMC3     H10627   2.140   1.290   1.147 -1.0249  0.7755 -1.0657
  715TMC3    H110628   2.194   1.685   1.292 -0.1264  0.5467  0.9524
  715TMC3    H210629   2.472   1.525   1.025  1.1228 -2.8495  0.1995
  715TMC3    C710630   2.443   1.710   1.192  0.0145  0.2990  0.2149
  715TMC3    C810631   2.350   1.295   0.987 -0.4495 -0.0524  0.2880
  715TMC3    O110632   2.538   1.713   1.113  0.5050 -0.0651  0.6954
  715TMC3    O210633   2.256   1.227   0.951 -0.5195 -0.5591  0.5896
  716MPD2     C10634   0.640   4.085  10.227 -0.0701 -0.8420  0.3402
  716MPD2    C110635   0.641   4.147  10.104 -0.0961 -0.1815 -0.0569
  716MPD2    C210636   0.733   4.110  10.007  0.5089 -0.8732  0.0978
  716MPD2    C310637   0.828   4.015  10.039  1.4833  0.1755  0.0503
  716MPD2    C410638   0.828   3.958  10.162 -0.5252 -0.3069  0.1548
  716MPD2    C510639   0.732   3.987  10.260 -0.5653 -0.7664  0.5623
  716MPD2     H10640   0.745   4.159   9.911 -1.0277 -0.1355  0.2858
  716MPD2    H110641   0.899   3.881  10.189  0.8032  0.9981  0.3809
  716MPD2    H210642   0.578   4.126  10.306  0.4445  0.1995  0.2038
  716MPD2    H310643   0.739   3.946  10.360 -1.6058 -0.4952  0.7481
  716MPD2     N10644   0.932   3.980   9.951  0.2571  0.7538 -0.0864
  716MPD2    H510645   0.925   4.026   9.860 -0.6490 -2.7115 -1.7513
  716MPD2    N110646   0.549   4.250  10.073 -0.2864 -0.4210 -0.2174
  716MPD2    H710647   0.490   4.279  10.150 -0.2971 -2.2475  0.4615
  717TMC3    C110648   1.133   3.897   9.872  0.6113 -0.1606 -0.3231
  717TMC3    C210649   1.077   3.860   9.752 -0.3567 -0.7921  0.1768
  717TMC3    C310650   1.160   3.807   9.656  0.6130  0.2409 -0.2263
  717TMC3    C410651   1.264   3.886   9.896  0.1295  0.2540  0.5956
  717TMC3    C510652   1.347   3.825   9.799 -0.3094 -0.0104  0.1618
  717TMC3    C610653   1.290   3.780   9.681 -0.3662 -0.0854 -0.0773
  717TMC3     C10654   1.050   3.922   9.985  0.5342 -0.4923  0.3869
  717TMC3     O10655   1.100   3.892  10.095 -0.1017  0.5477  0.1729
  717TMC3     H10656   0.973   3.885   9.732 -0.7212 -0.8568  2.0051
  717TMC3    H110657   1.300   3.906   9.996  1.6872 -0.9029  0.2498
  717TMC3    H210658   1.348   3.744   9.598 -0.5794 -0.7615  0.0628
  717TMC3    C710659   1.495   3.821   9.806 -0.1660  0.5129 -0.6205
  717TMC3    C810660   1.098   3.811   9.523  0.1832  0.3858 -0.4340
  717TMC3    O110661   1.551   3.743   9.733 -0.2991  0.2739  0.8413
  717TMC3    O210662   1.001   3.885   9.512 -0.3023  0.0208 -0.5342
  718MPD2     C10663   0.224   3.091  12.703 -0.7972  0.2696  0.2441
  718MPD2    C110664   0.361   3.074  12.686  0.4958 -0.8641 -0.4699
  718MPD2    C210665   0.429   2.995  12.775  0.0243 -0.0530  0.4852
  718MPD2    C310666   0.371   2.923  12.880 -0.0301  0.0119  0.4014
  718MPD2    C410667   0.230   2.941  12.893  0.4963  0.0421  0.8504
  718MPD2    C510668   0.160   3.023  12.805 -0.0711 -0.4425 -0.4163
  718MPD2     H10669   0.534   2.972  12.760  0.3441  2.7374 -1.6738
  718MPD2    H110670   0.172   2.885  12.965 -0.8156  2.3763  1.6110
  718MPD2    H210671   0.171   3.152  12.631 -1.8042  1.5480  2.0356
  718MPD2    H310672   0.051   3.020  12.803 -0.2078  2.2650  2.6228
  718MPD2     N10673   0.445   2.823  12.940  0.8120 -0.6903  0.1761
  718MPD2    H510674   0.537   2.817  12.897  0.6075  1.3600 -0.5496
  718MPD2    N110675   0.419   3.128  12.570 -0.0228 -0.0317  0.1899
  718MPD2    H710676   0.361   3.146  12.489 -1.3382 -0.4026  1.0287
  719TMC3    C110677   0.596   3.150  12.423  0.2888  0.0430  0.2648
  719TMC3    C210678   0.562   3.041  12.350 -0.4323 -0.4333  0.4752
  719TMC3    C310679   0.663   2.972  12.290  0.1643 -0.4463 -0.4410
  719TMC3    C410680   0.720   3.204  12.399  0.0783 -0.5334 -0.2048
  719TMC3    C510681   0.808   3.153  12.308  0.2365 -0.4186 -0.3050
  719TMC3    C610682   0.781   3.027  12.258  0.1654 -0.0658  0.4787
  719TMC3     C10683   0.555   3.145  12.558 -0.4300 -0.7067 -0.3432
  719TMC3     O10684   0.645   3.162  12.644  0.2468 -0.1470  0.3086
  719TMC3     H10685   0.465   2.994  12.363 -1.0146  1.1190  1.8173
  719TMC3    H110686   0.744   3.290  12.461 -1.0630  0.1401 -0.7162
  719TMC3    H210687   0.848   2.970  12.195  0.2049  0.8705 -0.3224
  719TMC3    C710688   0.943   3.207  12.297 -0.0016 -0.0307  0.3346
  719TMC3    C810689   0.667   2.831  12.319  0.4976 -0.0418 -0.0887
  719TMC3    O110690   1.013   3.155  12.210 -0.1957  0.4136  0.1573
  719TMC3    O210691   0.756   2.784  12.391 -0.1674  0.2693  0.1011
  720MPD2     C10692   3.884   4.550  13.918  0.3433  0.2638  0.3699
  720MPD2    C110693   3.957   4.622  13.834  1.1206  0.4598  0.0406
  720MPD2    C210694   4.084   4.665  13.876  0.4345 -0.6673 -0.2013
  720MPD2    C310695   4.119   4.653  14.011  0.2090  0.5818 -0.7162
  720MPD2    C410696   4.035   4.593  14.096  0.0836  0.0127  0.1609
  720MPD2    C510697   3.923   4.535  14.046  0.6327  0.5717  0.1011
  720MPD2     H10698   4.146   4.711  13.801 -0.7021 -1.1215 -1.4208
  720MPD2    H110699   4.056   4.588  14.202  1.2436  2.8817  0.0656
  720MPD2    H210700   3.792   4.501  13.889  0.5753 -0.3545  0.6789
  720MPD2    H310701   3.862   4.475  14.113  3.9387 -2.5251  0.3397
  720MPD2     N10702   4.238   4.719  14.054  0.4202 -0.1111  0.0936
  720MPD2    H510703   4.306   0.006  13.982  1.3715 -0.9132  0.7278
  720MPD2    N110704   3.915   4.651  13.697  0.3193  0.4217  0.6510
  720MPD2    H710705   3.985   4.696  13.639 -0.8916  2.1051  0.4897
  721TMC3    C110706   4.411   0.074  14.208  0.2499 -0.1315  0.1061
  721TMC3    C210707   4.444   0.096  14.338 -0.3026  0.4706 -0.5827
  721TMC3    C310708   4.571   0.144  14.367 -0.4862 -0.6535 -0.2867
  721TMC3    C410709   4.503   0.075  14.105 -0.0763 -0.5652  0.0611
  721TMC3    C510710   4.632   0.100  14.145  0.5708 -0.1678  0.8999
  721TMC3    C610711   4.669   0.132  14.276 -0.0463  0.0863 -0.3985
  721TMC3     C10712   4.280   0.008  14.186 -0.8857  0.0577  0.6612
  721TMC3     O10713   4.216   4.731  14.291 -0.2777  0.0049  0.0779
  721TMC3     H10714   4.365   0.132  14.404 -1.4427  1.8300 -2.6773
  721TMC3    H110715   4.477   0.028  14.011 -2.3814  0.1039  0.3667
  721TMC3    H210716   0.041   0.131  14.290 -0.2416 -2.6138  0.9189
  721TMC3    C710717   0.005   0.092  14.048  0.4660 -0.3629 -0.1400
  721TMC3    C810718   4.617   0.121  14.507 -0.0143  0.1185  0.1102
  721TMC3    O110719   0.096   0.169  14.082  0.2755 -0.2741 -0.1159
  721TMC3    O210720   0.001   0.155  14.523  0.2016 -0.0878  0.3810
  722MPD2     C10721   2.810   3.481  13.209 -0.4404  0.2419  0.1421
  722MPD2    C110722   2.846   3.577  13.115  0.6424  0.3565 -0.3647
  722MPD2    C210723   2.773   3.590  12.995 -0.2850 -0.0206  0.2134
  722MPD2    C310724   2.684   3.495  12.949 -1.0391 -0.4992 -0.3358
  722MPD2    C410725   2.658   3.398  13.046  0.0078 -0.5492  0.6501
  722MPD2    C510726   2.712   3.401  13.170 -0.2826 -0.2537  0.5840
  722MPD2     H10727   2.803   3.672  12.930 -0.7714  0.2529  0.3336
  722MPD2    H110728   2.585   3.325  13.015  3.4676 -4.0492  0.7693
  722MPD2    H210729   2.845   3.478  13.311  1.0101  0.9204 -0.3386
  722MPD2    H310730   2.691   3.325  13.245  0.7603 -1.3833 -0.2629
  722MPD2     N10731   2.620   3.497  12.823  0.0922 -0.5299 -0.2841
  722MPD2    H510732   2.641   3.577  12.764  2.8005 -0.0893  1.2705
  722MPD2    N110733   2.930   3.680  13.144  0.2289 -0.1019 -0.2321
  722MPD2    H710734   2.947   3.756  13.079 -0.3889 -0.5221 -0.8743
  723TMC3    C110735   2.454   3.429  12.667  0.1134 -0.2730  0.8527
  723TMC3    C210736   2.398   3.330  12.592 -0.2120 -0.3577 -1.1421
  723TMC3    C310737   2.305   3.360  12.490 -0.2531 -0.2718 -0.2817
  723TMC3    C410738   2.423   3.557  12.635 -0.1713 -0.4921 -0.3739
  723TMC3    C510739   2.352   3.582  12.520  0.6184  0.0294 -0.1674
  723TMC3    C610740   2.277   3.488  12.447  0.4044  0.1297  0.1653
  723TMC3     C10741   2.545   3.391  12.772 -0.1740  0.6820  0.4037
  723TMC3     O10742   2.558   3.274  12.795  0.0723  0.5785  0.0765
  723TMC3     H10743   2.428   3.226  12.602 -0.3549 -0.1571  1.5776
  723TMC3    H110744   2.468   3.642  12.684  2.2125 -1.9454 -0.0593
  723TMC3    H210745   2.195   3.505  12.378 -0.8862  1.5356  2.0694
  723TMC3    C710746   2.318   3.718  12.494 -0.3467  0.0896  0.7483
  723TMC3    C810747   2.233   3.254  12.420  0.4127 -0.4730 -0.0299
  723TMC3    O110748   2.352   3.796  12.583  0.0131  0.0357 -0.0686
  723TMC3    O210749   2.164   3.287  12.325  0.0929 -0.6047  0.0262
  724TMC3    C110750   2.790   1.443  10.188 -0.4574 -0.0339 -0.4060
  724TMC3    C210751   2.802   1.427  10.058  0.1552  0.0866  0.5704
  724TMC3    C310752   2.911   1.488   9.999  0.0725 -0.5969 -0.5802
  724TMC3    C410753   2.885   1.491  10.273  0.6270  0.2784  0.4958
  724TMC3    C510754   2.997   1.540  10.210  0.4313 -0.1506  0.8233
  724TMC3    C610755   3.008   1.543  10.075 -0.3721 -0.3300 -0.1486
  724TMC3     C10756   2.678   1.372  10.255  0.1645 -0.2682 -0.7219
  724TMC3     O10757   2.676   1.375  10.378  0.3568  0.3285 -0.1827
  724TMC3     H10758   2.719   1.418   9.990  1.1540 -1.9213 -0.3823
  724TMC3    H110759   2.853   1.507  10.375  0.6477  0.5241  0.4642
  724TMC3    H210760   3.105   1.569  10.035  0.6437 -0.7773  2.0392
  724TMC3    C710761   3.038   1.673  10.244  0.2290  0.0993 -0.2972
  724TMC3    C810762   2.894   1.537   9.864 -0.0656 -0.1435 -0.6739
  724TMC3    O110763   3.046   1.756  10.150  0.4842  0.3777 -0.8724
  724TMC3    O210764   2.824   1.473   9.788  0.3211  0.5475  0.6958
  725TMC3    C110765   4.358   0.432  12.816  0.6037  0.9033  0.2594
  725TMC3    C210766   4.372   0.492  12.696  0.0493 -0.2287  0.5462
  725TMC3    C310767   4.372   0.408  12.588 -0.8968  0.2362  0.1237
  725TMC3    C410768   4.352   0.290  12.821  0.1427  0.1077  0.7218
  725TMC3    C510769   4.357   0.220  12.703  0.3414 -0.0978 -0.5190
  725TMC3    C610770   4.380   0.272  12.580 -0.2753  0.1291  0.4337
  725TMC3     C10771   4.413   0.507  12.926 -0.3153 -0.6035 -0.0425
  725TMC3     O10772   4.401   0.631  12.917  0.1382  0.1010 -0.1872
  725TMC3     H10773   4.394   0.597  12.680 -0.6152 -0.0176  1.0110
  725TMC3    H110774   4.329   0.234  12.911  0.7224 -0.4928  0.4976
  725TMC3    H210775   4.397   0.206  12.495 -3.5933  2.0058 -1.6856
  725TMC3    C710776   4.406   0.087  12.707  0.0515  0.1335 -0.1956
  725TMC3    C810777   4.419   0.456  12.455  0.4134  0.2308 -0.2539
  725TMC3    O110778   4.484   0.060  12.614  0.1502  0.4742  0.0030
  725TMC3    O210779   4.490   0.385  12.387  0.1582 -0.3087  0.0465
  726MPD2     C10780   2.283   1.986  10.025  0.2707 -0.1180  0.6131
  726MPD2    C110781   2.222   2.043   9.920  0.7090  0.0032 -0.1479
  726MPD2    C210782   2.103   1.987   9.874 -0.0591 -0.4548 -0.0785
  726MPD2    C310783   2.054   1.869   9.940 -0.1105  0.2410  0.1771
  726MPD2    C410784   2.131   1.816  10.039  0.2002  0.4420 -0.1859
  726MPD2    C510785   2.244   1.870  10.079  0.0117  0.6391 -0.0978
  726MPD2     H10786   2.049   2.038   9.795 -0.8906 -0.1001  0.7092
  726MPD2    H110787   2.099   1.732  10.099  1.4130 -0.7733 -1.2286
  726MPD2    H210788   2.378   2.022  10.062 -0.5129  0.9638  1.5521
  726MPD2    H310789   2.299   1.817  10.156  0.8622  0.8422 -0.5590
  726MPD2     N10790   1.920   1.809   9.917 -0.2693 -0.3627 -0.3507
  726MPD2    H510791   1.882   1.740   9.981  1.9512 -1.5189 -0.3029
  726MPD2    N110792   2.269   2.162   9.856  0.6396  0.4484  0.0245
  726MPD2    H710793   2.220   2.194   9.773 -0.3820  0.1930  0.5290
  727TMC3    C110794   2.372   2.371   9.833  0.2725  0.1675 -0.1819
  727TMC3    C210795   2.484   2.444   9.856  0.3350  0.6235  0.3642
  727TMC3    C310796   2.476   2.579   9.816  0.8333  0.4176  0.0390
  727TMC3    C410797   2.262   2.418   9.770 -0.1248  0.3574 -0.5083
  727TMC3    C510798   2.262   2.551   9.724  0.0417  0.3063 -0.3541
  727TMC3    C610799   2.369   2.629   9.748 -0.1233 -0.1136  0.3385
  727TMC3     C10800   2.381   2.232   9.878 -0.4007  0.4194  0.5058
  727TMC3     O10801   2.465   2.217   9.967  0.1046 -0.2201 -0.8703
  727TMC3     H10802   2.570   2.407   9.911 -0.1816  0.6227  1.1571
  727TMC3    H110803   2.169   2.363   9.761 -0.3648  0.7550 -0.5020
  727TMC3    H210804   2.365   2.727   9.703  1.8419  0.4545  1.4266
  727TMC3    C710805   2.149   2.617   9.694 -0.3831 -0.3470 -0.6293
  727TMC3    C810806   2.577   2.666   9.873  0.4345 -0.3800  0.5956
  727TMC3    O110807   2.148   2.738   9.718  0.0474  1.0442 -0.4198
  727TMC3    O210808   2.680   2.614   9.911  0.7122  0.4240  0.3770
  728TMC3    C110809   1.592   0.549  14.947 -0.0650 -1.7193 -0.6159
  728TMC3    C210810   1.720   0.552  14.890 -0.3684 -0.0215 -0.1442
  728TMC3    C310811   1.751   0.625  14.779  0.2556  0.3074  0.1262
  728TMC3    C410812   1.493   0.614  14.880  0.3905 -0.2358  0.3191
  728TMC3    C510813   1.521   0.685  14.768  0.1562 -0.3478  0.1922
  728TMC3    C610814   1.656   0.703  14.717  0.7909  0.1940  0.5396
  728TMC3     C10815   1.588   0.535  15.095  0.6511  0.2010  0.3116
  728TMC3     O10816   1.692   0.548  15.158 -0.3752 -0.2269  0.2418
  728TMC3     H10817   1.799   0.498  14.941 -1.0510 -1.2757 -0.4115
  728TMC3    H110818   1.392   0.606  14.918  0.7268 -2.7914  0.6724
  728TMC3    H210819   1.675   0.742  14.617 -0.1497  0.4178  0.4412
  728TMC3    C710820   1.418   0.764  14.702  0.3700  0.0933 -0.3883
  728TMC3    C810821   1.879   0.613  14.718  0.2572  0.2892  0.5031
  728TMC3    O110822   1.300   0.725  14.709 -0.1319 -0.2187 -0.2351
  728TMC3    O210823   1.879   0.657  14.600 -0.1295 -1.3023 -0.1149
  729MPD2     C10824   4.634   1.715  17.294 -0.7840  0.5060  0.3094
  729MPD2    C110825   4.548   1.802  17.236  0.1181 -0.5648 -0.0209
  729MPD2    C210826   4.478   1.888  17.320  0.4014 -0.2796 -0.0171
  729MPD2    C310827   4.478   1.866  17.460 -0.0064  0.2918 -0.4878
  729MPD2    C410828   4.572   1.781  17.514  0.1184 -1.1797 -0.0675
  729MPD2    C510829   4.657   1.713  17.430 -0.6521  0.0318  0.4885
  729MPD2     H10830   4.410   1.961  17.277 -2.0494 -1.8156  1.2572
  729MPD2    H110831   4.585   1.769  17.621 -1.3793 -2.7270 -0.0737
  729MPD2    H210832   4.687   1.645  17.231  1.5034  2.1600  0.3677
  729MPD2    H310833   4.727   1.642  17.472 -1.4327 -1.7985 -1.2533
  729MPD2     N10834   4.394   1.940  17.553 -0.4423 -0.5874  0.5901
  729MPD2    H510835   4.399   1.922  17.653 -1.5873 -0.7652  0.6238
  729MPD2    N110836   4.550   1.813  17.097 -0.0980  0.2054 -0.4703
  729MPD2    H710837   4.616   1.748  17.057 -0.7472 -0.7016 -0.0879
  730TMC3    C110838   4.279   2.130  17.632 -0.1013 -0.4032 -0.1512
  730TMC3    C210839   4.368   2.151  17.740 -0.4199  0.8279 -0.4991
  730TMC3    C310840   4.351   2.263   0.078  0.1998 -0.2612 -0.0380
  730TMC3    C410841   4.178   2.213  17.604 -0.2991 -0.0063 -0.0482
  730TMC3    C510842   4.165   2.324  17.680  0.2248 -0.0828  0.0785
  730TMC3    C610843   4.247   2.350   0.046 -0.4469 -0.8267  0.2504
  730TMC3     C10844   4.312   2.041  17.518 -0.5671 -0.6132 -0.3247
  730TMC3     O10845   4.265   2.067  17.406 -0.4783 -0.7700 -0.0156
  730TMC3     H10846   4.457   2.090   0.006 -0.6839  0.3456 -1.1379
  730TMC3    H110847   4.110   2.197  17.521  1.4722 -0.3412 -1.4314
  730TMC3    H210848   4.234   2.441   0.103 -3.6765 -0.6370 -0.7786
  730TMC3    C710849   4.056   2.404  17.636  0.1639 -0.2219  1.0345
  730TMC3    C810850   4.461   2.304   0.160 -0.2231 -0.5379  1.4919
  730TMC3    O110851   3.992   2.368  17.540  0.4114 -0.3777 -0.0279
  730TMC3    O210852   4.568   2.242   0.148  0.5350 -0.2908 -0.2136
  731MPD2     C10853   4.021   4.375  12.438 -0.4324  0.1773  0.3096
  731MPD2    C110854   4.027   4.239  12.403  0.0034 -0.2108 -0.0768
  731MPD2    C210855   4.016   4.140  12.500 -0.3668  0.6006 -0.1507
  731MPD2    C310856   4.002   4.177  12.633 -0.2613 -0.2564  0.9061
  731MPD2    C410857   3.989   4.308  12.667 -0.5456  0.0272  0.0060
  731MPD2    C510858   4.003   4.406  12.572 -0.4338 -0.5550 -0.4532
  731MPD2     H10859   4.027   4.034  12.482 -2.0079 -0.0306  2.4496
  731MPD2    H110860   3.975   4.342  12.769 -0.4723 -0.1098  0.0621
  731MPD2    H210861   4.036   4.452  12.363 -1.4278 -2.6851 -2.8361
  731MPD2    H310862   4.013   4.510  12.601 -1.6889 -0.7337  0.6623
  731MPD2     N10863   4.003   4.076  12.735 -0.2304 -0.8760 -0.2487
  731MPD2    H510864   4.037   3.983  12.712 -1.7047 -1.7530  1.1731
  731MPD2    N110865   4.067   4.212  12.269  0.2884  0.2244 -0.3275
  731MPD2    H710866   4.112   4.285  12.216  0.8957 -0.5616 -0.8814
  732TMC3    C110867   4.080   4.105  12.066 -0.7386  0.1820  0.3712
  732TMC3    C210868   4.019   4.017  11.980 -0.5647 -0.0671  0.3678
  732TMC3    C310869   4.067   4.001  11.854 -0.5143  0.1087  0.8658
  732TMC3    C410870   4.206   4.152  12.032 -0.2541  0.2325 -0.7048
  732TMC3    C510871   4.261   4.121  11.908  0.4479  0.0336  0.1201
  732TMC3    C610872   4.186   4.059  11.816  0.3626  0.2204  0.0925
  732TMC3     C10873   4.046   4.094  12.205 -0.1514 -0.3986 -0.6461
  732TMC3     O10874   3.975   3.998  12.242 -0.3195 -0.1620 -0.1891
  732TMC3     H10875   3.928   3.963  12.004  0.0819 -1.1260  0.4342
  732TMC3    H110876   4.270   4.204  12.101 -0.2096 -0.4884 -0.1961
  732TMC3    H210877   4.216   4.042  11.713 -1.0142 -0.1778 -0.2395
  732TMC3    C710878   4.401   4.134  11.871 -0.2214 -0.4345  0.5275
  732TMC3    C810879   3.981   3.951  11.749 -0.0426  0.6543 -0.0237
  732TMC3    O110880   4.432   4.124  11.750  0.0398 -0.1111 -0.0999
  732TMC3    O210881   4.035   3.921  11.641 -0.0235  0.0603 -0.5883
  733TMC3    C110882   0.403   2.402  13.112 -0.3228  0.5353 -0.5028
  733TMC3    C210883   0.444   2.527  13.135  0.0883 -0.5217 -0.4247
  733TMC3    C310884   0.490   2.604  13.038 -0.1879  0.0980 -0.3984
  733TMC3    C410885   0.435   2.345  12.991  0.3063 -0.3486 -0.2470
  733TMC3    C510886   0.498   2.417  12.891 -0.0313 -0.2650 -0.4203
  733TMC3    C610887   0.512   2.547  12.917 -0.9134  0.7517  0.6898
  733TMC3     C10888   0.271   2.361  13.159 -0.1681  0.6461 -0.3871
  733TMC3     O10889   0.246   2.238  13.176  0.6115  0.2882  0.4543
  733TMC3     H10890   0.426   2.574  13.231  0.5340  0.4673 -0.8206
  733TMC3    H110891   0.394   2.249  12.958  0.3080 -0.1393 -0.8607
  733TMC3    H210892   0.556   2.610  12.841  1.8575 -2.9673 -0.7717
  733TMC3    C710893   0.462   2.388  12.756  0.4301 -0.0279 -0.0448
  733TMC3    C810894   0.406   2.723  13.025 -0.0152  0.3455 -0.1322
  733TMC3    O110895   0.383   2.297  12.734 -0.3655  0.0350 -0.2482
  733TMC3    O210896   0.312   2.729  13.105  0.3486 -0.6804 -0.0442
  734MPD2     C10897   2.485   0.894  11.877  0.1642 -0.4825 -0.1094
  734MPD2    C110898   2.378   0.832  11.827  0.1533 -1.2791  0.1354
  734MPD2    C210899   2.346   0.852  11.690  0.1427 -0.1023  0.6129
  734MPD2    C310900   2.421   0.939  11.609  0.2446  0.3286  0.7040
  734MPD2    C410901   2.533   0.998  11.668 -0.2896 -0.4577  0.3585
  734MPD2    C510902   2.565   0.970  11.796  0.0589 -0.5145  0.6005
  734MPD2     H10903   2.271   0.788  11.644  1.4308 -1.9339  1.0309
  734MPD2    H110904   2.612   1.048  11.613 -3.0455  2.2109 -1.1916
  734MPD2    H210905   2.517   0.876  11.979 -0.9209  0.3201  0.3746
  734MPD2    H310906   2.657   1.008  11.839 -0.6687  0.5776  1.1778
  734MPD2     N10907   2.389   0.937  11.468 -0.5254  0.1863  0.3082
  734MPD2    H510908   2.310   0.878  11.443 -0.0596  0.2898 -1.3896
  734MPD2    N110909   2.314   0.728  11.902 -0.2544  0.4519  0.1087
  734MPD2    H710910   2.340   0.715  11.999 -1.3084 -0.5356  0.2597
  735TMC3    C110911   2.178   0.538  11.947  0.1956  0.0672 -0.1196
  735TMC3    C210912   2.069   0.477  11.888  0.5894 -0.0462 -0.3357
  735TMC3    C310913   2.056   0.341  11.879 -0.5623 -0.1005  0.9707
  735TMC3    C410914   2.288   0.459  11.985 -0.4512 -0.0639  0.1918
  735TMC3    C510915   2.265   0.324  11.976 -0.1151  0.6262  0.3894
  735TMC3    C610916   2.151   0.261  11.936 -0.0177  0.3510  0.8749
  735TMC3     C10917   2.216   0.646  11.855  0.0893  0.4168  0.2018
  735TMC3     O10918   2.149   0.655  11.756 -0.2062  0.3967  0.6445
  735TMC3     H10919   1.987   0.542  11.860  1.4531  0.9113 -0.6610
  735TMC3    H110920   2.386   0.505  11.997  1.0813 -3.6225  1.0540
  735TMC3    H210921   2.138   0.154  11.920 -1.5817  0.9718 -1.9534
  735TMC3    C710922   2.394   0.247  11.974  0.5362  0.0980 -0.0612
  735TMC3    C810923   2.028   0.298  11.739  0.5768  0.2402 -0.3233
  735TMC3    O110924   2.503   0.304  11.966 -0.4611 -0.1022  0.2517
  735TMC3    O210925   1.998   0.183  11.716 -0.2266  0.2586  0.8142
  736MPD2     C10926   2.380   4.605  11.931 -0.0834  0.0646  0.0979
  736MPD2    C110927   2.433   4.735  11.912 -0.0586  0.0444 -0.3482
  736MPD2    C210928   2.541   0.029  11.827  0.3007  0.2707 -0.5598
  736MPD2    C310929   2.617   4.670  11.773 -0.4852 -0.3948  0.3353
  736MPD2    C410930   2.568   4.538  11.795 -0.1515 -0.1821 -0.0054
  736MPD2    C510931   2.456   4.505  11.867 -0.1932  0.7137  0.1798
  736MPD2     H10932   2.567   0.133  11.813  0.3488  0.2432 -0.6804
  736MPD2    H110933   2.619   4.453  11.752  1.2049  0.1642  0.9006
  736MPD2    H210934   2.295   4.587  11.996  0.1893  1.1251  0.7381
  736MPD2    H310935   2.427   4.401  11.882  0.9116  0.4319  0.4190
  736MPD2     N10936   2.731   4.688  11.693  0.6650 -0.4243 -0.1472
  736MPD2    H510937   2.759   4.602  11.649  0.6702 -0.7723  0.5304
  736MPD2    N110938   2.362   0.109  11.967 -0.4402 -0.5126  0.4366
  736MPD2    H710939   2.282   0.069  12.014 -0.8809  0.1338  0.2263
  737TMC3    C110940   2.886   0.054  11.544  0.0922 -0.4326 -0.3014
  737TMC3    C210941   2.892   0.145  11.443  0.0585  0.9066  0.5738
  737TMC3    C310942   2.995   0.129  11.351 -0.2973  0.3861  0.1258
  737TMC3    C410943   2.972   4.687  11.543 -0.1056  0.0761  0.5991
  737TMC3    C510944   3.079   4.679  11.453 -0.6302 -0.2849 -0.5832
  737TMC3    C610945   3.089   0.031  11.347 -0.1271 -0.3614 -0.0469
  737TMC3     C10946   2.787   0.073  11.655  0.3631 -0.8039  0.3861
  737TMC3     O10947   2.757   0.186  11.693  0.6088 -0.2479 -0.3734
  737TMC3     H10948   2.849   0.244  11.452  0.6222  1.0325  1.9237
  737TMC3    H110949   2.954   4.614  11.621 -2.0022 -0.9073 -0.7741
  737TMC3    H210950   3.172   0.037  11.277  0.1151 -2.6341  0.0415
  737TMC3    C710951   3.129   4.548  11.426  0.3403 -0.3586  0.9588
  737TMC3    C810952   3.015   0.218  11.237 -0.1520 -0.3841 -0.1100
  737TMC3    O110953   3.065   4.449  11.465  0.3173  0.2745  0.6454
  737TMC3    O210954   3.123   0.242  11.185 -0.2250 -0.4339  0.4477
  738MPD2     C10955   2.638   3.911  14.772 -0.0021  0.3129 -1.1237
  738MPD2    C110956   2.730   3.802  14.800  0.3731  0.3269 -0.1799
  738MPD2    C210957   2.864   3.817  14.788  0.5342  0.2150 -0.0470
  738MPD2    C310958   2.920   3.932  14.745  0.1655  0.3225 -0.1526
  738MPD2    C410959   2.830   4.031  14.701  0.0110 -0.5586  0.0694
  738MPD2    C510960   2.692   4.023  14.714 -0.2334 -0.3669  0.7258
  738MPD2     H10961   2.923   3.730  14.811  0.0381 -0.1241 -0.0540
  738MPD2    H110962   2.872   4.113  14.645 -0.2576  1.6750  3.1462
  738MPD2    H210963   2.530   3.913  14.770 -0.0446 -1.6409 -0.5481
  738MPD2    H310964   2.626   4.101  14.679 -2.6075 -1.7437  2.1878
  738MPD2     N10965   3.062   3.956  14.725 -0.2512 -0.1734 -0.4797
  738MPD2    H510966   3.099   4.041  14.682  1.2359 -0.0088  1.1334
  738MPD2    N110967   2.691   3.682  14.849 -0.1776  0.5411 -0.5497
  738MPD2    H710968   2.751   3.601  14.842  0.4180  1.0720 -1.6061
  739TMC3    C110969   3.299   3.895  14.711  0.4704  0.1477 -0.3279
  739TMC3    C210970   3.294   3.917  14.572  0.6270  0.8121  0.1072
  739TMC3    C310971   3.408   3.923  14.496 -0.0581 -0.4627  0.7170
  739TMC3    C410972   3.410   3.845  14.768  0.9703  0.1312  0.1508
  739TMC3    C510973   3.516   3.827  14.680 -0.1145  0.3890  0.2544
  739TMC3    C610974   3.520   3.868  14.546 -0.3853  0.2040  0.1058
  739TMC3     C10975   3.164   3.868  14.762  0.3171  0.1035  0.3675
  739TMC3     O10976   3.164   3.781  14.850 -0.3994  0.0579 -0.5473
  739TMC3     H10977   3.197   3.925  14.524  1.3715  1.0482 -1.3496
  739TMC3    H110978   3.413   3.812  14.871 -1.1989 -1.0479 -0.1492
  739TMC3    H210979   3.609   3.854  14.485 -1.1195  1.5740 -1.2809
  739TMC3    C710980   3.617   3.748  14.733  0.2023 -0.2189 -0.4124
  739TMC3    C810981   3.401   3.986  14.367  0.7787 -0.6749  0.6209
  739TMC3    O110982   3.588   3.672  14.823  0.1008  0.2195 -0.6296
  739TMC3    O210983   3.290   4.003  14.313 -0.0126  0.6323  0.1213
  740TMC3    C110984   3.570   0.467  14.298  0.1967  0.1216  0.1848
  740TMC3    C210985   3.617   0.538  14.406 -0.2835 -0.8756 -0.4515
  740TMC3    C310986   3.755   0.543  14.429  0.0307  0.1391  0.1820
  740TMC3    C410987   3.659   0.436  14.191 -0.2151  0.3638 -0.3113
  740TMC3    C510988   3.799   0.455  14.214 -0.4365  0.2999 -0.1680
  740TMC3    C610989   3.843   0.506  14.338  0.3845 -0.2834 -0.5095
  740TMC3     C10990   3.427   0.436  14.292  0.3899 -0.4882 -0.1397
  740TMC3     O10991   3.385   0.380  14.189 -0.6184 -0.3071  0.1728
  740TMC3     H10992   3.560   0.597  14.477  1.3961  1.1664 -0.8053
  740TMC3    H110993   3.629   0.385  14.100  4.1162 -1.8048 -0.5311
  740TMC3    H210994   3.948   0.525  14.359  0.4535 -0.3919 -0.7502
  740TMC3    C710995   3.903   0.422  14.117 -0.7310  0.6677  0.2850
  740TMC3    C810996   3.795   0.579  14.567  0.9190 -0.0435 -0.5349
  740TMC3    O110997   4.015   0.393  14.160 -0.1665  0.2977 -0.7750
  740TMC3    O210998   3.711   0.597  14.654  0.1125 -0.1320 -0.2358
  741TMC3    C110999   3.291   4.448  14.245  0.2668 -0.0030 -0.5213
  741TMC3    C211000   3.185   4.364  14.266 -0.3035 -0.6140 -0.1561
  741TMC3    C311001   3.178   4.291  14.383 -0.0721 -0.1328  0.3359
  741TMC3    C411002   3.399   4.441  14.326 -0.6184 -0.8321 -0.1774
  741TMC3    C511003   3.397   4.357  14.430  0.1071 -0.3034 -0.0198
  741TMC3    C611004   3.288   4.277  14.462 -0.5305 -1.0414 -0.2801
  741TMC3     C11005   3.298   4.523  14.118 -0.5929  0.3133 -0.7255
  741TMC3     O11006   3.199   4.526  14.048 -0.2804 -0.6093  0.3814
  741TMC3     H11007   3.110   4.364  14.187  1.4714 -1.8334 -1.8382
  741TMC3    H111008   3.484   4.507  14.315  1.0022 -3.1049 -1.2283
  741TMC3    H211009   3.277   4.203  14.542  1.0521 -0.8621  0.1130
  741TMC3    C711010   3.521   4.340  14.495 -0.1884 -0.5485  0.2888
  741TMC3    C811011   3.061   4.204  14.411 -0.1452 -0.7653 -0.7669
  741TMC3    O111012   3.617   4.381  14.429  0.5787  0.1724  0.4904
  741TMC3    O211013   3.062   4.139  14.515 -0.4924 -0.1127 -0.2537
  742TMC3    C111014   3.017   2.814  15.449  0.3881 -0.3685 -0.4633
  742TMC3    C211015   2.922   2.811  15.360 -0.2700 -0.2899  0.0393
  742TMC3    C311016   2.933   2.706  15.269 -0.6241  0.0328  0.8547
  742TMC3    C411017   3.130   2.735  15.451  0.3155  0.0446  0.0472
  742TMC3    C511018   3.131   2.640  15.350  0.7020 -0.0261 -0.2211
  742TMC3    C611019   3.036   2.625  15.257 -0.4058 -0.1009 -0.4250
  742TMC3     C11020   3.009   2.915  15.552 -0.4302 -0.5168 -0.8230
  742TMC3     O11021   2.925   3.006  15.540 -0.3309 -0.5062  0.4570
  742TMC3     H11022   2.820   2.844  15.377 -0.8875 -1.5378 -1.2083
  742TMC3    H111023   3.222   2.757  15.503 -1.2148  0.5426  2.5285
  742TMC3    H211024   3.034   2.552  15.177 -3.6335  0.8818 -1.2391
  742TMC3    C711025   3.236   2.547  15.329  0.4689  0.7273 -1.1585
  742TMC3    C811026   2.840   2.675  15.165 -0.5135  0.4380 -0.0158
  742TMC3    O111027   3.256   2.514  15.213 -0.3885 -0.1311  0.4093
  742TMC3    O211028   2.826   2.561  15.125  0.4140 -0.5651 -0.1798
  743MPD2     C11029   1.372   4.310   1.669 -0.7223  0.4356 -0.2962
  743MPD2    C111030   1.435   4.290   1.549 -0.3313  0.4007  0.2972
  743MPD2    C211031   1.568   4.333   1.532 -0.0831 -0.1058 -0.0891
  743MPD2    C311032   1.636   4.394   1.636 -0.9226 -0.2840 -0.7395
  743MPD2    C411033   1.572   4.405   1.759  0.5195  0.1196 -0.5296
  743MPD2    C511034   1.445   4.356   1.775 -0.3984 -0.6376  1.0644
  743MPD2     H11035   1.620   4.323   1.437  2.4004 -0.3610  1.2861
  743MPD2    H111036   1.622   4.444   1.847 -0.1217  1.0218 -0.5751
  743MPD2    H211037   1.274   4.272   1.692 -1.3335  2.6107  0.7016
  743MPD2    H311038   1.399   4.376   1.872 -0.5436 -0.1356  0.8923
  743MPD2     N11039   1.762   4.444   1.614  0.6095  0.6950 -0.1696
  743MPD2    H511040   1.820   4.403   1.542  0.5525  0.5534 -0.1348
  743MPD2    N111041   1.356   4.225   1.444 -0.2721  0.8396  0.7772
  743MPD2    H711042   1.255   4.212   1.452 -0.1144 -0.1298  1.2549
  744TMC3    C111043   1.340   4.064   1.259  0.1146  0.0293  0.1129
  744TMC3    C211044   1.204   4.083   1.235  0.3753  0.5148  0.3721
  744TMC3    C311045   1.128   3.989   1.164  0.0961  0.2656 -0.0643
  744TMC3    C411046   1.401   3.963   1.186 -0.3138  0.0679 -0.3481
  744TMC3    C511047   1.326   3.890   1.102 -0.1959 -0.8975  1.3503
  744TMC3    C611048   1.191   3.894   1.089 -0.7480  0.0448  0.1534
  744TMC3     C11049   1.418   4.147   1.351  0.2132  0.8989 -0.1833
  744TMC3     O11050   1.536   4.133   1.334 -0.2112  0.5088 -0.3518
  744TMC3     H11051   1.157   4.170   1.278  0.9284  1.0818 -0.1581
  744TMC3    H111052   1.508   3.947   1.196  0.1008  0.8033 -3.9162
  744TMC3    H211053   1.133   3.835   1.020 -0.6711 -1.5451  1.4411
  744TMC3    C711054   1.399   3.829   0.994 -0.3700  0.8330 -0.2949
  744TMC3    C811055   0.995   4.035   1.116  0.2030  0.0075  0.1049
  744TMC3    O111056   1.497   3.882   0.953  0.1691  0.2609 -0.9011
  744TMC3    O211057   0.958   4.005   1.006 -0.1840 -0.2764 -0.1939
  745TMC3    C111058   3.613   2.601  13.595 -0.3101  0.2211 -0.4103
  745TMC3    C211059   3.493   2.587  13.658  0.1817 -0.8129  0.3206
  745TMC3    C311060   3.381   2.633  13.591 -0.0458  0.9452 -0.7865
  745TMC3    C411061   3.629   2.646  13.466  0.1960 -0.0634  0.3650
  745TMC3    C511062   3.507   2.676  13.404 -0.9611 -0.1730  1.1480
  745TMC3    C611063   3.387   2.679  13.464  0.1989 -0.0271 -0.4480
  745TMC3     C11064   3.721   2.604  13.686  0.0136 -1.1450  0.2844
  745TMC3     O11065   3.735   2.518  13.776  0.0223 -0.5768 -0.5569
  745TMC3     H11066   3.487   2.555  13.761  1.2271  0.7057  0.8509
  745TMC3    H111067   3.723   2.638  13.412 -0.0446 -4.3467  0.6000
  745TMC3    H211068   3.297   2.694  13.407  0.1282  0.7132 -0.1496
  745TMC3    C711069   3.514   2.747  13.279 -0.2298  0.1148 -0.2197
  745TMC3    C811070   3.249   2.593  13.643 -0.2943  0.1874 -0.3277
  745TMC3    O111071   3.420   2.749  13.202  0.5563 -0.0212  0.1288
  745TMC3    O211072   3.172   2.572  13.545 -0.5242  0.1718 -0.1144
  746TMC3    C111073   1.035   4.265  10.702  0.2668  0.2669  0.3028
  746TMC3    C211074   1.043   4.263  10.564 -0.0931 -0.4082 -0.0493
  746TMC3    C311075   0.953   4.190  10.494 -0.0461 -0.0766 -0.0928
  746TMC3    C411076   0.923   4.226  10.767 -0.4270 -0.0890  0.1285
  746TMC3    C511077   0.826   4.160  10.691  0.6226  0.8913  0.3422
  746TMC3    C611078   0.840   4.144  10.558  0.4576  1.2006 -0.7624
  746TMC3     C11079   1.122   4.360  10.769  0.6154 -0.5257  0.3885
  746TMC3     O11080   1.080   4.402  10.875 -0.1030 -0.2082 -0.1141
  746TMC3     H11081   1.119   4.314  10.507 -2.0290  2.5479  0.0045
  746TMC3    H111082   0.915   4.252  10.872 -1.1763  1.7083 -0.3765
  746TMC3    H211083   0.770   4.082  10.504  0.4609  1.9311 -1.6109
  746TMC3    C711084   0.723   4.084  10.761 -0.4238 -0.8269 -0.2947
  746TMC3    C811085   0.955   4.237  10.358  0.4902 -0.5015 -0.4392
  746TMC3    O111086   0.614   4.070  10.709  0.2256  0.1328 -0.1263
  746TMC3    O211087   1.057   4.208  10.299  0.6164  0.0511 -0.0807
  747TMC3    C111088   3.954   4.388  10.794 -0.0869 -0.6542 -0.4756
  747TMC3    C211089   3.848   4.318  10.853  0.0251  0.1977 -0.3806
  747TMC3    C311090   3.816   4.371  10.976  0.0040  0.9310  0.0268
  747TMC3    C411091   4.028   4.483  10.857 -0.2534 -0.1379  0.3880
  747TMC3    C511092   3.994   4.523  10.985  0.2276  0.4874 -0.4825
  747TMC3    C611093   3.882   4.475  11.041 -0.1859  0.1403  0.6825
  747TMC3     C11094   3.998   4.357  10.656 -0.1895  0.3677 -0.4544
  747TMC3     O11095   4.101   4.410  10.615  0.4034  0.1841  0.1618
  747TMC3     H11096   3.788   4.241  10.806 -0.5424  0.3808  0.0426
  747TMC3    H111097   4.110   4.530  10.804  1.0097 -1.8248  0.8395
  747TMC3    H211098   3.839   4.514  11.133 -0.4192  2.7704 -0.5404
  747TMC3    C711099   4.098   4.561  11.081  0.5463  0.1581 -0.1618
  747TMC3    C811100   3.703   4.303  11.037  0.3238 -0.6634  0.2077
  747TMC3    O111101   4.058   4.587  11.192 -0.2766 -0.9089  0.6020
  747TMC3    O211102   3.667   4.198  10.987  0.7957  0.5654  0.0046
  748MPD2     C11103   0.594   0.212   1.704  0.2206  0.0282  0.1259
  748MPD2    C111104   0.657   0.296   1.617 -0.4556  0.2884 -0.3890
  748MPD2    C211105   0.709   0.241   1.505 -0.2409  0.0503 -0.3817
  748MPD2    C311106   0.689   0.110   1.465  0.9876 -0.2535  0.5671
  748MPD2    C411107   0.611   0.031   1.543 -0.5199  0.3494 -0.6837
  748MPD2    C511108   0.568   0.080   1.666  0.0110  0.4347  0.0151
  748MPD2     H11109   0.763   0.300   1.432  1.4288 -1.4217 -0.3269
  748MPD2    H111110   0.587   4.664   1.518 -1.3033  0.1452  0.9186
  748MPD2    H211111   0.558   0.241   1.802 -0.8417  0.4154 -0.3715
  748MPD2    H311112   0.512   0.015   1.732  2.1432 -2.4917 -1.0567
  748MPD2     N11113   0.755   0.055   1.346  0.4141  0.0426  0.9705
  748MPD2    H511114   0.801   0.122   1.285  1.1589 -0.2168  1.2423
  748MPD2    N111115   0.665   0.429   1.651 -0.1623  0.4390 -0.5970
  748MPD2    H711116   0.605   0.462   1.726 -0.2984 -1.0066 -0.0694
  749TMC3    C111117   0.809   4.641   1.169 -0.1382  0.2442  0.3700
  749TMC3    C211118   0.866   4.521   1.129  0.1890  0.1112  0.5333
  749TMC3    C311119   0.891   4.504   0.997  0.3365  0.4496  0.0061
  749TMC3    C411120   0.771   4.733   1.079 -0.3079 -0.2571  0.9041
  749TMC3    C511121   0.797   4.712   0.949  0.4776  0.4217 -0.4316
  749TMC3    C611122   0.857   4.595   0.895  0.1463  0.5317 -0.1866
  749TMC3     C11123   0.768   4.658   1.303 -0.0806 -0.3175 -0.4421
  749TMC3     O11124   0.754   4.556   1.367  1.0508  0.0867 -0.5965
  749TMC3     H11125   0.881   4.440   1.199 -1.5123  0.3454  1.1747
  749TMC3    H111126   0.712   0.082   1.109  0.8870  1.1398 -0.6692
  749TMC3    H211127   0.898   4.581   0.796 -2.2201 -1.4356 -0.8937
  749TMC3    C711128   0.810   0.094   0.875  0.0366  0.7648 -0.6779
  749TMC3    C811129   0.989   4.411   0.948  0.0208  0.5877 -0.3304
  749TMC3    O111130   0.824   0.189   0.948 -0.2416 -0.0941  0.2294
  749TMC3    O211131   0.971   4.382   0.832  0.1901 -0.0161 -0.2976
  750MPD2     C11132   0.813   1.936  10.904  0.0707 -0.0077 -0.9192
  750MPD2    C111133   0.796   1.838  10.996 -0.0703 -0.4672 -1.1884
  750MPD2    C211134   0.705   1.737  10.967  0.6589  0.3450  0.1933
  750MPD2    C311135   0.670   1.712  10.841  0.0450 -0.1124 -0.1438
  750MPD2    C411136   0.702   1.805  10.741  0.1388  0.1983  0.1937
  750MPD2    C511137   0.775   1.916  10.778  0.4529 -0.0951 -0.5102
  750MPD2     H11138   0.683   1.668  11.047  1.0483 -1.2437 -1.0846
  750MPD2    H111139   0.674   1.791  10.637  0.3800 -0.0034  0.1571
  750MPD2    H211140   0.885   2.016  10.915  0.7891 -0.8290  0.3980
  750MPD2    H311141   0.803   1.992  10.705  1.1527  0.1075 -0.0275
  750MPD2     N11142   0.581   1.606  10.795 -0.4526  0.8762 -0.8144
  750MPD2    H511143   0.559   1.594  10.697 -0.6215  2.4458 -0.9717
  750MPD2    N111144   0.834   1.859  11.130  0.6186  0.9178  0.0636
  750MPD2    H711145   0.864   1.953  11.154 -0.2466  1.2456 -0.1138
  751TMC3    C111146   0.465   1.394  10.826 -0.5468  0.0959  0.1744
  751TMC3    C211147   0.383   1.319  10.909 -0.3047  0.0667  0.6064
  751TMC3    C311148   0.354   1.198  10.856  0.2450  0.7267 -0.6283
  751TMC3    C411149   0.507   1.365  10.701 -0.9846  0.0991  0.1242
  751TMC3    C511150   0.465   1.239  10.661 -0.2761  0.4994 -0.2866
  751TMC3    C611151   0.387   1.154  10.729  0.6032 -0.3930 -0.9677
  751TMC3     C11152   0.530   1.509  10.881  0.3284 -0.5318  0.3887
  751TMC3     O11153   0.515   1.518  11.004 -0.8713  0.5324 -0.4744
  751TMC3     H11154   0.363   1.360  11.007 -1.8434  0.9380 -0.0665
  751TMC3    H111155   0.575   1.429  10.646  2.5048 -2.0658  1.9603
  751TMC3    H211156   0.362   1.049  10.718 -0.9301 -0.0744 -0.4461
  751TMC3    C711157   0.531   1.182  10.545  0.6403 -0.0329  0.7455
  751TMC3    C811158   0.263   1.109  10.938 -0.3083 -0.1100 -0.5120
  751TMC3    O111159   0.626   1.245  10.492 -0.3540 -0.7764 -0.3541
  751TMC3    O211160   0.182   1.042  10.881 -0.1842  0.9299 -0.1068
  752TMC3    C111161   0.275   0.995  16.962 -0.7493  0.0276 -0.1500
  752TMC3    C211162   0.340   0.874  16.939 -0.0285 -0.8703 -0.5504
  752TMC3    C311163   0.350   0.797  17.055 -0.5204  0.2628 -0.2184
  752TMC3    C411164   0.228   1.037  17.083 -0.2383  0.0605  0.5859
  752TMC3    C511165   0.245   0.958  17.190 -0.4537  0.1846  0.1521
  752TMC3    C611166   0.308   0.834  17.182  0.5061 -0.1064 -0.8209
  752TMC3     C11167   0.273   1.079  16.844 -0.5171  0.4823 -0.1491
  752TMC3     O11168   0.289   1.018  16.739  0.2058 -0.5466 -0.1262
  752TMC3     H11169   0.364   0.833  16.842 -0.8222  0.4225 -1.2899
  752TMC3    H111170   0.170   1.127  17.100  1.4485  1.1216  0.7006
  752TMC3    H211171   0.318   0.769  17.268  1.6665  0.2744 -0.6570
  752TMC3    C711172   0.214   1.016  17.320 -0.4809  0.4990 -0.3157
  752TMC3    C811173   0.446   0.682  17.045 -0.4246  0.1366 -0.2653
  752TMC3    O111174   0.201   1.137  17.329  0.0176  0.6902  0.2449
  752TMC3    O211175   0.443   0.620  16.939 -0.0929 -0.3667  0.0360
  753TMC3    C111176   2.005   2.406  12.986 -0.0744  0.1472  0.5070
  753TMC3    C211177   2.112   2.420  13.068 -0.2450  0.6663  0.4640
  753TMC3    C311178   2.138   2.311  13.145  0.1671  0.8650  0.2575
  753TMC3    C411179   1.930   2.290  12.969 -0.2032  0.3330 -0.1962
  753TMC3    C511180   1.955   2.195  13.063 -0.4479  0.3432 -0.7699
  753TMC3    C611181   2.059   2.199  13.147  0.0413  0.4184  0.0083
  753TMC3     C11182   1.964   2.516  12.896 -0.8836  1.0111  0.3543
  753TMC3     O11183   1.871   2.498  12.817  0.0136  0.0871  0.2428
  753TMC3     H11184   2.181   2.503  13.075 -0.3086  0.6383  1.5112
  753TMC3    H111185   1.852   2.289  12.894  0.1342  3.3977 -0.6141
  753TMC3    H211186   2.071   2.134  13.233 -2.2670  1.1523  0.9103
  753TMC3    C711187   1.878   2.072  13.074 -0.2574  0.0249  0.0640
  753TMC3    C811188   2.218   2.324  13.266 -0.4576  0.5434  0.7579
  753TMC3    O111189   1.946   1.972  13.106  0.0314 -1.1594 -0.5922
  753TMC3    O211190   2.277   2.220  13.294  0.7629  0.2929 -0.3858
  754MPD2     C11191   0.611   1.445  12.645 -0.2993 -0.2893  0.0859
  754MPD2    C111192   0.660   1.344  12.726  0.3862  0.7833  0.3033
  754MPD2    C211193   0.576   1.287  12.823 -0.0038  0.3285 -0.3217
  754MPD2    C311194   0.445   1.327  12.835  0.0160  0.7239 -0.3569
  754MPD2    C411195   0.400   1.434  12.753 -0.1166  0.5845  0.2509
  754MPD2    C511196   0.483   1.490  12.661 -0.2029  0.2823 -0.3088
  754MPD2     H11197   0.606   1.210  12.894 -0.3716  1.0837  0.6563
  754MPD2    H111198   0.299   1.473  12.758 -0.3542 -0.0764  0.5085
  754MPD2    H211199   0.668   1.496  12.568  1.3026 -2.2174  0.0027
  754MPD2    H311200   0.438   1.573  12.609  0.2421 -0.7350 -2.3145
  754MPD2     N11201   0.349   1.272  12.921  0.5217  0.1340 -0.4493
  754MPD2    H511202   0.253   1.304  12.911  0.3610  0.4006  1.8814
  754MPD2    N111203   0.792   1.304  12.703  0.2378 -0.3162  0.1214
  754MPD2    H711204   0.833   1.349  12.622 -0.8458  1.5976  0.6455
  755MPD2     C11205   4.340   1.652  13.320  0.7886 -0.4232 -0.1409
  755MPD2    C111206   4.454   1.644  13.395 -0.5353  0.5625 -0.1690
  755MPD2    C211207   4.546   1.547  13.371  0.3812  0.1025  0.2361
  755MPD2    C311208   4.528   1.451  13.273  0.5416  0.0366  0.1058
  755MPD2    C411209   4.412   1.453  13.205  0.2507  0.2917  0.0325
  755MPD2    C511210   4.319   1.554  13.222 -0.0982 -0.5049  0.4717
  755MPD2     H11211   4.634   1.542  13.434 -0.9822  0.6514  2.2074
  755MPD2    H111212   4.379   1.373  13.140  1.3410 -0.5294  0.4846
  755MPD2    H211213   4.265   1.730  13.330  0.7340 -0.2844 -1.6478
  755MPD2    H311214   4.231   1.544  13.161  0.4200 -2.5363  0.0467
  755MPD2     N11215   4.616   1.350  13.247 -0.7059 -0.2200  0.2255
  755MPD2    H511216   4.583   1.273  13.190  0.1336  1.8503 -3.0789
  755MPD2    N111217   4.477   1.729  13.507 -0.6422  0.1832  0.6887
  755MPD2    H711218   4.562   1.710  13.560 -2.1248 -0.6174  2.7967
  756MPD2     C11219   1.007   1.982   9.616 -0.2709  0.0828  0.7197
  756MPD2    C111220   0.975   1.883   9.708 -0.9677 -0.1413  0.5562
  756MPD2    C211221   0.880   1.781   9.667  0.2899  0.4946  0.6226
  756MPD2    C311222   0.825   1.775   9.542  0.0525  0.3639  0.8628
  756MPD2    C411223   0.860   1.876   9.446 -0.5034 -0.1090  0.2789
  756MPD2    C511224   0.949   1.968   9.493  0.1322  0.8429  0.4872
  756MPD2     H11225   0.845   1.711   9.742  1.6843 -0.1147  0.7003
  756MPD2    H111226   0.828   1.899   9.345 -2.4084 -1.6249  0.5544
  756MPD2    H211227   1.072   2.066   9.634 -0.2651  0.0490  0.8518
  756MPD2    H311228   0.985   2.040   9.420 -0.4246 -0.7244 -1.3262
  756MPD2     N11229   0.742   1.659   9.521 -0.2445 -0.0966 -0.5568
  756MPD2    H511230   0.723   1.598   9.600  1.3029  0.2700  0.1021
  756MPD2    N111231   1.025   1.882   9.841  0.4760 -0.3815  0.1224
  756MPD2    H711232   0.977   1.819   9.904  1.3257 -1.7563 -0.6058
  757MPD2     C11233   0.255   0.972  10.019  0.5024  0.8668 -0.5123
  757MPD2    C111234   0.157   0.995   9.928 -0.3128 -0.0472  0.0185
  757MPD2    C211235   0.171   1.083   9.821  0.0894 -0.4497 -0.9369
  757MPD2    C311236   0.294   1.157   9.820 -0.3982  0.7130  0.0637
  757MPD2    C411237   0.396   1.135   9.912  0.0449 -0.7109  0.3845
  757MPD2    C511238   0.373   1.052  10.012  0.0841 -0.6085 -0.0501
  757MPD2     H11239   0.108   1.087   9.733 -1.8779  2.1407  0.5707
  757MPD2    H111240   0.483   1.198   9.925  1.6210 -2.1419 -3.0824
  757MPD2    H211241   0.242   0.910  10.107 -0.9288 -1.3523 -2.3052
  757MPD2    H311242   0.446   1.031  10.089  0.7498  0.9703 -0.2520
  757MPD2     N11243   0.315   1.249   9.714 -0.1332 -1.2093  0.2794
  757MPD2    H511244   0.240   1.262   9.648 -1.4045  2.1378  2.3909
  757MPD2    N111245   0.029   0.932   9.953 -0.2416 -0.1235 -0.4342
  757MPD2    H711246   0.027   0.859  10.023 -2.3377 -0.0999 -0.4860
  758MPD2     C11247   0.508   0.946  15.909  0.3882 -0.1351 -0.1870
  758MPD2    C111248   0.627   0.895  15.951  0.5891  0.1955 -0.2697
  758MPD2    C211249   0.642   0.853  16.084  0.2136 -0.0796 -0.2655
  758MPD2    C311250   0.553   0.892  16.183 -0.0854 -0.1061  0.4548
  758MPD2    C411251   0.442   0.961  16.135 -0.2560 -0.6978  0.7852
  758MPD2    C511252   0.421   0.983  16.006  0.6471 -0.2799  0.1448
  758MPD2     H11253   0.736   0.806  16.110  0.7577  2.2551  1.9786
  758MPD2    H111254   0.363   0.978  16.207 -1.9549  0.7072 -1.4225
  758MPD2    H211255   0.487   0.978  15.808 -1.5466 -0.0582  0.2452
  758MPD2    H311256   0.330   1.032  15.973  1.5803 -1.1919 -3.6950
  758MPD2     N11257   0.562   0.865  16.322  0.3422 -0.2566  0.2399
  758MPD2    H511258   0.486   0.903  16.378 -1.9772 -3.1546 -0.9328
  758MPD2    N111259   0.736   0.861  15.866 -0.3350 -0.2032 -0.0558
  758MPD2    H711260   0.817   0.819  15.910 -0.1909 -0.3841 -0.5003
  759MPD2     C11261   0.080   3.344   9.898  0.0274  0.4045 -0.2658
  759MPD2    C111262   4.685   3.396   9.926  0.4022 -0.1756  0.6264
  759MPD2    C211263   4.669   3.533   9.925  0.1376  0.2798 -0.2005
  759MPD2    C311264   0.036   3.612   9.888 -0.4988  0.3502 -0.0906
  759MPD2    C411265   0.165   3.568   9.855 -0.4559  0.0796  0.6239
  759MPD2    C511266   0.185   3.431   9.870 -0.7289 -0.3769 -0.1218
  759MPD2     H11267   4.570   3.571   9.949 -0.3762  0.4502 -2.6717
  759MPD2    H111268   0.253   3.630   9.847 -0.4462 -0.1940 -1.4024
  759MPD2    H211269   0.104   3.239   9.910 -0.3909  0.4330  0.8220
  759MPD2    H311270   0.286   3.398   9.854 -0.0421  1.9802 -0.7355
  759MPD2     N11271   0.016   3.748   9.878 -0.2344 -0.2696 -0.6774
  759MPD2    H511272   4.664   3.786   9.913  0.3615  0.2071  0.2923
  759MPD2    N111273   4.582   3.312   9.966  0.5630 -0.2481  0.0867
  759MPD2    H711274   4.495   3.356   9.996 -0.1248 -1.2456 -0.4487
  760MPD2     C11275   3.249   1.037  12.305 -0.2413 -0.9419 -0.4653
  760MPD2    C111276   3.293   1.149  12.241 -0.9026 -0.1571 -0.0947
  760MPD2    C211277   3.406   1.143  12.157  0.5170  0.2168 -0.6371
  760MPD2    C311278   3.490   1.035  12.162 -0.6345 -0.1764  0.3028
  760MPD2    C411279   3.442   0.918  12.219  0.9734  0.2937 -0.0033
  760MPD2    C511280   3.322   0.919  12.284  0.4591  1.1908 -0.8514
  760MPD2     H11281   3.445   1.238  12.123  0.4874  0.3453 -0.3063
  760MPD2    H111282   3.499   0.826  12.228  0.0105 -0.1813  1.3752
  760MPD2    H211283   3.164   1.037  12.372 -0.9690  0.7069 -1.3932
  760MPD2    H311284   3.280   0.829  12.327  1.5757  0.7266 -0.7139
  760MPD2     N11285   3.621   1.027  12.106 -0.6073  0.3761 -0.3060
  760MPD2    H511286   3.678   0.943  12.113 -0.3816  0.5112 -0.5203
  760MPD2    N111287   3.223   1.270  12.263 -0.2550 -0.0432  0.2699
  760MPD2    H711288   3.159   1.285  12.340  0.3102  0.6464  0.6095
  761MPD2     C11289   0.084   0.928  11.374 -0.2207  0.4440  0.2252
  761MPD2    C111290   0.086   0.868  11.255  0.0942 -0.2583  0.2272
  761MPD2    C211291   0.143   0.950  11.158  0.5160  0.7844  0.1418
  761MPD2    C311292   0.191   1.079  11.174 -0.0174  0.4260 -0.2449
  761MPD2    C411293   0.173   1.137  11.298  1.0760  0.3276 -0.3170
  761MPD2    C511294   0.115   1.060  11.393 -0.0580 -0.6119 -0.4084
  761MPD2     H11295   0.148   0.904  11.060 -0.4891 -0.1291  0.5256
  761MPD2    H111296   0.205   1.239  11.315  0.6730 -0.0060  2.3951
  761MPD2    H211297   0.044   0.876  11.460 -1.2719  2.4641  0.9332
  761MPD2    H311298   0.097   1.105  11.490 -0.4633  1.3983 -1.4167
  761MPD2     N11299   0.257   1.144  11.067 -0.1056 -0.0420  0.9154
  761MPD2    H511300   0.301   1.232  11.093  1.4803 -1.5083  3.2432
  761MPD2    N111301   0.058   0.734  11.229 -0.0346 -0.7166  0.3746
  761MPD2    H711302   0.063   0.667  11.306  0.9973 -0.8920  0.1524
  762MPD2     C11303   0.640   0.243  10.938  1.0896  0.0447 -0.0288
  762MPD2    C111304   0.547   0.321  10.878  0.4734 -0.7213  1.0113
  762MPD2    C211305   0.552   0.344  10.738 -0.1456 -0.1295  0.1103
  762MPD2    C311306   0.654   0.294  10.667  0.1459  0.2755  0.1353
  762MPD2    C411307   0.751   0.212  10.725 -0.0157 -0.3150 -0.1145
  762MPD2    C511308   0.740   0.192  10.860  0.7209 -0.0280  0.3024
  762MPD2     H11309   0.468   0.394  10.693 -0.0784 -0.1536 -0.0415
  762MPD2    H111310   0.832   0.157  10.680 -0.4889  0.5940 -2.0913
  762MPD2    H211311   0.650   0.226  11.045 -2.5858  2.0162  0.6270
  762MPD2    H311312   0.822   0.146  10.913 -1.1030 -1.4305  1.9252
  762MPD2     N11313   0.659   0.306  10.527 -0.2372 -0.0686 -0.2950
  762MPD2    H511314   0.731   0.250  10.482 -0.3088 -1.1045  0.8694
  762MPD2    N111315   0.446   0.365  10.966 -0.0719 -0.1012  0.1124
  762MPD2    H711316   0.464   0.344  11.064 -2.2076 -1.2506  0.2539
  763MPD2     C11317   2.622   1.107  16.025  0.9017 -0.4074  0.1926
  763MPD2    C111318   2.512   1.182  15.982  0.1178  0.7656 -0.0733
  763MPD2    C211319   2.500   1.311  16.038  0.0151 -0.1330 -0.5241
  763MPD2    C311320   2.590   1.359  16.135 -0.2180 -0.3654  0.0561
  763MPD2    C411321   2.681   1.270  16.182 -0.5535  0.5355  0.5771
  763MPD2    C511322   2.695   1.149  16.130  0.4263  0.0530 -0.0510
  763MPD2     H11323   2.420   1.375  16.004 -2.9088 -2.6472  1.6054
  763MPD2    H111324   2.759   1.300  16.251 -2.8751  1.7454  2.6783
  763MPD2    H211325   2.641   1.011  15.978 -1.4749 -0.3389 -0.8760
  763MPD2    H311326   2.785   1.092  16.149 -0.1667 -0.3051  1.7084
  763MPD2     N11327   2.592   1.489  16.189  0.0519 -0.2063 -0.7838
  763MPD2    H511328   2.668   1.516  16.250 -0.1100  0.8723 -1.0646
  763MPD2    N111329   2.412   1.136  15.903 -0.2009 -0.1060 -0.1560
  763MPD2    H711330   2.354   1.207  15.858  1.5673  2.2496  1.2963
  764MPD2     C11331   0.503   2.057   0.096 -0.6718 -0.0938 -0.5199
  764MPD2    C111332   0.375   2.047   0.153 -0.3308 -0.2072 -0.0822
  764MPD2    C211333   0.365   2.053   0.291 -0.0126  0.8154 -0.1465
  764MPD2    C311334   0.478   2.037   0.369 -0.4414 -0.6834  0.1773
  764MPD2    C411335   0.604   2.042   0.306 -0.1516  0.3417  0.4102
  764MPD2    C511336   0.616   2.055   0.172  0.2944 -0.0963 -0.6805
  764MPD2     H11337   0.261   2.048   0.321 -0.1084  1.7021 -0.3195
  764MPD2    H111338   0.698   2.053   0.358 -0.1416  2.3099 -0.0003
  764MPD2    H211339   0.515   2.085  17.734 -0.8152  0.4623 -0.3902
  764MPD2    H311340   0.713   2.066   0.124  1.6738  1.0020  2.3226
  764MPD2     N11341   0.464   2.001   0.503  0.5524  0.7392  0.7614
  764MPD2    H511342   0.372   1.979   0.540 -1.1457  1.3741 -2.9961
  764MPD2    N111343   0.261   2.037   0.073  0.0134 -0.0305  0.1418
  764MPD2    H711344   0.171   2.058   0.115  0.3447  0.1537  0.7512
  765MPD2     C11345   0.441   0.263  15.832  0.1912  0.6985 -0.2959
  765MPD2    C111346   0.513   0.317  15.726 -0.0143 -0.4070 -0.0166
  765MPD2    C211347   0.621   0.245  15.673 -0.2590 -0.5069 -0.0062
  765MPD2    C311348   0.653   0.121  15.727 -0.0089  0.8065 -0.7282
  765MPD2    C411349   0.573   0.062  15.830  0.8018  0.8635  0.3640
  765MPD2    C511350   0.472   0.140  15.884  0.5387 -0.0057 -0.0742
  765MPD2     H11351   0.685   0.296  15.603 -0.2270  1.0989  1.1654
  765MPD2    H111352   0.603   4.710  15.885 -1.9218 -0.8848 -0.9176
  765MPD2    H211353   0.374   0.325  15.889 -2.1219  0.6926 -2.9879
  765MPD2    H311354   0.430   0.107  15.978 -0.5393 -1.2270 -0.9845
  765MPD2     N11355   0.773   0.065  15.685 -0.4908  0.2396  0.3195
  765MPD2    H511356   0.828   0.118  15.618 -0.1062 -0.7118 -0.1277
  765MPD2    N111357   0.470   0.442  15.674  0.4106 -0.0336 -0.1717
  765MPD2    H711358   0.385   0.485  15.708  0.1128  0.4603 -1.5520
  766MPD2     C11359   0.145   0.406  15.015 -0.3046  0.0970  0.2734
  766MPD2    C111360   0.267   0.474  15.018  0.2633  0.8630  0.2433
  766MPD2    C211361   0.344   0.482  14.899 -0.0582 -0.0527 -0.3181
  766MPD2    C311362   0.300   0.418  14.785  0.3416 -0.5826  0.1333
  766MPD2    C411363   0.185   0.343  14.786 -0.7187 -0.0800  0.0849
  766MPD2    C511364   0.108   0.336  14.900  0.2997  0.0424  0.0854
  766MPD2     H11365   0.440   0.531  14.908 -0.6652  1.4700 -1.9028
  766MPD2    H111366   0.154   0.295  14.694 -0.4539 -0.4671  0.1975
  766MPD2    H211367   0.066   0.398  15.088  1.5080  0.5234  2.2904
  766MPD2    H311368   0.012   0.285  14.894  0.6071 -0.4274 -0.7175
  766MPD2     N11369   0.360   0.431  14.655  0.3490  0.4923 -0.4267
  766MPD2    H511370   0.321   0.378  14.577  1.4607 -0.8769 -0.0573
  766MPD2    N111371   0.308   0.550  15.133  0.3327 -0.4585  0.3766
  766MPD2    H711372   0.381   0.619  15.124  0.1614 -0.2849  0.3094
  767MPD2     C11373   4.650   0.593  14.714  0.3151 -0.1256  0.6149
  767MPD2    C111374   0.013   0.663  14.650 -0.3277  0.1093  0.8199
  767MPD2    C211375   0.025   0.644  14.509  0.6896 -0.2361  0.4051
  767MPD2    C311376   4.685   0.554  14.447 -0.9352 -0.0340 -0.2988
  767MPD2    C411377   4.580   0.488  14.504  0.0712 -0.5438  0.7594
  767MPD2    C511378   4.570   0.508  14.645 -0.4027  0.4580 -0.0233
  767MPD2     H11379   0.109   0.684  14.453  0.6065 -1.3667 -0.5257
  767MPD2    H111380   4.523   0.409  14.458 -0.4408 -0.1448  0.7145
  767MPD2    H211381   4.639   0.612  14.820 -0.4253 -0.2218  0.5501
  767MPD2    H311382   4.495   0.450  14.697  0.2316  0.1598  0.5545
  767MPD2     N11383   4.704   0.539  14.306 -0.3721  0.0916 -0.1264
  767MPD2    H511384   0.035   0.590  14.250 -1.5841  1.0908 -0.6598
  767MPD2    N111385   0.112   0.736  14.720 -0.3319 -0.2541  0.4256
  767MPD2    H711386   0.092   0.759  14.817 -0.4584 -0.1962  0.3864
  768MPD2     C11387   0.510   3.677  10.545 -0.0007  0.2152  0.2459
  768MPD2    C111388   0.506   3.645  10.680 -0.3090  0.1967 -0.0531
  768MPD2    C211389   0.618   3.643  10.762 -0.5997  0.7608 -0.0673
  768MPD2    C311390   0.740   3.686  10.711 -0.0601 -0.5017  0.8939
  768MPD2    C411391   0.743   3.723  10.576 -0.7262  0.4476  0.2753
  768MPD2    C511392   0.628   3.723  10.497 -0.9796  0.7727 -0.0710
  768MPD2     H11393   0.601   3.616  10.866 -0.4468  1.2967  0.0952
  768MPD2    H111394   0.837   3.754  10.533 -1.8420  0.3084 -2.3076
  768MPD2    H211395   0.421   3.670  10.484 -1.1079  1.8140  1.6591
  768MPD2    H311396   0.630   3.752  10.392  0.5617 -1.1832 -0.5793
  768MPD2     N11397   0.857   3.693  10.783 -0.2759 -0.6807 -0.1843
  768MPD2    H511398   0.941   3.717  10.732 -0.0651  0.5721  0.7333
  768MPD2    N111399   0.386   3.620  10.752  0.0337  0.0506  0.5570
  768MPD2    H711400   0.390   3.632  10.853 -1.1355 -0.7659  0.7043
  769MPD2     C11401   1.463   2.586  14.489 -0.1637  0.2453 -0.5982
  769MPD2    C111402   1.411   2.477  14.552 -0.4107  0.4041  0.5387
  769MPD2    C211403   1.416   2.472  14.692  0.8237  0.8040 -0.1429
  769MPD2    C311404   1.465   2.578  14.763  0.5471 -0.0319 -0.0273
  769MPD2    C411405   1.503   2.697  14.697 -0.5269 -0.1350  0.1501
  769MPD2    C511406   1.502   2.694  14.559 -0.1697 -0.4004 -0.4263
  769MPD2     H11407   1.389   2.383  14.747 -1.0679  1.2043 -0.4081
  769MPD2    H111408   1.514   2.790  14.751  0.1575  0.0858 -0.3767
  769MPD2    H211409   1.479   2.586  14.382 -0.6285 -2.8543 -0.6832
  769MPD2    H311410   1.534   2.782  14.504 -2.2535 -0.2398 -1.3769
  769MPD2     N11411   1.471   2.565  14.902 -0.0315 -0.0107 -0.2578
  769MPD2    H511412   1.532   2.632  14.948 -0.2655  0.7662 -1.0820
  769MPD2    N111413   1.363   2.371  14.477 -0.3605 -0.5526 -0.1058
  769MPD2    H711414   1.388   2.382  14.379  0.6255 -0.9500  0.0971
  770MPD2     C11415   1.031   1.402  14.635 -1.0264  0.1654  0.1448
  770MPD2    C111416   1.158   1.437  14.671 -0.1373 -0.2535 -0.7409
  770MPD2    C211417   1.211   1.554  14.615  0.6192 -0.4776  0.3833
  770MPD2    C311418   1.142   1.636  14.531  0.2426  0.3705  0.1295
  770MPD2    C411419   1.013   1.598  14.503 -0.1000  0.4855  0.6897
  770MPD2    C511420   0.961   1.482  14.555 -0.1913 -0.3233  0.1939
  770MPD2     H11421   1.314   1.579  14.638  0.5708  0.7681 -0.8341
  770MPD2    H111422   0.939   1.656  14.448  0.8738 -1.1696 -2.3660
  770MPD2    H211423   0.987   1.306  14.657 -3.2804  1.1406 -0.1513
  770MPD2    H311424   0.861   1.448  14.531  0.3067 -2.2410  0.8323
  770MPD2     N11425   1.201   1.745  14.466  0.3361 -0.2966  0.9394
  770MPD2    H511426   1.296   1.765  14.496  0.4715 -1.8595  1.5495
  770MPD2    N111427   1.236   1.354  14.754 -0.4451 -0.0649 -0.1612
  770MPD2    H711428   1.193   1.266  14.780 -0.9052  0.4020  0.6487
  771MPD2     C11429   2.570   4.487  13.129  0.2413  0.5965 -0.2186
  771MPD2    C111430   2.478   4.586  13.121  0.0279  0.2587  0.1455
  771MPD2    C211431   2.352   4.566  13.067 -0.5896  0.3604  0.7654
  771MPD2    C311432   2.314   4.443  13.014 -0.5419  0.2053 -1.6355
  771MPD2    C411433   2.408   4.337  13.025 -0.1078 -0.8304  0.5420
  771MPD2    C511434   2.533   4.365  13.080  0.3502 -0.0472  0.4355
  771MPD2     H11435   2.275   4.642  13.068  0.2293  1.1739  1.7352
  771MPD2    H111436   2.386   4.234  12.996 -3.4721 -0.0595  0.3610
  771MPD2    H211437   2.667   4.492  13.177 -0.8014  0.7622  1.8760
  771MPD2    H311438   2.614   4.293  13.080  0.4194  0.0280  0.1844
  771MPD2     N11439   2.187   4.426  12.961  0.0859  0.1903 -0.8165
  771MPD2    H511440   2.126   4.508  12.964  1.3953  1.0742  1.3365
  771MPD2    N111441   2.507   4.711  13.169 -0.8751 -0.1592  0.0170
  771MPD2    H711442   2.428   0.036  13.189 -1.0025 -0.5742  0.7646
  772MPD2     C11443   2.174   0.362  13.604  0.5064  0.4351  0.7150
  772MPD2    C111444   2.195   0.283  13.494 -0.4231 -0.4316  0.2517
  772MPD2    C211445   2.095   0.205  13.448  0.1177 -0.2346  0.4651
  772MPD2    C311446   1.965   0.203  13.506  0.0641  0.0138  0.4499
  772MPD2    C411447   1.948   0.282  13.616 -0.1189 -0.6431  0.5608
  772MPD2    C511448   2.048   0.362  13.659 -0.1393 -0.6873  0.1423
  772MPD2     H11449   2.116   0.142  13.363 -2.3304  1.3076 -1.2790
  772MPD2    H111450   1.853   0.297  13.666 -0.2472  0.0218  0.1171
  772MPD2    H211451   2.253   0.420  13.651 -0.7850  3.2269 -0.5719
  772MPD2    H311452   2.032   0.431  13.741 -0.3610 -0.0773 -0.4080
  772MPD2     N11453   1.858   0.124  13.457 -0.2455  0.0414  0.7379
  772MPD2    H511454   1.778   0.107  13.517  0.4695  0.8811  1.9403
  772MPD2    N111455   2.314   0.275  13.424 -0.2640  0.4895 -0.7391
  772MPD2    H711456   2.309   0.201  13.355 -1.7243  1.8144 -2.0393
  773MPD2     C11457   1.513   1.391  17.662 -0.1779 -0.4112 -0.3583
  773MPD2    C111458   1.451   1.269  17.659  0.1834  0.2231 -0.4214
  773MPD2    C211459   1.496   1.177   0.008 -0.1253 -0.1729  0.2672
  773MPD2    C311460   1.608   1.190   0.080  0.2836 -1.0322  0.7035
  773MPD2    C411461   1.677   1.312   0.076 -0.9886 -0.2855 -0.0279
  773MPD2    C511462   1.624   1.411  17.741 -0.0382 -0.2013 -0.1048
  773MPD2     H11463   1.439   1.085   0.012 -1.5857  0.7475  0.9000
  773MPD2    H111464   1.772   1.331   0.125  0.0072  0.3668 -2.1827
  773MPD2    H211465   1.479   1.470  17.595 -1.6347 -0.1297  0.7380
  773MPD2    H311466   1.679   1.504  17.739 -0.0256 -0.1263  3.6711
  773MPD2     N11467   1.648   1.075   0.153  0.1216 -0.0083  0.2890
  773MPD2    H511468   1.600   0.988   0.130  0.0296 -0.2586  1.4410
  773MPD2    N111469   1.328   1.237  17.592 -0.4383  0.3272 -0.6681
  773MPD2    H711470   1.319   1.139  17.566 -0.1852  0.2517 -0.4620
  774MPD2     C11471   0.466   0.500  13.287 -0.1979 -0.0695  0.0806
  774MPD2    C111472   0.580   0.520  13.353  0.5078  0.0979  0.3950
  774MPD2    C211473   0.661   0.627  13.305 -0.1724  0.1986 -0.3858
  774MPD2    C311474   0.637   0.690  13.189 -0.4241 -0.1404  0.2477
  774MPD2    C411475   0.540   0.639  13.114  0.5259  0.0332  0.3143
  774MPD2    C511476   0.460   0.541  13.157 -0.2200  0.0813  0.3112
  774MPD2     H11477   0.742   0.672  13.361 -0.0639  0.6689 -0.9240
  774MPD2    H111478   0.514   0.680  13.017 -2.1681 -1.4680  0.4060
  774MPD2    H211479   0.399   0.420  13.316 -1.3427  0.7866 -0.2159
  774MPD2    H311480   0.383   0.516  13.085  0.9826  1.2403 -1.3693
  774MPD2     N11481   0.721   0.799  13.152  0.4281 -0.3402  0.0911
  774MPD2    H511482   0.782   0.830  13.227 -0.2215  0.8393  0.1325
  774MPD2    N111483   0.601   0.453  13.476  0.5513  0.2714 -0.2166
  774MPD2    H711484   0.541   0.377  13.504  2.0418 -0.9701 -0.3768
  775MPD2     C11485   1.472   2.036  15.318  0.1251  0.3838 -0.7689
  775MPD2    C111486   1.558   2.067  15.416 -0.5312 -0.0758  1.0115
  775MPD2    C211487   1.682   2.128  15.381 -0.2586 -0.0531 -0.0107
  775MPD2    C311488   1.717   2.152  15.249  0.2420  0.4010 -0.6930
  775MPD2    C411489   1.625   2.113  15.154 -0.6526  0.1109 -0.0638
  775MPD2    C511490   1.502   2.059  15.189 -0.1954 -0.6229 -0.8341
  775MPD2     H11491   1.756   2.143  15.458  0.0191  1.6130 -0.6169
  775MPD2    H111492   1.642   2.127  15.048  0.7218  0.8939  0.2672
  775MPD2    H211493   1.381   1.980  15.337 -0.9523  2.1598 -0.7835
  775MPD2    H311494   1.432   2.025  15.114 -0.8304 -2.3768  0.5719
  775MPD2     N11495   1.846   2.190  15.194  0.0792 -0.0308  0.3469
  775MPD2    H511496   1.852   2.211  15.095  0.5079  0.7094  0.5245
  775MPD2    N111497   1.524   2.052  15.551  0.1178  0.6249  0.3846
  775MPD2    H711498   1.429   2.019  15.562  0.3424 -0.3808 -0.6769
  776MPD2     C11499   0.839   2.426  11.470  0.6912  0.6997  0.3983
  776MPD2    C111500   0.927   2.333  11.524  0.8327 -0.1768  1.1105
  776MPD2    C211501   1.047   2.373  11.573 -0.0130 -0.4333  0.2097
  776MPD2    C311502   1.083   2.509  11.556  0.2601  0.3297 -0.3970
  776MPD2    C411503   0.993   2.599  11.498 -0.7053  1.1654  0.6815
  776MPD2    C511504   0.874   2.555  11.459 -1.2717  0.5130 -0.1762
  776MPD2     H11505   1.120   2.298  11.601  0.2648 -0.7605 -1.3729
  776MPD2    H111506   1.014   2.705  11.495  1.6989  0.7117  1.4407
  776MPD2    H211507   0.741   2.400  11.431  0.5109 -0.5286  1.6976
  776MPD2    H311508   0.808   2.629  11.416 -0.5083  1.2159 -0.1390
  776MPD2     N11509   1.197   2.562  11.610  0.4661  0.1804  0.5608
  776MPD2    H511510   1.210   2.661  11.588 -1.9532  0.5606  0.8307
  776MPD2    N111511   0.896   2.197  11.507 -0.3253  0.2760 -0.1353
  776MPD2    H711512   0.815   2.185  11.447 -1.3964  0.9622  1.1556
  777MPD2     C11513   2.026   4.459   0.748 -0.6079  0.0657  0.5466
  777MPD2    C111514   2.016   4.347   0.827  0.0274  0.0053 -0.2561
  777MPD2    C211515   1.987   4.228   0.764  0.0680 -0.4852  0.0344
  777MPD2    C311516   1.981   4.216   0.626  0.1417  0.2531 -0.0032
  777MPD2    C411517   1.981   4.331   0.549  0.2662 -0.1201  0.1365
  777MPD2    C511518   1.999   4.455   0.611 -0.5989 -0.5593 -0.6727
  777MPD2     H11519   1.967   4.138   0.820  0.2819 -0.9549 -0.6345
  777MPD2    H111520   1.975   4.335   0.441 -1.2750 -2.1113  0.1438
  777MPD2    H211521   2.039   4.555   0.796 -1.4219 -0.2422  1.3884
  777MPD2    H311522   2.019   4.547   0.559  0.8562 -1.9586 -2.5765
  777MPD2     N11523   1.964   4.086   0.568  0.2244  0.2343  0.0759
  777MPD2    H511524   1.979   4.013   0.636 -0.2297 -0.8842 -1.0262
  777MPD2    N111525   2.020   4.367   0.963 -0.6214 -0.1623  0.1464
  777MPD2    H711526   2.050   4.460   0.991  1.6341 -0.8768  0.1014
  778MPD2     C11527   2.529   0.150  14.729  0.9175 -0.6912  0.0282
  778MPD2    C111528   2.543   0.026  14.673  0.2334 -0.6024 -0.3244
  778MPD2    C211529   2.651   4.723  14.601 -0.1215 -0.8687 -0.1986
  778MPD2    C311530   2.764   0.067  14.604  0.3987 -0.0265 -0.8186
  778MPD2    C411531   2.762   0.184  14.673 -0.7618  0.2374  0.6485
  778MPD2    C511532   2.643   0.226  14.729  0.4846  0.0743 -0.5531
  778MPD2     H11533   2.660   4.622  14.562 -0.3939 -0.3991 -1.4875
  778MPD2    H111534   2.850   0.248  14.674 -0.4213 -0.2101 -0.7616
  778MPD2    H211535   2.441   0.198  14.770  0.6019 -1.0773 -0.2019
  778MPD2    H311536   2.632   0.326  14.771 -0.7070 -0.7515  1.0929
  778MPD2     N11537   2.888   0.020  14.552  0.1673  0.7558 -0.4364
  778MPD2    H511538   2.887   4.678  14.487 -1.3884 -0.3961  0.9446
  778MPD2    N111539   2.444   4.669  14.691 -0.0871 -0.5377  0.3573
  778MPD2    H711540   2.469   4.584  14.640  0.1587 -0.9322  1.1292
  779MPD2     C11541   2.063   3.586  13.630  0.0796  0.3179  0.1019
  779MPD2    C111542   2.177   3.578  13.709 -0.5120  0.4313 -0.1165
  779MPD2    C211543   2.263   3.692  13.727  0.5290 -0.4228  0.3862
  779MPD2    C311544   2.243   3.806  13.648 -0.2544  0.2581 -0.5863
  779MPD2    C411545   2.124   3.811  13.578  0.0566 -0.0677 -0.3363
  779MPD2    C511546   2.039   3.705  13.560  0.0646 -0.5580  0.2220
  779MPD2     H11547   2.350   3.678  13.790  0.6157 -2.2987 -0.1435
  779MPD2    H111548   2.108   3.899  13.517 -0.2670 -1.2911 -2.0151
  779MPD2    H211549   1.995   3.506  13.604 -0.2884  0.8324 -0.5307
  779MPD2    H311550   1.959   3.711  13.487  0.4903  2.1688 -0.0156
  779MPD2     N11551   2.341   3.907  13.648  0.4172  0.5033  0.9468
  779MPD2    H511552   2.424   3.884  13.701  0.5912  0.3485  0.6055
  779MPD2    N111553   2.223   3.452  13.757 -0.0038  0.2707  0.6584
  779MPD2    H711554   2.308   3.461  13.811  1.7835  1.6143 -2.3560
  780MPD2     C11555   1.655   3.492   1.084  0.1047 -0.6033  0.5613
  780MPD2    C111556   1.669   3.379   1.014  0.0225 -0.8356  0.3660
  780MPD2    C211557   1.770   3.366   0.925  0.1269  0.1246  1.2033
  780MPD2    C311558   1.878   3.449   0.934  0.0924  0.3600 -0.8318
  780MPD2    C411559   1.876   3.558   1.016 -0.5181  0.1365  0.1162
  780MPD2    C511560   1.760   3.585   1.082  0.3066 -0.1663  0.2911
  780MPD2     H11561   1.774   3.288   0.850  0.0933  0.3193  0.9965
  780MPD2    H111562   1.954   3.633   1.020  0.9254 -1.4070  1.0637
  780MPD2    H211563   1.569   3.508   1.147 -0.3707 -1.5624  0.1552
  780MPD2    H311564   1.747   3.675   1.142  0.9176  0.2156 -0.1460
  780MPD2     N11565   1.994   3.404   0.862  0.5444 -0.1267  0.3323
  780MPD2    H511566   1.978   3.319   0.809  2.8522  1.4469 -2.8929
  780MPD2    N111567   1.580   3.276   1.004 -0.7973 -0.3925 -0.5710
  780MPD2    H711568   1.608   3.201   0.942  1.0735 -0.5581  0.4638
  781MPD2     C11569   3.898   4.345  11.921 -0.2545  0.4905  0.1611
  781MPD2    C111570   3.942   4.443  11.999  0.1236 -0.1235 -0.5986
  781MPD2    C211571   4.060   4.515  11.972  0.0556 -0.1470 -0.0385
  781MPD2    C311572   4.133   4.482  11.856 -0.1264  0.2598 -0.2447
  781MPD2    C411573   4.075   4.387  11.767 -0.0217 -0.6909 -0.2138
  781MPD2    C511574   3.960   4.320  11.803 -0.0498 -0.0162  0.0605
  781MPD2     H11575   4.095   4.593  12.040  0.8478  1.6570 -2.5118
  781MPD2    H111576   4.123   4.356  11.675 -0.0497 -0.8130 -0.1863
  781MPD2    H211577   3.808   4.285  11.929  0.6069 -0.4878  2.4452
  781MPD2    H311578   3.912   4.247  11.739 -1.1936 -0.5319  1.5212
  781MPD2     N11579   4.246   4.559  11.810  0.1755 -0.3139 -0.3426
  781MPD2    H511580   4.292   4.516  11.730  1.0129  0.7243 -0.4180
  781MPD2    N111581   3.869   4.484  12.116  0.2812 -0.8285  0.2567
  781MPD2    H711582   3.893   4.572  12.161 -0.0993 -1.3396  1.4438
  782MPD2     C11583   1.026   1.409   9.586  0.8865 -0.0467 -0.2085
  782MPD2    C111584   1.080   1.360   9.707  0.6119  1.1141 -0.3545
  782MPD2    C211585   1.177   1.429   9.772 -0.2103  0.3884 -0.5352
  782MPD2    C311586   1.226   1.546   9.715  0.0577  0.5541  0.1837
  782MPD2    C411587   1.175   1.590   9.593  0.0732 -0.0395 -0.4145
  782MPD2    C511588   1.072   1.519   9.529 -0.6858 -0.2781 -0.3087
  782MPD2     H11589   1.225   1.385   9.858  0.3876 -2.2329 -2.2282
  782MPD2    H111590   1.215   1.677   9.543 -1.5275  1.0096  0.1066
  782MPD2    H211591   0.948   1.356   9.533  0.5615  0.7759 -0.5532
  782MPD2    H311592   1.010   1.557   9.449 -0.4032  1.1608  0.1429
  782MPD2     N11593   1.336   1.608   9.778 -0.4600  0.1286  0.3658
  782MPD2    H511594   1.353   1.574   9.872  1.0468 -0.3852 -0.0947
  782MPD2    N111595   1.043   1.247   9.775 -0.2377  0.8529 -0.2196
  782MPD2    H711596   1.094   1.236   9.863  0.4862  1.5587 -0.5510
  783MPD2     C11597   0.421   0.867  10.400 -0.1764  0.9552  0.5691
  783MPD2    C111598   0.500   0.975  10.420 -0.3390  0.1136 -0.0042
  783MPD2    C211599   0.607   0.994  10.325  0.1339 -0.5918 -0.4927
  783MPD2    C311600   0.631   0.905  10.226  0.2270 -0.2302  1.1932
  783MPD2    C411601   0.537   0.800  10.211  0.4225 -0.7791  0.4054
  783MPD2    C511602   0.438   0.775  10.297 -0.0605  0.2097  0.3392
  783MPD2     H11603   0.673   1.080  10.332 -1.5407  0.5607  1.1166
  783MPD2    H111604   0.543   0.724  10.133 -1.7610 -1.5853  1.0119
  783MPD2    H211605   0.336   0.846  10.464  0.3111 -0.7082  0.6720
  783MPD2    H311606   0.372   0.689  10.288  1.1868 -0.7866  0.5710
  783MPD2     N11607   0.739   0.917  10.140 -0.5335  0.1505 -0.3572
  783MPD2    H511608   0.803   0.994  10.158  0.1266 -0.0412 -1.8832
  783MPD2    N111609   0.468   1.063  10.517 -0.0411  0.0374 -0.1399
  783MPD2    H711610   0.395   1.029  10.578  2.0119 -2.0479  1.1250
  784MPD2     C11611   4.252   1.659   0.614 -0.6519 -0.7443 -0.0403
  784MPD2    C111612   4.227   1.788   0.657 -0.9505 -0.2878 -0.5319
  784MPD2    C211613   4.133   1.864   0.583 -1.2556 -0.0519 -0.2222
  784MPD2    C311614   4.048   1.810   0.482 -0.2966  0.3497 -0.3344
  784MPD2    C411615   4.073   1.675   0.452  0.5813 -0.2135 -0.1282
  784MPD2    C511616   4.169   1.600   0.518  0.2941 -0.0075 -0.5991
  784MPD2     H11617   4.127   1.964   0.624 -2.4097  0.0293 -0.5921
  784MPD2    H111618   4.018   1.627   0.372  0.1365  2.5913 -1.4907
  784MPD2    H211619   4.331   1.597   0.654  1.6481  2.3521  0.2506
  784MPD2    H311620   4.185   1.499   0.482  0.1219 -0.1442 -0.2986
  784MPD2     N11621   3.950   1.887   0.418 -0.8056  0.2466  0.3426
  784MPD2    H511622   3.935   1.983   0.449 -0.0500  0.0275  1.3586
  784MPD2    N111623   4.298   1.847   0.766 -0.1926  0.6667 -0.4506
  784MPD2    H711624   4.270   1.941   0.791  1.7662  1.0046  0.4509
  785MPD2     C11625   3.136   4.011  10.413 -0.4761  0.6145  0.0423
  785MPD2    C111626   3.093   4.070  10.523  0.1213  0.7298 -0.8833
  785MPD2    C211627   2.964   4.122  10.526  1.1721  0.3615  0.4325
  785MPD2    C311628   2.888   4.118  10.405  0.9427  0.3919  0.6773
  785MPD2    C411629   2.940   4.047  10.295 -0.2267  0.0646  0.5270
  785MPD2    C511630   3.063   3.993  10.303  0.1251  0.4068  0.0605
  785MPD2     H11631   2.927   4.170  10.615  2.1197  1.2027  0.3771
  785MPD2    H111632   2.882   4.035  10.204  0.2433  3.0330 -0.1750
  785MPD2    H211633   3.236   3.971  10.418 -0.8570 -0.5482 -1.7653
  785MPD2    H311634   3.105   3.940  10.219  1.5076 -0.1903  1.1210
  785MPD2     N11635   2.761   4.179  10.401  0.0216  0.3103  0.4370
  785MPD2    H511636   2.742   4.233  10.484  2.5613  0.4058  0.9394
  785MPD2    N111637   3.185   4.078  10.632 -0.0817 -0.0760 -0.2345
  785MPD2    H711638   3.283   4.057  10.615  0.5679  1.1969  1.8933
  786MPD2     C11639   2.532   2.850  14.787  0.2456  0.1065  0.5345
  786MPD2    C111640   2.586   2.722  14.802  0.4889  0.4916 -0.1742
  786MPD2    C211641   2.656   2.689  14.916 -0.2550 -0.8620  0.6553
  786MPD2    C311642   2.693   2.792  15.003  0.1455 -0.0063 -0.1427
  786MPD2    C411643   2.658   2.920  14.975 -0.6462 -0.2461  0.1488
  786MPD2    C511644   2.571   2.949  14.875 -0.3973 -0.1883 -0.0702
  786MPD2     H11645   2.687   2.586  14.930 -0.0938 -0.7097  1.3984
  786MPD2    H111646   2.700   3.008  15.022 -1.2586 -0.6451  1.4507
  786MPD2    H211647   2.475   2.885  14.702 -0.1528 -0.7216  0.4621
  786MPD2    H311648   2.539   3.049  14.849  0.3144 -0.3046 -1.4185
  786MPD2     N11649   2.781   2.783  15.111 -0.5791 -0.0597  0.0712
  786MPD2    H511650   2.809   2.869  15.157  1.3895  0.0843 -1.4076
  786MPD2    N111651   2.570   2.619  14.711  0.0037 -0.1872  0.0495
  786MPD2    H711652   2.584   2.525  14.747  1.7427 -0.9931 -2.7890
  787MPD2     C11653   2.462   2.032  14.929  0.0486 -0.0668 -0.0726
  787MPD2    C111654   2.517   2.042  14.805 -0.5187  0.2900  0.4268
  787MPD2    C211655   2.614   1.942  14.770  0.0621 -1.2469  0.0675
  787MPD2    C311656   2.655   1.833  14.852 -0.3772 -0.7434  0.0752
  787MPD2    C411657   2.581   1.821  14.972  0.0634 -0.6948  0.3614
  787MPD2    C511658   2.492   1.919  15.012  0.0944 -0.4174 -0.1368
  787MPD2     H11659   2.667   1.950  14.676 -0.8850  3.2708 -0.1055
  787MPD2    H111660   2.603   1.738  15.038  0.3568 -1.4586 -0.7051
  787MPD2    H211661   2.385   2.105  14.953  0.6787  0.8250 -0.7406
  787MPD2    H311662   2.443   1.914  15.108  0.8175  2.8812  0.4112
  787MPD2     N11663   2.752   1.749  14.809 -0.8989  0.4062 -0.7475
  787MPD2    H511664   2.808   1.789  14.734 -0.0053  1.6847  0.6029
  787MPD2    N111665   2.468   2.140  14.723  0.7340  0.3454  0.8099
  787MPD2    H711666   2.398   2.204  14.759  0.9246  0.3206  1.2184
  788MPD2     C11667   0.839   0.931   1.185 -0.3549  0.7512  0.2051
  788MPD2    C111668   0.708   0.975   1.173  0.2102  0.1229 -0.3054
  788MPD2    C211669   0.680   1.094   1.106 -0.4308  0.0803  0.4092
  788MPD2    C311670   0.791   1.176   1.072 -0.0818 -0.0344 -0.0689
  788MPD2    C411671   0.918   1.136   1.104 -0.3810  0.5114 -0.7820
  788MPD2    C511672   0.948   1.016   1.154  0.6897  0.3076 -0.7042
  788MPD2     H11673   0.581   1.126   1.076 -0.5636 -0.7085 -0.0004
  788MPD2    H111674   1.001   1.203   1.088  0.0539  0.1061 -0.2332
  788MPD2    H211675   0.866   0.840   1.236 -1.1340  0.3417 -0.1018
  788MPD2    H311676   1.050   0.985   1.173  1.6762  2.0781 -3.1103
  788MPD2     N11677   0.783   1.285   0.984  0.2220  0.0375  0.3224
  788MPD2    H511678   0.873   1.319   0.949  0.5181 -1.0878 -0.0029
  788MPD2    N111679   0.598   0.896   1.215 -0.6773 -0.3317  0.0673
  788MPD2    H711680   0.506   0.926   1.186 -0.1940 -0.2443 -1.3681
  789MPD2     C11681   0.096   1.044  15.884  0.6192  0.3809  0.0532
  789MPD2    C111682   0.059   0.959  15.988 -0.3285  0.5963 -0.3252
  789MPD2    C211683   0.034   1.001  16.116  0.0394 -0.6925  0.3499
  789MPD2    C311684   0.050   1.137  16.141 -0.0872 -0.1326  0.1173
  789MPD2    C411685   0.089   1.221  16.040  0.1673  0.1370  0.6414
  789MPD2    C511686   0.116   1.171  15.913 -0.0808  0.2358  0.7439
  789MPD2     H11687   0.018   0.926  16.193  0.6252  0.9378  2.0774
  789MPD2    H111688   0.106   1.327  16.055 -0.9401  0.5195 -0.7790
  789MPD2    H211689   0.121   1.003  15.787 -0.0923  1.9834 -0.8046
  789MPD2    H311690   0.134   1.239  15.831 -1.2383 -0.1606  0.1563
  789MPD2     N11691   0.023   1.191  16.272 -0.4909 -0.4492  0.4061
  789MPD2    H511692   0.006   1.291  16.276  0.0644 -0.3988  1.6758
  789MPD2    N111693   0.037   0.820  15.976 -0.1448  0.2597 -0.3309
  789MPD2    H711694   4.721   0.790  16.058  0.2991 -0.4668 -0.3159
  790MPD2     C11695   1.182   2.843  13.037 -0.3393  0.8955  0.5603
  790MPD2    C111696   1.267   2.744  13.039 -0.3906 -0.2010  0.7773
  790MPD2    C211697   1.267   2.651  12.937  0.2653  0.0953  0.2739
  790MPD2    C311698   1.175   2.667  12.831  0.5083 -0.1402 -0.4655
  790MPD2    C411699   1.095   2.779  12.830 -0.2829  0.4183 -0.7268
  790MPD2    C511700   1.093   2.860  12.936  0.4188  0.7120  0.7189
  790MPD2     H11701   1.343   2.573  12.931  1.2349  1.1224 -0.9583
  790MPD2    H111702   1.014   2.793  12.760 -0.8350 -0.8697 -0.3390
  790MPD2    H211703   1.194   2.917  13.116 -1.0075  1.9512 -0.3325
  790MPD2    H311704   1.022   2.942  12.933  1.3365  1.4867 -0.0367
  790MPD2     N11705   1.187   2.567  12.733 -0.7262  0.9425  0.6630
  790MPD2    H511706   1.258   2.495  12.743 -0.4838  0.7451 -2.4302
  790MPD2    N111707   1.355   2.742  13.147  0.0252  0.0613  0.0239
  790MPD2    H711708   1.355   2.820  13.212 -1.5384 -0.1864  0.3161
  791MPD2     C11709   0.654   2.459  12.162  0.5483  0.3293 -0.0622
  791MPD2    C111710   0.705   2.345  12.221  0.5417 -0.0096 -0.6864
  791MPD2    C211711   0.633   2.233  12.203 -0.3495 -0.1609 -0.4959
  791MPD2    C311712   0.532   2.227  12.116 -0.0670  0.2653  0.2497
  791MPD2    C411713   0.503   2.339  12.038  0.1712  0.3430  0.3840
  791MPD2    C511714   0.558   2.457  12.071 -0.1091  0.2694 -0.3138
  791MPD2     H11715   0.657   2.145  12.261 -1.0296  0.5087  0.8106
  791MPD2    H111716   0.434   2.326  11.956  2.2838 -2.1494 -1.0067
  791MPD2    H211717   0.702   2.554  12.183  1.4682  0.6070 -3.3748
  791MPD2    H311718   0.527   2.548  12.022  0.1866 -0.5599 -2.0559
  791MPD2     N11719   0.476   2.099  12.096 -0.0386 -0.0746 -0.0643
  791MPD2    H511720   0.498   2.041  12.176 -0.4387  1.4325  1.1215
  791MPD2    N111721   0.827   2.358  12.291  0.0615  0.2213  0.2616
  791MPD2    H711722   0.849   2.455  12.311  0.9123  0.2348 -0.8060
  792MPD2     C11723   1.456   2.507  11.036 -0.3334 -0.6022 -0.1567
  792MPD2    C111724   1.383   2.473  10.924 -0.4329  0.0799  0.2095
  792MPD2    C211725   1.242   2.467  10.934 -0.0936  0.0065  0.3610
  792MPD2    C311726   1.176   2.480  11.055 -0.6727  0.7228 -0.2576
  792MPD2    C411727   1.256   2.503  11.158  0.0710 -0.0769  0.2577
  792MPD2    C511728   1.389   2.526  11.158  0.6993 -0.8453  0.2104
  792MPD2     H11729   1.182   2.463  10.844 -0.6161 -1.4073  0.7719
  792MPD2    H111730   1.209   2.527  11.253 -0.1722 -1.5570  0.5101
  792MPD2    H211731   1.564   2.511  11.040 -0.2092 -0.3585 -3.8671
  792MPD2    H311732   1.440   2.541  11.252  1.5357  0.0481 -0.3944
  792MPD2     N11733   1.035   2.476  11.074  0.1744  0.6089 -0.0544
  792MPD2    H511734   0.989   2.492  11.163 -2.4167  2.2958 -1.7024
  792MPD2    N111735   1.455   2.459  10.800  0.0559 -0.6187  0.2344
  792MPD2    H711736   1.553   2.484  10.800 -0.4328  1.3116 -2.2345
  793MPD2     C11737   0.638   2.006  10.453 -0.2450  0.2506  0.1825
  793MPD2    C111738   0.747   2.088  10.469  0.4496 -0.1018 -0.0334
  793MPD2    C211739   0.745   2.190  10.562 -0.6666 -0.1096  0.0779
  793MPD2    C311740   0.631   2.207  10.642  0.3024  0.5346  0.4157
  793MPD2    C411741   0.522   2.120  10.621  0.2885 -0.7622  0.2905
  793MPD2    C511742   0.526   2.030  10.523  0.7036 -0.2161 -0.0312
  793MPD2     H11743   0.834   2.252  10.569  0.7557 -1.9330 -1.9660
  793MPD2    H111744   0.431   2.115  10.680 -0.3463  1.0204 -0.5503
  793MPD2    H211745   0.640   1.922  10.385 -0.5695 -0.5498  1.1614
  793MPD2    H311746   0.436   1.969  10.512 -0.2721  0.9784  1.3080
  793MPD2     N11747   0.637   2.296  10.751 -0.5810 -0.6815 -0.2839
  793MPD2    H511748   0.717   2.358  10.760 -1.2416  0.4250 -2.0350
  793MPD2    N111749   0.868   2.063  10.398  0.6083 -0.0143 -0.0990
  793MPD2    H711750   0.952   2.105  10.438  2.6401 -3.9671 -0.2478
  794MPD2     C11751   1.008   1.108  16.791 -0.0397  0.1149  0.7014
  794MPD2    C111752   0.966   1.198  16.883  0.8055 -0.8900  0.2216
  794MPD2    C211753   0.900   1.308  16.841 -0.4629 -0.2696  0.9304
  794MPD2    C311754   0.852   1.325  16.713 -0.3918 -0.3891  0.6078
  794MPD2    C411755   0.880   1.225  16.625 -0.5935 -0.0818 -0.6215
  794MPD2    C511756   0.963   1.121  16.657 -0.1680  0.7998 -0.5429
  794MPD2     H11757   0.865   1.377  16.916 -1.3335  0.7703 -0.4521
  794MPD2    H111758   0.845   1.224  16.523 -3.7302 -1.2342  0.4671
  794MPD2    H211759   1.059   1.018  16.822  3.2941  1.4071 -1.0292
  794MPD2    H311760   0.988   1.044  16.586 -1.7038  0.0953 -0.3181
  794MPD2     N11761   0.762   1.427  16.663  0.0040  0.1575 -0.0464
  794MPD2    H511762   0.738   1.415  16.565  0.7795 -1.7968  0.0024
  794MPD2    N111763   1.000   1.183  17.015 -0.7309 -0.0801  0.1767
  794MPD2    H711764   1.010   1.088  17.048 -2.9692  0.5822  2.7086
  795MPD2     C11765   3.538   3.950  13.730  0.0516  0.0339  0.7099
  795MPD2    C111766   3.532   3.871  13.619  0.1790 -0.5535 -0.6240
  795MPD2    C211767   3.629   3.775  13.606 -0.6036 -0.1734 -0.5210
  795MPD2    C311768   3.746   3.778  13.680  0.3223  0.1021  0.1872
  795MPD2    C411769   3.763   3.869  13.777  0.6123 -0.2908 -0.4946
  795MPD2    C511770   3.654   3.952  13.806  0.6387 -0.2895 -0.6143
  795MPD2     H11771   3.618   3.703  13.525 -1.9837 -0.1521 -0.3470
  795MPD2    H111772   3.843   3.855  13.848 -0.4549  0.7259  0.9166
  795MPD2    H211773   3.463   4.026  13.747 -0.5385  0.2070 -2.5328
  795MPD2    H311774   3.668   4.024  13.885 -1.3797 -1.0020  0.4080
  795MPD2     N11775   3.843   3.681  13.652 -0.5849  0.3466  0.7075
  795MPD2    H511776   3.817   3.604  13.592 -1.1650  0.8969  0.2433
  795MPD2    N111777   3.425   3.864  13.520 -0.0157 -0.4101  0.0543
  795MPD2    H711778   3.429   3.793  13.448  0.3294  0.3617 -0.6795
  796MPD2     C11779   2.659   0.326  15.865  0.2208 -0.3900 -0.1499
  796MPD2    C111780   2.767   0.397  15.916 -0.4351  0.4521  0.0268
  796MPD2    C211781   2.793   0.526  15.871  0.3943 -0.0802 -0.1383
  796MPD2    C311782   2.708   0.590  15.780 -0.1305  0.4737  0.3292
  796MPD2    C411783   2.599   0.518  15.730 -0.1727 -0.0957  0.2291
  796MPD2    C511784   2.579   0.386  15.764 -0.3882 -0.2244  0.0171
  796MPD2     H11785   2.875   0.584  15.913  0.5168 -0.4199  0.0926
  796MPD2    H111786   2.518   0.570  15.680 -0.0532 -2.5704 -2.5351
  796MPD2    H211787   2.623   0.230  15.901 -0.6824 -0.0835 -0.2348
  796MPD2    H311788   2.488   0.341  15.726 -1.9147  2.8244  0.0941
  796MPD2     N11789   2.734   0.726  15.752  0.4459 -0.1480  0.6739
  796MPD2    H511790   2.808   0.778  15.798  0.4171  2.2241 -1.9471
  796MPD2    N111791   2.854   0.336  16.007  0.4019 -0.2341 -0.4541
  796MPD2    H711792   2.817   0.254  16.055  1.6173  1.4161  3.2697
  797MPD2     C11793   4.289   0.311  16.792 -0.0019 -0.2014 -0.1285
  797MPD2    C111794   4.278   0.446  16.822 -0.6901 -0.3486  0.4135
  797MPD2    C211795   4.266   0.536  16.717 -0.6472  0.1371 -0.5754
  797MPD2    C311796   4.239   0.496  16.586  0.1969  0.5002  0.2778
  797MPD2    C411797   4.241   0.358  16.565  0.1301  0.1519 -0.0356
  797MPD2    C511798   4.269   0.267  16.660  0.2826  0.0328  0.6883
  797MPD2     H11799   4.258   0.642  16.734  0.5728  0.0057  0.8082
  797MPD2    H111800   4.192   0.320  16.475  2.2261  1.7704 -1.8584
  797MPD2    H211801   4.306   0.239  16.871 -0.7952 -2.5220 -2.0739
  797MPD2    H311802   4.258   0.163  16.632  2.3794  1.1270 -4.1234
  797MPD2     N11803   4.205   0.593  16.488  0.1197  0.1143  0.0526
  797MPD2    H511804   4.220   0.688  16.520 -0.8605  0.9663 -2.0215
  797MPD2    N111805   4.307   0.498  16.950  0.2302 -0.9690 -0.5810
  797MPD2    H711806   4.311   0.599  16.961 -1.2398 -0.8872 -0.8210
  798MPD2     C11807   4.022   1.140  16.787 -0.2219 -0.3707 -0.2076
  798MPD2    C111808   4.112   1.050  16.731 -0.1849  0.2554  0.5141
  798MPD2    C211809   4.197   0.977  16.816  0.4717  0.2199 -0.2114
  798MPD2    C311810   4.187   0.986  16.950 -0.0705 -0.7717 -0.1491
  798MPD2    C411811   4.105   1.086  17.005  0.2453 -0.0624 -0.1455
  798MPD2    C511812   4.033   1.156  16.922 -0.5179  0.3398 -0.1531
  798MPD2     H11813   4.268   0.903  16.783  0.8499  1.5059 -2.2248
  798MPD2    H111814   4.114   1.116  17.108  1.0770 -1.4524  0.1826
  798MPD2    H211815   3.950   1.200  16.732 -1.3515 -1.0311  0.5534
  798MPD2    H311816   3.979   1.239  16.968 -0.3063  0.4912 -0.1762
  798MPD2     N11817   4.264   0.898  17.028 -0.2989  0.0947 -0.6575
  798MPD2    H511818   4.325   0.831  16.982 -1.3100 -0.3515 -1.3619
  798MPD2    N111819   4.101   1.027  16.590 -0.1014  0.0312 -0.7315
  798MPD2    H711820   4.029   1.079  16.542  0.9467 -1.1158 -3.5313
  799MPD2     C11821   2.340   1.207  14.861  0.0276 -0.2551 -0.6637
  799MPD2    C111822   2.462   1.220  14.816 -0.4129  1.1173  1.0180
  799MPD2    C211823   2.491   1.320  14.721  0.3080 -0.4082  0.1411
  799MPD2    C311824   2.391   1.394  14.657  0.9863 -0.4359  0.2073
  799MPD2    C411825   2.263   1.368  14.694  0.2465 -0.6376  0.3029
  799MPD2    C511826   2.239   1.282  14.799 -0.1532 -0.0191  0.2050
  799MPD2     H11827   2.597   1.328  14.699  0.1475  1.5743  0.0967
  799MPD2    H111828   2.178   1.422  14.653  1.4433  0.9837 -0.0727
  799MPD2    H211829   2.326   1.141  14.946 -0.5551 -0.6729 -1.0763
  799MPD2    H311830   2.137   1.272  14.836  0.1497 -3.6850 -0.0216
  799MPD2     N11831   2.410   1.506  14.569 -0.0875 -0.4434  0.1997
  799MPD2    H511832   2.331   1.559  14.535  0.2713 -0.0506 -0.0263
  799MPD2    N111833   2.574   1.152  14.873 -0.0855  0.5709 -0.2628
  799MPD2    H711834   2.666   1.194  14.877 -0.2265  0.7713  1.1073
  800MPD2     C11835   3.410   2.709  14.118 -0.6994  0.2209  0.4260
  800MPD2    C111836   3.442   2.771  13.995 -1.0501  0.4089 -0.3715
  800MPD2    C211837   3.371   2.734  13.882  0.2842 -0.6147  0.1981
  800MPD2    C311838   3.285   2.615  13.889  0.0438  1.0623  0.2655
  800MPD2    C411839   3.255   2.562  14.009  0.1123 -0.1275 -0.3442
  800MPD2    C511840   3.318   2.606  14.122 -0.2832 -0.0605 -0.1599
  800MPD2     H11841   3.372   2.783  13.786  0.4505  3.3115  2.2382
  800MPD2    H111842   3.196   2.471  14.013  0.1459  0.0354  3.8390
  800MPD2    H211843   3.455   2.727  14.215  0.0688  0.2962  0.0511
  800MPD2    H311844   3.305   2.550  14.213  3.0560 -1.8105 -0.7488
  800MPD2     N11845   3.225   2.561  13.774 -0.5796  0.0330  0.4164
  800MPD2    H511846   3.143   2.510  13.804 -0.0886 -1.3686 -0.6005
  800MPD2    N111847   3.542   2.873  13.998  0.0029 -0.0512  0.9656
  800MPD2    H711848   3.588   2.888  14.086  2.5530 -2.6636  0.0882
  801MPD2     C11849   3.544   3.649  13.974 -0.0453 -0.2596 -0.6355
  801MPD2    C111850   3.596   3.563  14.069  0.4193 -0.1217  0.7623
  801MPD2    C211851   3.550   3.577  14.199 -0.4375 -0.7273 -0.3175
  801MPD2    C311852   3.434   3.644  14.226 -0.1334 -0.4060  0.5307
  801MPD2    C411853   3.375   3.707  14.117  0.6143 -0.1672 -0.5321
  801MPD2    C511854   3.433   3.724  13.997  0.0907  0.0055  0.1888
  801MPD2     H11855   3.578   3.514  14.282  1.1046  0.4787  0.0690
  801MPD2    H111856   3.280   3.758  14.127 -0.1674 -1.3649 -2.0602
  801MPD2    H211857   3.581   3.654  13.872 -0.1560  0.6870 -0.6237
  801MPD2    H311858   3.378   3.787  13.928 -1.1960 -0.6989  0.5710
  801MPD2     N11859   3.370   3.646  14.354 -0.6741 -0.4387 -0.0523
  801MPD2    H511860   3.282   3.696  14.352  0.9048  2.4722  3.7951
  801MPD2    N111861   3.690   3.465  14.028  1.0375  0.1266 -0.1899
  801MPD2    H711862   3.720   3.404  14.104 -1.6703 -0.4677  0.4185
  802MPD2     C11863   2.306   3.845  17.096 -0.8667  1.0043 -0.7015
  802MPD2    C111864   2.390   3.805  17.196 -0.7611  0.0950 -0.3405
  802MPD2    C211865   2.466   3.694  17.170 -0.0398  1.0402  0.6617
  802MPD2    C311866   2.471   3.631  17.044 -0.4541 -1.0914  0.3928
  802MPD2    C411867   2.383   3.676  16.942  0.0002 -0.9911  0.5470
  802MPD2    C511868   2.305   3.785  16.974 -0.0573 -0.3806 -0.1709
  802MPD2     H11869   2.526   3.648  17.247  0.3198  2.1666  1.0606
  802MPD2    H111870   2.383   3.633  16.843 -1.0652  1.2708 -0.4503
  802MPD2    H211871   2.245   3.934  17.099 -0.9735  0.9318 -0.7123
  802MPD2    H311872   2.235   3.829  16.904 -2.1765  0.3668  2.4201
  802MPD2     N11873   2.577   3.535  17.014  0.4770 -0.3234 -0.6111
  802MPD2    H511874   2.644   3.523  17.089  0.6622  2.5631 -0.3139
  802MPD2    N111875   2.407   3.870  17.322 -0.1543  0.8622 -0.2907
  802MPD2    H711876   2.467   3.820  17.387  1.0598  0.9565 -1.3368
  803MPD2     C11877   3.902   2.333  11.598  0.3475 -0.1997  0.4408
  803MPD2    C111878   3.983   2.371  11.704 -0.5378 -0.4163 -0.0568
  803MPD2    C211879   3.977   2.291  11.817  0.0803  0.3411 -0.1883
  803MPD2    C311880   3.893   2.179  11.829 -0.0456  0.1915  0.1105
  803MPD2    C411881   3.813   2.151  11.726  0.1544  0.9384 -0.8792
  803MPD2    C511882   3.824   2.230  11.610  0.3703 -0.1267  0.3364
  803MPD2     H11883   4.049   2.321  11.892  1.4039 -1.7026 -0.6382
  803MPD2    H111884   3.735   2.075  11.726  1.6592 -0.6170 -1.2555
  803MPD2    H211885   3.902   2.385  11.503  1.3835  1.8639  1.5642
  803MPD2    H311886   3.763   2.196  11.528 -0.1036  2.0269 -0.1939
  803MPD2     N11887   3.888   2.093  11.942 -0.0089  0.4975 -0.6959
  803MPD2    H511888   3.815   2.023  11.944 -0.4701  0.9652 -1.1610
  803MPD2    N111889   4.084   2.468  11.708 -0.1796 -0.1996 -0.2627
  803MPD2    H711890   4.139   2.475  11.793 -0.1316 -0.5003 -0.2705
  804MPD2     C11891   3.440   3.638  16.855  0.1334  0.5422  0.0183
  804MPD2    C111892   3.439   3.624  16.993 -0.2129 -0.1792 -0.5022
  804MPD2    C211893   3.478   3.732  17.061 -0.1235  0.1782  0.7140
  804MPD2    C311894   3.526   3.850  16.994 -0.4899 -0.5815  0.2744
  804MPD2    C411895   3.544   3.851  16.857  0.2320 -0.0387 -0.3911
  804MPD2    C511896   3.482   3.750  16.791  0.5847  0.3189  0.2208
  804MPD2     H11897   3.481   3.718  17.169  2.0700  0.7662  0.7275
  804MPD2    H111898   3.592   3.925  16.795 -3.0414  1.9930 -0.5276
  804MPD2    H211899   3.396   3.562  16.791 -2.1866  1.7263  0.2396
  804MPD2    H311900   3.481   3.749  16.682 -1.1359  0.3439  0.2335
  804MPD2     N11901   3.577   3.955  17.079  0.2719  0.4665  0.4811
  804MPD2    H511902   3.567   3.951  17.180  1.4830  1.1455  0.6392
  804MPD2    N111903   3.410   3.501  17.067 -0.1730 -0.9729  0.0295
  804MPD2    H711904   3.407   3.501  17.169 -2.3188  0.1418 -0.0433
  805MPD2     C11905   2.787   1.509  15.252  0.3812  0.3052 -0.1087
  805MPD2    C111906   2.709   1.610  15.300  0.1799 -0.0372  0.2424
  805MPD2    C211907   2.766   1.718  15.366  0.0010 -0.8554 -0.2817
  805MPD2    C311908   2.902   1.714  15.403 -0.0407 -0.2554 -0.0508
  805MPD2    C411909   2.986   1.621  15.352  0.3598 -0.2362 -0.5710
  805MPD2    C511910   2.923   1.524  15.272  0.2811 -0.3547  0.5739
  805MPD2     H11911   2.695   1.783  15.415 -0.3569 -2.2975  1.1199
  805MPD2    H111912   3.094   1.611  15.355  0.2728 -0.3401  2.4036
  805MPD2    H211913   2.746   1.434  15.185 -0.8955  0.4067  0.5652
  805MPD2    H311914   2.984   1.444  15.232  0.3805 -0.4278  0.8648
  805MPD2     N11915   2.951   1.805  15.504 -0.0020  0.3313  0.1556
  805MPD2    H511916   2.882   1.869  15.541 -1.0773 -0.3352 -0.6947
  805MPD2    N111917   2.571   1.590  15.275 -0.5135 -0.5206 -0.2419
  805MPD2    H711918   2.539   1.505  15.229  0.6145 -0.8717 -0.3880
  806MPD2     C11919   3.370   1.497   0.688 -0.0164  0.0488 -0.2617
  806MPD2    C111920   3.468   1.588   0.652  0.1601  0.0027  0.1286
  806MPD2    C211921   3.521   1.575   0.526  0.0910 -0.0557 -0.4066
  806MPD2    C311922   3.476   1.480   0.439 -0.5371  0.9532 -0.3587
  806MPD2    C411923   3.378   1.395   0.475  0.5201  0.1208  0.8657
  806MPD2    C511924   3.331   1.396   0.602 -0.3604 -0.5267 -0.5490
  806MPD2     H11925   3.602   1.641   0.496 -0.3825 -0.9340 -3.6105
  806MPD2    H111926   3.328   1.335   0.400 -1.8869 -0.2922  2.8353
  806MPD2    H211927   3.316   1.518   0.779  0.4934 -1.6878  0.4494
  806MPD2    H311928   3.245   1.334   0.624  0.0165 -0.0037  2.3097
  806MPD2     N11929   3.532   1.474   0.311  0.5685 -0.2286  0.2222
  806MPD2    H511930   3.590   1.550   0.277  1.6274  0.2072  3.0143
  806MPD2    N111931   3.511   1.682   0.753 -0.3912 -0.7714 -0.1489
  806MPD2    H711932   3.477   1.670   0.848 -1.0819  0.5509 -0.2195
  807MPD2     C11933   3.350   2.149   1.379 -0.4921  0.1096 -0.2179
  807MPD2    C111934   3.305   2.042   1.300  0.3440 -0.0477 -0.1861
  807MPD2    C211935   3.181   1.983   1.329  0.0657 -0.1597  0.5493
  807MPD2    C311936   3.113   2.026   1.439 -0.2187 -0.1666 -0.0520
  807MPD2    C411937   3.166   2.119   1.527  0.0256  0.6807  0.5302
  807MPD2    C511938   3.281   2.186   1.492 -0.7600 -0.0777  0.3678
  807MPD2     H11939   3.150   1.904   1.262 -0.8579 -1.0604  2.0617
  807MPD2    H111940   3.127   2.151   1.623 -0.3457 -0.6846  0.8404
  807MPD2    H211941   3.451   2.188   1.367 -0.6119  0.1997 -0.9432
  807MPD2    H311942   3.322   2.263   1.557  0.4628 -1.0259  0.7136
  807MPD2     N11943   3.000   1.950   1.470 -0.4160  0.1020  0.0982
  807MPD2    H511944   2.968   1.887   1.397  0.3296 -0.5369  0.3241
  807MPD2    N111945   3.386   1.985   1.192 -0.7709  0.4722 -0.4566
  807MPD2    H711946   3.365   1.891   1.163  0.2195  0.2134 -0.3306
  808MPD2     C11947   3.744   2.595   9.817  0.2838 -0.7588 -0.3266
  808MPD2    C111948   3.638   2.678   9.852  0.5465  0.2228 -0.0029
  808MPD2    C211949   3.662   2.811   9.878  0.0684 -0.1597  0.1771
  808MPD2    C311950   3.793   2.859   9.881  0.1475  0.9003  0.1670
  808MPD2    C411951   3.900   2.776   9.860  0.2024 -0.4133  0.0634
  808MPD2    C511952   3.877   2.647   9.822 -0.8735  0.0416  0.6324
  808MPD2     H11953   3.579   2.877   9.903  0.1981  0.0175  0.1385
  808MPD2    H111954   4.005   2.805   9.868  0.6274 -1.9797  0.2986
  808MPD2    H211955   3.733   2.493   9.782  2.0638 -0.1649 -2.6508
  808MPD2    H311956   3.967   2.589   9.805  0.8218  2.5382  1.1517
  808MPD2     N11957   3.822   2.998   9.916 -0.3611  0.0826 -0.2003
  808MPD2    H511958   3.921   3.020   9.915  0.0051 -1.4406  3.0210
  808MPD2    N111959   3.506   2.629   9.829 -0.0478 -0.1736 -0.3946
  808MPD2    H711960   3.428   2.694   9.841  1.4004  1.3930  0.5540
  809MPD2     C11961   4.379   3.787   9.681 -0.7731 -0.4525  0.2386
  809MPD2    C111962   4.378   3.647   9.668 -0.5888 -0.4781 -0.8725
  809MPD2    C211963   4.276   3.571   9.718 -0.1431  0.0884  0.7140
  809MPD2    C311964   4.163   3.643   9.767  0.6118  0.0238 -0.6501
  809MPD2    C411965   4.156   3.781   9.764  0.0548  0.0810 -0.4594
  809MPD2    C511966   4.263   3.849   9.719 -0.8123  0.4968 -0.2283
  809MPD2     H11967   4.289   3.464   9.729 -0.5406  0.1410  1.6897
  809MPD2    H111968   4.073   3.833   9.811  2.5429  3.1861  0.5445
  809MPD2    H211969   4.454   3.856   9.645  0.3971 -2.0544 -0.3875
  809MPD2    H311970   4.258   3.958   9.716 -0.2856  0.5374  0.3241
  809MPD2     N11971   4.053   3.574   9.827  0.4004 -0.2759  0.2951
  809MPD2    H511972   3.975   3.628   9.862 -0.5279 -1.3675 -0.1172
  809MPD2    N111973   4.489   3.573   9.617  0.8976 -0.2745  0.6908
  809MPD2    H711974   4.481   3.472   9.628 -0.3715  0.0085  2.4014
  810MPD2     C11975   2.876   2.062  10.574  0.2541  0.2195  0.3931
  810MPD2    C111976   2.895   2.126  10.456  0.7447 -0.9371  0.0735
  810MPD2    C211977   2.910   2.264  10.451  0.5431  0.2620 -1.0185
  810MPD2    C311978   2.933   2.334  10.567  0.1730  0.7161 -0.2107
  810MPD2    C411979   2.933   2.260  10.686 -0.5703 -0.1948 -0.3129
  810MPD2    C511980   2.896   2.128  10.690 -0.4065  0.1723  0.0006
  810MPD2     H11981   2.904   2.317  10.357 -1.3567 -2.7572 -2.5917
  810MPD2    H111982   2.971   2.304  10.778  1.9624 -1.6207 -0.6699
  810MPD2    H211983   2.847   1.957  10.580 -1.7172  0.6666 -1.2215
  810MPD2    H311984   2.897   2.078  10.786  0.5271 -2.1241 -1.2151
  810MPD2     N11985   2.961   2.477  10.572 -0.6348  0.2529 -0.1953
  810MPD2    H511986   2.997   2.516  10.659  0.6427 -1.2795 -0.0338
  810MPD2    N111987   2.868   2.050  10.337 -0.3161 -0.0126  0.1147
  810MPD2    H711988   2.797   1.977  10.341 -2.6953  2.1995 -2.3040
  811MPD2     C11989   2.474   2.195   9.520 -0.0033 -0.6541 -0.2745
  811MPD2    C111990   2.590   2.233   9.590 -0.0355  0.2971  0.4396
  811MPD2    C211991   2.637   2.362   9.571 -0.7924 -0.0808 -0.0807
  811MPD2    C311992   2.567   2.443   9.487  0.4067  0.0795 -0.2714
  811MPD2    C411993   2.457   2.400   9.420  0.0153 -0.6523 -0.0895
  811MPD2    C511994   2.407   2.276   9.442  0.5696 -0.6592  0.9536
  811MPD2     H11995   2.736   2.393   9.604 -1.2864 -0.2285  1.5364
  811MPD2    H111996   2.408   2.468   9.351 -0.8127 -1.5342 -0.3697
  811MPD2    H211997   2.431   2.099   9.545  2.1700 -1.3005  0.9954
  811MPD2    H311998   2.311   2.249   9.399  1.2112 -0.7994 -0.4138
  811MPD2     N11999   2.616   2.575   9.467 -0.3934 -0.7285 -0.0855
  811MPD2    H512000   2.703   2.598   9.513 -0.2985 -1.7314  0.2264
  811MPD2    N112001   2.644   2.133   9.683 -0.3267  0.0281  0.6754
  811MPD2    H712002   2.600   2.042   9.681  1.6538 -0.9698  1.6298
  812MPD2     C12003   2.363   1.800  11.816 -0.7366 -0.4587  0.2543
  812MPD2    C112004   2.344   1.903  11.906  0.0536  0.1111 -0.0800
  812MPD2    C212005   2.315   1.877  12.038  0.1304  0.6423 -0.0804
  812MPD2    C312006   2.308   1.744  12.079 -0.0938  0.1057 -0.3238
  812MPD2    C412007   2.319   1.647  11.984  0.7402 -0.3239 -0.0763
  812MPD2    C512008   2.353   1.673  11.853  0.6999  0.3571 -0.0509
  812MPD2     H12009   2.295   1.954  12.111  0.7787 -0.7724  1.5802
  812MPD2    H112010   2.303   1.543  12.009  1.7850 -0.5037 -0.1476
  812MPD2    H212011   2.390   1.825  11.714  2.2811 -1.9245  0.6987
  812MPD2    H312012   2.361   1.594  11.779 -1.9377  0.4082 -0.3870
  812MPD2     N12013   2.292   1.717  12.222 -0.4369  0.8351  0.3533
  812MPD2    H512014   2.289   1.797  12.285 -0.3756 -0.0324  1.4740
  812MPD2    N112015   2.370   2.032  11.853 -0.0382 -0.5588 -0.1680
  812MPD2    H712016   2.411   2.043  11.761  0.7487 -2.6796 -0.0781
  813MPD2     C12017   1.655   3.662  12.580  0.8307  0.4254  0.1040
  813MPD2    C112018   1.576   3.773  12.599 -0.1917  0.2840  0.1146
  813MPD2    C212019   1.516   3.802  12.724  0.3522  0.0489  0.3035
  813MPD2    C312020   1.551   3.726  12.835  0.5496  0.3525  0.2415
  813MPD2    C412021   1.641   3.623  12.819  0.6094  0.2910 -0.3339
  813MPD2    C512022   1.681   3.584  12.694 -0.1748 -0.1341 -0.2173
  813MPD2     H12023   1.458   3.893  12.730  1.1490  0.6406 -0.9318
  813MPD2    H112024   1.678   3.572  12.907  0.0382 -0.8262 -0.7352
  813MPD2    H212025   1.700   3.638  12.485  1.9223 -0.8845  0.9371
  813MPD2    H312026   1.751   3.504  12.675 -0.8854 -0.9063  0.4003
  813MPD2     N12027   1.508   3.763  12.958 -0.1685 -0.0739 -0.4062
  813MPD2    H512028   1.433   3.832  12.956 -0.5377 -0.4386  0.5465
  813MPD2    N112029   1.558   3.845  12.478  0.4385  0.0091  0.4344
  813MPD2    H712030   1.621   3.820  12.402 -0.5668 -2.6452  0.4656
  814MPD2     C12031   1.654   4.565  12.276  0.0916  0.2472 -0.3099
  814MPD2    C112032   1.544   4.576  12.192  0.2016 -0.0451  0.7384
  814MPD2    C212033   1.455   4.678  12.210 -0.0900 -0.3504  0.2034
  814MPD2    C312034   1.464   0.023  12.320 -0.0674  0.5365 -0.0190
  814MPD2    C412035   1.575   0.004  12.407  0.1175  0.0584 -0.2932
  814MPD2    C512036   1.668   4.641  12.384 -0.1959  0.1198  0.3166
  814MPD2     H12037   1.365   4.689  12.151  0.9999  0.4278 -1.3353
  814MPD2    H112038   1.591   0.060  12.498 -0.0892 -0.6358  0.1659
  814MPD2    H212039   1.729   4.490  12.254 -0.2829 -0.4771  0.8669
  814MPD2    H312040   1.753   4.631  12.450 -0.9864 -1.1762  1.1173
  814MPD2     N12041   1.377   0.132  12.346 -0.1131 -0.5054  0.0543
  814MPD2    H512042   1.409   0.198  12.417 -0.3657 -0.0145 -0.2889
  814MPD2    N112043   1.522   4.486  12.078  0.6471 -0.5248 -0.2747
  814MPD2    H712044   1.427   4.504  12.049  0.3822  1.8590  2.0069
  815MPD2     C12045   2.291   3.681  11.621  0.1264 -0.1024  0.6802
  815MPD2    C112046   2.184   3.662  11.540  0.1564 -0.2804  0.0685
  815MPD2    C212047   2.061   3.666  11.606 -0.5147 -0.1632  0.2847
  815MPD2    C312048   2.049   3.694  11.745 -0.0112 -0.0565  0.3252
  815MPD2    C412049   2.167   3.713  11.819  0.4815 -0.1545 -0.4490
  815MPD2    C512050   2.289   3.701  11.758  0.1770 -0.3664 -0.1191
  815MPD2     H12051   1.973   3.639  11.550 -0.1341  1.0937 -0.9218
  815MPD2    H112052   2.168   3.735  11.925 -1.5453 -1.3167 -0.1861
  815MPD2    H212053   2.390   3.681  11.577  0.0387  0.9943  0.4691
  815MPD2    H312054   2.377   3.727  11.817  2.2383 -1.1804 -2.8486
  815MPD2     N12055   1.918   3.682  11.799  0.3219 -0.3519 -0.0858
  815MPD2    H512056   1.845   3.670  11.731  0.4665  1.0858 -0.4914
  815MPD2    N112057   2.203   3.636  11.403 -0.2484 -0.0415 -0.1175
  815MPD2    H712058   2.295   3.624  11.362 -0.1371 -1.4338  0.5247
  816MPD2     C12059   2.559   3.199  17.242 -0.6729  0.0596 -0.1600
  816MPD2    C112060   2.470   3.219  17.145 -0.3551 -0.2078 -0.2092
  816MPD2    C212061   2.485   3.167  17.020 -1.0508  0.0319  0.0906
  816MPD2    C312062   2.598   3.089  16.988  0.4410  0.6722  0.4262
  816MPD2    C412063   2.684   3.058  17.093  0.0219  0.0553 -0.7729
  816MPD2    C512064   2.670   3.116  17.215  0.1145  0.1857  0.5867
  816MPD2     H12065   2.411   3.182  16.941 -1.0284  0.0478  0.0725
  816MPD2    H112066   2.766   2.988  17.081  0.7238  0.5560  1.1038
  816MPD2    H212067   2.538   3.241  17.340 -2.4353  2.4557 -1.5682
  816MPD2    H312068   2.728   3.097  17.305  0.9036  2.4668  0.5775
  816MPD2     N12069   2.605   3.026  16.860  0.5034 -0.3668 -0.4907
  816MPD2    H512070   2.538   3.053  16.788  1.1727 -0.3015 -1.0925
  816MPD2    N112071   2.360   3.309  17.176  0.0500 -0.1740 -0.2715
  816MPD2    H712072   2.360   3.343  17.271 -0.3060 -1.2106  0.0990
  817MPD2     C12073   1.218   4.501   9.800  0.1957 -0.2155 -0.2310
  817MPD2    C112074   1.176   4.443   9.682 -0.1944 -0.0445  0.8342
  817MPD2    C212075   1.070   4.494   9.606  0.6087  0.3961 -0.7886
  817MPD2    C312076   1.013   4.613   9.642  1.0807  0.0776  1.2036
  817MPD2    C412077   1.048   4.673   9.764  0.0294 -0.2154 -0.3363
  817MPD2    C512078   1.153   4.614   9.838 -0.4365 -0.3391  1.2495
  817MPD2     H12079   1.037   4.447   9.514  0.6940  0.6112 -0.9307
  817MPD2    H112080   1.005   0.024   9.811  0.3270  0.6879 -1.7430
  817MPD2    H212081   1.305   4.465   9.855  0.2796  1.6167  0.8485
  817MPD2    H312082   1.188   4.664   9.927  3.4792 -1.9342  0.6086
  817MPD2     N12083   0.893   4.660   9.573  0.2284 -0.1122 -0.7072
  817MPD2    H512084   0.865   4.607   9.491 -1.2932 -0.8931  0.3258
  817MPD2    N112085   1.252   4.340   9.619  0.0863 -0.0652  0.0441
  817MPD2    H712086   1.215   4.304   9.531  0.7437 -2.3347  0.7144
  818MPD2     C12087   0.214   4.141  10.069 -0.4513  0.1944  0.3841
  818MPD2    C112088   0.134   4.089  10.173 -1.0540  0.3974  0.0156
  818MPD2    C212089   0.154   3.961  10.212  0.1908  0.0029 -0.3701
  818MPD2    C312090   0.260   3.889  10.150 -0.7226 -0.0426 -0.3317
  818MPD2    C412091   0.337   3.944  10.047 -0.5740 -0.2992 -0.3512
  818MPD2    C512092   0.310   4.069  10.010 -0.3311  0.6529  0.2401
  818MPD2     H12093   0.087   3.923  10.289  2.2151  1.0136  1.9063
  818MPD2    H112094   0.412   3.883   9.998  2.2661  0.2753  3.1994
  818MPD2    H212095   0.209   4.241  10.025 -0.6592  0.3867  0.8436
  818MPD2    H312096   0.362   4.115   9.926 -1.9303 -1.3595 -1.8209
  818MPD2     N12097   0.267   3.753  10.170  0.3180  0.0312  0.1683
  818MPD2    H512098   0.329   3.700  10.110  0.9099 -0.0325  0.8384
  818MPD2    N112099   0.034   4.157  10.244  0.4529 -0.7387  0.0728
  818MPD2    H712100   4.726   4.102  10.317 -1.4322  1.0736  0.2917
  819MPD2     C12101   3.126   1.281  15.546  0.3193  0.6402 -0.8328
  819MPD2    C112102   3.187   1.154  15.547  0.2618 -0.4697 -0.4008
  819MPD2    C212103   3.318   1.137  15.602  0.2560  0.0082  0.1699
  819MPD2    C312104   3.392   1.253  15.644 -0.1273  0.0500 -0.5133
  819MPD2    C412105   3.323   1.375  15.648  0.1700  0.3148  0.2204
  819MPD2    C512106   3.194   1.384  15.610 -0.4738  0.3159  0.2558
  819MPD2     H12107   3.375   1.045  15.588  0.9935  0.7205 -1.4939
  819MPD2    H112108   3.375   1.465  15.681 -1.6106  1.2161  0.5943
  819MPD2    H212109   3.030   1.308  15.502  1.7097  1.4958 -3.3795
  819MPD2    H312110   3.145   1.480  15.623 -0.7785 -0.0678  1.9423
  819MPD2     N12111   3.529   1.230  15.681 -0.4326  0.1111  0.2168
  819MPD2    H512112   3.569   1.139  15.661  1.1793  1.0045 -0.6289
  819MPD2    N112113   3.107   1.047  15.503 -0.2442  0.0796  0.0412
  819MPD2    H712114   3.017   1.074  15.466  0.7766  0.2042 -2.3342
  820MPD2     C12115   2.215   0.914  15.152  0.8726 -1.1839 -0.3135
  820MPD2    C112116   2.308   0.999  15.212 -0.4306  1.1857 -0.4855
  820MPD2    C212117   2.425   0.954  15.272 -0.1325  1.0645 -0.9023
  820MPD2    C312118   2.454   0.817  15.257 -0.6557 -0.2925 -0.6856
  820MPD2    C412119   2.358   0.732  15.201 -0.1295  0.2704  0.2980
  820MPD2    C512120   2.237   0.777  15.148 -0.3962  0.5442 -0.3930
  820MPD2     H12121   2.485   1.026  15.325  0.5277 -1.0358  1.1907
  820MPD2    H112122   2.387   0.629  15.185 -0.2138  0.3483 -0.3556
  820MPD2    H212123   2.124   0.956  15.111  0.5687 -0.2128  1.3672
  820MPD2    H312124   2.162   0.711  15.106  0.9343 -1.3847  0.2373
  820MPD2     N12125   2.583   0.769  15.282 -0.2563 -0.1671 -0.0496
  820MPD2    H512126   2.600   0.671  15.263  1.7438  0.1173  0.3361
  820MPD2    N112127   2.271   1.134  15.218  0.4449 -0.0575 -0.2464
  820MPD2    H712128   2.177   1.162  15.191  0.4892 -1.1107 -1.5207
  821MPD2     C12129   3.615   2.896  13.040 -1.1285 -0.5676 -0.0474
  821MPD2    C112130   3.684   2.879  13.159  0.4168 -0.3257  0.5644
  821MPD2    C212131   3.817   2.917  13.153 -0.2196  0.0237  0.3202
  821MPD2    C312132   3.874   2.990  13.048 -0.3866 -0.0407  0.1207
  821MPD2    C412133   3.801   3.028  12.941  0.2680  0.6423  0.8069
  821MPD2    C512134   3.673   2.971  12.938 -0.3885 -0.3766 -0.3909
  821MPD2     H12135   3.873   2.909  13.245  0.0612  0.0116  0.1495
  821MPD2    H112136   3.843   3.102  12.874  1.1706  0.0651  0.7495
  821MPD2    H212137   3.514   2.858  13.030 -1.0237 -0.8076 -0.2177
  821MPD2    H312138   3.609   2.989  12.853 -0.2156  3.8823  0.3941
  821MPD2     N12139   4.011   3.013  13.042  0.3781  0.0039  0.4629
  821MPD2    H512140   4.040   3.069  12.962 -1.6746 -0.9767 -0.9666
  821MPD2    N112141   3.638   2.806  13.268  0.7363 -0.5492  0.2904
  821MPD2    H712142   3.689   2.811  13.355 -1.5292 -1.1616  1.6591
  822MPD2     C12143   4.418   2.768  15.707 -0.3363 -0.0425 -0.3328
  822MPD2    C112144   4.415   2.759  15.845 -0.1838  0.0299  0.5855
  822MPD2    C212145   4.327   2.831  15.921  0.0481 -0.0557  0.2386
  822MPD2    C312146   4.244   2.922  15.860 -0.4679 -0.0480  0.0636
  822MPD2    C412147   4.245   2.933  15.719 -0.0356  0.0103 -0.8153
  822MPD2    C512148   4.330   2.854  15.646 -0.4726  0.1547  0.8712
  822MPD2     H12149   4.317   2.818  16.028 -0.6618 -2.9159 -0.1941
  822MPD2    H112150   4.190   3.009  15.664 -1.0615  0.2322  0.5018
  822MPD2    H212151   4.484   2.717  15.639  2.7555  0.1774  2.5308
  822MPD2    H312152   4.327   2.862  15.538  0.2960  1.8001  0.9727
  822MPD2     N12153   4.157   2.996  15.943 -0.0331  0.3767  0.1961
  822MPD2    H512154   4.135   2.963  16.037  1.1261  0.6866  0.5762
  822MPD2    N112155   4.513   2.677  15.913 -0.3677 -0.1795 -0.5403
  822MPD2    H712156   4.510   2.691  16.013  0.9598 -0.8105 -0.4209
  823MPD2     C12157   3.646   3.358  16.532  0.5506  0.0561  0.6060
  823MPD2    C112158   3.727   3.260  16.470  0.2020 -0.0833 -0.1099
  823MPD2    C212159   3.788   3.167  16.558 -0.7931 -0.1948  0.1440
  823MPD2    C312160   3.793   3.191  16.698 -0.1431  0.5137 -0.3928
  823MPD2    C412161   3.715   3.296  16.752  0.4900  0.1798 -1.0458
  823MPD2    C512162   3.647   3.375  16.666  0.0355  0.3334 -0.4261
  823MPD2     H12163   3.854   3.092  16.516 -0.5034 -0.4563  1.0628
  823MPD2    H112164   3.695   3.311  16.858  1.5170 -2.0580 -0.5390
  823MPD2    H212165   3.582   3.418  16.468  0.9582  0.1893  0.3189
  823MPD2    H312166   3.584   3.450  16.712 -0.7778 -0.9516  0.5696
  823MPD2     N12167   3.867   3.117  16.790  0.0469  0.0519 -0.0698
  823MPD2    H512168   3.849   3.141  16.887  2.3678  1.5573 -0.0011
  823MPD2    N112169   3.727   3.260  16.328 -0.2024 -0.0076  0.1442
  823MPD2    H712170   3.708   3.350  16.287  1.3050 -0.0194 -0.6196
  824MPD2     C12171   0.229   1.985  16.034 -0.2653 -1.0910 -1.1592
  824MPD2    C112172   0.212   2.072  15.926  0.1917 -0.4213  0.1589
  824MPD2    C212173   0.239   2.028  15.797 -0.3114  0.2472  0.3060
  824MPD2    C312174   0.279   1.899  15.768 -0.0460 -0.2568 -0.0371
  824MPD2    C412175   0.296   1.814  15.874 -0.3073 -0.3353 -0.4239
  824MPD2    C512176   0.269   1.859  16.004 -0.6692  0.2872  0.2401
  824MPD2     H12177   0.219   2.093  15.713 -0.0928  0.5304  0.4708
  824MPD2    H112178   0.337   1.715  15.858 -0.3254 -0.4011 -0.0522
  824MPD2    H212179   0.222   2.020  16.137  1.0738 -1.1523 -1.0427
  824MPD2    H312180   0.285   1.791  16.087 -2.5009 -0.7895 -0.2888
  824MPD2     N12181   0.303   1.875  15.635 -0.1126 -0.1451 -0.4717
  824MPD2    H512182   0.301   1.949  15.565  1.9314 -1.1086 -1.5418
  824MPD2    N112183   0.174   2.211  15.929 -0.3281 -0.0797 -0.2635
  824MPD2    H712184   0.167   2.246  15.834 -0.7620 -0.1644 -0.2634
  825MPD2     C12185   0.689   2.153  14.963 -0.0814 -0.1487 -0.4031
  825MPD2    C112186   0.635   2.160  15.090  0.1918 -0.0788 -0.4605
  825MPD2    C212187   0.618   2.279  15.162  0.4749 -0.1147  0.4067
  825MPD2    C312188   0.659   2.398  15.095  0.2304 -0.1086  0.2711
  825MPD2    C412189   0.720   2.389  14.974  0.5507  0.2422 -0.8635
  825MPD2    C512190   0.727   2.271  14.907 -0.4310  0.2710 -0.1326
  825MPD2     H12191   0.554   2.289  15.250  0.0630  0.1298  0.0787
  825MPD2    H112192   0.768   2.473  14.924  2.7032  0.2560  1.2320
  825MPD2    H212193   0.707   2.063  14.906  1.7189 -0.3719  0.5382
  825MPD2    H312194   0.767   2.276  14.807  1.8899 -4.0681  0.5898
  825MPD2     N12195   0.651   2.527  15.157  0.0700 -0.5359 -0.2151
  825MPD2    H512196   0.679   2.601  15.094 -0.1049  0.6513  1.1164
  825MPD2    N112197   0.581   2.034  15.138  0.1766 -0.5412 -0.1535
  825MPD2    H712198   0.566   1.952  15.079  0.3629  0.1165 -1.1190
  826MPD2     C12199   0.096   2.049  13.546  0.8089  0.1400 -0.0540
  826MPD2    C112200   4.718   2.057  13.467  0.1027 -0.1320 -0.4289
  826MPD2    C212201   4.627   2.156  13.489  0.1930  0.1025 -0.8924
  826MPD2    C312202   4.655   2.253  13.589  0.6690  0.0936  0.0587
  826MPD2    C412203   0.038   2.249  13.662  0.4015  0.1432  0.8996
  826MPD2    C512204   0.120   2.142  13.648 -0.2491  0.3702  0.5978
  826MPD2     H12205   4.544   2.169  13.421  0.3616  2.0290 -0.7258
  826MPD2    H112206   0.060   2.309  13.750 -0.6218 -0.8268  1.8135
  826MPD2    H212207   0.166   1.967  13.542  1.5227  0.7697 -0.4779
  826MPD2    H312208   0.205   2.113  13.709  1.2185 -0.1586 -1.6817
  826MPD2     N12209   4.563   2.353  13.627 -0.8095 -0.2933 -0.0800
  826MPD2    H512210   4.602   2.439  13.665 -2.4139 -0.4568  1.9421
  826MPD2    N112211   4.714   1.966  13.363 -0.4088  0.4779 -0.0155
  826MPD2    H712212   0.054   1.899  13.357 -1.1127 -0.5309  2.4641
  827MPD2     C12213   0.730   3.131   9.981 -0.4648 -0.1838  0.5016
  827MPD2    C112214   0.763   3.005  10.039  0.6043  0.3570  0.4837
  827MPD2    C212215   0.729   2.890   9.981  0.0064 -0.6872 -0.0124
  827MPD2    C312216   0.673   2.887   9.856  0.3797 -0.3288 -0.5090
  827MPD2    C412217   0.637   3.010   9.794  0.0617  0.0935  0.4203
  827MPD2    C512218   0.671   3.132   9.855 -0.2684 -0.1116  0.3692
  827MPD2     H12219   0.747   2.798  10.034 -1.9635  0.1847  2.1473
  827MPD2    H112220   0.576   3.009   9.705  0.0794  0.4066  0.4037
  827MPD2    H212221   0.742   3.224  10.035 -0.2622  0.4892 -0.6916
  827MPD2    H312222   0.636   3.226   9.813 -1.3938  0.3088  2.2506
  827MPD2     N12223   0.633   2.763   9.794 -0.1858 -0.5670  0.2889
  827MPD2    H512224   0.662   2.677   9.838 -0.0358 -1.2241 -1.0704
  827MPD2    N112225   0.826   3.013  10.160  0.2652  0.0665 -0.3661
  827MPD2    H712226   0.827   3.105  10.204 -0.2252 -0.8870  1.6644
  828MPD2     C12227   4.344   2.983  12.686 -0.1952 -0.7644  0.6886
  828MPD2    C112228   4.324   3.063  12.577 -0.1545  0.4102 -0.3231
  828MPD2    C212229   4.418   3.067  12.473  0.1522  0.4814  0.0018
  828MPD2    C312230   4.523   2.981  12.470 -0.1936 -1.2849  0.7656
  828MPD2    C412231   4.551   2.901  12.583  0.1418 -0.6222 -0.3330
  828MPD2    C512232   4.462   2.907  12.686  0.4228 -0.3134 -0.5272
  828MPD2     H12233   4.412   3.140  12.393 -1.1996  0.4964  0.1138
  828MPD2    H112234   4.636   2.835  12.594  1.3470  1.0272  0.1844
  828MPD2    H212235   4.284   2.996  12.775 -0.4210 -0.4883  0.4977
  828MPD2    H312236   4.483   2.849  12.776 -0.2880 -1.7599 -1.2994
  828MPD2     N12237   4.609   2.965  12.358  0.2656 -0.2914  0.0753
  828MPD2    H512238   4.699   2.922  12.378 -0.2046 -1.6087 -0.6945
  828MPD2    N112239   4.224   3.164  12.569 -0.2775 -0.1962 -0.0106
  828MPD2    H712240   4.235   3.230  12.492 -1.4881 -1.0550 -0.9362
  829MPD2     C12241   4.111   3.354  11.769  0.0398  0.6113  0.2556
  829MPD2    C112242   3.996   3.423  11.808  0.0648 -0.8437 -0.0668
  829MPD2    C212243   3.960   3.411  11.939  0.9574 -0.2125  1.0078
  829MPD2    C312244   4.039   3.339  12.034 -0.7453 -0.4211 -0.8204
  829MPD2    C412245   4.145   3.264  11.988  0.5037 -0.4849 -0.5361
  829MPD2    C512246   4.188   3.281  11.862  0.0159  0.3438 -0.4849
  829MPD2     H12247   3.878   3.475  11.972 -0.2432 -0.5930 -1.2772
  829MPD2    H112248   4.204   3.209  12.060  3.6847 -0.5527 -3.2448
  829MPD2    H212249   4.153   3.366  11.670  0.0159 -1.3870  0.0080
  829MPD2    H312250   4.283   3.238  11.833  0.8859  0.8310  1.6732
  829MPD2     N12251   4.017   3.325  12.169 -0.0769 -0.4719 -0.2223
  829MPD2    H512252   4.074   3.259  12.221 -0.9028 -0.8575  0.1956
  829MPD2    N112253   3.930   3.501  11.711 -0.4836 -0.6795 -0.4803
  829MPD2    H712254   3.967   3.511  11.617 -1.5863 -2.3020 -1.0950
  830MPD2     C12255   4.267   0.828  15.636  0.2444  0.7831 -0.7732
  830MPD2    C112256   4.179   0.916  15.577  0.5610  0.2952 -0.1260
  830MPD2    C212257   4.184   0.926  15.438  0.6065 -0.2121  0.1486
  830MPD2    C312258   4.270   0.846  15.365  0.8286 -0.9047 -0.3568
  830MPD2    C412259   4.356   0.762  15.427  0.2369 -0.6395  0.1456
  830MPD2    C512260   4.354   0.750  15.562  0.1328  0.5390 -0.8247
  830MPD2     H12261   4.123   0.999  15.388 -0.1624 -0.7492  0.2966
  830MPD2    H112262   4.439   0.715  15.378  0.2736 -1.5913  1.1082
  830MPD2    H212263   4.254   0.794  15.739 -2.0500  0.8578 -1.0348
  830MPD2    H312264   4.423   0.680  15.608  1.1891  1.9996 -0.1628
  830MPD2     N12265   4.288   0.853  15.225  0.2465  0.2552 -0.5301
  830MPD2    H512266   4.367   0.814  15.174  0.3327 -1.5603  0.9944
  830MPD2    N112267   4.098   0.986  15.661 -0.0896 -0.3438  0.5810
  830MPD2    H712268   4.110   0.972  15.761  0.4775  2.2243  0.8764
  831MPD2     C12269   4.224   3.327  16.249 -0.7934 -0.3941  0.1126
  831MPD2    C112270   4.293   3.214  16.211  0.2325 -0.0352 -0.2216
  831MPD2    C212271   4.242   3.087  16.250  0.1602  0.0050 -0.2792
  831MPD2    C312272   4.144   3.076  16.345 -0.1142  0.1742  0.0358
  831MPD2    C412273   4.090   3.192  16.400  0.1288 -0.2458 -0.4379
  831MPD2    C512274   4.124   3.314  16.340 -0.1006  0.5776  0.5376
  831MPD2     H12275   4.286   3.007  16.192 -0.0659  0.5403 -1.1988
  831MPD2    H112276   4.019   3.196  16.482 -0.1223 -0.7046 -0.6342
  831MPD2    H212277   4.259   3.427  16.227 -0.8310 -0.3685  0.1673
  831MPD2    H312278   4.070   3.402  16.373 -1.8581  0.6007 -2.4385
  831MPD2     N12279   4.083   2.951  16.375 -0.2675  0.6005  0.0895
  831MPD2    H512280   4.036   2.946  16.465  0.1016 -0.7013  0.2008
  831MPD2    N112281   4.395   3.223  16.117  1.1051  0.1402 -0.1162
  831MPD2    H712282   4.399   3.314  16.071 -1.2058 -0.3094 -1.2036
  832MPD2     C12283   2.842   4.526  17.078  0.5352 -0.9954  0.4942
  832MPD2    C112284   2.778   4.647  17.050 -0.2248  0.5863  0.5458
  832MPD2    C212285   2.650   4.644  16.988  0.4322 -0.4659 -0.5331
  832MPD2    C312286   2.597   4.529  16.943 -0.2410  0.0294  0.0749
  832MPD2    C412287   2.661   4.410  16.975  0.2518  0.0196 -0.2162
  832MPD2    C512288   2.784   4.407  17.036 -0.2757 -0.4205  0.0158
  832MPD2     H12289   2.606   4.735  16.949  0.3759 -0.5237 -0.6043
  832MPD2    H112290   2.616   4.313  16.957  0.6355 -0.3831  0.9680
  832MPD2    H212291   2.938   4.526  17.129  1.4308 -3.8222 -1.2322
  832MPD2    H312292   2.833   4.314  17.064  1.0290  0.3844  0.3968
  832MPD2     N12293   2.468   4.517  16.885  0.7418 -0.2518 -0.1622
  832MPD2    H512294   2.427   4.427  16.865  0.6236 -0.1853 -0.2217
  832MPD2    N112295   2.840   0.035  17.066  0.0155 -0.3698 -0.0096
  832MPD2    H712296   2.790   0.123  17.067  0.3428 -0.1933  1.5498
  833MPD2     C12297   4.699   0.654  12.674  0.0655  0.1965 -0.1533
  833MPD2    C112298   4.733   0.729  12.562  0.5429 -0.0964  0.1380
  833MPD2    C212299   0.049   0.653  12.456  0.3274  0.4061  0.2425
  833MPD2    C312300   0.081   0.523  12.462 -1.1503 -0.0388  0.0137
  833MPD2    C412301   0.052   0.457  12.573 -0.1458 -0.1687 -0.3468
  833MPD2    C512302   4.726   0.522  12.675  0.0618  0.3412 -0.6575
  833MPD2     H12303   0.068   0.709  12.365 -0.2537  0.9185  0.4366
  833MPD2    H112304   0.073   0.350  12.579  0.5977  0.0374  0.6982
  833MPD2    H212305   4.641   0.701  12.752  0.9692  2.1282 -0.6278
  833MPD2    H312306   4.699   0.459  12.759 -2.1112  0.2695 -1.4185
  833MPD2     N12307   0.163   0.460  12.362  1.0729 -0.5048  0.3438
  833MPD2    H512308   0.182   0.361  12.371  4.0902  0.2408  2.3756
  833MPD2    N112309   4.687   0.864  12.560 -0.1224 -0.2065  0.0841
  833MPD2    H712310   4.640   0.901  12.642  0.2176 -0.8957  0.5895
  834MPD2     C12311   0.089   4.462  11.690 -0.3560  0.8557  0.0174
  834MPD2    C112312   0.171   4.563  11.629  0.0697 -0.5078 -0.7065
  834MPD2    C212313   0.176   4.686  11.681 -0.2563  0.1509  0.4171
  834MPD2    C312314   0.098   4.727  11.788  1.0465 -0.1495 -0.0251
  834MPD2    C412315   0.013   4.628  11.847 -0.5388  0.6146 -0.0972
  834MPD2    C512316   0.011   4.502  11.796 -0.3204 -0.2664  0.0198
  834MPD2     H12317   0.247   0.025  11.647 -1.2403  0.0527 -1.8528
  834MPD2    H112318   4.692   4.648  11.937 -0.4634  0.0564  0.0773
  834MPD2    H212319   0.067   4.366  11.645  1.5318  0.2289  0.4146
  834MPD2    H312320   4.687   4.430  11.849  1.0758 -0.8349  0.8350
  834MPD2     N12321   0.113   0.119  11.846 -0.3051  0.1998 -0.3487
  834MPD2    H512322   0.189   0.173  11.804 -1.0696  0.0227 -1.9573
  834MPD2    N112323   0.245   4.532  11.515 -0.0422 -0.0521 -0.6544
  834MPD2    H712324   0.285   4.603  11.455  1.6645 -1.6818 -1.4555
  835MPD2     C12325   0.381   3.187  10.594  0.3763 -0.2971 -0.1313
  835MPD2    C112326   0.309   3.110  10.684  0.6188 -0.2366 -0.4424
  835MPD2    C212327   0.305   3.136  10.819  0.0616 -0.8334 -0.2598
  835MPD2    C312328   0.400   3.230  10.875 -0.0369 -1.3276  0.2683
  835MPD2    C412329   0.463   3.318  10.785 -0.4565  0.1166 -0.6793
  835MPD2    C512330   0.449   3.296  10.648 -0.0628  0.1312 -0.4678
  835MPD2     H12331   0.255   3.058  10.875 -1.1352  0.5595  0.6272
  835MPD2    H112332   0.524   3.402  10.816 -0.3352 -1.4052  3.2378
  835MPD2    H212333   0.373   3.172  10.487  1.5133 -0.0090 -0.2626
  835MPD2    H312334   0.502   3.356  10.575  0.6700 -0.8837 -0.7609
  835MPD2     N12335   0.428   3.241  11.017 -0.1566  0.3889 -0.2791
  835MPD2    H512336   0.506   3.297  11.049 -0.7448  1.0435  0.0094
  835MPD2    N112337   0.226   3.001  10.642  0.4482 -0.0142 -0.5083
  835MPD2    H712338   0.158   2.972  10.711  1.1487 -1.7981 -0.5421
  836MPD2     C12339   0.407   3.236  11.901  1.3157  0.3421  0.0257
  836MPD2    C112340   0.309   3.219  11.812 -0.6706 -0.7097 -0.3443
  836MPD2    C212341   0.181   3.268  11.844 -0.5440  0.0698  0.9476
  836MPD2    C312342   0.147   3.332  11.965  0.1087  0.1425 -0.1032
  836MPD2    C412343   0.256   3.362  12.044  0.3871  0.5813 -0.0089
  836MPD2    C512344   0.376   3.306  12.016  0.2831  1.0427  0.7855
  836MPD2     H12345   0.106   3.239  11.772 -1.6347  1.6509  1.4441
  836MPD2    H112346   0.242   3.408  12.141  0.7386 -0.0702  0.3480
  836MPD2    H212347   0.499   3.181  11.888 -0.2547 -1.7138 -2.4523
  836MPD2    H312348   0.449   3.313  12.096  2.2418  1.4079 -1.0424
  836MPD2     N12349   0.021   3.375  12.004 -0.1937 -0.0310 -0.2797
  836MPD2    H512350   0.027   3.413  12.098  1.0272 -0.7062 -0.0829
  836MPD2    N112351   0.349   3.169  11.689  0.8628 -0.1148  0.0611
  836MPD2    H712352   0.444   3.137  11.673  1.6285  1.3165  1.7118
  837MPD2     C12353   3.000   3.035   9.851 -0.0689  0.2496 -0.1972
  837MPD2    C112354   2.986   3.099   9.730 -0.6472 -0.0770 -0.2399
  837MPD2    C212355   3.007   3.240   9.729  0.1704  0.1720  0.1642
  837MPD2    C312356   3.026   3.315   9.845  0.2482 -0.3343  0.1041
  837MPD2    C412357   3.046   3.243   9.963  0.3966 -0.0680 -0.3152
  837MPD2    C512358   3.027   3.108   9.961 -0.5841  0.3049  0.5096
  837MPD2     H12359   2.978   3.283   9.634 -2.6694 -0.7549  0.6276
  837MPD2    H112360   3.046   3.293  10.059 -0.8852 -1.6417  0.5060
  837MPD2    H212361   3.001   2.926   9.859 -1.9456  0.3361  1.1257
  837MPD2    H312362   3.035   3.057  10.056  0.7105 -1.3400 -0.4656
  837MPD2     N12363   3.017   3.454   9.839 -0.5553 -0.6091 -0.6084
  837MPD2    H512364   3.001   3.494   9.747 -2.0898  0.4063  0.0983
  837MPD2    N112365   2.957   3.044   9.601 -0.1282  0.1594 -0.6568
  837MPD2    H712366   2.978   3.094   9.516  3.1486 -2.6675 -1.5139
  838MPD2     C12367   0.597   0.814  10.720 -0.4417  0.1021 -0.3613
  838MPD2    C112368   0.659   0.907  10.801  0.3462  0.4978 -0.5708
  838MPD2    C212369   0.630   0.915  10.934 -0.1466 -0.4120 -0.0453
  838MPD2    C312370   0.536   0.831  10.992  0.3270  0.0916 -0.4781
  838MPD2    C412371   0.462   0.750  10.909 -0.0653 -0.7415  0.6117
  838MPD2    C512372   0.498   0.727  10.776  0.4029  0.3481 -0.0734
  838MPD2     H12373   0.675   0.990  10.998  0.4693 -0.4645 -0.4244
  838MPD2    H112374   0.400   0.671  10.950  1.6638 -2.0064  0.8375
  838MPD2    H212375   0.615   0.806  10.613  0.6292 -0.1575 -0.1553
  838MPD2    H312376   0.449   0.649  10.719  1.1039  0.1829 -0.4545
  838MPD2     N12377   0.508   0.855  11.126 -0.7247 -0.5193 -0.0533
  838MPD2    H512378   0.562   0.928  11.171  1.1503 -1.3056 -1.0339
  838MPD2    N112379   0.752   0.997  10.747 -0.2431  0.1577  0.3160
  838MPD2    H712380   0.802   1.050  10.818  0.6103 -0.2307  0.0087
  839MPD2     C12381   1.496   0.820  11.211 -0.1562  0.0310 -0.8375
  839MPD2    C112382   1.441   0.739  11.114  0.3735 -0.4344  0.0077
  839MPD2    C212383   1.395   0.794  10.997  0.0259 -0.4326 -0.3257
  839MPD2    C312384   1.403   0.929  10.986 -0.3881  0.2824  0.0875
  839MPD2    C412385   1.468   1.007  11.077 -0.4950  0.5736  0.2555
  839MPD2    C512386   1.509   0.954  11.194 -0.1903  0.1121 -0.4496
  839MPD2     H12387   1.355   0.729  10.920 -2.8385 -1.5645  2.0975
  839MPD2    H112388   1.481   1.113  11.057 -0.7336  0.7978  1.2857
  839MPD2    H212389   1.519   0.791  11.313 -2.4337  0.1520 -0.2929
  839MPD2    H312390   1.548   1.021  11.269 -1.6404 -0.9667  1.2767
  839MPD2     N12391   1.338   0.999  10.883  0.9224 -0.0318 -0.0017
  839MPD2    H512392   1.350   1.100  10.879 -0.3444  0.0453 -1.3694
  839MPD2    N112393   1.429   0.598  11.131  0.3099 -0.5712  0.0791
  839MPD2    H712394   1.379   0.552  11.055  2.2831 -0.4990 -1.2529
  840MPD2     C12395   1.220   3.470  10.151  0.3754  0.2240  0.1392
  840MPD2    C112396   1.242   3.429  10.278 -1.1150  0.7778 -0.0520
  840MPD2    C212397   1.296   3.522  10.374  0.1156 -0.0784  0.6162
  840MPD2    C312398   1.346   3.651  10.338  0.0547  0.1466 -0.1391
  840MPD2    C412399   1.342   3.679  10.205 -0.2005 -0.1879  0.5760
  840MPD2    C512400   1.274   3.591  10.111  0.6100 -0.3543 -0.1229
  840MPD2     H12401   1.321   3.495  10.476  3.2569  0.5222 -0.0118
  840MPD2    H112402   1.371   3.777  10.170 -0.3683  0.6065  2.6634
  840MPD2    H212403   1.177   3.416  10.068  0.3425  0.7472 -0.1826
  840MPD2    H312404   1.280   3.611  10.005  0.0982 -0.8816 -0.2453
  840MPD2     N12405   1.409   3.739  10.433 -0.8004 -0.0636  0.1728
  840MPD2    H512406   1.458   3.817  10.391  0.6238  0.3864  2.6484
  840MPD2    N112407   1.187   3.302  10.309 -0.1068 -0.3220  0.3198
  840MPD2    H712408   1.132   3.253  10.239 -0.7410  1.8119 -0.6584
  841MPD2     C12409   0.992   3.435  14.586 -0.2923  0.1728 -0.0611
  841MPD2    C112410   1.024   3.354  14.485 -0.1452 -0.2179  0.3934
  841MPD2    C212411   1.128   3.380  14.398 -0.3190  0.0383 -0.1209
  841MPD2    C312412   1.213   3.490  14.425  1.0769  0.7140  0.1750
  841MPD2    C412413   1.170   3.579  14.522  0.2696 -0.5361 -0.3895
  841MPD2    C512414   1.061   3.552  14.594 -0.4958 -0.4949 -0.3433
  841MPD2     H12415   1.171   3.299  14.339 -0.3331 -0.1006  0.0607
  841MPD2    H112416   1.220   3.669  14.557 -0.2614 -0.1957 -0.5049
  841MPD2    H212417   0.918   3.420  14.663 -0.0644  1.8518  0.4914
  841MPD2    H312418   1.045   3.618  14.678  1.5706 -1.1719  0.5459
  841MPD2     N12419   1.342   3.495  14.369 -0.7082  0.2164 -0.6614
  841MPD2    H512420   1.382   3.414  14.323  1.7823  1.3313 -0.5126
  841MPD2    N112421   0.972   3.226  14.475 -0.2894  0.3759 -0.4807
  841MPD2    H712422   0.989   3.186  14.383 -1.7812 -2.0480  0.2897
  842MPD2     C12423   1.850   0.092  16.572 -0.4597 -0.2915 -0.2397
  842MPD2    C112424   1.823   4.705  16.612 -0.2413  0.2218  0.4621
  842MPD2    C212425   1.845   4.666  16.742  0.2567  0.3895 -0.5858
  842MPD2    C312426   1.919   0.009  16.833 -0.1751  0.1246 -0.2430
  842MPD2    C412427   1.956   0.136  16.787  0.8001  0.0425  0.5178
  842MPD2    C512428   1.909   0.179  16.661 -0.1133 -0.4177  0.2661
  842MPD2     H12429   1.824   4.563  16.767  1.4807  0.5155  0.9736
  842MPD2    H112430   2.010   0.205  16.850 -3.3919  1.6597  2.3057
  842MPD2    H212431   1.823   0.131  16.474 -0.2706  1.5145  0.4307
  842MPD2    H312432   1.928   0.283  16.636  1.8156 -0.5984  1.0539
  842MPD2     N12433   1.954   4.706  16.961 -0.4046 -0.1721  0.4146
  842MPD2    H512434   2.009   0.041  17.008 -1.0132  0.0649  0.7688
  842MPD2    N112435   1.763   4.624  16.517  0.2306  0.0093 -0.3585
  842MPD2    H712436   1.730   4.675  16.436  1.2871 -0.7935 -1.2925
  843MPD2     C12437   4.070   0.574  17.557 -0.3244 -0.1968  0.0275
  843MPD2    C112438   4.074   0.493  17.669 -0.2866 -0.3053  0.5343
  843MPD2    C212439   4.147   0.532   0.034  1.1021 -0.2068 -0.0521
  843MPD2    C312440   4.211   0.656   0.039  0.1577  0.0352  0.2672
  843MPD2    C412441   4.185   0.745  17.678  0.0790 -0.2766 -0.1277
  843MPD2    C512442   4.112   0.703  17.572  0.7945  0.6976 -0.1341
  843MPD2     H12443   4.169   0.464   0.115 -0.4938 -2.1175 -1.1999
  843MPD2    H112444   4.238   0.840  17.678  3.5934 -2.2288  1.2092
  843MPD2    H212445   4.009   0.545  17.473  2.4119  0.2925 -2.1094
  843MPD2    H312446   4.095   0.778  17.495  0.8010  1.0978  0.2545
  843MPD2     N12447   4.300   0.698   0.138 -0.0230 -0.0793 -0.0430
  843MPD2    H512448   4.361   0.777   0.120 -1.1680  0.1942 -2.6163
  843MPD2    N112449   4.006   0.371  17.665  0.2127  0.7624 -0.4746
  843MPD2    H712450   3.947   0.350  17.585 -0.0071  1.4023 -0.4777
  844MPD2     C12451   2.179   3.886  16.601  0.4367  0.2703  0.0304
  844MPD2    C112452   2.266   3.865  16.500 -0.6315  0.6056  0.6704
  844MPD2    C212453   2.390   3.923  16.497 -0.2054 -0.0106 -0.7537
  844MPD2    C312454   2.422   4.020  16.588  0.1953 -0.4271  0.5662
  844MPD2    C412455   2.329   4.052  16.685 -0.0579 -0.0164  0.1025
  844MPD2    C512456   2.210   3.982  16.694 -0.2347  0.1204  0.1637
  844MPD2     H12457   2.456   3.905  16.412  1.8430  0.5496  0.7360
  844MPD2    H112458   2.346   4.131  16.758  0.6469  0.1303 -0.2181
  844MPD2    H212459   2.085   3.832  16.611  1.3474 -1.2386  0.5189
  844MPD2    H312460   2.143   3.991  16.779  0.2367  0.0688  0.5445
  844MPD2     N12461   2.544   4.095  16.563 -0.1803 -0.5531 -0.3886
  844MPD2    H512462   2.601   4.053  16.490  0.5188  0.9390 -0.6924
  844MPD2    N112463   2.237   3.783  16.393  0.1695 -0.6753  0.1185
  844MPD2    H712464   2.300   3.777  16.314 -0.2156  1.0469 -0.3230
  845MPD2     C12465   3.033   0.253  16.675 -0.2488 -0.2517 -0.4118
  845MPD2    C112466   2.907   0.230  16.731  0.2881  0.3453 -0.1232
  845MPD2    C212467   2.854   0.101  16.739 -0.2629 -0.1608 -0.0468
  845MPD2    C312468   2.936   4.727  16.701 -0.7305 -0.3411  0.6486
  845MPD2    C412469   3.062   0.021  16.640  0.0301  0.1186 -0.1938
  845MPD2    C512470   3.104   0.152  16.632  0.1202  0.4639 -0.2058
  845MPD2     H12471   2.760   0.077  16.787 -2.0523  0.0540 -3.4299
  845MPD2    H112472   3.126   4.676  16.606 -1.2598 -1.7735  1.8558
  845MPD2    H212473   3.070   0.354  16.662  1.4515 -0.3315  3.8525
  845MPD2    H312474   3.200   0.178  16.588 -1.3657  1.3892 -2.9114
  845MPD2     N12475   2.892   4.593  16.705  0.0459 -0.1652 -0.4916
  845MPD2    H512476   2.805   4.587  16.756  0.1950 -2.4778 -0.5085
  845MPD2    N112477   2.822   0.337  16.773 -0.4059  0.1288 -0.0540
  845MPD2    H712478   2.854   0.431  16.756  2.1967 -0.9116 -0.8310
  846MPD2     C12479   4.055   0.300  13.632  0.5761  0.0505 -0.9522
  846MPD2    C112480   3.937   0.367  13.622 -0.2332 -0.5965  0.1612
  846MPD2    C212481   3.870   0.398  13.734  0.1840 -0.2358  0.6007
  846MPD2    C312482   3.930   0.389  13.866  0.7546  0.7729  0.2416
  846MPD2    C412483   4.060   0.337  13.873 -0.0801 -0.1373  0.1517
  846MPD2    C512484   4.117   0.290  13.754  0.6673 -0.2153  0.2338
  846MPD2     H12485   3.771   0.441  13.725  0.0169 -0.6410  0.5124
  846MPD2    H112486   4.115   0.323  13.965  0.1736  1.2372  0.1954
  846MPD2    H212487   4.103   0.262  13.543  0.2514 -2.9624  0.1574
  846MPD2    H312488   4.215   0.247  13.763  1.6297  2.3051  1.8810
  846MPD2     N12489   3.853   0.423  13.984  0.1711 -0.5723  0.8411
  846MPD2    H512490   3.752   0.428  13.975  0.1715 -0.3220  0.9716
  846MPD2    N112491   3.866   0.382  13.501 -0.5937  0.0759 -0.4156
  846MPD2    H712492   3.772   0.419  13.513 -0.4221  0.8055 -1.3337
  847MPD2     C12493   4.029   1.222  14.473  0.1475 -0.5224 -0.2443
  847MPD2    C112494   4.129   1.320  14.478 -0.9939  0.1285 -0.1614
  847MPD2    C212495   4.253   1.278  14.479 -0.2684  0.0981 -0.2700
  847MPD2    C312496   4.296   1.148  14.484 -0.3676 -0.2142  0.4661
  847MPD2    C412497   4.199   1.052  14.483 -0.9658  0.5989  0.2489
  847MPD2    C512498   4.068   1.092  14.481  0.4507  0.5172  0.0649
  847MPD2     H12499   4.330   1.354  14.479  0.6603 -0.8518 -2.1841
  847MPD2    H112500   4.222   0.947  14.489  1.1321  1.1108  1.3567
  847MPD2    H212501   3.923   1.240  14.489  0.3676  1.3402 -0.8138
  847MPD2    H312502   3.989   1.020  14.497  0.9989 -0.4262 -1.5137
  847MPD2     N12503   4.429   1.121  14.517  0.0824 -0.0997  0.2426
  847MPD2    H512504   4.488   1.203  14.527 -1.1438  0.7639  0.4368
  847MPD2    N112505   4.108   1.457  14.498 -0.0662 -0.0928  0.1067
  847MPD2    H712506   4.186   1.521  14.507 -2.1103  2.5283 -0.9788
  848MPD2     C12507   2.056   4.677  16.210 -0.5850  0.6988  0.3257
  848MPD2    C112508   2.102   0.016  16.317 -1.4204 -0.1403  0.4175
  848MPD2    C212509   2.108   0.153  16.291  0.4699  0.3382  0.0862
  848MPD2    C312510   2.058   0.209  16.172 -0.2746  0.1995  0.5026
  848MPD2    C412511   2.004   0.130  16.073  0.3946 -0.0714 -0.0186
  848MPD2    C512512   2.000   4.732  16.098 -0.5675  0.6395  0.0397
  848MPD2     H12513   2.136   0.220  16.371  2.2424  1.3487 -1.3575
  848MPD2    H112514   1.956   0.172  15.986  0.4840  2.1707  1.0155
  848MPD2    H212515   2.056   4.568  16.217  1.1895  0.7199  0.7980
  848MPD2    H312516   1.958   4.669  16.020  0.4167 -0.0565  0.0639
  848MPD2     N12517   2.046   0.348  16.147 -0.4714  0.1703 -0.7718
  848MPD2    H512518   1.992   0.377  16.066 -0.1120 -0.7166 -1.3246
  848MPD2    N112519   2.130   4.693  16.446  0.0737 -0.0380 -0.1627
  848MPD2    H712520   2.168   0.013  16.521 -2.9154  1.4903  0.2182
  849MPD2     C12521   1.905   3.834  13.862 -0.2739  0.3293 -0.4404
  849MPD2    C112522   1.899   3.958  13.811  0.1431  0.0556  0.1799
  849MPD2    C212523   1.971   4.062  13.866  0.0350  0.4707  0.0548
  849MPD2    C312524   2.051   4.043  13.976  0.5074 -0.0734 -0.3354
  849MPD2    C412525   2.057   3.913  14.032 -0.1843  0.4527  0.2897
  849MPD2    C512526   1.984   3.812  13.972 -0.2271 -0.3722  0.1724
  849MPD2     H12527   1.974   4.161  13.822  1.5644  1.0997  1.6080
  849MPD2    H112528   2.121   3.895  14.118  1.5040 -2.5102 -1.5847
  849MPD2    H212529   1.855   3.745  13.825 -0.4684 -0.2164  1.1267
  849MPD2    H312530   1.977   3.715  14.020 -0.1042 -0.8206 -0.7120
  849MPD2     N12531   2.116   4.164  14.017  0.5915 -0.0483 -0.5198
  849MPD2    H512532   2.073   4.248  13.978  0.5442  0.1309 -0.0916
  849MPD2    N112533   1.828   3.989  13.692  0.1574  0.2394 -0.2318
  849MPD2    H712534   1.834   4.083  13.653 -0.6923  0.3223 -0.1730
  850MPD2     C12535   4.064   2.348  14.601  0.1320  0.8160 -0.1098
  850MPD2    C112536   4.087   2.347  14.737 -0.0738  0.2126  0.4358
  850MPD2    C212537   4.199   2.424  14.777 -0.5243 -0.1324  0.2684
  850MPD2    C312538   4.281   2.486  14.688 -0.8064 -0.0946  0.1751
  850MPD2    C412539   4.251   2.492  14.559 -0.1141 -0.3522 -0.1009
  850MPD2    C512540   4.144   2.426  14.521 -0.1358  0.5564 -0.0028
  850MPD2     H12541   4.240   2.425  14.877  0.2064  0.4949 -0.0360
  850MPD2    H112542   4.319   2.535  14.486 -0.2841 -1.7850 -1.1025
  850MPD2    H212543   3.985   2.295  14.550 -0.0361 -0.2136  1.2451
  850MPD2    H312544   4.120   2.420  14.415 -0.2749  0.9914  0.0071
  850MPD2     N12545   4.390   2.571  14.719  0.1028  0.2995 -0.2870
  850MPD2    H512546   4.437   2.621  14.643 -0.0655 -0.1708 -0.7014
  850MPD2    N112547   4.008   2.268  14.815  0.3870 -0.4006  0.0578
  850MPD2    H712548   3.946   2.198  14.775  0.0835 -0.2507  0.2655
  851MPD2     C12549   4.336   1.760  15.108  0.4946  0.1779  0.0350
  851MPD2    C112550   4.216   1.715  15.053  0.5150 -0.0105  0.0891
  851MPD2    C212551   4.208   1.580  15.008  0.5044 -0.2781 -0.3177
  851MPD2    C312552   4.311   1.494  15.029 -0.3619  0.2880  0.5971
  851MPD2    C412553   4.426   1.534  15.093  0.2590  0.3711 -0.3489
  851MPD2    C512554   4.438   1.670  15.128 -0.3333  0.1262 -0.1443
  851MPD2     H12555   4.117   1.556  14.955  0.1893  1.0486 -0.3843
  851MPD2    H112556   4.506   1.463  15.104  1.3780  1.7999  0.7019
  851MPD2    H212557   4.357   1.865  15.120  1.6836  0.2476 -2.7257
  851MPD2    H312558   4.536   1.708  15.154 -0.4856  0.1007  0.4613
  851MPD2     N12559   4.292   1.360  14.988  0.2809  0.1710  0.4196
  851MPD2    H512560   4.197   1.338  14.959  0.1299 -1.9593  2.4747
  851MPD2    N112561   4.116   1.815  15.057 -0.0487  0.4249 -0.0553
  851MPD2    H712562   4.147   1.907  15.086 -2.4796  1.0731  0.5251
  852MPD2     C12563   2.715   0.073  10.019  0.6275  0.6336  0.0381
  852MPD2    C112564   2.779   0.043  10.136 -0.5478 -0.0601 -0.1487
  852MPD2    C212565   2.879   0.124  10.187  0.2698 -0.0848  0.1191
  852MPD2    C312566   2.928   0.223  10.108  0.5432 -0.4807 -0.4922
  852MPD2    C412567   2.869   0.243   9.985 -0.5801  0.6429  0.5568
  852MPD2    C512568   2.762   0.173   9.940 -0.1942  0.4286  0.4420
  852MPD2     H12569   2.924   0.099  10.283 -1.2550 -1.2531  0.5278
  852MPD2    H112570   2.889   0.334   9.929  1.2854 -0.0413  0.1297
  852MPD2    H212571   2.639   0.012   9.969 -0.2944 -0.3176  2.6005
  852MPD2    H312572   2.719   0.205   9.846  2.7411 -3.1737 -2.1322
  852MPD2     N12573   3.034   0.307  10.154  0.0959 -0.3960 -0.6559
  852MPD2    H512574   3.078   0.286  10.243 -0.0807 -0.3735 -0.5635
  852MPD2    N112575   2.729   4.673  10.212  0.4849 -0.1745  0.4817
  852MPD2    H712576   2.775   4.663  10.302  1.3709 -2.8147 -0.2542
  853MPD2     C12577   1.128   4.105  12.132 -0.4745 -0.2357  0.0527
  853MPD2    C112578   1.022   4.193  12.146 -0.2368 -1.0083  0.1986
  853MPD2    C212579   0.956   4.231  12.029  0.5353 -0.1295  0.1745
  853MPD2    C312580   0.999   4.194  11.903  0.2715  0.9569 -0.4000
  853MPD2    C412581   1.106   4.107  11.888  0.7697  0.4710  0.1034
  853MPD2    C512582   1.174   4.066  12.005  0.2290 -0.4639 -0.2246
  853MPD2     H12583   0.869   4.295  12.032  0.3876 -0.4350  2.4431
  853MPD2    H112584   1.142   4.063  11.796  2.1327  0.8062  0.4830
  853MPD2    H212585   1.184   4.077  12.220 -1.5985 -1.7108  0.2944
  853MPD2    H312586   1.247   3.986  12.000  0.7143  0.0191 -0.8166
  853MPD2     N12587   0.939   4.235  11.780 -0.0761  0.4861  0.6361
  853MPD2    H512588   0.976   4.197  11.693  1.4967 -2.4805  2.6195
  853MPD2    N112589   0.986   4.233  12.278  0.6831 -0.1254 -0.7956
  853MPD2    H712590   1.056   4.212  12.348  1.0950  1.7604 -0.6384
  854MPD2     C12591   2.611   0.061  12.225  0.2210 -0.6305 -1.0666
  854MPD2    C112592   2.728   0.127  12.218 -0.3404 -0.4124  1.2315
  854MPD2    C212593   2.829   0.076  12.297 -0.5223  0.0199  0.1187
  854MPD2    C312594   2.803   4.705  12.383 -0.3881 -0.1370  0.1787
  854MPD2    C412595   2.683   4.640  12.393  0.0601  0.0013  0.3078
  854MPD2    C512596   2.585   4.694  12.313 -0.0478  0.6032  0.6819
  854MPD2     H12597   2.925   0.126  12.301 -1.0110  1.0202 -0.6999
  854MPD2    H112598   2.654   4.572  12.473  0.5034 -0.3923  0.1379
  854MPD2    H212599   2.520   0.088  12.172  0.3145  2.5675  0.4092
  854MPD2    H312600   2.484   4.657  12.316 -0.2098  1.0920  1.2956
  854MPD2     N12601   2.901   4.648  12.464 -0.3283 -0.4374  0.2188
  854MPD2    H512602   2.877   4.560  12.509 -1.2613 -0.0713  0.4393
  854MPD2    N112603   2.743   0.242  12.130 -0.4853 -0.1837  0.5282
  854MPD2    H712604   2.658   0.261  12.079 -0.4540  1.3128  1.0187
  855MPD2     C12605   3.178   0.017  13.363 -0.4679 -0.3304  0.1781
  855MPD2    C112606   3.176   4.619  13.319 -0.6735  0.5073  0.1149
  855MPD2    C212607   3.193   4.590  13.189  0.2600  0.3541  0.3482
  855MPD2    C312608   3.212   4.690  13.100  0.9601  0.3931 -0.4391
  855MPD2    C412609   3.223   0.077  13.146 -0.2436  0.3873 -0.4847
  855MPD2    C512610   3.221   0.107  13.277  0.3652 -0.0795 -0.2476
  855MPD2     H12611   3.168   4.492  13.149  2.2394 -0.6133  1.4635
  855MPD2    H112612   3.248   0.160  13.081 -1.2733  2.2132  1.4441
  855MPD2    H212613   3.179   0.039  13.469 -3.1993 -0.3078  0.2112
  855MPD2    H312614   3.248   0.204  13.317  1.5221 -0.1624 -0.8427
  855MPD2     N12615   3.224   4.664  12.956 -0.2664 -0.3861 -0.3127
  855MPD2    H512616   3.249   0.010  12.902 -1.4034 -1.3319 -2.2749
  855MPD2    N112617   3.135   4.512  13.402  0.0954 -0.4075 -0.1471
  855MPD2    H712618   3.113   4.428  13.350  2.8208  0.4216 -2.6162
  856MPD2     C12619   0.087   0.809  13.578  0.1840 -0.3590  0.1200
  856MPD2    C112620   0.122   0.943  13.576 -0.0939  0.0087 -0.2767
  856MPD2    C212621   0.023   1.039  13.568 -0.0517 -0.2990  0.1651
  856MPD2    C312622   4.623   1.002  13.562 -0.4754  0.4581 -0.6522
  856MPD2    C412623   4.595   0.868  13.545  0.1860 -0.0155  0.4281
  856MPD2    C512624   4.693   0.774  13.548  0.2100  0.1933  0.0458
  856MPD2     H12625   0.053   1.143  13.578  0.7224 -0.5095 -0.0291
  856MPD2    H112626   4.495   0.828  13.532  0.3038  0.0952 -0.8248
  856MPD2    H212627   0.158   0.728  13.569 -0.0575 -0.2071 -3.1167
  856MPD2    H312628   4.655   0.673  13.539 -0.3414  0.2211  2.2206
  856MPD2     N12629   4.520   1.100  13.569  0.5775 -0.2610 -0.4147
  856MPD2    H512630   4.424   1.071  13.553  0.1797  0.6157  0.3362
  856MPD2    N112631   0.255   0.994  13.592  0.2099  0.6207  0.4004
  856MPD2    H712632   0.253   1.095  13.608  0.2953  1.0143 -2.1162
  857MPD2     C12633   2.116   2.765  12.317  0.0185 -0.0375 -0.0699
  857MPD2    C112634   2.170   2.769  12.444  0.6078  0.0593 -0.2516
  857MPD2    C212635   2.207   2.888  12.505 -0.2096 -0.1282  0.1662
  857MPD2    C312636   2.196   3.009  12.433 -0.8858 -0.6681  0.3263
  857MPD2    C412637   2.155   3.004  12.305 -1.1857 -0.5582 -0.2401
  857MPD2    C512638   2.119   2.886  12.250 -0.4194 -0.5200 -0.0185
  857MPD2     H12639   2.251   2.875  12.603 -1.8207 -0.5208  0.8511
  857MPD2    H112640   2.159   3.086  12.234 -1.3285  0.3557  0.8148
  857MPD2    H212641   2.100   2.672  12.262 -1.7539  0.4764 -0.4253
  857MPD2    H312642   2.074   2.888  12.151  1.9539  0.1073 -1.0946
  857MPD2     N12643   2.240   3.130  12.486  0.8429  0.5566  0.3186
  857MPD2    H512644   2.302   3.123  12.566  0.3636  0.0754  0.6464
  857MPD2    N112645   2.183   2.643  12.509  0.4736 -0.1839  0.5329
  857MPD2    H712646   2.144   2.564  12.459  0.6431  0.3078 -0.3691
  858MPD2     C12647   2.903   2.133  16.591 -0.5045 -0.4481  0.2972
  858MPD2    C112648   2.813   2.030  16.606  0.6195  0.1697  0.2799
  858MPD2    C212649   2.777   1.997  16.734 -0.4657 -0.0186 -0.3222
  858MPD2    C312650   2.838   2.043  16.844 -0.2654  0.7176  0.4440
  858MPD2    C412651   2.929   2.148  16.825  0.3288  0.0936 -0.2103
  858MPD2    C512652   2.951   2.194  16.696  0.2218  0.1922 -0.0514
  858MPD2     H12653   2.700   1.920  16.745 -1.5468  0.6726 -3.0947
  858MPD2    H112654   2.971   2.192  16.915  1.9172 -2.7409  0.4381
  858MPD2    H212655   2.942   2.159  16.493  1.0201  1.5436  1.4323
  858MPD2    H312656   3.031   2.267  16.686  3.3070 -2.8169  2.5928
  858MPD2     N12657   2.812   2.002  16.980  0.3121  0.0360  0.4005
  858MPD2    H512658   2.850   2.056  17.057 -1.7260  0.2776  1.2442
  858MPD2    N112659   2.771   1.965  16.488  0.2563 -0.4219 -0.7400
  858MPD2    H712660   2.800   2.010  16.401  2.7999 -0.6222 -0.0156
  859MPD2     C12661   1.474   4.154  15.547  0.1994 -0.1747 -0.9518
  859MPD2    C112662   1.500   4.110  15.423 -0.5646  0.3916 -0.5872
  859MPD2    C212663   1.511   3.976  15.391  0.0349 -0.3039  0.0321
  859MPD2    C312664   1.497   3.879  15.488 -0.1042  0.1067  0.7819
  859MPD2    C412665   1.479   3.924  15.618 -0.0018 -0.0829 -0.7788
  859MPD2    C512666   1.467   4.053  15.644 -0.0148  0.0921 -0.3282
  859MPD2     H12667   1.535   3.944  15.290 -1.0922  0.3163 -0.4346
  859MPD2    H112668   1.467   3.854  15.700  1.1344  3.1454  2.1638
  859MPD2    H212669   1.461   4.258  15.575 -2.8371 -0.4234 -1.3866
  859MPD2    H312670   1.451   4.073  15.749  1.7450 -1.5735  0.2603
  859MPD2     N12671   1.516   3.738  15.472 -0.1256 -0.5113 -0.2207
  859MPD2    H512672   1.522   3.692  15.562  1.5178 -0.2595 -0.2146
  859MPD2    N112673   1.523   4.202  15.317  0.4321 -0.2436  0.6212
  859MPD2    H712674   1.535   4.298  15.351 -0.2872  0.2063 -0.4119
  860MPD2     C12675   3.776   4.005  11.541 -0.0504  0.2155 -0.1835
  860MPD2    C112676   3.749   3.960  11.668  0.1875  0.7102 -0.2360
  860MPD2    C212677   3.614   3.951  11.711  0.1304  0.5549  0.6715
  860MPD2    C312678   3.514   3.950  11.611 -0.9924 -0.1175 -0.5832
  860MPD2    C412679   3.544   3.978  11.476 -0.2922 -0.0987 -0.2181
  860MPD2    C512680   3.675   4.011  11.443 -0.7501  0.8320 -0.0557
  860MPD2     H12681   3.587   3.940  11.816  2.5476 -1.8659  1.0167
  860MPD2    H112682   3.475   3.977  11.392 -0.3715 -1.3051 -0.1322
  860MPD2    H212683   3.879   4.027  11.513 -0.0420  2.3534  1.5847
  860MPD2    H312684   3.691   4.025  11.337 -1.0306 -0.6591 -0.2981
  860MPD2     N12685   3.380   3.939  11.655 -0.8713 -0.7852  0.7263
  860MPD2    H512686   3.366   3.924  11.754 -2.8164  1.6090  0.8197
  860MPD2    N112687   3.843   3.968  11.773  0.7277 -0.6199  0.2298
  860MPD2    H712688   3.800   3.983  11.864 -1.8485  0.9296 -1.2422
  861MPD2     C12689   2.608   2.383  10.708 -0.1446  0.1583  0.1389
  861MPD2    C112690   2.656   2.511  10.718 -1.1556 -0.9904  0.4047
  861MPD2    C212691   2.622   2.597  10.612  0.6283  0.7641 -0.7611
  861MPD2    C312692   2.538   2.557  10.505 -0.2169 -0.2333  0.1148
  861MPD2    C412693   2.492   2.429  10.502  0.0709  0.1917 -0.5661
  861MPD2    C512694   2.534   2.346  10.605 -0.5942  0.3040 -0.5410
  861MPD2     H12695   2.642   2.702  10.630  3.3039 -0.1032  1.1979
  861MPD2    H112696   2.431   2.382  10.425 -0.4494 -0.8912  0.5009
  861MPD2    H212697   2.621   2.308  10.785 -3.1375 -0.0598  0.4124
  861MPD2    H312698   2.518   2.239  10.599 -2.9788  0.5511  1.4598
  861MPD2     N12699   2.479   2.645  10.411  0.6052  0.4977 -0.2977
  861MPD2    H512700   2.433   2.600  10.332  0.2372 -1.1280  0.8686
  861MPD2    N112701   2.726   2.557  10.828 -0.5034  0.5171  0.1391
  861MPD2    H712702   2.758   2.652  10.810 -2.7863  0.8359 -2.2933
  862MPD2     C12703   1.998   2.442   9.995  0.0986 -0.2283 -0.5410
  862MPD2    C112704   2.108   2.452  10.080  0.2789 -0.0636 -0.6477
  862MPD2    C212705   2.143   2.339  10.151  0.8772 -0.5967  0.0132
  862MPD2    C312706   2.062   2.235  10.159 -0.3813 -0.4461  0.3926
  862MPD2    C412707   1.954   2.227  10.072 -0.2760  0.2486  0.0362
  862MPD2    C512708   1.927   2.329   9.988 -0.8823  0.0100 -0.1143
  862MPD2     H12709   2.227   2.345  10.219  0.3086  0.8445  0.5995
  862MPD2    H112710   1.883   2.146  10.083 -1.6538  1.5849  0.9037
  862MPD2    H212711   1.959   2.525   9.939  1.1040  0.2512 -0.5365
  862MPD2    H312712   1.833   2.326   9.935 -1.2552 -0.9922  0.6094
  862MPD2     N12713   2.074   2.129  10.246  0.6217  0.1432  0.8820
  862MPD2    H512714   1.994   2.067  10.255 -0.8027  1.8052 -0.6743
  862MPD2    N112715   2.172   2.571  10.111  0.1766  0.1787 -0.0402
  862MPD2    H712716   2.259   2.562  10.163  1.0101  1.9029 -1.1225
  863MPD2     C12717   1.027   0.330  16.715 -0.2194 -0.7016  0.0521
  863MPD2    C112718   1.046   0.468  16.748 -0.3451  0.3265 -0.4836
  863MPD2    C212719   1.166   0.509  16.808 -0.1681 -0.1188  0.8730
  863MPD2    C312720   1.271   0.417  16.836 -0.2042 -0.2778  0.4056
  863MPD2    C412721   1.247   0.284  16.797  0.1166  0.2743 -0.3969
  863MPD2    C512722   1.134   0.243  16.739 -0.3386 -0.4712 -0.2290
  863MPD2     H12723   1.178   0.612  16.841 -0.9843 -0.1114  1.1520
  863MPD2    H112724   1.309   0.199  16.823  4.3998  3.2703 -0.9632
  863MPD2    H212725   0.944   0.288  16.660 -1.3703 -0.4440  1.6066
  863MPD2    H312726   1.125   0.138  16.717 -2.9664 -0.1324 -0.7658
  863MPD2     N12727   1.391   0.456  16.910  0.1685 -0.6167  0.7705
  863MPD2    H512728   1.457   0.380  16.920 -0.2229 -1.0318  0.1191
  863MPD2    N112729   0.936   0.548  16.722  0.3170  0.2640  0.5998
  863MPD2    H712730   0.850   0.507  16.686  0.6274  0.4511 -0.3568
  864MPD2     C12731   1.375   1.960  17.141 -0.6307 -0.5630 -0.3354
  864MPD2    C112732   1.445   1.916  17.026 -0.5079  0.5271  0.8179
  864MPD2    C212733   1.521   2.011  16.958  0.0219 -0.5695 -0.1676
  864MPD2    C312734   1.516   2.145  16.993 -0.0626 -0.3219 -0.2189
  864MPD2    C412735   1.436   2.189  17.094 -0.3073  0.2125 -0.0624
  864MPD2    C512736   1.365   2.094  17.163 -0.5498  0.2801 -0.2102
  864MPD2     H12737   1.587   1.978  16.878  1.8297 -0.7057  1.3820
  864MPD2    H112738   1.432   2.293  17.122  1.7382  0.7767 -1.8818
  864MPD2    H212739   1.314   1.887  17.193  0.5574 -1.5894 -0.3905
  864MPD2    H312740   1.307   2.125  17.249 -2.1061 -4.0999  0.2995
  864MPD2     N12741   1.607   2.245  16.937 -0.3376  0.1474  0.3072
  864MPD2    H512742   1.596   2.341  16.967  0.4934  0.4208 -0.2852
  864MPD2    N112743   1.433   1.777  16.994 -0.4116  0.2224 -0.3142
  864MPD2    H712744   1.390   1.714  17.061  0.0578 -0.1573 -0.3656
  865MPD2     C12745   1.527   2.558  16.110  0.0244  0.0187  0.2005
  865MPD2    C112746   1.512   2.438  16.171  0.0495 -0.1425  0.2119
  865MPD2    C212747   1.533   2.431  16.305 -0.0882 -0.0822  0.0361
  865MPD2    C312748   1.572   2.541  16.376  0.1016 -0.3892  0.5833
  865MPD2    C412749   1.579   2.667  16.319  0.5093  0.1190  0.0792
  865MPD2    C512750   1.572   2.667  16.180 -0.8043  0.0381  0.1645
  865MPD2     H12751   1.510   2.335  16.349  0.2562 -0.2390 -0.1303
  865MPD2    H112752   1.612   2.759  16.367 -2.1263  0.4745  1.1999
  865MPD2    H212753   1.516   2.567  16.002 -0.8307  2.4927  0.4917
  865MPD2    H312754   1.585   2.760  16.125  2.8388 -0.8060 -0.4243
  865MPD2     N12755   1.607   2.528  16.512  0.7300 -0.9462  0.0878
  865MPD2    H512756   1.604   2.430  16.540  2.3163 -1.3087 -1.0173
  865MPD2    N112757   1.482   2.325  16.090  0.0691 -0.1080 -0.2615
  865MPD2    H712758   1.456   2.348  15.995 -1.5037 -0.2509  0.1417
  866MPD2     C12759   3.317   2.951  10.907 -0.3457 -0.2172 -0.5719
  866MPD2    C112760   3.230   2.853  10.873 -0.0066 -0.2042 -0.0780
  866MPD2    C212761   3.093   2.880  10.847  0.2062 -0.0268  0.3961
  866MPD2    C312762   3.043   3.009  10.842  0.0509  0.0221  0.2669
  866MPD2    C412763   3.138   3.111  10.876 -0.1411  0.5619  0.1409
  866MPD2    C512764   3.273   3.077  10.907 -0.0761 -0.5484  0.3989
  866MPD2     H12765   3.022   2.803  10.821  1.2672 -1.2653  1.1568
  866MPD2    H112766   3.114   3.216  10.861  1.2165  1.1665  2.1291
  866MPD2    H212767   3.420   2.925  10.931 -0.3256  0.5279  0.1478
  866MPD2    H312768   3.338   3.161  10.929  0.2583 -0.9994  1.1271
  866MPD2     N12769   2.906   3.040  10.818 -0.4655 -1.0805  0.1785
  866MPD2    H512770   2.878   3.136  10.832 -2.0265 -1.5750  0.4303
  866MPD2    N112771   3.284   2.722  10.881 -0.2266  0.2124 -0.2243
  866MPD2    H712772   3.384   2.715  10.898 -0.3574 -0.3554  0.2719
  867MPD2     C12773   0.185   2.150  16.723  0.9011  0.2633  0.3135
  867MPD2    C112774   0.211   2.035  16.792 -0.6336 -0.3215 -0.3490
  867MPD2    C212775   0.177   2.013  16.922  0.5146  0.0132  0.1747
  867MPD2    C312776   0.104   2.113  16.988 -0.3330  0.1792  0.0085
  867MPD2    C412777   0.068   2.223  16.918 -0.3173 -0.4134  0.4740
  867MPD2    C512778   0.108   2.239  16.792  0.1292  0.9614 -0.7055
  867MPD2     H12779   0.212   1.931  16.984  1.5765 -0.3323 -0.8949
  867MPD2    H112780   0.002   2.296  16.963 -2.3470 -2.0390  0.1608
  867MPD2    H212781   0.220   2.169  16.622  0.4839  1.3146  0.3608
  867MPD2    H312782   0.075   2.331  16.746 -2.5669 -0.4628 -1.6203
  867MPD2     N12783   0.070   2.111  17.128  0.2321 -0.3373 -0.8891
  867MPD2    H512784   0.017   2.190  17.163  1.6141 -0.7850  2.2503
  867MPD2    N112785   0.297   1.939  16.733  0.0559  0.1546  0.0989
  867MPD2    H712786   0.301   1.948  16.632 -0.2570  0.8487  0.1490
  868MPD2     C12787   2.087   1.354  12.991  0.2877  0.8283  0.8547
  868MPD2    C112788   2.154   1.448  13.069 -1.0175  0.5288  0.0562
  868MPD2    C212789   2.081   1.542  13.148 -0.4670 -0.5255 -0.3872
  868MPD2    C312790   1.942   1.542  13.145 -0.1204  0.8815 -0.5250
  868MPD2    C412791   1.888   1.460  13.055  0.0270 -0.4253  0.0211
  868MPD2    C512792   1.948   1.368  12.972  0.5772  0.1159 -0.5157
  868MPD2     H12793   2.129   1.614  13.213  0.8661 -0.6155 -1.2803
  868MPD2    H112794   1.781   1.456  13.036  0.1825  0.9704 -1.1681
  868MPD2    H212795   2.150   1.288  12.932 -1.1102 -0.8506  1.2317
  868MPD2    H312796   1.883   1.310  12.907 -1.8445  1.6160  0.5716
  868MPD2     N12797   1.878   1.625  13.237 -0.4422  0.3010 -0.9821
  868MPD2    H512798   1.929   1.692  13.295 -0.4805  0.3472 -1.0014
  868MPD2    N112799   2.292   1.428  13.066 -0.2080 -0.2313  0.4173
  868MPD2    H712800   2.331   1.351  13.014  1.9176  1.1015  0.0179
  869MPD2     C12801   2.767   3.977   0.964 -0.3045 -0.0529 -0.3397
  869MPD2    C112802   2.802   4.085   1.049 -0.3531  0.3521 -0.9699
  869MPD2    C212803   2.900   4.178   1.005  0.4356  0.4725  0.6502
  869MPD2    C312804   2.975   4.149   0.895  0.2589 -0.5280  0.2510
  869MPD2    C412805   2.942   4.040   0.821 -0.8533 -0.2662 -0.2506
  869MPD2    C512806   2.842   3.950   0.852  0.7236 -0.5350 -0.8422
  869MPD2     H12807   2.935   4.245   1.083  0.5551 -0.9597  1.8367
  869MPD2    H112808   2.998   4.018   0.731 -2.3556  0.9658 -1.4710
  869MPD2    H212809   2.678   3.921   0.991 -0.3103 -0.2015 -0.6620
  869MPD2    H312810   2.820   3.872   0.779  1.0711 -0.7455 -0.7253
  869MPD2     N12811   3.089   4.228   0.864  0.3292 -0.1789  0.3147
  869MPD2    H512812   3.144   4.212   0.780  1.7134 -0.0251  1.1874
  869MPD2    N112813   2.720   4.101   1.170 -0.0704 -0.1239 -0.4732
  869MPD2    H712814   2.664   4.022   1.200 -0.7866 -0.1193 -1.7823
  870MPD2     C12815   1.993   2.858   1.076 -0.3598  0.5831 -0.0592
  870MPD2    C112816   2.094   2.795   1.005 -0.8113 -0.4155 -0.3567
  870MPD2    C212817   2.061   2.758   0.869  0.1368  0.0064 -0.0978
  870MPD2    C312818   1.937   2.782   0.824 -0.2360 -0.6218 -0.1126
  870MPD2    C412819   1.838   2.834   0.902  0.2778  1.0911 -0.2009
  870MPD2    C512820   1.869   2.885   1.024  0.3363 -0.3882 -0.5717
  870MPD2     H12821   2.138   2.727   0.799  0.8757  0.6611  0.4197
  870MPD2    H112822   1.732   2.842   0.878  0.0288 -0.3538  0.4190
  870MPD2    H212823   2.013   2.888   1.178  1.6920  2.0001 -0.8813
  870MPD2    H312824   1.791   2.930   1.084  1.3956  1.7175 -0.7827
  870MPD2     N12825   1.923   2.758   0.693  0.2219  0.6526 -0.3964
  870MPD2    H512826   2.001   2.710   0.649  0.5351  2.1874 -1.5160
  870MPD2    N112827   2.226   2.807   1.051  0.0433  1.1672 -0.3392
  870MPD2    H712828   2.235   2.858   1.139  1.4330  1.1780 -0.5015
  871MPD2     C12829   4.427   2.639  16.525  0.0959 -0.4858  0.1590
  871MPD2    C112830   4.412   2.617  16.658 -0.1454 -0.5252  0.4202
  871MPD2    C212831   4.446   2.496  16.715 -0.0294 -0.2788 -0.0483
  871MPD2    C312832   4.501   2.398  16.641  0.0722 -0.4374  0.3182
  871MPD2    C412833   4.516   2.424  16.503 -0.0261 -0.0053 -0.5073
  871MPD2    C512834   4.479   2.543  16.446  0.1410 -0.7309 -0.5543
  871MPD2     H12835   4.415   2.483  16.818  0.1757 -2.0256 -0.1927
  871MPD2    H112836   4.567   2.358  16.434  2.5204  0.2661  1.1204
  871MPD2    H212837   4.385   2.726  16.477 -1.8956 -2.2923 -1.3725
  871MPD2    H312838   4.492   2.552  16.339 -1.8856 -0.5673 -0.7903
  871MPD2     N12839   4.534   2.277  16.702 -0.3606  0.0417 -0.0902
  871MPD2    H512840   4.509   2.256  16.798 -1.2833  1.3750 -0.0550
  871MPD2    N112841   4.354   2.730  16.732  0.1060  0.6756 -0.2489
  871MPD2    H712842   4.340   2.813  16.676  0.5650 -0.2652 -1.7691
  872MPD2     C12843   0.304   4.627  13.698 -0.1625  0.4658  0.6787
  872MPD2    C112844   0.301   0.013  13.751 -0.3029  0.6966 -0.3705
  872MPD2    C212845   0.193   0.055  13.824  0.4841 -0.4731  0.1657
  872MPD2    C312846   0.098   4.702  13.858  0.8422  0.4626 -0.5746
  872MPD2    C412847   0.090   4.577  13.797 -0.1752  0.7794  0.1839
  872MPD2    C512848   0.197   4.540  13.717  0.7226  1.0883  0.4942
  872MPD2     H12849   0.195   0.154  13.867  0.5796  0.6028 -2.2883
  872MPD2    H112850   0.015   4.504  13.824 -0.6680  0.8933 -0.9259
  872MPD2    H212851   0.389   4.586  13.644 -1.2811 -1.4715  0.3760
  872MPD2    H312852   0.206   4.440  13.677 -1.3382  0.0928  2.4435
  872MPD2     N12853   4.731   4.731  13.952 -0.1951 -0.0739  0.2950
  872MPD2    H512854   4.661   4.660  13.971 -0.9039 -0.2486 -2.8596
  872MPD2    N112855   0.408   0.104  13.749 -0.3920 -0.2135 -0.3103
  872MPD2    H712856   0.388   0.202  13.766 -0.5389 -0.5400  1.4171
  873MPD2     C12857   2.294   4.667   0.364  0.2170 -0.1685 -0.1002
  873MPD2    C112858   2.278   4.672   0.502  0.0686 -0.8052  0.2365
  873MPD2    C212859   2.351   4.581   0.578  0.1801  0.0638  0.4003
  873MPD2    C312860   2.398   4.468   0.515  0.8962  0.3975 -0.4043
  873MPD2    C412861   2.409   4.463   0.381 -0.4563 -0.1281 -0.0097
  873MPD2    C512862   2.354   4.559   0.305  0.1723 -0.0474  0.3227
  873MPD2     H12863   2.339   4.600   0.684 -2.7183  0.1173  0.0657
  873MPD2    H112864   2.426   4.368   0.331 -3.1521 -0.3512 -0.4921
  873MPD2    H212865   2.254   0.006   0.297 -1.3280 -0.3730  0.5977
  873MPD2    H312866   2.363   4.550   0.197 -1.9597 -5.6912  0.6324
  873MPD2     N12867   2.440   4.354   0.579 -0.1267 -0.1913 -0.6692
  873MPD2    H512868   2.485   4.279   0.527  0.0179  0.6223 -1.7333
  873MPD2    N112869   2.192   0.036   0.561 -0.4618  0.1853  0.1042
  873MPD2    H712870   2.143   0.104   0.503 -0.6808 -1.6045 -1.8244
  874MPD2     C12871   1.424   0.212  15.986  0.0465  1.1484  1.1660
  874MPD2    C112872   1.519   0.171  16.078 -0.1166 -0.2452 -1.0939
  874MPD2    C212873   1.610   0.262  16.119  0.3471 -0.1922 -0.0895
  874MPD2    C312874   1.612   0.394  16.078  0.6825 -0.1893  0.6733
  874MPD2    C412875   1.518   0.430  15.981  0.4658 -0.2117 -0.1519
  874MPD2    C512876   1.428   0.333  15.935  0.4031 -0.1227  0.4616
  874MPD2     H12877   1.669   0.233  16.206 -1.1465  1.1565  1.3940
  874MPD2    H112878   1.508   0.531  15.940  0.5724 -0.1078  0.0807
  874MPD2    H212879   1.350   0.140  15.955  0.5900  0.5860  1.1681
  874MPD2    H312880   1.351   0.369  15.866  0.6372  1.0088  0.7794
  874MPD2     N12881   1.699   0.485  16.134 -0.5192  0.1859  0.0412
  874MPD2    H512882   1.780   0.457  16.190 -1.4250 -2.2583  0.1445
  874MPD2    N112883   1.521   0.035  16.118  0.3954  0.1603  0.1661
  874MPD2    H712884   1.456   4.717  16.062  0.2341 -0.4560  0.9615
  875MPD2     C12885   2.682   3.118  14.246  0.1330 -0.5118  0.8762
  875MPD2    C112886   2.540   3.146  14.253 -0.5019 -0.3028  0.6275
  875MPD2    C212887   2.493   3.184  14.383 -0.5105  0.0487  0.7336
  875MPD2    C312888   2.577   3.206  14.482  0.6204  0.3537  0.3391
  875MPD2    C412889   2.709   3.187  14.477 -0.3671  0.0130 -0.2644
  875MPD2    C512890   2.754   3.134  14.360 -0.2722 -0.0106 -0.1795
  875MPD2     H12891   2.386   3.199  14.386 -0.6199 -0.6084  0.2198
  875MPD2    H112892   2.771   3.196  14.566 -1.7815 -2.1313  0.9507
  875MPD2    H212893   2.738   3.078  14.162 -0.6337 -0.9562  0.5813
  875MPD2    H312894   2.862   3.137  14.357 -0.3710  1.5687 -2.4493
  875MPD2     N12895   2.535   3.239  14.612 -0.1128 -0.1036 -0.0885
  875MPD2    H512896   2.608   3.246  14.681 -0.3946  3.4782 -0.1851
  875MPD2    N112897   2.451   3.130  14.145 -0.1220 -0.4195  0.0998
  875MPD2    H712898   2.353   3.150  14.160  0.2173  1.8561 -0.6747
  876MPD2     C12899   1.312   4.530  15.865  0.1330  0.4367  0.2006
  876MPD2    C112900   1.447   4.553  15.845 -0.2500 -0.1534  0.5888
  876MPD2    C212901   1.534   4.457  15.897 -0.1518 -0.0104 -0.1495
  876MPD2    C312902   1.488   4.346  15.959  0.8528 -0.3087  0.9990
  876MPD2    C412903   1.352   4.335  15.993  0.0684  0.3204 -0.3909
  876MPD2    C512904   1.263   4.419  15.934 -0.1540 -0.6372  0.0246
  876MPD2     H12905   1.641   4.472  15.885  0.0398 -1.0110  0.3223
  876MPD2    H112906   1.308   4.255  16.052  0.3232  0.7388  0.3601
  876MPD2    H212907   1.235   4.597  15.827  0.0359  1.0415  1.4628
  876MPD2    H312908   1.156   4.400  15.938 -0.6595  2.5150  2.3641
  876MPD2     N12909   1.580   4.240  15.996 -0.2538 -0.5538 -0.0682
  876MPD2    H512910   1.667   4.232  15.944  0.3691  0.2124  0.8556
  876MPD2    N112911   1.490   4.664  15.770 -0.0072 -0.0910 -0.8914
  876MPD2    H712912   1.421   4.731  15.736 -1.3268  0.1984  2.4440
  877MPD2     C12913   1.422   0.056  14.994  0.0084 -0.5914 -0.2270
  877MPD2    C112914   1.529   0.128  15.036  1.0215  0.1039 -0.4161
  877MPD2    C212915   1.608   0.185  14.941  0.3695  0.7681  0.6316
  877MPD2    C312916   1.590   0.162  14.805  0.3201 -0.3106  0.2220
  877MPD2    C412917   1.481   0.087  14.771 -0.1268 -0.2520 -0.3133
  877MPD2    C512918   1.398   0.039  14.862 -0.3653  0.5665 -0.8548
  877MPD2     H12919   1.692   0.244  14.975 -0.6678  3.9537 -2.2338
  877MPD2    H112920   1.459   0.056  14.670  1.4373  1.2004 -1.0995
  877MPD2    H212921   1.349   0.014  15.063 -0.0805 -0.3823 -0.1939
  877MPD2    H312922   1.315   4.710  14.837  1.8372 -2.0184 -1.4273
  877MPD2     N12923   1.685   0.198  14.704 -0.1447  0.2959  1.1034
  877MPD2    H512924   1.661   0.172  14.609  3.3374  0.6680  0.1228
  877MPD2    N112925   1.552   0.158  15.173 -0.0572 -0.4824 -0.7683
  877MPD2    H712926   1.625   0.227  15.190 -0.0882 -0.5777 -0.2647
  878MPD2     C12927   1.952   3.871  12.696  0.6680  0.8325  0.2698
  878MPD2    C112928   1.872   3.981  12.727  0.0058  0.1230 -0.2177
  878MPD2    C212929   1.852   4.015  12.858  0.3972 -0.0504  0.1088
  878MPD2    C312930   1.908   3.937  12.956 -0.0861  0.0507  0.1149
  878MPD2    C412931   1.963   3.816  12.928  0.2858 -0.4176  0.4497
  878MPD2    C512932   1.999   3.794  12.800  0.2635 -0.3612 -0.0353
  878MPD2     H12933   1.809   4.109  12.891  0.7010 -0.2996  1.2308
  878MPD2    H112934   2.008   3.752  13.003 -2.1394 -1.1683  1.2521
  878MPD2    H212935   1.969   3.843  12.593  0.3312  1.1478  0.1284
  878MPD2    H312936   2.066   3.710  12.782  0.3121  0.1246 -2.1751
  878MPD2     N12937   1.884   3.984  13.086  0.3490  0.3037  0.5184
  878MPD2    H512938   1.856   4.082  13.091 -1.5540 -0.1716 -1.0359
  878MPD2    N112939   1.818   4.052  12.616  0.0985  0.2642 -0.2083
  878MPD2    H712940   1.845   4.018  12.525  2.9888  1.3192  0.2542
  879MPD2     C12941   1.655   0.941  16.634  0.1828 -0.6327 -0.0127
  879MPD2    C112942   1.696   0.834  16.717 -0.0688 -0.2168  0.8862
  879MPD2    C212943   1.666   0.704  16.687 -0.2631 -0.1215  0.2556
  879MPD2    C312944   1.578   0.679  16.583 -0.6264 -0.2644  0.0639
  879MPD2    C412945   1.526   0.783  16.513  0.0223  0.1222 -0.4412
  879MPD2    C512946   1.574   0.911  16.527  0.3683  0.0186 -0.0040
  879MPD2     H12947   1.704   0.624  16.748  1.9613  0.2547 -0.6493
  879MPD2    H112948   1.466   0.768  16.423  0.3170  1.9619 -0.9553
  879MPD2    H212949   1.694   1.042  16.639 -1.2595  0.0278 -2.3053
  879MPD2    H312950   1.531   0.990  16.467  0.9306 -0.0197 -0.4632
  879MPD2     N12951   1.525   0.555  16.557 -0.0325  0.3928 -0.3182
  879MPD2    H512952   1.450   0.564  16.489 -1.6763 -2.1172  1.1705
  879MPD2    N112953   1.792   0.868  16.820 -0.0285  0.8053  0.2464
  879MPD2    H712954   1.793   0.968  16.838  2.7827  0.3721  2.5397
  880MPD2     C12955   2.934   2.173   0.343 -0.5441  0.8919  0.1289
  880MPD2    C112956   3.017   2.274   0.298 -0.5147 -0.3697 -0.3612
  880MPD2    C212957   3.146   2.241   0.272  0.0044  0.0942  0.2472
  880MPD2    C312958   3.201   2.121   0.308  0.2774 -0.1189 -0.3476
  880MPD2    C412959   3.117   2.030   0.372 -0.9206  0.3808  0.2827
  880MPD2    C512960   2.983   2.055   0.377  0.2498 -0.2300 -0.3662
  880MPD2     H12961   3.212   2.307   0.217 -0.1736  0.6207  0.6646
  880MPD2    H112962   3.146   1.929   0.400  0.2163  0.0935 -1.8831
  880MPD2    H212963   2.829   2.191   0.363 -1.6247 -1.8043 -3.2547
  880MPD2    H312964   2.910   1.988   0.421 -1.1487  0.7007 -1.2534
  880MPD2     N12965   3.340   2.118   0.298 -0.4512 -0.1410  0.2633
  880MPD2    H512966   3.383   2.201   0.258 -1.6782 -1.3193 -3.5055
  880MPD2    N112967   2.960   2.401   0.276  0.4162 -0.1376  0.1273
  880MPD2    H712968   2.859   2.405   0.285  0.1734 -0.6083 -2.3786
  881MPD2     C12969   2.904   3.339  17.454 -0.2075 -0.2622  0.1486
  881MPD2    C112970   3.014   3.257  17.483  0.4870 -0.3903 -1.0006
  881MPD2    C212971   2.992   3.147  17.570  0.4732 -0.3641 -0.0912
  881MPD2    C312972   2.878   3.135  17.641 -0.3556 -0.7181  0.1439
  881MPD2    C412973   2.780   3.235  17.623  0.1240 -0.2672  0.4108
  881MPD2    C512974   2.798   3.334  17.536  0.3109  0.1955 -0.2808
  881MPD2     H12975   3.074   3.078  17.587 -0.1465 -0.3489  3.0094
  881MPD2    H112976   2.685   3.243  17.674 -1.2416 -0.7887 -2.0393
  881MPD2    H212977   2.916   3.410  17.373  1.3342 -1.4858 -0.6944
  881MPD2    H312978   2.717   3.406  17.523 -0.6181 -0.4573  1.9725
  881MPD2     N12979   2.849   3.023  17.725  0.5411 -0.3329  0.3878
  881MPD2    H512980   2.755   3.026   0.021  0.2540  0.2254 -0.3590
  881MPD2    N112981   3.128   3.262  17.394 -0.2459 -0.1460  0.1085
  881MPD2    H712982   3.119   3.323  17.314 -0.2286  0.8255  0.8419
  882MPD2     C12983   2.034   0.209  13.985  0.2648 -0.1365 -0.3325
  882MPD2    C112984   1.925   0.249  14.057 -0.7636  0.1137  0.0183
  882MPD2    C212985   1.803   0.199  14.024  0.4331 -0.2184  0.1333
  882MPD2    C312986   1.791   0.101  13.928 -0.4089 -0.3481  0.1857
  882MPD2    C412987   1.904   0.055  13.861  0.1536  0.3007 -0.3879
  882MPD2    C512988   2.024   0.106  13.892 -0.3426  0.2672 -0.4448
  882MPD2     H12989   1.717   0.247  14.069 -0.1264 -0.5942 -0.5252
  882MPD2    H112990   1.898   4.702  13.800 -1.9312  1.7621 -2.3263
  882MPD2    H212991   2.131   0.242  14.019 -0.1709  0.1043  0.6956
  882MPD2    H312992   2.113   0.060  13.851  1.4663  1.5973  1.9714
  882MPD2     N12993   1.665   0.045  13.901  0.9504  0.2692  0.2413
  882MPD2    H512994   1.664   4.697  13.844  0.3050  0.1838  0.3800
  882MPD2    N112995   1.941   0.325  14.170 -0.0812  0.2992  0.1132
  882MPD2    H712996   2.030   0.373  14.163  0.8948 -1.6841 -1.0598
  883MPD2     C12997   2.952   4.722  15.579  0.5905 -0.5112 -0.5842
  883MPD2    C112998   3.066   4.726  15.497 -0.2726 -0.2395  0.7305
  883MPD2    C212999   3.186   0.045  15.549  0.5570  0.4297  0.5898
  883MPD2    C313000   3.186   0.103  15.671 -0.5307 -0.1361 -0.2861
  883MPD2    C413001   3.070   0.115  15.746  0.6147  0.3062 -0.2677
  883MPD2    C513002   2.961   0.048  15.701 -0.7495  0.0139  0.2180
  883MPD2     H13003   3.273   0.051  15.486 -0.7562  0.0737 -1.2477
  883MPD2    H113004   3.052   0.160  15.843  0.9917 -1.4045  0.5963
  883MPD2    H213005   2.861   4.681  15.537  0.3662 -0.9622  0.3451
  883MPD2    H313006   2.875   0.056  15.767  0.2678  1.4084  1.3587
  883MPD2     N13007   3.308   0.154  15.719 -0.0910  0.3700  0.2877
  883MPD2    H513008   3.392   0.132  15.666  0.4761  0.2281  1.2575
  883MPD2    N113009   3.079   4.666  15.373  0.2796 -0.3152  0.3017
  883MPD2    H713010   3.174   4.643  15.348 -0.2162 -1.4500 -0.5160
  884MPD2     C13011   1.039   0.728  15.042 -0.3932  0.4392 -0.2783
  884MPD2    C113012   1.028   0.859  15.007  0.2107  0.5278 -0.0067
  884MPD2    C213013   0.901   0.910  14.979  0.1769  0.6868  0.9965
  884MPD2    C313014   0.787   0.839  15.003 -0.4953 -0.7179  0.0297
  884MPD2    C413015   0.799   0.707  15.045 -0.3931  0.3014 -0.2332
  884MPD2    C513016   0.925   0.649  15.055  0.2586 -0.2268 -1.1763
  884MPD2     H13017   0.890   1.010  14.938  1.0844  0.7353  0.8717
  884MPD2    H113018   0.710   0.651  15.069  1.3979 -2.0331  0.9394
  884MPD2    H213019   1.128   0.669  15.061 -1.7329 -1.8186 -0.9388
  884MPD2    H313020   0.932   0.547  15.090  0.1515  1.1250  2.8636
  884MPD2     N13021   0.660   0.901  14.977  0.1387  0.1890 -0.3494
  884MPD2    H513022   0.655   0.993  14.934 -2.3870  0.9637  1.5908
  884MPD2    N113023   1.131   0.951  14.970 -0.0936  0.4362 -0.6257
  884MPD2    H713024   1.109   1.042  14.930 -1.8479 -0.4638 -1.6796
  885MPD2     C13025   3.979   0.830   0.281 -0.5731  0.0766 -0.0083
  885MPD2    C113026   4.047   0.948   0.296  0.1918  0.1464 -0.0487
  885MPD2    C213027   4.058   1.030   0.190  0.2152 -0.6380  0.0084
  885MPD2    C313028   4.013   1.000   0.064 -0.6546  0.5554  0.6116
  885MPD2    C413029   3.937   0.885   0.056 -0.4106  0.0420 -0.3458
  885MPD2    C513030   3.930   0.800   0.161 -0.2622  0.7066  1.0316
  885MPD2     H13031   4.114   1.122   0.204 -0.8903 -0.0296  0.4870
  885MPD2    H113032   3.900   0.853  17.702  0.2390  1.3376 -1.0191
  885MPD2    H213033   3.958   0.763   0.364 -1.3292  1.5564  0.9983
  885MPD2    H313034   3.858   0.720   0.150 -2.2911  2.7585 -0.5721
  885MPD2     N13035   4.027   1.096  17.711 -0.5613  0.2676 -0.4995
  885MPD2    H513036   4.070   1.181   0.003  0.2612  0.1962 -1.3425
  885MPD2    N113037   4.097   0.971   0.423  0.2203  0.1706 -0.5025
  885MPD2    H713038   4.080   0.908   0.500 -1.1113  1.3078  0.1334
  886MPD2     C13039   0.243   3.977  14.855 -0.5135 -0.3736  0.3972
  886MPD2    C113040   0.367   3.997  14.908 -0.0380  0.3204 -0.0206
  886MPD2    C213041   0.432   4.109  14.869 -0.6521  0.2872 -0.0795
  886MPD2    C313042   0.386   4.193  14.770 -0.4229 -0.2480 -0.4414
  886MPD2    C413043   0.258   4.174  14.724  0.4283  0.4636 -0.1527
  886MPD2    C513044   0.191   4.061  14.758 -0.4221 -0.0743 -0.1717
  886MPD2     H13045   0.535   4.117  14.902 -0.2391  0.0540 -1.3106
  886MPD2    H113046   0.209   4.236  14.650 -2.1160  1.1683  2.1132
  886MPD2    H213047   0.196   3.882  14.877  1.6304 -1.4178  0.5576
  886MPD2    H313048   0.105   4.028  14.700 -0.2126 -1.1027  0.0958
  886MPD2     N13049   0.471   4.299  14.728  0.1597 -0.7894  0.1751
  886MPD2    H513050   0.556   4.310  14.784  0.1926 -1.1963  0.2039
  886MPD2    N113051   0.432   3.908  14.996 -0.1885  0.2147  0.2277
  886MPD2    H713052   0.528   3.928  15.020 -0.0632 -1.6078  1.1862
  887MPD2     C13053   1.085   3.980  15.275 -0.2911  0.5480  0.3547
  887MPD2    C113054   0.971   4.007  15.343  0.1559 -0.1885 -0.6814
  887MPD2    C213055   0.962   4.125  15.419  1.0180  0.1343 -0.1269
  887MPD2    C313056   1.064   4.221  15.417 -0.7294  0.3942  0.0097
  887MPD2    C413057   1.175   4.191  15.336 -0.3383  0.3724 -0.0925
  887MPD2    C513058   1.181   4.073  15.268 -0.2423  0.2077  0.2385
  887MPD2     H13059   0.871   4.141  15.478  0.3227  0.9238 -1.4156
  887MPD2    H113060   1.260   4.256  15.319 -0.4715  0.0094 -2.0780
  887MPD2    H213061   1.099   3.892  15.212 -1.4902  0.1809  0.6126
  887MPD2    H313062   1.275   4.067  15.215 -1.9313  0.6882 -2.7632
  887MPD2     N13063   1.054   4.338  15.494  0.2163 -0.4675  0.5102
  887MPD2    H513064   0.968   4.354  15.546  0.8915 -1.0006  1.8132
  887MPD2    N113065   0.859   3.925  15.342 -0.0003  0.4683  0.1142
  887MPD2    H713066   0.789   3.942  15.413 -1.7762 -3.2085 -0.7573
  888MPD2     C13067   2.756   4.380  14.758 -0.0291 -0.0183 -0.0145
  888MPD2    C113068   2.676   4.413  14.869 -0.2022 -0.1120 -0.1738
  888MPD2    C213069   2.686   4.532  14.934 -0.2087  0.6520 -0.5466
  888MPD2    C313070   2.798   4.611  14.902 -0.1368  0.8614  0.5784
  888MPD2    C413071   2.887   4.569  14.806 -0.0335  0.9303  0.1929
  888MPD2    C513072   2.859   4.461  14.727 -0.1148 -0.9254 -0.1337
  888MPD2     H13073   2.627   4.562  15.019 -0.5911  0.6965 -0.8249
  888MPD2    H113074   2.976   4.624  14.779 -1.1836  1.9964 -1.4652
  888MPD2    H213075   2.748   4.284  14.708 -0.3317  0.3646 -0.7069
  888MPD2    H313076   2.918   4.427  14.643 -0.5986 -1.1091 -0.3994
  888MPD2     N13077   2.808   4.730  14.973  0.2699  0.4073  0.0068
  888MPD2    H513078   2.719   0.018  15.016 -0.3441 -4.0930  1.1817
  888MPD2    N113079   2.587   4.309  14.908 -0.8639 -0.7041 -0.1247
  888MPD2    H713080   2.604   4.218  14.867  1.2072 -1.0743  1.5621
  889MPD2     C13081   2.137   3.858  12.202 -0.2503  0.1529 -0.4504
  889MPD2    C113082   2.215   3.866  12.317 -1.0209  0.0826 -0.0175
  889MPD2    C213083   2.190   3.978  12.393 -0.7641 -0.1410  0.1372
  889MPD2    C313084   2.096   4.071  12.352 -0.9582  0.0905 -0.1823
  889MPD2    C413085   2.033   4.066  12.229 -0.2079 -0.1613  0.3283
  889MPD2    C513086   2.057   3.955  12.154  0.0739  0.6768 -0.5765
  889MPD2     H13087   2.247   3.971  12.486  1.8988 -1.8734 -1.6361
  889MPD2    H113088   1.966   4.141  12.188  0.1507 -0.5371 -0.9566
  889MPD2    H213089   2.159   3.776  12.135 -0.8488  0.4342 -1.0008
  889MPD2    H313090   2.012   3.950  12.055 -0.5550 -1.3399 -0.1795
  889MPD2     N13091   2.075   4.166  12.460  0.1440  0.1340  0.4546
  889MPD2    H513092   2.134   4.147  12.540 -0.0451 -1.0051  0.3125
  889MPD2    N113093   2.280   3.746  12.360  0.2783  0.4233 -0.0359
  889MPD2    H713094   2.262   3.662  12.305  0.3771 -0.3824  1.1682
  890MPD2     C13095   1.257   1.194  14.439 -0.1243  0.8726 -0.0423
  890MPD2    C113096   1.389   1.207  14.475  0.4677 -0.3134 -0.0445
  890MPD2    C213097   1.453   1.101  14.541  0.0412 -0.4515 -0.9123
  890MPD2    C313098   1.392   0.982  14.576 -0.5544 -0.4609  0.0114
  890MPD2    C413099   1.255   0.977  14.556 -0.1622  0.0987  0.7146
  890MPD2    C513100   1.196   1.081  14.484  0.1588  0.4662  0.5100
  890MPD2     H13101   1.559   1.108  14.558 -0.5311  0.1631  2.3276
  890MPD2    H113102   1.198   0.891  14.589 -0.3941  1.1219  2.9191
  890MPD2    H213103   1.211   1.268  14.375 -0.9572 -0.2420 -0.7332
  890MPD2    H313104   1.093   1.060  14.457  0.0072  2.7128 -0.6280
  890MPD2     N13105   1.467   0.887  14.651  0.7509 -1.4374  0.6843
  890MPD2    H513106   1.563   0.912  14.673  0.2260  1.7058 -0.5312
  890MPD2    N113107   1.451   1.318  14.414  0.2551 -0.5664  0.2897
  890MPD2    H713108   1.396   1.382  14.357  1.4366  1.2880  1.2161
  891MPD2     C13109   4.534   4.506  16.372  0.4744 -0.6265 -0.2781
  891MPD2    C113110   4.441   4.476  16.465 -0.7381  0.0506  0.2750
  891MPD2    C213111   4.485   4.464  16.599 -1.1212  0.2524 -0.1128
  891MPD2    C313112   4.619   4.477  16.632  0.7768  0.1379 -0.2916
  891MPD2    C413113   4.707   4.507  16.531  0.2848  0.3325 -0.5274
  891MPD2    C513114   4.665   4.525  16.403  0.3630 -0.1638  0.5257
  891MPD2     H13115   4.404   4.446  16.669  0.3123 -0.4140  1.3697
  891MPD2    H113116   0.078   4.509  16.547  0.3398 -1.2353 -0.7196
  891MPD2    H213117   4.493   4.516  16.272  0.0606  1.2001  0.0740
  891MPD2    H313118   0.008   4.547  16.332 -0.5661 -0.5183 -0.6233
  891MPD2     N13119   4.655   4.453  16.770 -0.1017  0.8716  0.3884
  891MPD2    H513120   4.582   4.410  16.826  0.9517  0.1596  1.2014
  891MPD2    N113121   4.311   4.447  16.415  0.4005 -0.2476 -0.2932
  891MPD2    H713122   4.292   4.454  16.315 -0.5170 -0.1022 -0.1067
  892MPD2     C13123   1.131   0.580  14.295 -0.0687 -1.0183 -0.1511
  892MPD2    C113124   1.038   0.479  14.289  0.3553 -0.0343  0.3746
  892MPD2    C213125   1.071   0.352  14.250  0.2061  0.6767  0.6079
  892MPD2    C313126   1.197   0.343  14.187  0.8550  0.0409  0.0770
  892MPD2    C413127   1.286   0.440  14.191 -0.0555 -0.1585  1.1136
  892MPD2    C513128   1.257   0.560  14.244  0.1997 -0.4335  0.4338
  892MPD2     H13129   0.998   0.273  14.264  1.2978 -0.2610  1.0793
  892MPD2    H113130   1.377   0.436  14.132  0.4014 -3.7303  2.0673
  892MPD2    H213131   1.105   0.680  14.329 -0.3445 -0.3867 -2.2376
  892MPD2    H313132   1.328   0.642  14.241 -1.4170  0.8704 -2.8895
  892MPD2     N13133   1.233   0.224  14.117 -0.2390 -0.0557  1.2477
  892MPD2    H513134   1.328   0.210  14.084 -0.2016  1.5750  0.6711
  892MPD2    N113135   0.909   0.500  14.335 -0.5186 -0.0874 -0.1069
  892MPD2    H713136   0.845   0.421  14.335 -0.3983 -0.1764  1.1213
  893MPD2     C13137   1.663   3.511   1.536 -0.5949 -0.9498  0.0512
  893MPD2    C113138   1.681   3.391   1.470  0.3192 -0.1489 -0.4982
  893MPD2    C213139   1.570   3.303   1.454 -0.2240  0.5684 -0.2589
  893MPD2    C313140   1.444   3.343   1.495 -0.5670 -0.4470  0.5232
  893MPD2    C413141   1.431   3.463   1.561  0.0165 -0.1200  0.3673
  893MPD2    C513142   1.542   3.544   1.572  0.0945 -0.8442 -0.1575
  893MPD2     H13143   1.581   3.211   1.398  0.1104  0.5021 -0.0885
  893MPD2    H113144   1.341   3.511   1.598  1.1261  1.2032  1.3423
  893MPD2    H213145   1.744   3.579   1.559  0.8358 -2.7718  0.3994
  893MPD2    H313146   1.517   3.639   1.618 -1.1465 -1.0337 -0.4565
  893MPD2     N13147   1.324   3.271   1.456 -0.0890  0.2211 -0.2738
  893MPD2    H513148   1.234   3.318   1.455  0.1582  0.6913 -0.2535
  893MPD2    N113149   1.809   3.365   1.414  0.1125 -0.4598  0.6670
  893MPD2    H713150   1.885   3.427   1.440  0.4428  0.8157 -3.4353
  894MPD2     C13151   0.608   1.105   1.916 -0.2935  0.7851  0.2197
  894MPD2    C113152   0.574   1.195   1.819  0.4387 -0.1942 -0.3881
  894MPD2    C213153   0.676   1.258   1.753  0.6342 -0.5650  0.1511
  894MPD2    C313154   0.809   1.244   1.794  0.3572 -0.8736 -0.1018
  894MPD2    C413155   0.842   1.159   1.896 -0.3698 -0.4322 -0.3865
  894MPD2    C513156   0.739   1.085   1.957  0.4820 -1.2433 -0.0018
  894MPD2     H13157   0.647   1.318   1.667  0.3364 -0.1725  0.5303
  894MPD2    H113158   0.934   1.148   1.952 -1.5983  1.1259  1.9768
  894MPD2    H213159   0.541   1.037   1.967 -0.5728 -0.4923 -1.8546
  894MPD2    H313160   0.760   1.020   2.041  1.5613 -0.9754 -0.0583
  894MPD2     N13161   0.905   1.304   1.710 -0.3072 -1.3845 -0.0676
  894MPD2    H513162   0.872   1.371   1.641 -1.5143  0.1348  1.9951
  894MPD2    N113163   0.443   1.221   1.771  0.9730  0.2768 -0.5208
  894MPD2    H713164   0.425   1.293   1.701 -1.7900  2.2050  2.1892
  895MPD2     C13165   0.288   4.299  13.482  0.1911  0.0624 -0.0317
  895MPD2    C113166   0.199   4.214  13.411 -0.2332 -1.0198 -0.5667
  895MPD2    C213167   0.236   4.092  13.382  0.2239  0.0666  0.2165
  895MPD2    C313168   0.366   4.041  13.403  0.5612  0.5084 -0.4060
  895MPD2    C413169   0.456   4.124  13.465  0.9544 -0.2111 -0.3946
  895MPD2    C513170   0.413   4.255  13.498  0.7850  0.0880  0.0599
  895MPD2     H13171   0.167   4.022  13.338  0.7273  0.5179 -1.3001
  895MPD2    H113172   0.557   4.088  13.477  1.3491  0.8683 -0.5140
  895MPD2    H213173   0.268   4.403  13.503 -0.0833 -0.4405  2.1354
  895MPD2    H313174   0.481   4.328  13.540 -2.6749  3.7498 -0.7077
  895MPD2     N13175   0.394   3.910  13.356 -0.8662  0.3050 -0.2270
  895MPD2    H513176   0.327   3.878  13.287 -1.3129  0.7776 -0.0095
  895MPD2    N113177   0.068   4.241  13.389 -0.6870  0.4456  0.0830
  895MPD2    H713178   0.009   4.161  13.367 -0.3043  0.1749  0.0454
  896MPD2     C13179   2.217   2.043   1.198  0.0918  0.2920  0.4660
  896MPD2    C113180   2.200   1.962   1.087 -0.5151  0.0606  0.6271
  896MPD2    C213181   2.088   1.874   1.089  0.3293 -0.0639 -0.6298
  896MPD2    C313182   2.001   1.865   1.192  0.3271 -0.3773 -0.3723
  896MPD2    C413183   2.029   1.936   1.303  0.0491  0.2688  0.2301
  896MPD2    C513184   2.131   2.032   1.305  0.4838 -0.6778  0.3557
  896MPD2     H13185   2.060   1.822   0.998  1.3231 -0.2352 -0.8419
  896MPD2    H113186   1.975   1.934   1.397 -1.3030  1.1851 -0.5392
  896MPD2    H213187   2.291   2.121   1.213  0.7427 -0.1297 -0.5398
  896MPD2    H313188   2.141   2.085   1.399  3.5622  0.1045 -0.4176
  896MPD2     N13189   1.884   1.782   1.192  0.0650 -0.2450 -0.1177
  896MPD2    H513190   1.882   1.719   1.113 -4.0860  0.9662 -0.9799
  896MPD2    N113191   2.299   1.968   0.989  0.0842 -0.5675  0.1531
  896MPD2    H713192   2.369   2.040   1.001 -1.9907  1.0992  2.1501
  897MPD2     C13193   3.146   3.430  10.320  0.1715  0.7449  0.0501
  897MPD2    C113194   3.181   3.554  10.372  0.5334  0.4464 -1.1306
  897MPD2    C213195   3.138   3.588  10.502 -0.1678  1.1561  0.5632
  897MPD2    C313196   3.051   3.505  10.574  0.1488 -1.0705  0.0546
  897MPD2    C413197   3.019   3.384  10.516 -0.3870  0.2970  0.1463
  897MPD2    C513198   3.078   3.344  10.395 -0.6084  0.0797  0.5287
  897MPD2     H13199   3.149   3.692  10.531  0.9512  2.3412 -4.1041
  897MPD2    H113200   2.946   3.317  10.561  0.4779 -0.8513 -0.1696
  897MPD2    H213201   3.182   3.398  10.222  2.0082 -0.6554  1.1816
  897MPD2    H313202   3.047   3.249  10.353  0.3581 -0.3914  0.8732
  897MPD2     N13203   3.004   3.539  10.708  0.5728 -0.3282 -0.1097
  897MPD2    H513204   3.033   3.631  10.740  0.2829  0.5128 -2.3150
  897MPD2    N113205   3.270   3.628  10.285  0.1899  0.4189  0.6382
  897MPD2    H713206   3.271   3.600  10.187  0.3482 -0.0386  0.7673
  898MPD2     C13207   0.707   4.042   0.244 -0.0247  0.5512  0.1832
  898MPD2    C113208   0.765   4.101   0.128 -0.1328  0.7185 -0.4349
  898MPD2    C213209   0.710   4.212   0.070 -0.2151 -0.2036 -0.3387
  898MPD2    C313210   0.592   4.265   0.133 -0.6770 -0.0106 -0.3249
  898MPD2    C413211   0.538   4.215   0.251  0.2151  0.4906  0.0483
  898MPD2    C513212   0.604   4.106   0.310  0.8615  0.1994  0.8883
  898MPD2     H13213   0.749   4.251  17.720  0.4577  0.0690  0.0617
  898MPD2    H113214   0.454   4.254   0.308 -1.1855 -1.0598 -0.9937
  898MPD2    H213215   0.752   3.953   0.285 -0.4750  0.3206  0.1642
  898MPD2    H313216   0.562   4.067   0.402  1.5872  0.5648  1.3774
  898MPD2     N13217   0.532   4.376   0.066  0.0863  0.4139  0.3738
  898MPD2    H513218   0.557   4.392  17.711  1.3756  1.3704  0.8550
  898MPD2    N113219   0.880   4.045   0.067  0.1322 -0.5589  0.9620
  898MPD2    H713220   0.902   4.093  17.723  1.6377 -0.6465  1.2960
  899MPD2     C13221   1.446   0.110  17.370  0.2885 -0.1765  0.0704
  899MPD2    C113222   1.490   0.224  17.428  0.4673  0.3230 -0.3922
  899MPD2    C213223   1.492   0.235  17.564 -0.4584  0.2278  1.1299
  899MPD2    C313224   1.432   0.137  17.645 -0.1353 -0.4576  0.0235
  899MPD2    C413225   1.375   0.025  17.581 -0.4479 -0.5798 -0.0915
  899MPD2    C513226   1.389   0.015  17.450  0.4501 -0.3050  0.0632
  899MPD2     H13227   1.546   0.322  17.599 -0.4174  1.1839 -1.3113
  899MPD2    H113228   1.324   4.682  17.635  1.8069 -0.8945  1.5679
  899MPD2    H213229   1.451   0.103  17.262  0.0683 -0.6669  0.0951
  899MPD2    H313230   1.347   4.664  17.400  0.6092  0.2437 -1.0319
  899MPD2     N13231   1.430   0.145   0.044 -0.6038 -0.1463 -0.2812
  899MPD2    H513232   1.376   0.073   0.092 -0.7383  0.3179  0.2700
  899MPD2    N113233   1.546   0.322  17.342 -0.4149 -0.4705  0.1223
  899MPD2    H713234   1.585   0.294  17.252 -2.3832 -1.2021 -0.4876
  900MPD2     C13235   0.294   1.310  12.070 -0.1484  0.5208  0.6345
  900MPD2    C113236   0.233   1.321  12.191  0.7364  0.1793 -0.3736
  900MPD2    C213237   0.109   1.379  12.201  0.1326 -0.5446 -0.1565
  900MPD2    C313238   0.041   1.426  12.085 -0.7865 -0.6192  0.1632
  900MPD2    C413239   0.100   1.397  11.961 -0.1277  0.2645 -0.2235
  900MPD2    C513240   0.227   1.348  11.955  0.3455 -0.6480  0.1910
  900MPD2     H13241   0.058   1.376  12.297  1.2943  0.1983  0.4735
  900MPD2    H113242   0.045   1.419  11.870 -2.7676 -0.4897  1.1991
  900MPD2    H213243   0.391   1.262  12.063 -0.1680  0.2245  2.4487
  900MPD2    H313244   0.268   1.332  11.856  1.1136  0.5043  0.3225
  900MPD2     N13245   4.653   1.489  12.107 -0.6982  0.0023 -0.7796
  900MPD2    H513246   4.623   1.518  12.199  1.8852  0.0599  0.0424
  900MPD2    N113247   0.297   1.261  12.297 -0.5533  0.0688 -0.1812
  900MPD2    H713248   0.378   1.211  12.261 -1.2572 -0.4149 -1.1063
  901MPD2     C13249   0.329   0.390  12.779  0.5718  0.3015  0.0620
  901MPD2    C113250   0.388   0.437  12.664  0.5548  0.7400 -0.0974
  901MPD2    C213251   0.400   0.574  12.645  0.5996  0.0050 -0.9979
  901MPD2    C313252   0.331   0.661  12.722 -0.2198 -0.6776  0.0468
  901MPD2    C413253   0.258   0.619  12.827 -0.8796 -0.3957  0.0632
  901MPD2    C513254   0.258   0.483  12.855  0.3391 -0.0662  0.3889
  901MPD2     H13255   0.462   0.616  12.567  1.7803 -3.4123 -1.8658
  901MPD2    H113256   0.188   0.689  12.873  0.1775 -0.2927  1.5451
  901MPD2    H213257   0.327   0.285  12.806 -0.3393  0.5287  0.8646
  901MPD2    H313258   0.195   0.444  12.934  0.8077 -1.4815  0.0772
  901MPD2     N13259   0.342   0.793  12.681  0.0704  0.0500  0.3939
  901MPD2    H513260   0.412   0.819  12.612  0.8950 -0.5239  1.0142
  901MPD2    N113261   0.441   0.337  12.581  0.6611 -0.0187  0.5181
  901MPD2    H713262   0.430   0.239  12.601  0.3851  0.4913  2.8822
  902MPD2     C13263   4.233   4.533  12.839 -0.5841 -0.2441 -0.8549
  902MPD2    C113264   4.339   4.611  12.789 -0.3326  0.2864  0.3564
  902MPD2    C213265   4.455   4.546  12.751 -0.1316 -0.2218 -0.2617
  902MPD2    C313266   4.473   4.408  12.772 -0.0270 -0.0291 -0.0614
  902MPD2    C413267   4.369   4.338  12.823  0.3421 -0.3053 -0.3410
  902MPD2    C513268   4.257   4.398  12.847  0.1995 -0.0925  1.0455
  902MPD2     H13269   4.538   4.591  12.698 -0.7113  0.4404 -0.6096
  902MPD2    H113270   4.364   4.229  12.827 -1.5763 -0.1996 -0.1271
  902MPD2    H213271   4.139   4.563  12.885  0.0879 -0.3808  0.6135
  902MPD2    H313272   4.167   4.345  12.877  0.8633 -0.7919  1.7914
  902MPD2     N13273   4.594   4.338  12.741 -0.3815  0.7070 -0.4144
  902MPD2    H513274   4.588   4.238  12.762  3.9170  0.2262 -1.4431
  902MPD2    N113275   4.333   0.014  12.792  0.1287  0.0393  0.1815
  902MPD2    H713276   4.247   0.054  12.827  0.2982  0.3586  0.2393
  903MPD2     C13277   0.149   4.155  12.015  0.2267  0.2504  0.2566
  903MPD2    C113278   0.078   4.111  12.123 -0.7411 -0.3445  0.1171
  903MPD2    C213279   4.676   4.099  12.107 -0.3869  0.2050 -0.9602
  903MPD2    C313280   4.616   4.129  11.986 -0.4462  0.1802 -0.2340
  903MPD2    C413281   4.692   4.161  11.873 -0.2644 -0.1830 -0.5393
  903MPD2    C513282   0.089   4.163  11.888  0.4825 -0.7997 -0.0817
  903MPD2     H13283   4.609   4.066  12.186  1.1228  0.0377  0.2536
  903MPD2    H113284   4.660   4.195  11.776 -1.9791  1.2798  0.5296
  903MPD2    H213285   0.257   4.169  12.019  0.4544 -0.1525 -4.8627
  903MPD2    H313286   0.150   4.199  11.807  0.2506  0.5770  0.3550
  903MPD2     N13287   4.479   4.132  11.984 -0.0600 -0.1877  0.2948
  903MPD2    H513288   4.436   4.145  12.075 -3.3965 -1.8533 -1.0144
  903MPD2    N113289   0.133   4.107  12.256  0.0444  0.1765 -0.0413
  903MPD2    H713290   0.228   4.142  12.257  0.3047 -0.4895 -1.0879
  904MPD2     C13291   0.065   3.790  13.705  0.0102  0.3261 -0.0550
  904MPD2    C113292   0.047   3.709  13.814  0.1923  0.1373 -0.0590
  904MPD2    C213293   0.160   3.659  13.875  0.6011  0.7083 -0.2354
  904MPD2    C313294   0.286   3.711  13.845 -0.1413 -0.5082 -0.0424
  904MPD2    C413295   0.297   3.812  13.744 -0.1051 -0.0034 -0.0026
  904MPD2    C513296   0.187   3.835  13.669  0.1341  0.4223  0.5326
  904MPD2     H13297   0.158   3.612  13.973 -0.3922 -1.2442 -1.1879
  904MPD2    H113298   0.385   3.867  13.710 -0.4629  1.4350  1.4298
  904MPD2    H213299   4.722   3.826  13.639  0.9416 -0.2999 -1.5099
  904MPD2    H313300   0.204   3.910  13.593 -2.0069 -1.2439 -1.5801
  904MPD2     N13301   0.387   3.657  13.927 -0.2946  0.3143 -0.0933
  904MPD2    H513302   0.369   3.574  13.982  1.7505  0.4724  0.8118
  904MPD2    N113303   4.652   3.673  13.873 -0.2061  0.2972  0.1825
  904MPD2    H713304   4.658   3.602  13.946 -0.8198 -1.8301 -1.8170
  905MPD2     C13305   4.386   3.690  13.271 -0.0375  0.4957  0.4516
  905MPD2    C113306   4.481   3.778  13.315 -0.1155  0.4026  0.3370
  905MPD2    C213307   4.614   3.760  13.278 -1.2168  0.2186 -0.1213
  905MPD2    C313308   4.652   3.656  13.200 -0.0534  0.5723 -0.5211
  905MPD2    C413309   4.553   3.574  13.145  0.4144  0.4844  0.0123
  905MPD2    C513310   4.421   3.588  13.189  0.7826 -0.1670 -0.4589
  905MPD2     H13311   4.687   3.837  13.300 -0.9213 -1.1366  3.5356
  905MPD2    H113312   4.585   3.498  13.074  0.6704  1.2573 -0.6916
  905MPD2    H213313   4.287   3.677  13.313 -0.4323  0.4739 -0.4886
  905MPD2    H313314   4.351   3.511  13.158  1.1631 -0.5032 -0.4762
  905MPD2     N13315   0.050   3.607  13.176 -0.4061 -0.4862 -0.9171
  905MPD2    H513316   0.065   3.522  13.124 -1.4568 -0.8702 -0.5821
  905MPD2    N113317   4.445   3.870  13.417 -0.0599  0.8359 -0.0453
  905MPD2    H713318   4.354   3.861  13.462  0.4972 -1.7822  0.5785
  906MPD2     C13319   1.624   3.708  11.254 -0.7492  0.7307 -0.5243
  906MPD2    C113320   1.677   3.644  11.140  0.6729  0.2606  0.4327
  906MPD2    C213321   1.731   3.518  11.163  0.6327 -0.6781 -0.6293
  906MPD2    C313322   1.719   3.461  11.288  0.3080  0.6574 -0.1123
  906MPD2    C413323   1.657   3.524  11.397  0.3229  0.7531  0.8347
  906MPD2    C513324   1.615   3.659  11.380  0.9118  0.4543 -0.2356
  906MPD2     H13325   1.760   3.463  11.074  0.2676  0.0885 -1.2308
  906MPD2    H113326   1.646   3.488  11.498  1.1691 -1.0164  0.2950
  906MPD2    H213327   1.585   3.808  11.236  0.7131  1.5684  0.9886
  906MPD2    H313328   1.560   3.712  11.457 -0.5791 -0.9631 -0.3165
  906MPD2     N13329   1.770   3.330  11.311  0.4015 -0.1570 -0.2725
  906MPD2    H513330   1.751   3.286  11.401 -3.0704 -1.4013 -1.6130
  906MPD2    N113331   1.680   3.698  11.018  0.4624  0.2424 -0.7402
  906MPD2    H713332   1.745   3.653  10.954 -1.4671 -1.8245 -1.1984
  907MPD2     C13333   0.694   2.934  15.932 -0.3617  0.1171  0.7631
  907MPD2    C113334   0.698   2.818  15.861 -0.1391  0.8369 -0.6173
  907MPD2    C213335   0.749   2.702  15.926 -0.3444 -0.2437 -0.4682
  907MPD2    C313336   0.791   2.706  16.059  0.2394 -0.7939 -0.0803
  907MPD2    C413337   0.772   2.827  16.125  0.6909 -0.1397 -0.4343
  907MPD2    C513338   0.719   2.938  16.063 -0.0100  0.9015 -0.1232
  907MPD2     H13339   0.735   2.607  15.875 -0.9423  0.2863 -1.2904
  907MPD2    H113340   0.800   2.841  16.229  2.3704 -1.1085 -0.7499
  907MPD2    H213341   0.662   3.029  15.890 -1.2749 -0.5841 -0.1232
  907MPD2    H313342   0.697   3.026  16.121  2.5102  1.2459  0.3008
  907MPD2     N13343   0.833   2.585  16.117 -0.4265  0.5772  0.3685
  907MPD2    H513344   0.832   2.496  16.069  0.3330 -0.1521  1.6977
  907MPD2    N113345   0.669   2.801  15.722 -0.0139 -0.3928  0.1617
  907MPD2    H713346   0.684   2.709  15.682 -0.0796 -0.2128 -0.2745
  908MPD2     C13347   3.295   3.422   9.419  0.4293 -0.5316  0.3425
  908MPD2    C113348   3.299   3.353   9.531 -1.0021 -0.4132  0.2515
  908MPD2    C213349   3.316   3.411   9.658  0.0008  0.2737  0.5868
  908MPD2    C313350   3.332   3.547   9.670 -0.0581  0.4972  0.9352
  908MPD2    C413351   3.342   3.615   9.548  0.0989  0.1828 -0.3788
  908MPD2    C513352   3.316   3.554   9.428 -0.0835 -1.0695 -0.2006
  908MPD2     H13353   3.308   3.350   9.747 -2.7934 -0.7907 -0.3987
  908MPD2    H113354   3.339   3.723   9.550 -0.1954  0.1572  0.5125
  908MPD2    H213355   3.283   3.383   9.318 -4.7369 -0.2733  0.8217
  908MPD2    H313356   3.326   3.618   9.341  0.7190 -1.9875 -0.7705
  908MPD2     N13357   3.348   3.604   9.797 -0.6277 -0.9534  0.3851
  908MPD2    H513358   3.344   3.530   9.866 -0.8613  0.1541  1.5603
  908MPD2    N113359   3.302   3.209   9.514 -0.0927 -0.1371 -0.1921
  908MPD2    H713360   3.305   3.171   9.420  1.3048  0.0300 -0.2186
  909MPD2     C13361   3.063   1.499  11.371  0.0051  0.7673  0.1049
  909MPD2    C113362   3.125   1.619  11.359 -1.0774  0.6644 -0.3514
  909MPD2    C213363   3.119   1.699  11.471 -0.2167  0.5388  0.2970
  909MPD2    C313364   3.054   1.662  11.589  0.0552  0.0095 -0.0084
  909MPD2    C413365   2.987   1.538  11.601  0.2485 -0.2010  0.5022
  909MPD2    C513366   3.004   1.455  11.487 -0.4396  0.3207  0.3265
  909MPD2     H13367   3.154   1.801  11.463  0.6318  0.3341  1.3824
  909MPD2    H113368   2.940   1.499  11.691  0.0256  2.7442  1.6762
  909MPD2    H213369   3.065   1.420  11.297  4.5433  1.5355 -0.5769
  909MPD2    H313370   2.970   1.352  11.489 -2.8170  1.1112  1.1983
  909MPD2     N13371   3.044   1.760  11.690  0.2679 -0.9570  0.0997
  909MPD2    H513372   3.072   1.856  11.671 -1.1781 -0.8657 -1.5557
  909MPD2    N113373   3.186   1.654  11.239  0.2455 -0.1273  0.2585
  909MPD2    H713374   3.223   1.748  11.232  0.2528 -0.2709 -1.5614
  910MPD2     C13375   0.231   3.229  15.904  0.5557 -0.1088 -0.0560
  910MPD2    C113376   0.294   3.126  15.837  0.2756 -0.2382  0.5925
  910MPD2    C213377   0.303   3.126  15.701 -0.6440 -0.2179 -0.6820
  910MPD2    C313378   0.221   3.218  15.633 -0.0655 -0.4047  0.9625
  910MPD2    C413379   0.147   3.315  15.700 -0.0206 -0.5797 -0.5728
  910MPD2    C513380   0.158   3.322  15.834 -0.0684 -0.6981  0.7768
  910MPD2     H13381   0.359   3.050  15.648 -0.3499 -0.0546 -0.6049
  910MPD2    H113382   0.078   3.384  15.652  0.1739 -0.4089 -0.6055
  910MPD2    H213383   0.225   3.241  16.012 -0.3295 -1.2878  0.0232
  910MPD2    H313384   0.106   3.395  15.896 -2.5353  0.5128 -2.7334
  910MPD2     N13385   0.207   3.215  15.490 -0.3450 -0.0582  0.5404
  910MPD2    H513386   0.148   3.290  15.454 -3.4966 -2.1185  1.3576
  910MPD2    N113387   0.358   3.010  15.900 -0.7591  0.6114  0.4418
  910MPD2    H713388   0.397   2.935  15.843  1.0179  0.7043  1.5299
  911MPD2     C13389   2.608   3.965  16.194 -0.1222 -0.6549 -0.1548
  911MPD2    C113390   2.703   4.057  16.234  0.6176 -0.1659  0.4131
  911MPD2    C213391   2.669   4.191  16.252 -0.2493  0.2536 -0.0857
  911MPD2    C313392   2.542   4.234  16.229 -0.3665  0.1017  0.0678
  911MPD2    C413393   2.450   4.150  16.184  0.2084  0.0732 -0.1306
  911MPD2    C513394   2.484   4.018  16.155 -0.1514 -0.6076  1.0798
  911MPD2     H13395   2.744   4.263  16.282  0.6066 -0.7590  0.1884
  911MPD2    H113396   2.347   4.179  16.168 -0.2943 -1.3320  0.5243
  911MPD2    H213397   2.632   3.862  16.169 -0.8979 -0.9743  0.3772
  911MPD2    H313398   2.409   3.952  16.112  1.2924 -2.5451  1.5241
  911MPD2     N13399   2.499   4.369  16.216  0.3538 -0.3336 -0.3818
  911MPD2    H513400   2.401   4.384  16.192  0.5004  1.2959  0.0038
  911MPD2    N113401   2.825   4.006  16.275 -0.4381 -0.7665 -0.9129
  911MPD2    H713402   2.842   3.906  16.270  1.9930 -0.3423 -1.0730
  912MPD2     C13403   2.185   4.288  15.702 -0.2759 -0.1402 -0.1298
  912MPD2    C113404   2.206   4.303  15.836  0.1827  0.7703  0.6673
  912MPD2    C213405   2.192   4.184  15.905 -0.0838 -0.7315 -0.2008
  912MPD2    C313406   2.166   4.056  15.859 -0.9547 -0.2181  0.0682
  912MPD2    C413407   2.141   4.050  15.725  0.2908 -0.5822 -0.5925
  912MPD2    C513408   2.149   4.168  15.645  0.1131 -0.4782  0.4230
  912MPD2     H13409   2.199   4.192  16.013  0.5059 -1.4688 -0.1853
  912MPD2    H113410   2.114   3.961  15.669 -1.1406 -0.4536 -0.0896
  912MPD2    H213411   2.200   4.375  15.638  0.5331  1.2059  1.8839
  912MPD2    H313412   2.142   4.163  15.537 -1.7848  2.0211  0.4127
  912MPD2     N13413   2.145   3.946  15.941 -0.0316 -0.0609  0.0236
  912MPD2    H513414   2.131   3.960  16.041 -1.2115 -1.8765  0.0963
  912MPD2    N113415   2.227   4.430  15.890 -0.7193  0.6496  0.5075
  912MPD2    H713416   2.234   4.507  15.824  1.0593  0.8363  0.9021
  913MPD2     C13417   2.355   0.327   9.728  0.0349  0.6423  0.9555
  913MPD2    C113418   2.426   0.400   9.829 -0.0140 -0.1954 -0.6307
  913MPD2    C213419   2.488   0.523   9.802  0.1074  0.2969 -0.1096
  913MPD2    C313420   2.486   0.567   9.671 -0.1264  0.1863 -0.8262
  913MPD2    C413421   2.429   0.485   9.569  0.0253 -0.1234  0.0863
  913MPD2    C513422   2.357   0.373   9.596  0.6677 -0.1639  0.1065
  913MPD2     H13423   2.547   0.578   9.875  1.9717 -0.6616 -0.9016
  913MPD2    H113424   2.456   0.516   9.468 -1.2273 -0.2991 -0.3058
  913MPD2    H213425   2.299   0.238   9.751  0.9224 -0.2648 -0.4326
  913MPD2    H313426   2.306   0.320   9.517  0.6676  1.7261 -1.1737
  913MPD2     N13427   2.552   0.681   9.626  0.1001 -0.3168 -0.5324
  913MPD2    H513428   2.546   0.692   9.525 -0.6753  1.2620 -0.3176
  913MPD2    N113429   2.424   0.342   9.955 -0.0940 -0.0951 -0.3795
  913MPD2    H713430   2.363   0.261   9.962  0.2154 -0.1315  1.9704
  914MPD2     C13431   0.761   0.438  11.633 -0.5416 -0.5287  0.1104
  914MPD2    C113432   0.674   0.509  11.707  0.5915 -0.3323  0.4255
  914MPD2    C213433   0.665   0.484  11.840  0.3645  0.0646  0.3709
  914MPD2    C313434   0.744   0.388  11.899  0.0956  0.2600  0.6263
  914MPD2    C413435   0.843   0.331  11.822  0.1578 -0.4699  0.2046
  914MPD2    C513436   0.845   0.345  11.687 -0.2006  0.0970 -0.3578
  914MPD2     H13437   0.596   0.535  11.907 -2.3233 -0.9617 -1.6135
  914MPD2    H113438   0.915   0.263  11.864  0.1213 -0.4849  0.2428
  914MPD2    H213439   0.759   0.452  11.525 -0.1050 -0.2016  0.1418
  914MPD2    H313440   0.914   0.289  11.625 -0.5717  1.9095 -2.4065
  914MPD2     N13441   0.733   0.360  12.041  0.6997  0.8697 -0.0682
  914MPD2    H513442   0.664   0.415  12.091 -0.1500  2.0920 -2.6241
  914MPD2    N113443   0.587   0.593  11.629  0.4158 -0.1987 -0.2258
  914MPD2    H713444   0.609   0.610  11.531  1.8945 -2.0698 -0.2304
  915MPD2     C13445   3.968   0.614  15.759  0.0667 -0.7308 -0.6134
  915MPD2    C113446   3.851   0.643  15.689  0.4651 -0.2944 -0.0953
  915MPD2    C213447   3.757   0.719  15.752  0.6205 -0.3246  0.8033
  915MPD2    C313448   3.783   0.773  15.879 -0.2794 -0.2806 -0.7368
  915MPD2    C413449   3.902   0.743  15.939  0.6315  0.7973 -0.1150
  915MPD2    C513450   3.993   0.661  15.884  0.8887  0.4434  0.0237
  915MPD2     H13451   3.668   0.744  15.696  0.9067 -1.4216 -0.1529
  915MPD2    H113452   3.938   0.794  16.028  0.1741 -1.1879  1.1981
  915MPD2    H213453   4.052   0.573  15.704  0.7339  2.6875 -2.1338
  915MPD2    H313454   4.083   0.632  15.936  0.9616 -0.7935 -0.7991
  915MPD2     N13455   3.687   0.862  15.943  0.1830  0.0027  0.2666
  915MPD2    H513456   3.597   0.856  15.895  0.2984 -1.1988  0.2078
  915MPD2    N113457   3.846   0.604  15.551 -0.3627  0.0809  0.0637
  915MPD2    H713458   3.931   0.567  15.511 -0.1448  1.3942 -0.6584
  916MPD2     C13459   1.818   3.736  15.598  0.1704  0.5245  0.1670
  916MPD2    C113460   1.821   3.689  15.729  0.0340 -0.5929  0.2904
  916MPD2    C213461   1.856   3.555  15.744 -0.3108  0.1360  0.5048
  916MPD2    C313462   1.904   3.479  15.636  0.3663  0.8325  0.5076
  916MPD2    C413463   1.904   3.530  15.506  0.5003 -0.0914  0.4566
  916MPD2    C513464   1.856   3.657  15.493 -0.4015  0.0025  0.2067
  916MPD2     H13465   1.860   3.507  15.841  1.2255 -0.4276  0.1518
  916MPD2    H113466   1.942   3.477  15.419  0.2857 -0.9080  0.8634
  916MPD2    H213467   1.813   3.843  15.580 -1.0291  0.1999 -1.4190
  916MPD2    H313468   1.867   3.701  15.394  0.4568 -1.1061 -0.1787
  916MPD2     N13469   1.964   3.354  15.681  0.5304  0.5302 -0.0781
  916MPD2    H513470   1.968   3.330  15.780  1.5946  1.8503  0.1953
  916MPD2    N113471   1.779   3.775  15.835 -0.5274  0.1268  0.8241
  916MPD2    H713472   1.761   3.871  15.806  0.4348 -0.6157 -2.2254
  917MPD2     C13473   1.782   0.528  10.903  0.5196 -0.1022 -0.2372
  917MPD2    C113474   1.798   0.608  11.010  0.2632  0.5072  0.6330
  917MPD2    C213475   1.793   0.744  10.991 -0.1292  0.3008 -0.3064
  917MPD2    C313476   1.770   0.793  10.863  0.3975  0.1793 -0.3726
  917MPD2    C413477   1.739   0.711  10.759  0.5149 -0.0940  0.3511
  917MPD2    C513478   1.733   0.577  10.784 -0.2203  0.0476  0.2924
  917MPD2     H13479   1.813   0.815  11.070 -1.0185 -0.3870  0.5337
  917MPD2    H113480   1.733   0.748  10.657  0.3611  2.7016  1.3577
  917MPD2    H213481   1.785   0.420  10.909  0.0473  0.0198  2.1021
  917MPD2    H313482   1.717   0.507  10.702  0.3025  1.9798 -1.4661
  917MPD2     N13483   1.778   0.931  10.826  0.2527  0.6693  0.1496
  917MPD2    H513484   1.769   0.960  10.729  2.2826  1.7347  0.2575
  917MPD2    N113485   1.834   0.546  11.131 -0.1842 -0.4729  0.6194
  917MPD2    H713486   1.828   0.446  11.145 -2.3296 -0.4899 -0.5122
  918MPD2     C13487   1.913   0.882  12.099  0.0600  0.0952 -0.2053
  918MPD2    C113488   1.986   0.918  11.988 -0.6778  0.6017  0.1468
  918MPD2    C213489   1.941   0.862  11.873  0.2622 -0.6162 -0.7307
  918MPD2    C313490   1.835   0.771  11.858  0.2462  0.0989  0.3953
  918MPD2    C413491   1.766   0.747  11.971  0.4514 -0.1263  0.0697
  918MPD2    C513492   1.802   0.801  12.091 -0.5990  0.0394  0.4517
  918MPD2     H13493   1.982   0.884  11.775 -0.9444 -0.4447 -1.1986
  918MPD2    H113494   1.679   0.682  11.980  0.3152  0.3062  1.9302
  918MPD2    H213495   1.941   0.931  12.192  1.7372 -1.5620  0.1685
  918MPD2    H313496   1.738   0.783  12.176 -0.9373  1.9204  0.6008
  918MPD2     N13497   1.804   0.714  11.732  0.3338  0.2448 -0.6849
  918MPD2    H513498   1.838   0.753  11.645  2.6625 -1.8984 -0.7164
  918MPD2    N113499   2.098   1.000  11.990  0.1838 -0.1605  0.2632
  918MPD2    H713500   2.140   1.019  11.899  1.1079 -0.4401  0.6277
  919MPD2     C13501   2.965   0.387  10.993 -0.9990  0.1066  0.6247
  919MPD2    C113502   2.869   0.341  11.083 -0.3175  0.2166 -0.3866
  919MPD2    C213503   2.734   0.351  11.041  0.3032 -0.1554  0.0318
  919MPD2    C313504   2.690   0.410  10.923  0.2663 -0.3024 -0.3470
  919MPD2    C413505   2.788   0.453  10.840  0.8525 -0.2278  0.2497
  919MPD2    C513506   2.919   0.452  10.881 -0.3792 -0.1905  0.0066
  919MPD2     H13507   2.665   0.306  11.111  1.8174 -0.1152  1.5672
  919MPD2    H113508   2.766   0.504  10.747  0.4820 -0.4665  0.2101
  919MPD2    H213509   3.073   0.380  11.003 -0.9439  1.8188  1.2433
  919MPD2    H313510   2.995   0.479  10.808 -0.3448 -1.2732 -0.3609
  919MPD2     N13511   2.559   0.433  10.882  0.2642 -0.4012  0.0953
  919MPD2    H513512   2.549   0.499  10.806  0.0785 -0.7597 -0.1921
  919MPD2    N113513   2.894   0.264  11.200  0.3332  0.1290  0.5560
  919MPD2    H713514   2.816   0.216  11.244 -1.4881  3.0745  0.5036
  920MPD2     C13515   2.090   0.687  10.060 -0.0950  0.7145  0.8344
  920MPD2    C113516   1.977   0.677  10.133  0.3688  0.0246  0.8423
  920MPD2    C213517   1.981   0.619  10.258 -0.0417  0.7401 -0.2074
  920MPD2    C313518   2.112   0.574  10.306 -0.3051 -0.1940 -0.5922
  920MPD2    C413519   2.220   0.566  10.220  0.0759  0.3431 -0.5034
  920MPD2    C513520   2.210   0.634  10.097 -0.0492 -0.6504 -0.5758
  920MPD2     H13521   1.893   0.609  10.321 -1.5981 -0.2905 -2.5652
  920MPD2    H113522   2.314   0.518  10.241  0.4693  0.9503 -0.8680
  920MPD2    H213523   2.098   0.728   9.960  1.7004 -1.3054  0.1501
  920MPD2    H313524   2.296   0.632  10.031  0.2327 -1.2548 -0.1907
  920MPD2     N13525   2.127   0.530  10.446 -0.2420  0.2080 -0.4064
  920MPD2    H513526   2.048   0.521  10.510  1.1215  2.5097  1.6198
  920MPD2    N113527   1.849   0.719  10.086 -0.0779 -0.5227  0.3789
  920MPD2    H713528   1.770   0.688  10.142  0.3933 -3.6454 -0.7173
  921MPD2     C13529   3.606   4.345  16.792 -0.4282 -0.5886 -0.5125
  921MPD2    C113530   3.616   4.300  16.664  0.0473 -0.5425  0.3157
  921MPD2    C213531   3.525   4.206  16.618 -0.0384 -0.4652  0.8795
  921MPD2    C313532   3.429   4.154  16.699 -0.4858 -0.5041  0.0347
  921MPD2    C413533   3.420   4.193  16.830  0.5341 -0.5401 -0.1625
  921MPD2    C513534   3.509   4.288  16.879 -0.1665 -0.1294  0.4793
  921MPD2     H13535   3.533   4.163  16.519 -1.5870  0.2978  0.4317
  921MPD2    H113536   3.342   4.158  16.898 -0.6048  1.4841 -0.4359
  921MPD2    H213537   3.674   4.422  16.827 -0.9095 -1.0891  1.5296
  921MPD2    H313538   3.486   4.321  16.980  1.5899  0.5062  0.6659
  921MPD2     N13539   3.332   4.066  16.652 -0.3629 -0.0395 -0.7123
  921MPD2    H513540   3.241   4.063  16.698  0.7020 -0.5900  1.3673
  921MPD2    N113541   3.715   4.354  16.584 -0.0589  0.0565  0.1545
  921MPD2    H713542   3.775   4.420  16.632 -1.9748  1.9654 -0.0570
  922MPD2     C13543   4.665   2.519   0.580  0.3869 -0.4931 -0.1473
  922MPD2    C113544   4.531   2.499   0.596  0.1795  0.2043  0.2898
  922MPD2    C213545   4.462   2.448   0.491  0.3330 -0.6548  0.6145
  922MPD2    C313546   4.514   2.421   0.366  0.1248 -0.0572  0.0799
  922MPD2    C413547   4.653   2.433   0.350 -0.6260 -0.5529 -0.3536
  922MPD2    C513548   4.725   2.492   0.457  0.0482  0.5466 -0.5946
  922MPD2     H13549   4.356   2.432   0.498  0.4306  0.2106  4.1425
  922MPD2    H113550   4.696   2.412   0.253 -0.1891  0.5835 -0.3994
  922MPD2    H213551   4.724   2.564   0.659 -0.8645  1.1000 -0.1205
  922MPD2    H313552   0.095   2.514   0.450 -0.2705  3.0740  2.4550
  922MPD2     N13553   4.421   2.376   0.271 -0.1833  0.5847  0.3621
  922MPD2    H513554   4.322   2.392   0.287 -0.5254 -0.1327 -1.0233
  922MPD2    N113555   4.463   2.521   0.722  0.0469 -0.1860  0.1730
  922MPD2    H713556   4.380   2.464   0.731  0.5071 -0.8966 -0.0958
  923MPD2     C13557   1.047   3.670   9.034  0.4389 -0.8956  0.1789
  923MPD2    C113558   0.980   3.759   9.111 -0.2315  0.0958  0.0867
  923MPD2    C213559   1.015   3.786   9.238  0.2100  0.2745  0.2300
  923MPD2    C313560   1.120   3.719   9.293  0.3416 -0.2379  0.2699
  923MPD2    C413561   1.182   3.621   9.219 -0.5412 -0.2845 -0.0157
  923MPD2    C513562   1.146   3.602   9.091  0.1116  0.0688  0.7421
  923MPD2     H13563   0.957   3.853   9.300 -2.2341 -1.3165 -0.3557
  923MPD2    H113564   1.259   3.554   9.255 -2.2338 -4.2297 -3.7493
  923MPD2    H213565   1.026   3.650   8.929 -0.6020 -0.2660  0.2714
  923MPD2    H313566   1.199   3.524   9.037  1.4620  1.2938  0.2863
  923MPD2     N13567   1.159   3.731   9.431 -0.1325  0.5890  0.9149
  923MPD2    H513568   1.218   3.654   9.461  0.6467  1.3391  1.2979
  923MPD2    N113569   0.869   3.819   9.051  0.5061 -0.0228  0.0395
  923MPD2    H713570   0.867   3.813   8.950 -0.7453  1.5178 -0.0408
  924MPD2     C13571   1.018   2.044  15.657  0.6402  0.2880 -0.3249
  924MPD2    C113572   1.035   1.969  15.767 -0.3626  0.8562 -0.4639
  924MPD2    C213573   1.105   2.025  15.877  0.7815  0.7486 -0.1827
  924MPD2    C313574   1.138   2.158  15.866  0.2400  0.0747  0.2548
  924MPD2    C413575   1.111   2.235  15.753 -0.1197  0.0998 -1.2380
  924MPD2    C513576   1.063   2.172  15.638  0.3492  1.1437 -0.0361
  924MPD2     H13577   1.125   1.964  15.964 -0.0260 -0.5335 -0.9110
  924MPD2    H113578   1.127   2.342  15.743 -2.0835  0.3836 -1.2202
  924MPD2    H213579   0.966   1.997  15.574  1.1627 -1.2126  0.2007
  924MPD2    H313580   1.034   2.226  15.549  1.4005  1.2499 -0.3126
  924MPD2     N13581   1.147   2.246  15.981 -0.7269 -0.1695  0.0303
  924MPD2    H513582   1.138   2.345  15.960  1.2057 -0.3034 -1.4611
  924MPD2    N113583   0.977   1.843  15.769 -0.9345 -0.4632  0.4655
  924MPD2    H713584   0.926   1.812  15.686  0.7525 -0.5123 -0.5657
  925MPD2     C13585   4.639   0.057  14.794  0.8858 -0.1425  0.2459
  925MPD2    C113586   4.553   4.732  14.710 -0.5457 -0.3077 -0.0817
  925MPD2    C213587   4.464   4.635  14.753  0.0194 -0.6119 -1.0064
  925MPD2    C313588   4.473   4.589  14.886 -0.4791  0.8591  0.0693
  925MPD2    C413589   4.559   4.654  14.969  0.2047 -0.7362 -0.0773
  925MPD2    C513590   4.649   0.009  14.922 -0.0314 -0.3373  0.4439
  925MPD2     H13591   4.397   4.584  14.685 -2.6590  0.6587  0.7181
  925MPD2    H113592   4.566   4.636  15.075  0.6739  0.0443  0.0237
  925MPD2    H213593   4.703   0.138  14.760  1.4724 -0.5602  0.3500
  925MPD2    H313594   4.732   0.051  14.979  0.4379 -1.0932  0.3204
  925MPD2     N13595   4.392   4.481  14.936  0.4573  0.2632 -0.4136
  925MPD2    H513596   4.389   4.476  15.038 -2.5693  0.9347 -0.4699
  925MPD2    N113597   4.534   0.039  14.576 -0.3198  0.4169 -0.8994
  925MPD2    H713598   4.459   0.001  14.520 -0.3458  0.1578 -0.6911
  926MPD2     C13599   3.080   3.050  13.543 -0.3599 -0.5906  0.2337
  926MPD2    C113600   2.994   3.136  13.470 -0.1206 -0.2223  0.3056
  926MPD2    C213601   3.036   3.187  13.348  0.0233  0.4037 -0.3428
  926MPD2    C313602   3.161   3.181  13.304 -0.7291  0.0798 -0.3986
  926MPD2    C413603   3.250   3.103  13.381  0.7199  0.5019  0.0594
  926MPD2    C513604   3.210   3.042  13.497 -0.4148  0.3202  0.0961
  926MPD2     H13605   2.957   3.239  13.296 -0.4721 -0.2167 -0.2136
  926MPD2    H113606   3.353   3.099  13.349  0.1763 -0.6831 -1.5748
  926MPD2    H213607   3.058   2.999  13.636 -1.3483  1.5720  1.1877
  926MPD2    H313608   3.293   2.998  13.551 -2.1967 -0.5436  2.1427
  926MPD2     N13609   3.207   3.236  13.177  0.4151 -0.2086 -0.6115
  926MPD2    H513610   3.307   3.230  13.160  0.6993 -0.3378  1.1252
  926MPD2    N113611   2.867   3.178  13.518  0.4048  0.2789  0.2187
  926MPD2    H713612   2.811   3.236  13.457  3.2866  0.3340 -2.3806
  927MPD2     C13613   3.426   0.433  17.196 -0.6241  0.5578  0.0651
  927MPD2    C113614   3.398   0.567  17.206 -0.0446  0.2244  0.5963
  927MPD2    C213615   3.487   0.661  17.146 -0.4935 -0.3107  0.2700
  927MPD2    C313616   3.608   0.616  17.090  0.7362  0.0464  0.6802
  927MPD2    C413617   3.628   0.482  17.092 -0.2475 -0.0833  0.3951
  927MPD2    C513618   3.539   0.395  17.124  0.1021 -0.4272 -0.0095
  927MPD2     H13619   3.462   0.766  17.152  1.3453  0.1547 -0.1892
  927MPD2    H113620   3.722   0.439  17.059 -0.5772  1.2021 -2.1849
  927MPD2    H213621   3.352   0.364  17.235  0.8763 -0.5562  0.9143
  927MPD2    H313622   3.572   0.292  17.126  1.1311 -0.1531 -2.5227
  927MPD2     N13623   3.707   0.704  17.058  0.6680  0.0992 -0.3711
  927MPD2    H513624   3.676   0.799  17.042 -2.5165 -1.0720 -1.1084
  927MPD2    N113625   3.285   0.608  17.281 -0.1436 -0.3543  0.5602
  927MPD2    H713626   3.239   0.534  17.332 -1.5710  0.1589  0.0176
  928MPD2     C13627   1.293   3.535   0.816 -0.9596  0.6365  0.1415
  928MPD2    C113628   1.383   3.633   0.843 -0.4926 -0.5050 -0.3211
  928MPD2    C213629   1.488   3.660   0.756 -0.3513  0.4620 -0.0259
  928MPD2    C313630   1.507   3.575   0.649  0.3771  0.1275  0.5287
  928MPD2    C413631   1.423   3.470   0.630  0.7400  0.5850  0.2830
  928MPD2    C513632   1.316   3.447   0.714 -0.4071  0.2003  0.0351
  928MPD2     H13633   1.547   3.749   0.776 -1.2874  1.0291  0.1950
  928MPD2    H113634   1.434   3.405   0.544  3.3477 -0.6446  1.5518
  928MPD2    H213635   1.205   3.520   0.877 -1.2716  0.3601 -0.3762
  928MPD2    H313636   1.255   3.361   0.690 -1.0293  1.1776 -1.8523
  928MPD2     N13637   1.599   3.606   0.553 -0.2687 -0.6308  0.3305
  928MPD2    H513638   1.573   3.588   0.456  1.7394 -1.6151 -0.0319
  928MPD2    N113639   1.341   3.716   0.949 -0.0994 -0.0697  0.3228
  928MPD2    H713640   1.263   3.684   1.005  0.4954  2.4406  2.5533
  929MPD2     C13641   0.966   3.504  10.450  0.0519  0.2353 -0.0157
  929MPD2    C113642   0.878   3.404  10.481  0.6862  0.0984  0.1968
  929MPD2    C213643   0.766   3.378  10.400 -0.6892 -0.4294  0.4214
  929MPD2    C313644   0.739   3.456  10.287 -0.3382  0.0686  0.0593
  929MPD2    C413645   0.820   3.561  10.259 -0.4756 -0.0004 -0.1033
  929MPD2    C513646   0.932   3.583  10.344  0.4094  0.3554  0.2632
  929MPD2     H13647   0.702   3.293  10.423 -0.7383  0.1883  2.4858
  929MPD2    H113648   0.808   3.633  10.179 -0.1160 -1.4544 -1.4571
  929MPD2    H213649   1.046   3.539  10.514 -0.5668 -1.1846  1.5201
  929MPD2    H313650   0.998   3.664  10.314  0.8370 -0.0505  0.1240
  929MPD2     N13651   0.619   3.444  10.215  0.1372  0.2291 -0.0964
  929MPD2    H513652   0.590   3.519  10.154 -2.3834  0.0906  0.9327
  929MPD2    N113653   0.898   3.342  10.608  0.6517  0.4828  0.4871
  929MPD2    H713654   0.954   3.385  10.680 -1.2328  5.2325 -0.9011
  930MPD2     C13655   2.493   0.969  14.232  0.3735 -0.6394  0.6646
  930MPD2    C113656   2.621   0.991  14.174  0.5010  0.5421  0.8535
  930MPD2    C213657   2.639   1.010  14.034  0.1969  0.8680 -0.2521
  930MPD2    C313658   2.536   0.973  13.954 -0.3235 -0.4839  0.1727
  930MPD2    C413659   2.411   0.957  14.009 -0.1780 -0.3607  0.0664
  930MPD2    C513660   2.390   0.954  14.147 -0.5892  0.2762 -0.1191
  930MPD2     H13661   2.734   1.042  13.994 -1.4137  0.3112 -4.5738
  930MPD2    H113662   2.328   0.938  13.941 -0.6417  3.0369 -0.3066
  930MPD2    H213663   2.476   0.961  14.339 -3.1296  0.4192  0.1663
  930MPD2    H313664   2.293   0.919  14.183 -1.5662  2.1053 -0.9507
  930MPD2     N13665   2.552   0.974  13.815 -0.4227 -0.9710  0.5266
  930MPD2    H513666   2.463   0.965  13.767 -0.1384 -0.7596 -0.0258
  930MPD2    N113667   2.718   1.025  14.264  0.6765  0.0758  0.5768
  930MPD2    H713668   2.699   1.044  14.362  1.1314 -1.0350  0.8726
  931MPD2     C13669   3.192   0.310   0.058 -0.0427 -0.4918 -0.5148
  931MPD2    C113670   3.110   0.422   0.080  0.0186 -0.3245  0.2339
  931MPD2    C213671   3.082   0.465   0.208 -0.3116  0.0881 -0.1369
  931MPD2    C313672   3.126   0.399   0.321  0.5349  0.5679 -0.5872
  931MPD2    C413673   3.208   0.286   0.298 -0.0833 -0.1224 -0.0554
  931MPD2    C513674   3.236   0.241   0.170 -0.3567 -0.3565 -0.0009
  931MPD2     H13675   3.036   0.562   0.225 -0.3313 -0.0096  0.3697
  931MPD2    H113676   3.248   0.226   0.379 -1.4439  0.3204  0.9459
  931MPD2    H213677   3.213   0.280  17.699  0.4588  0.3739 -0.6694
  931MPD2    H313678   3.292   0.149   0.161  1.4907  0.7249  0.4426
  931MPD2     N13679   3.097   0.437   0.457 -0.1745  0.2422 -0.2853
  931MPD2    H513680   3.138   0.387   0.535  0.5366 -0.6661 -1.2581
  931MPD2    N113681   3.080   0.499  17.707  0.2045  0.2365  0.3250
  931MPD2    H713682   3.123   0.462  17.622 -1.0997  1.8033 -1.0226
  932MPD2     C13683   0.900   4.101  11.318 -0.0319 -0.4605 -0.3649
  932MPD2    C113684   0.786   4.087  11.390 -0.1603  0.4687  0.5589
  932MPD2    C213685   0.790   4.025  11.513  0.2466  0.7003 -0.3617
  932MPD2    C313686   0.897   3.949  11.559 -0.0076  1.0065 -0.3353
  932MPD2    C413687   1.010   3.950  11.478 -0.0193 -0.2152 -0.1503
  932MPD2    C513688   1.009   4.033  11.362 -0.1472  0.3272 -0.4571
  932MPD2     H13689   0.700   4.018  11.573  1.2927 -1.4887  0.9837
  932MPD2    H113690   1.108   3.907  11.494  0.0450  1.2498  3.2988
  932MPD2    H213691   0.902   4.153  11.223 -0.2877 -0.3955 -0.3353
  932MPD2    H313692   1.100   4.027  11.302 -0.0498  1.5188 -0.4368
  932MPD2     N13693   0.902   3.889  11.692 -0.0794 -0.2858  0.1120
  932MPD2    H513694   0.989   3.838  11.706  1.3376  1.5637 -1.9384
  932MPD2    N113695   0.667   4.146  11.355  0.3452  0.2170 -0.6784
  932MPD2    H713696   0.587   4.127  11.415  0.6130 -0.1641 -0.4352
  933MPD2     C13697   0.739   4.218   1.316 -0.1952  0.2849  0.1979
  933MPD2    C113698   0.798   4.161   1.208 -0.7110 -0.0742 -0.1336
  933MPD2    C213699   0.738   4.182   1.086  0.1757 -0.5507  0.4055
  933MPD2    C313700   0.624   4.262   1.072  0.2236 -0.4383 -0.0870
  933MPD2    C413701   0.566   4.311   1.187  0.3894  0.8418 -1.0311
  933MPD2    C513702   0.624   4.289   1.310  0.1700 -0.4054 -0.2902
  933MPD2     H13703   0.786   4.134   1.001 -0.5548 -0.6004  0.0164
  933MPD2    H113704   0.480   4.376   1.190  1.1522  1.8227 -0.4844
  933MPD2    H213705   0.790   4.213   1.412 -0.9230 -1.1766  0.5024
  933MPD2    H313706   0.589   4.343   1.397 -0.1206  0.8978 -1.2185
  933MPD2     N13707   0.580   4.291   0.941 -0.1351 -0.1172  0.0723
  933MPD2    H513708   0.634   4.251   0.865 -1.9815 -0.3079 -1.1170
  933MPD2    N113709   0.925   4.097   1.219  0.4899 -0.7259  0.2172
  933MPD2    H713710   0.974   4.099   1.308  2.6176 -0.8953 -0.9527
  934MPD2     C13711   2.621   2.103   1.487  0.1524  0.3608 -0.3186
  934MPD2    C113712   2.658   2.068   1.357  0.8257 -0.2340  0.0828
  934MPD2    C213713   2.585   1.967   1.292 -0.6734 -0.4432  0.2022
  934MPD2    C313714   2.487   1.891   1.361  0.0611  0.1807  0.8345
  934MPD2    C413715   2.447   1.940   1.481 -0.4133  0.3777 -0.7965
  934MPD2    C513716   2.509   2.049   1.538 -0.1521 -0.4191 -0.0914
  934MPD2     H13717   2.598   1.925   1.193  0.0088  0.0566  0.0837
  934MPD2    H113718   2.359   1.900   1.530  1.4854 -3.0582 -0.1497
  934MPD2    H213719   2.671   2.172   1.553  0.9508 -0.7263  0.2199
  934MPD2    H313720   2.471   2.083   1.634 -0.6213 -0.7293 -0.1679
  934MPD2     N13721   2.411   1.785   1.305  0.2744 -0.3431  0.4884
  934MPD2    H513722   2.353   1.742   1.376 -2.8060  1.4396 -0.9217
  934MPD2    N113723   2.765   2.133   1.292  0.0250  0.5677  0.5102
  934MPD2    H713724   2.782   2.108   1.195  2.4491 -0.7534  1.2597
  935MPD2     C13725   2.670   1.042   0.684 -0.1296 -0.4047  0.2514
  935MPD2    C113726   2.534   1.033   0.688 -0.3179 -0.0433 -0.5974
  935MPD2    C213727   2.462   1.109   0.773 -0.3900 -0.0511 -0.1662
  935MPD2    C313728   2.534   1.197   0.861  0.1072 -0.0209  0.8715
  935MPD2    C413729   2.671   1.198   0.856 -0.3318  0.2710  0.0692
  935MPD2    C513730   2.742   1.126   0.771  0.2622  0.2499  0.1203
  935MPD2     H13731   2.354   1.098   0.771 -0.2257 -1.9425  1.2452
  935MPD2    H113732   2.733   1.267   0.911  0.5958  0.2112 -0.8776
  935MPD2    H213733   2.731   0.992   0.609 -1.9225 -0.4608 -1.1677
  935MPD2    H313734   2.843   1.162   0.753  0.0188  0.5175 -0.7290
  935MPD2     N13735   2.476   1.274   0.965  0.4860 -0.4062 -0.1150
  935MPD2    H513736   2.539   1.333   1.018 -1.2841  3.0460 -1.8215
  935MPD2    N113737   2.462   0.932   0.618 -0.2444 -0.0883  0.0150
  935MPD2    H713738   2.362   0.941   0.635 -0.2743 -1.2904  0.5136
  936MPD2     C13739   0.376   2.437  12.470 -0.4934  0.3604 -0.7272
  936MPD2    C113740   0.480   2.506  12.538 -0.5828 -0.0900 -0.1472
  936MPD2    C213741   0.535   2.618  12.478  0.8930 -0.1996 -0.8552
  936MPD2    C313742   0.499   2.661  12.349  0.1222  0.4129 -0.2496
  936MPD2    C413743   0.388   2.601  12.291  0.4309 -0.1575  0.5161
  936MPD2    C513744   0.329   2.495  12.363 -0.1385 -0.4871  0.1861
  936MPD2     H13745   0.609   2.672  12.537  0.2695  1.3002 -1.4280
  936MPD2    H113746   0.339   2.633  12.199  1.9511 -0.8173 -0.5163
  936MPD2    H213747   0.325   2.346  12.501 -1.2267  0.7293 -0.8630
  936MPD2    H313748   0.245   2.447  12.313  0.8968  0.0662 -2.0757
  936MPD2     N13749   0.550   2.774  12.277  0.1289 -0.9967  0.2378
  936MPD2    H513750   0.495   2.819  12.204 -0.2379 -0.3087  0.9312
  936MPD2    N113751   0.525   2.474  12.667  0.8847  0.8794  0.3444
  936MPD2    H713752   0.608   2.519  12.705  1.7230  0.2099 -0.7104
  937MPD2     C13753   3.281   4.312  11.330 -0.3668 -0.6669  0.3202
  937MPD2    C113754   3.313   4.442  11.303 -0.4765  0.3243  0.0348
  937MPD2    C213755   3.440   4.457  11.246  0.1637  0.2537 -0.0683
  937MPD2    C313756   3.513   4.350  11.188 -0.4236 -0.4103  0.1264
  937MPD2    C413757   3.467   4.225  11.203  0.1999  0.3002  0.1009
  937MPD2    C513758   3.352   4.207  11.280 -0.0628  0.0945  1.0748
  937MPD2     H13759   3.476   4.555  11.218  1.7471 -0.1845  0.4556
  937MPD2    H113760   3.525   4.140  11.167 -0.3704 -0.7345  1.6003
  937MPD2    H213761   3.192   4.284  11.385  0.6268 -0.4872  2.0249
  937MPD2    H313762   3.316   4.106  11.295  0.2848 -0.2781 -0.5547
  937MPD2     N13763   3.635   4.385  11.121  0.3867  0.3492 -0.2361
  937MPD2    H513764   3.673   4.477  11.141  0.6826 -0.1548  1.4912
  937MPD2    N113765   3.250   4.557  11.361  0.4131  0.1868  0.6449
  937MPD2    H713766   3.297   4.646  11.346 -0.5921  0.7451  0.8437
  938MPD2     C13767   0.922   0.370   0.463 -0.3290  0.2628  0.4787
  938MPD2    C113768   0.897   0.405   0.596  0.3618  0.9193  0.5864
  938MPD2    C213769   0.866   0.314   0.690 -0.1986 -0.0204  0.4889
  938MPD2    C313770   0.857   0.181   0.649  0.3405 -0.3919 -0.5012
  938MPD2    C413771   0.870   0.141   0.519 -0.4686  0.1359 -0.4332
  938MPD2    C513772   0.900   0.240   0.428  0.2716 -0.4933  0.9041
  938MPD2     H13773   0.873   0.343   0.794 -3.4083  0.7835  0.4586
  938MPD2    H113774   0.865   0.040   0.479 -0.8903  0.7053 -1.8122
  938MPD2    H213775   0.940   0.446   0.387  1.7606 -0.5091  0.1942
  938MPD2    H313776   0.909   0.212   0.323 -1.8029  0.7426  0.4037
  938MPD2     N13777   0.828   0.075   0.741 -0.6039  0.7002 -0.1481
  938MPD2    H513778   0.806   4.718   0.705 -2.1574  1.6565 -1.6718
  938MPD2    N113779   0.913   0.537   0.636 -0.0828  0.0063 -0.0521
  938MPD2    H713780   0.857   0.560   0.717  1.5088  0.8297  0.8198
  939MPD2     C13781   1.733   2.004   0.621  0.0599  0.2545 -0.2178
  939MPD2    C113782   1.868   1.989   0.651 -0.5556  0.4612  0.1109
  939MPD2    C213783   1.935   1.885   0.591 -0.7822 -0.2914  0.2901
  939MPD2    C313784   1.878   1.794   0.501  0.6505  0.3576  0.0293
  939MPD2    C413785   1.744   1.818   0.468  0.4722  0.8687  0.5737
  939MPD2    C513786   1.679   1.920   0.530 -0.2322  0.3820 -0.2630
  939MPD2     H13787   2.038   1.867   0.616 -0.2934  1.6406 -0.3311
  939MPD2    H113788   1.701   1.745   0.401  1.6223  0.5073  0.2322
  939MPD2    H213789   1.669   2.081   0.662  1.7649  1.5318  0.0773
  939MPD2    H313790   1.576   1.937   0.502 -1.0689 -0.3785  2.3889
  939MPD2     N13791   1.957   1.679   0.462  0.0441 -0.0677 -0.2683
  939MPD2    H513792   2.049   1.673   0.505  0.2623  0.2530 -0.6845
  939MPD2    N113793   1.915   2.082   0.747  0.0859 -0.6080 -0.9331
  939MPD2    H713794   1.844   2.142   0.789 -0.3658 -1.2958 -0.7147
  940MPD2     C13795   0.915   3.342  12.904 -0.3618  0.1671 -0.7432
  940MPD2    C113796   0.995   3.281  12.996  0.7926 -0.3030 -0.3190
  940MPD2    C213797   1.109   3.212  12.952  0.5570 -0.8567 -0.4738
  940MPD2    C313798   1.149   3.211  12.821  0.2396 -0.2536  0.6276
  940MPD2    C413799   1.059   3.255  12.727 -0.5161 -0.1376 -0.0895
  940MPD2    C513800   0.937   3.315  12.773 -0.3065 -0.1016 -0.8420
  940MPD2     H13801   1.172   3.164  13.027 -1.1123 -0.6867  1.0262
  940MPD2    H113802   1.074   3.232  12.622 -0.3543 -2.2289  0.4033
  940MPD2    H213803   0.826   3.401  12.926  0.6500  2.2816 -2.4150
  940MPD2    H313804   0.874   3.359  12.697  0.0314  2.5122  0.3917
  940MPD2     N13805   1.273   3.154  12.783 -0.7914 -0.4879  0.1401
  940MPD2    H513806   1.283   3.143  12.682 -0.5876 -1.5534  0.2716
  940MPD2    N113807   0.955   3.278  13.133  0.1475  0.0546  0.4104
  940MPD2    H713808   1.023   3.247  13.202 -0.0183 -2.3926 -0.5350
  941MPD2     C13809   0.140   1.810   9.332  0.5307  0.4153  0.0757
  941MPD2    C113810   0.160   1.759   9.460  0.5799 -0.3445 -0.1552
  941MPD2    C213811   0.054   1.698   9.520  0.3861 -0.2436  0.3137
  941MPD2    C313812   4.672   1.684   9.460 -0.6473  0.6569 -0.5408
  941MPD2    C413813   4.654   1.732   9.330  0.3449  0.0175 -0.1709
  941MPD2    C513814   0.020   1.796   9.268 -0.2480  1.2178  0.5868
  941MPD2     H13815   0.058   1.668   9.624  0.9100 -0.3531  0.2637
  941MPD2    H113816   4.557   1.720   9.282 -0.8091  1.2613  1.9098
  941MPD2    H213817   0.204   1.878   9.277 -0.6143 -0.1066 -1.8743
  941MPD2    H313818   0.016   1.845   9.171 -2.0575 -2.2863 -1.1029
  941MPD2     N13819   4.557   1.642   9.526  0.4005  0.4117  0.9181
  941MPD2    H513820   4.470   1.653   9.475  0.8041  1.2844  0.4136
  941MPD2    N113821   0.280   1.777   9.532  0.0177 -0.3424 -0.2853
  941MPD2    H713822   0.281   1.723   9.618  2.2817  0.3506  0.1141
  942MPD2     C13823   4.665   3.345   9.169 -0.3886  0.2284  0.2605
  942MPD2    C113824   4.683   3.481   9.185 -0.2261 -0.5363 -0.3006
  942MPD2    C213825   0.073   3.533   9.167 -0.4119 -0.4276 -0.7293
  942MPD2    C313826   0.175   3.446   9.136  0.1463  0.8982 -0.3679
  942MPD2    C413827   0.156   3.311   9.122  0.8930  0.0844  0.4018
  942MPD2    C513828   0.032   3.261   9.137 -0.1179  0.6200  0.6071
  942MPD2     H13829   0.083   3.640   9.158  0.0296 -0.5951 -2.1466
  942MPD2    H113830   0.236   3.247   9.086 -0.5898 -0.2591 -2.3021
  942MPD2    H213831   4.569   3.294   9.171 -0.6807  0.7155 -1.9931
  942MPD2    H313832   0.013   3.161   9.099  0.0562  0.5887  0.6021
  942MPD2     N13833   0.311   3.485   9.115 -0.7933 -0.1228  0.0297
  942MPD2    H513834   0.387   3.418   9.112 -0.6255  0.1304 -1.4187
  942MPD2    N113835   4.569   3.563   9.214  0.1280  0.4342  0.3442
  942MPD2    H713836   4.587   3.663   9.217 -1.4871  0.7647 -1.2954
  943MPD2     C13837   3.945   2.047   9.648  0.6096  0.4381  0.1201
  943MPD2    C113838   3.827   1.979   9.690 -0.4171  0.8556  0.2647
  943MPD2    C213839   3.756   2.044   9.796  0.2058  0.3768 -0.2614
  943MPD2    C313840   3.801   2.161   9.854  0.3505 -0.0828 -0.5469
  943MPD2    C413841   3.912   2.229   9.805 -0.1952  0.2262  0.2997
  943MPD2    C513842   3.986   2.172   9.697  0.2901  0.2335  0.1597
  943MPD2     H13843   3.661   2.000   9.824  0.2110  1.3588  1.3525
  943MPD2    H113844   3.944   2.327   9.840  0.5120  0.1331 -0.0763
  943MPD2    H213845   3.999   2.013   9.560  4.5206  0.7596  2.3984
  943MPD2    H313846   4.072   2.224   9.656  0.2830 -0.3851 -0.6336
  943MPD2     N13847   3.726   2.231   9.948 -0.3522 -0.4701  0.7309
  943MPD2    H513848   3.745   2.330   9.963 -0.5140 -0.1690 -1.0380
  943MPD2    N113849   3.789   1.859   9.627  0.2785 -0.2761  0.5174
  943MPD2    H713850   3.844   1.832   9.546  0.0808  2.2130 -0.4236
  944MPD2     C13851   2.747   1.587  10.602  0.2110  0.1546 -0.1467
  944MPD2    C113852   2.770   1.480  10.689  0.5622 -0.2110 -0.2125
  944MPD2    C213853   2.816   1.504  10.816 -0.1219 -0.3221  0.1713
  944MPD2    C313854   2.827   1.630  10.866  0.0610 -0.4916 -0.3375
  944MPD2    C413855   2.798   1.735  10.781  0.3015  0.8166 -0.5030
  944MPD2    C513856   2.754   1.712  10.650  0.2277 -0.0209  0.5791
  944MPD2     H13857   2.833   1.419  10.882 -0.8320  0.3053  1.1521
  944MPD2    H113858   2.782   1.837  10.812  2.7997  1.1362 -0.2735
  944MPD2    H213859   2.707   1.582  10.501  1.3525  1.0672 -0.6367
  944MPD2    H313860   2.718   1.785  10.579  0.5630 -1.3781 -0.9894
  944MPD2     N13861   2.866   1.658  10.995  0.7602 -0.3964 -0.3164
  944MPD2    H513862   2.856   1.583  11.063 -1.9012  0.0676 -0.2046
  944MPD2    N113863   2.738   1.349  10.646 -0.0546 -0.0274 -0.6364
  944MPD2    H713864   2.705   1.343  10.550  2.1378  1.8361 -1.5293
    1TMC1    C113865   1.750   2.072  14.790  0.1330  0.2935  0.7087
    1TMC1    C213866   1.659   2.032  14.694  0.7281  0.0084 -0.4375
    1TMC1    C313867   1.613   1.906  14.703 -0.4041  0.5903  1.0491
    1TMC1    C413868   1.784   1.991  14.890 -0.4607 -0.1564  0.1788
    1TMC1    C513869   1.721   1.872  14.898 -0.1579  0.6073 -0.3443
    1TMC1    C613870   1.641   1.816  14.801 -0.1904  0.1564 -1.0189
    1TMC1     C13871   1.775   2.221  14.813  0.6720  0.1859 -0.0611
    1TMC1     O13872   1.806   2.254  14.925  0.0294 -0.1075 -0.1965
    1TMC1     H13873   1.615   2.097  14.620 -0.7058 -0.2818  0.1552
    1TMC1    H113874   1.846   2.025  14.972  1.2243 -0.1021 -1.1268
    1TMC1    H213875   1.629   1.708  14.802 -0.3867  0.1838 -0.4513
    1TMC1    C713876   1.740   1.788  15.014  0.1884  0.0756 -0.4056
    1TMC1    C813877   1.572   1.843  14.582  0.4289  0.2438  0.4969
    1TMC1    O113878   1.834   1.794  15.087 -0.1450 -0.2991  0.3463
    1TMC1    O213879   1.503   1.743  14.566 -0.2762  0.9097  0.3846
    1TMC1    O313880   1.623   1.735  15.045  0.5074 -0.0188  0.8010
    1TMC1    H313881   1.553   1.737  14.977 -0.1298 -0.0407  1.4517
    1TMC1    O513882   1.590   1.934  14.487  0.0888  0.2880 -0.5887
    1TMC1    H513883   1.679   1.975  14.499  1.2329 -1.9348 -1.4599
    2MPD2     C13884   1.824   2.708  14.638 -0.8709 -0.8781  0.5113
    2MPD2    C113885   1.814   2.622  14.530  0.0736 -0.0366  0.2782
    2MPD2    C213886   1.797   2.487  14.552 -0.1075  0.4607 -0.5981
    2MPD2    C313887   1.797   2.437  14.682 -0.0299 -0.3675  0.3487
    2MPD2    C413888   1.810   2.521  14.792 -0.1636 -0.6256 -0.2066
    2MPD2    C513889   1.829   2.654  14.767  0.3995 -0.0940 -0.2704
    2MPD2     H13890   1.791   2.416  14.471 -2.2909  0.3483 -0.3353
    2MPD2    H113891   1.807   2.480  14.893  1.0626  1.9038  0.8678
    2MPD2    H213892   1.836   2.815  14.627 -1.8578 -0.8480 -0.2537
    2MPD2    H313893   1.846   2.717  14.854  1.6131 -2.1985  1.0079
    2MPD2     N13894   1.767   2.296  14.699  0.4915  0.2539 -0.2578
    2MPD2    H513895   1.752   2.244  14.614  0.4062 -1.3956  0.7608
    2MPD2    N113896   1.828   2.690  14.405 -1.0441 -0.5532  0.4868
    2MPD2    H713897   1.846   2.790  14.401  0.5863 -0.8491  0.7085
    3TMC2    C113898   1.893   2.691  14.175 -0.3468  0.3992 -0.0188
    3TMC2    C213899   1.968   2.801  14.195 -0.0511 -0.2674 -0.1690
    3TMC2    C313900   2.037   2.856  14.088 -0.0494  0.3334  0.5990
    3TMC2    C413901   1.881   2.632  14.052  0.3750 -0.0217  0.7644
    3TMC2    C513902   1.956   2.685  13.950 -0.0872 -0.2276 -0.4483
    3TMC2    C613903   2.026   2.802  13.964  0.3720 -0.5982  0.2358
    3TMC2     C13904   1.825   2.621  14.284  0.4606 -0.2997 -0.0518
    3TMC2     O13905   1.781   2.511  14.259 -0.5166  0.3954  0.2964
    3TMC2     H13906   1.990   2.850  14.289  2.9549  0.4127 -1.2150
    3TMC2    H113907   1.822   2.541  14.050  2.0321 -1.0352 -2.7148
    3TMC2    H213908   2.087   2.839  13.883 -0.2404  0.2862  0.1771
    3TMC2    C713909   1.936   2.615  13.823  0.7175  0.1848  0.1058
    3TMC2    C813910   2.086   2.992  14.111  0.3921  0.3828 -0.2643
    3TMC2    O113911   1.902   2.502  13.831  0.1726 -0.5103 -0.4907
    3TMC2    O213912   2.163   3.027  14.199 -0.5888 -0.5773  0.4821
    3TMC2    O513913   2.064   3.059  14.002 -0.6864 -0.2460 -0.2487
    3TMC2    H513914   1.993   3.010  13.956  1.2086  0.3345 -3.8037
    4TMC2    C113915   1.567   3.181  13.197 -0.4452 -0.4164 -0.4059
    4TMC2    C213916   1.609   3.274  13.108 -0.6942 -0.1707 -0.0049
    4TMC2    C313917   1.747   3.267  13.072 -0.7493 -0.4255  0.1713
    4TMC2    C413918   1.654   3.075  13.238  0.3565 -0.4175 -0.6539
    4TMC2    C513919   1.782   3.072  13.195  0.0536 -0.1105  0.0139
    4TMC2    C613920   1.830   3.168  13.114  0.0955 -0.2444 -0.2958
    4TMC2     C13921   1.454   3.208  13.280 -1.0946  0.1096  0.5158
    4TMC2     O13922   1.451   3.145  13.384 -0.4267  0.0521 -0.6302
    4TMC2     H13923   1.552   3.363  13.086  0.7316  0.3774 -1.4776
    4TMC2    H113924   1.637   3.015  13.326 -0.4966 -1.1570 -1.3189
    4TMC2    H213925   1.933   3.173  13.080  0.3836 -1.1624  0.4517
    4TMC2    C713926   1.871   2.991  13.274 -0.1337 -0.2260  0.5746
    4TMC2    C813927   1.770   3.319  12.938  0.2207 -0.8620 -0.0723
    4TMC2    O113928   1.959   3.039  13.341 -0.3677  0.2210 -0.2322
    4TMC2    O213929   1.680   3.298  12.858 -0.6358  0.0693  0.6421
    4TMC2    O513930   1.897   3.304  12.904  0.4087  0.3830 -0.0462
    4TMC2    H513931   1.960   3.308  12.978  0.2566 -0.9968  0.1568
    5MPD2     C13932   1.062   3.490  13.462  0.6743 -0.9969  0.1799
    5MPD2    C113933   1.087   3.532  13.332  0.5130  0.5686  1.2144
    5MPD2    C213934   1.193   3.478  13.264 -1.1438  0.1932  0.5885
    5MPD2    C313935   1.269   3.376  13.319 -0.1543  0.2587  0.0687
    5MPD2    C413936   1.235   3.328  13.443  0.0228 -0.1024 -0.6074
    5MPD2    C513937   1.137   3.389  13.513  0.1088  0.0178 -0.4080
    5MPD2     H13938   1.216   3.513  13.164 -0.3638 -1.0370  0.3343
    5MPD2    H113939   1.296   3.253  13.493  1.7619  1.6062 -0.1662
    5MPD2    H213940   0.977   3.531  13.515  1.0682 -0.1048  0.1168
    5MPD2    H313941   1.117   3.356  13.614 -1.0608  2.7266  0.2634
    5MPD2     N13942   1.369   3.313  13.236  0.0152 -0.6236  0.4428
    5MPD2    H513943   1.391   3.359  13.148  0.8314  0.0560  1.0008
    5MPD2    N113944   1.008   3.646  13.282 -0.2839  0.4274 -0.1315
    5MPD2    H713945   0.956   3.699  13.351 -0.4414  0.6512 -0.4179
    6MPD1     C13946   4.328   0.238  13.373 -0.6975  0.7595 -0.1769
    6MPD1    C113947   4.326   0.191  13.243  0.4838 -0.2583  0.1367
    6MPD1    C213948   4.429   0.110  13.193  0.0576  0.5684 -0.5491
    6MPD1    C313949   4.534   0.079  13.283 -0.5675  0.4861  0.0506
    6MPD1    C413950   4.529   0.134  13.413 -0.3641  0.2179  0.8454
    6MPD1    C513951   4.430   0.211  13.457  0.5365 -0.0091  0.3688
    6MPD1     H13952   4.423   0.067  13.094  1.5016  0.0813 -0.4182
    6MPD1    H113953   4.615   0.113  13.475  0.8024  2.3343 -0.0451
    6MPD1    H213954   4.251   0.305  13.411  0.9043  0.8486  2.9375
    6MPD1    H313955   4.427   0.250  13.558 -4.0882 -2.2515  1.1046
    6MPD1     N13956   4.649   0.009  13.246 -0.3802  0.1018  0.2749
    6MPD1    H513957   4.726   0.003  13.311  1.5667  2.4648 -1.8191
    6MPD1    N113958   4.221   0.230  13.154 -0.4730 -0.4161  0.1631
    6MPD1    H613959   4.188   0.156  13.092  2.0227 -1.6980  0.3608
    6MPD1    H713960   4.141   0.271  13.202  1.0446 -0.6390  2.8817
    7MPD2     C13961   0.254   3.992  12.934 -0.4816 -0.3305 -0.4142
    7MPD2    C113962   0.334   4.089  12.978  0.3618  0.6938 -0.4556
    7MPD2    C213963   0.470   4.067  13.002  0.5886 -0.4301 -0.3937
    7MPD2    C313964   0.522   3.948  12.973 -0.3177  0.2095  0.2761
    7MPD2    C413965   0.437   3.843  12.933  0.0992 -0.6582  0.5521
    7MPD2    C513966   0.305   3.867  12.917  0.3653  0.1052  0.3847
    7MPD2     H13967   0.521   4.154  13.041  2.9211 -2.3432  0.7565
    7MPD2    H113968   0.474   3.744  12.911 -0.0580 -0.0835 -2.3036
    7MPD2    H213969   0.149   4.016  12.923 -0.3796 -0.1550 -1.0338
    7MPD2    H313970   0.238   3.786  12.890 -0.3478  0.9148 -0.2734
    7MPD2     N13971   0.663   3.930  12.984  0.2649 -0.1792 -0.5260
    7MPD2    H513972   0.696   3.835  12.966 -4.8641 -1.8492 -1.3180
    7MPD2    N113973   0.290   4.221  12.999  0.0463 -0.6165  0.1460
    7MPD2    H713974   0.358   4.294  13.020  0.4885 -1.1788  0.6774
    8TMC3    C113975   0.886   3.997  13.006 -0.0607  0.0443 -0.2937
    8TMC3    C213976   0.897   3.865  13.033  0.0078  0.0437 -0.0549
    8TMC3    C313977   0.952   3.834  13.153  0.4904  0.1562 -0.5114
    8TMC3    C413978   0.944   4.093  13.082  0.1200 -0.5881 -0.5034
    8TMC3    C513979   0.996   4.051  13.202 -0.2782 -0.1513 -0.2913
    8TMC3    C613980   1.004   3.921  13.242  0.5150 -0.1657  0.0800
    8TMC3     C13981   0.750   4.034  12.994 -0.5280 -0.2943 -0.5193
    8TMC3     O13982   0.733   4.153  12.995 -0.7383  0.2692  0.1567
    8TMC3     H13983   0.858   3.789  12.967 -1.0670  0.7716 -0.2542
    8TMC3    H113984   0.962   4.195  13.049 -0.9764 -0.1347  0.3141
    8TMC3    H213985   1.034   3.899  13.343  1.8330  0.4049 -0.1900
    8TMC3    C713986   0.948   4.143  13.310  0.5225  0.5565  0.4446
    8TMC3    C813987   1.004   3.696  13.155  0.9081 -0.3288 -0.4381
    8TMC3    O113988   0.986   4.116  13.427  1.0510 -0.0165 -0.0385
    8TMC3    O213989   1.070   3.671  13.057  0.3241 -0.0229 -0.3184
    9TMC3    C113990   0.049   4.605  13.116  0.1427 -0.1765  0.0624
    9TMC3    C213991   0.161   4.645  13.182  0.0841 -0.2127 -0.0917
    9TMC3    C313992   0.269   4.562  13.202 -0.4194 -0.4549  0.9513
    9TMC3    C413993   0.048   4.486  13.044  0.2950  0.8553 -0.3542
    9TMC3    C513994   0.157   4.399  13.072  0.1071 -0.2985  0.6867
    9TMC3    C613995   0.261   4.435  13.154  0.5872 -0.1038  0.3764
    9TMC3     C13996   4.666   4.679  13.122  0.4857  0.0697  0.1457
    9TMC3     O13997   4.597   4.664  13.025 -0.2324 -0.0336  0.3960
    9TMC3     H13998   0.165   0.008  13.227  0.2094 -0.5759  0.6968
    9TMC3    H113999   4.716   4.466  12.962 -0.9574  0.2938  0.8316
    9TMC3    H214000   0.332   4.359  13.186  0.5384  0.0972  0.9633
    9TMC3    C714001   0.162   4.273  13.006 -0.0420  0.2113 -0.3907
    9TMC3    C814002   0.379   4.599  13.285  0.4563  0.0630  0.2206
    9TMC3    O114003   0.060   4.213  12.985  0.0875 -0.4490  0.1441
    9TMC3    O214004   0.354   4.663  13.387  0.0237 -0.5209 -0.3457
   10MPD2     C14005   0.816   4.381  13.455 -0.5574  0.4565  0.2267
   10MPD2    C114006   0.788   4.338  13.326  0.2454 -0.3730 -0.0537
   10MPD2    C214007   0.684   4.401  13.261  0.4082 -0.4037 -0.4179
   10MPD2    C314008   0.606   4.502  13.311 -0.2361  0.4109 -0.2961
   10MPD2    C414009   0.639   4.542  13.440  0.1348 -0.5170 -0.2851
   10MPD2    C514010   0.741   4.487  13.502  1.0182 -0.2824 -0.0464
   10MPD2     H14011   0.663   4.351  13.167  4.2537  1.0130 -2.0078
   10MPD2    H114012   0.581   4.623  13.482  1.7852  0.0201  0.9817
   10MPD2    H214013   0.893   4.343  13.521 -0.4831  0.8336  0.3566
   10MPD2    H314014   0.757   4.513  13.607 -2.8608 -0.3460  0.5820
   10MPD2     N14015   0.486   4.528  13.242  0.0420 -0.0435  0.5810
   10MPD2    H514016   0.482   4.488  13.149 -2.1769  0.1357  0.5929
   10MPD2    N114017   0.854   4.234  13.260  0.1948 -0.0041  0.3270
   10MPD2    H714018   0.815   4.223  13.167 -0.9403 -0.0042  0.8119
   11MPD2     C14019   1.907   2.546  13.524  0.1222  0.1306 -0.1953
   11MPD2    C114020   1.926   2.673  13.574  0.7447  0.1320  0.0864
   11MPD2    C214021   1.918   2.781  13.484 -0.4653  0.3308 -0.1325
   11MPD2    C314022   1.878   2.757  13.352  0.5770  0.0016  0.6193
   11MPD2    C414023   1.855   2.630  13.310  0.2194 -0.2776 -0.0412
   11MPD2    C514024   1.883   2.525  13.392  0.3188  0.3016 -0.7698
   11MPD2     H14025   1.924   2.880  13.528 -0.1181 -0.0301  0.6496
   11MPD2    H114026   1.830   2.615  13.206  1.0150 -2.7487  0.1282
   11MPD2    H214027   1.910   2.459  13.590 -1.6216  0.3176  0.1452
   11MPD2    H314028   1.864   2.426  13.353 -0.7191  0.3495 -0.3673
   11MPD2     N14029   1.830   2.865  13.272  0.3265 -0.6180 -0.3469
   11MPD2    H514030   1.774   2.838  13.191  1.2788  0.2292 -1.2879
   11MPD2    N114031   1.940   2.707  13.717 -0.6435 -0.0762  0.6930
   11MPD2    H714032   1.947   2.806  13.740 -2.1139  0.2959 -0.4446
    1MPD1     C14033   3.530   4.716  16.095 -0.5600 -0.1144  0.9572
    1MPD1    C114034   3.643   0.051  16.133  0.9524  0.1679 -0.2228
    1MPD1    C214035   3.753   0.024  16.058  0.4520  0.3924  0.1290
    1MPD1    C314036   3.751   4.669  15.953 -0.3637 -0.0572 -0.1547
    1MPD1    C414037   3.631   4.610  15.909  0.1614  0.5751 -0.3948
    1MPD1    C514038   3.517   4.626  15.986  0.1350  0.7788  0.5701
    1MPD1     H14039   3.847   0.067  16.088  1.9230 -3.2751  0.7919
    1MPD1    H114040   3.624   4.552  15.818  0.6517  1.0935 -0.7580
    1MPD1    H214041   3.439   4.723  16.153 -1.3256 -0.3211 -0.2110
    1MPD1    H314042   3.426   4.571  15.967  0.9084 -0.5690  0.7480
    1MPD1     N14043   3.867   4.645  15.877 -0.1804 -0.1901 -0.5949
    1MPD1    H514044   3.848   4.582  15.800 -2.2836 -1.4534  0.9857
    1MPD1    N114045   3.651   0.132  16.251 -0.3181 -0.3312 -0.5894
    1MPD1    H614046   3.580   0.204  16.257 -0.2357 -0.1871 -1.4640
    1MPD1    H714047   3.738   0.182  16.267 -1.0559  0.1842  1.8158
    2MPD1     C14048   0.130   0.135  15.959 -0.5593  0.0291 -0.0928
    2MPD1    C114049   0.035   0.093  16.051  0.5857  0.1720  0.0061
    2MPD1    C214050   4.649   0.052  15.996 -0.8466  0.2042  0.1927
    2MPD1    C314051   4.617   0.059  15.859 -0.3630  0.2735 -0.0643
    2MPD1    C414052   4.703   0.123  15.780 -0.2473  0.2152  0.1958
    2MPD1    C514053   0.092   0.159  15.832  0.0894  0.0081 -0.3084
    2MPD1     H14054   4.575   0.024  16.069  1.6165  0.1471  2.6449
    2MPD1    H114055   4.679   0.151  15.678  0.3302  1.0575  0.2941
    2MPD1    H214056   0.231   0.155  15.995 -1.1391  0.7270  1.1576
    2MPD1    H314057   0.155   0.222  15.770  0.1554  0.3079  0.0618
    2MPD1     N14058   4.484   0.025  15.821 -0.2050  0.2458 -0.2881
    2MPD1    H514059   4.415   4.732  15.889 -0.2138 -1.3338 -0.9926
    2MPD1    N114060   0.061   0.052  16.185  0.1971  0.4748  0.5931
    2MPD1    H614061   0.138   0.103  16.229 -0.8873  1.5800  1.2038
    2MPD1    H714062   4.711   0.053  16.240 -0.3195 -1.4916 -0.2004
    3TMC3    C114063   4.299   4.705  15.686 -0.2331 -0.0488  0.3851
    3TMC3    C214064   4.249   4.685  15.564 -0.2530  0.7385  0.5501
    3TMC3    C314065   4.116   4.652  15.553  0.0246  1.1050  0.6284
    3TMC3    C414066   4.217   4.709  15.797 -0.3106  0.1943 -0.4862
    3TMC3    C514067   4.086   4.680  15.779 -0.3297 -0.6625  0.2682
    3TMC3    C614068   4.030   4.658  15.655  0.7441 -0.1074 -0.5415
    3TMC3     C14069   4.438   0.020  15.691  0.1119 -0.1894  0.3289
    3TMC3     O14070   4.491   0.050  15.584  0.0189  0.5792  0.0422
    3TMC3     H14071   4.317   4.695  15.481  0.8844 -1.4893  1.2001
    3TMC3    H114072   4.256   4.721  15.898 -0.1280 -0.6057 -0.4651
    3TMC3    H214073   3.923   4.647  15.637  0.4691 -0.4416  1.3607
    3TMC3    C714074   4.001   4.693  15.899  0.9052 -0.3943 -0.1449
    3TMC3    C814075   4.054   4.629  15.427 -0.0925 -0.0164 -0.0100
    3TMC3    O114076   4.046   0.017  15.995 -0.2997 -0.1508  0.1334
    3TMC3    O214077   3.942   4.579  15.425  0.0108  0.0693 -0.0570
    4MPD1     C14078   3.987   0.026  14.935 -0.0523 -0.6801 -0.1972
    4MPD1    C114079   4.123   4.733  14.948  0.3374 -0.4595 -0.0953
    4MPD1    C214080   4.167   4.712  15.077  0.6164 -0.0795  0.0926
    4MPD1    C314081   4.082   4.693  15.186 -0.4178  0.2456  0.7424
    4MPD1    C414082   3.949   4.721  15.167 -0.3922  0.6514  0.2468
    4MPD1    C514083   3.903   0.013  15.038  0.1948  0.3947 -0.0223
    4MPD1     H14084   4.273   4.705  15.099  0.8216 -0.5994 -1.1084
    4MPD1    H114085   3.880   4.726  15.251  1.3482  2.2413  1.6038
    4MPD1    H214086   3.950   0.046  14.836 -1.2024 -2.7654 -0.1897
    4MPD1    H314087   3.798   0.035  15.024 -0.5647 -1.6610  2.3772
    4MPD1     N14088   4.132   4.663  15.317  0.3531  0.0596  0.4474
    4MPD1    H514089   4.232   4.641  15.319  0.7701  2.0349  1.4472
    4MPD1    N114090   4.212   0.038  14.854 -0.5865 -0.0993  0.0515
    4MPD1    H614091   4.303   4.732  14.872  1.1562  2.5258 -2.6200
    4MPD1    H714092   4.183   0.030  14.757  0.1198  1.5138 -0.2922
    1TCq1    O114093   0.531   3.567  11.600  0.2676 -0.2381 -0.1473
    1TCq1    C114094   0.629   3.585  11.692 -0.6379  0.2029 -0.7769
    1TCq1    O214095   0.751   3.582  11.675 -0.4306 -0.3270 -0.3297
    1TCq1    C214096   0.568   3.573  11.814 -0.0826  0.3027  0.0795
    1TCq1    C314097   0.644   3.533  11.910  0.5692  0.1206  0.8904
    1TCq1    C414098   0.597   3.537  12.043  0.7111 -0.2600  0.1115
    1TCq1    C514099   0.483   3.611  12.076 -0.0164 -0.6642 -0.4978
    1TCq1    C614100   0.406   3.661  11.967  0.1761  0.7535  0.6442
    1TCq1    C714101   0.447   3.635  11.840  0.9386  0.1990  0.7018
    1TCq1    C814102   0.272   3.706  11.975  0.0079  0.2756 -0.1127
    1TCq1    O414103   0.236   3.743  12.083 -0.4395  0.4765 -0.0213
    1TCq1    C914104   0.693   3.514  12.148  0.1701 -0.3648  0.1557
    1TCq1    O514105   0.650   3.517  12.270  0.4316  0.1442 -0.0729
    1TCq1    O614106   0.809   3.477  12.113 -0.4124 -0.1913 -0.3406
    1TCq1    H114107   0.453   3.524  11.640 -0.0221  0.7470  0.3633
    1TCq1    H214108   0.733   3.472  11.896  0.7414  0.4693  0.4659
    1TCq1    H314109   0.455   3.631  12.179  1.3930 -1.0423 -0.0484
    1TCq1    H414110   0.408   3.687  11.753  0.1900  2.2294  2.2697
    2MPD1     C14111   4.531   3.757  11.798  0.5973 -0.2442 -0.1878
    2MPD1    C114112   4.602   3.676  11.705 -0.2564  0.1085 -0.2153
    2MPD1    C214113   4.734   3.657  11.732  0.1893  0.0399 -0.7530
    2MPD1    C314114   0.056   3.702  11.846 -0.7405  0.4227 -0.3609
    2MPD1    C414115   4.724   3.770  11.939 -0.4872  0.5228  0.1546
    2MPD1    C514116   4.590   3.794  11.916 -0.1268  0.0385  0.4170
    2MPD1     H14117   0.057   3.616  11.651  1.6986  0.2712  0.2144
    2MPD1    H114118   0.033   3.806  12.030 -1.3848  0.4134  0.6468
    2MPD1    H214119   4.430   3.783  11.771  0.9474 -0.6495 -1.9266
    2MPD1    H314120   4.532   3.846  11.992 -0.6749 -0.8054  0.5828
    2MPD1     N14121   0.193   3.667  11.863 -0.3468 -1.0764  0.7946
    2MPD1    H514122   0.245   3.628  11.785  2.2021  1.3977  1.2204
    2MPD1    N114123   4.550   3.638  11.581 -0.1075  0.5569  0.1035
    2MPD1    H614124   4.449   3.634  11.578 -0.1348  1.1405  0.2273
    2MPD1    H714125   4.596   3.555  11.543 -0.2514  0.3410  0.4069
    1TMC1    C114126   3.145   2.963   1.072 -0.0826 -0.2232  0.6449
    1TMC1    C214127   3.269   2.910   1.075 -0.6930  0.3565  0.0705
    1TMC1    C314128   3.328   2.876   0.952 -0.2478  0.6603  0.3320
    1TMC1    C414129   3.095   2.997   0.949  0.4577 -1.2575 -0.3432
    1TMC1    C514130   3.158   2.979   0.832 -0.4116 -0.2156 -0.2133
    1TMC1    C614131   3.271   2.896   0.827  0.4906  0.0971 -0.6104
    1TMC1     C14132   3.089   3.036   1.186 -0.7312  0.1471 -0.1753
    1TMC1     O14133   3.055   3.150   1.160  0.6770 -0.4731  0.0331
    1TMC1     H14134   3.330   2.916   1.165 -1.0455  0.5812  0.2910
    1TMC1    H114135   3.009   3.064   0.948  0.0455 -1.7912 -0.7331
    1TMC1    H214136   3.330   2.889   0.737  1.0629  1.4107 -0.3335
    1TMC1    C714137   3.080   2.982   0.714 -0.6406 -0.3516  0.3320
    1TMC1    C814138   3.452   2.804   0.951 -0.1902  0.0189 -0.1558
    1TMC1    O114139   3.121   2.968   0.598 -0.0064  0.3100 -0.2021
    1TMC1    O214140   3.522   2.800   0.854 -0.2626 -0.6192  0.1157
    1TMC1    O314141   2.967   2.912   0.749 -0.2633 -0.4274 -0.2310
    1TMC1    H314142   2.963   2.881   0.843 -1.0152  1.3719  0.3355
    1TMC1    O514143   3.461   2.733   1.066 -0.2984  0.0377 -0.2798
    1TMC1    H514144   3.374   2.729   1.109  0.9078 -0.5910  2.0692
    2MPD1     C14145   3.037   3.158   1.670 -0.0914 -0.3094 -0.1575
    2MPD1    C114146   3.113   3.045   1.667  0.3355  0.4266  0.4166
    2MPD1    C214147   3.126   2.983   1.544  0.2673 -0.3695 -0.1182
    2MPD1    C314148   3.090   3.047   1.428  0.6519  0.4633  0.4298
    2MPD1    C414149   3.024   3.165   1.439 -0.3527  0.0426 -0.0218
    2MPD1    C514150   3.000   3.225   1.559  0.6323 -0.4106 -0.3329
    2MPD1     H14151   3.177   2.887   1.538  0.0022 -0.4702 -0.7355
    2MPD1    H114152   3.005   3.229   1.353 -1.3465 -0.1846  0.0339
    2MPD1    H214153   2.994   3.203   1.759 -0.2094 -1.1559  0.2109
    2MPD1    H314154   2.942   3.316   1.569 -0.2356 -0.9506 -0.4415
    2MPD1     N14155   3.110   2.982   1.308 -0.2459  0.7006 -0.0914
    2MPD1    H514156   3.144   2.887   1.307  0.1599  0.8477 -0.4532
    2MPD1    N114157   3.154   2.977   1.787 -0.6065 -0.3654  0.1283
    2MPD1    H614158   3.176   3.044   1.861  0.2388 -0.6711  0.1600
    2MPD1    H714159   3.233   2.912   1.780  2.0884  2.7673  1.1743
    1MPD1     C14160   2.304   4.569  12.587 -0.3779  0.6869  0.1189
    1MPD1    C114161   2.194   4.614  12.516  0.8240  0.1989 -0.1171
    1MPD1    C214162   2.177   4.551  12.397  0.0228 -0.0098 -0.2503
    1MPD1    C314163   2.252   4.448  12.341 -0.2483 -0.2658  0.3621
    1MPD1    C414164   2.369   4.421  12.417  0.7414  0.0867  0.7777
    1MPD1    C514165   2.389   4.467  12.544 -0.4657 -0.6941 -0.1018
    1MPD1     H14166   2.092   4.573  12.333  2.1918  1.3241 -2.6446
    1MPD1    H114167   2.433   4.337  12.394  1.5352  1.1561 -0.9434
    1MPD1    H214168   2.328   4.615  12.682  3.2991  3.2757 -2.0573
    1MPD1    H314169   2.475   4.442  12.604  0.2302 -1.3590 -1.3708
    1MPD1     N14170   2.213   4.389  12.219  0.2739  0.3717  0.0679
    1MPD1    H514171   2.123   4.415  12.181 -0.2671 -1.5238  0.0461
    1MPD1    N114172   2.096   4.698  12.574  0.2644  0.6130  0.0277
    1MPD1    H614173   2.056   0.021  12.502  5.5035  6.5988  2.0330
    1MPD1    H714174   2.134   0.021  12.647  0.1549  1.0490 -0.2704
    2MPD1     C14175   1.485   4.168  10.752  0.0990 -0.1007 -0.2642
    2MPD1    C114176   1.466   4.135  10.620 -0.1620 -0.1947  0.1477
    2MPD1    C214177   1.584   4.145  10.536 -0.4998 -0.2728  0.7126
    2MPD1    C314178   1.710   4.144  10.594  0.2186  0.3763 -0.2725
    2MPD1    C414179   1.726   4.155  10.731 -0.6025  0.4234  0.0937
    2MPD1    C514180   1.610   4.170  10.799  0.8410 -0.2131  0.7986
    2MPD1     H14181   1.578   4.146  10.428 -0.3094 -2.2900  0.6851
    2MPD1    H114182   1.815   4.159  10.794  0.2816 -0.3918 -1.0909
    2MPD1    H214183   1.413   4.182  10.832  1.6698 -3.6166  1.7879
    2MPD1    H314184   1.625   4.181  10.906  1.1632  2.2422  0.5001
    2MPD1     N14185   1.830   4.121  10.526 -0.2523  0.0177 -0.0113
    2MPD1    H514186   1.914   4.105  10.580 -1.3709 -2.7044  0.9197
    2MPD1    N114187   1.333   4.142  10.578  0.3806  0.4308 -0.1706
    2MPD1    H614188   1.271   4.106  10.651  1.2885 -1.2726 -0.2376
    2MPD1    H714189   1.325   4.085  10.495 -0.4135 -0.2041  0.3398
    3MPD1     C14190   1.792   3.458   9.985 -0.2468  0.1886  0.7598
    3MPD1    C114191   1.725   3.527  10.085  0.0733 -0.4134  0.5770
    3MPD1    C214192   1.802   3.621  10.158 -0.1091  0.6857 -0.7955
    3MPD1    C314193   1.932   3.659  10.123  0.2791 -0.0235 -0.3561
    3MPD1    C414194   1.995   3.590  10.018  0.0847  0.2892  0.7609
    3MPD1    C514195   1.919   3.491   9.954 -0.5889 -1.3327 -0.6842
    3MPD1     H14196   1.760   3.675  10.241  2.3617  0.4161  0.6168
    3MPD1    H114197   2.089   3.628   9.980  1.6922 -0.6378  3.8248
    3MPD1    H214198   1.746   3.375   9.933 -0.5802  0.7116  0.2258
    3MPD1    H314199   1.969   3.447   9.869  1.8372  1.5415 -0.7742
    3MPD1     N14200   1.985   3.770  10.195  0.3636  0.5904 -0.2802
    3MPD1    H514201   1.935   3.797  10.279  0.2811  1.1895 -0.5244
    3MPD1    N114202   1.595   3.485  10.125 -0.4525 -0.1142  0.1856
    3MPD1    H614203   1.533   3.561  10.154 -1.1342 -0.7708  0.4571
    3MPD1    H714204   1.553   3.422  10.056  1.4247  1.0866 -2.0308
    4MPD2     C14205   2.199   4.596  11.543  0.0381 -0.1194 -0.6345
    4MPD2    C114206   2.265   4.477  11.576 -0.0777 -0.2963 -0.4174
    4MPD2    C214207   2.382   4.442  11.524 -0.0379 -0.1363 -0.0182
    4MPD2    C314208   2.433   4.523  11.423  0.3589  0.3553 -0.1677
    4MPD2    C414209   2.371   4.641  11.386 -0.2445 -0.5316  0.4539
    4MPD2    C514210   2.254   4.678  11.447 -0.1998  0.3874  0.5756
    4MPD2     H14211   2.423   4.346  11.554  0.5709  0.3413  0.6702
    4MPD2    H114212   2.418   4.715  11.322  1.3270 -2.8834 -1.0957
    4MPD2    H214213   2.104   4.632  11.581  0.6670  0.1908  0.6351
    4MPD2    H314214   2.195   0.029  11.423  0.7529  0.4292 -1.6499
    4MPD2     N14215   2.553   4.486  11.355  0.0010  0.5525 -0.1404
    4MPD2    H514216   2.590   4.397  11.388  0.0552  0.6542  0.0764
    4MPD2    N114217   2.214   4.393  11.675  0.2159 -0.4756 -0.9489
    4MPD2    H714218   2.273   4.311  11.689 -2.2909 -2.0187  0.4816
    5TMC3    C114219   2.097   4.294  11.831  0.3666 -0.3042 -0.1891
    5TMC3    C214220   2.128   4.328  11.961 -0.4369 -0.4215  0.1933
    5TMC3    C314221   2.222   4.256  12.030  0.1409 -0.0289 -0.2780
    5TMC3    C414222   2.150   4.178  11.775  0.2394 -0.1271 -0.1665
    5TMC3    C514223   2.241   4.107  11.848  0.7028 -0.3381  0.1917
    5TMC3    C614224   2.278   4.145  11.977  0.1778  0.1812  0.2123
    5TMC3     C14225   2.107   4.412  11.754  0.4927 -0.9033  0.7352
    5TMC3     O14226   2.033   4.505  11.771 -0.5156 -0.1968  0.5323
    5TMC3     H14227   2.109   4.428  11.999  1.3074 -0.3035  0.7910
    5TMC3    H114228   2.127   4.151  11.672  0.1601  0.4523 -0.3012
    5TMC3    H214229   2.343   4.082  12.036  1.6355  0.2315 -1.3188
    5TMC3    C714230   2.352   4.078  11.752  0.2751  0.2315  0.2827
    5TMC3    C814231   2.292   4.305  12.149  0.1618 -0.3869  0.0254
    5TMC3    O114232   2.360   4.153  11.656  0.3443 -0.1718 -0.1913
    5TMC3    O214233   2.405   4.255  12.164 -0.3231  0.2261  0.0741
    6TMC3    C114234   1.988   4.115  10.349  0.0686  0.3414  0.3917
    6TMC3    C214235   2.004   4.034  10.242  0.3668 -0.0667 -0.9598
    6TMC3    C314236   2.111   3.952  10.246  0.3386  0.3940 -0.5522
    6TMC3    C414237   2.088   4.132  10.437 -0.3721 -0.5310  0.9646
    6TMC3    C514238   2.201   4.054  10.431 -0.1798  0.4030 -0.1793
    6TMC3    C614239   2.211   3.955  10.337 -0.0687  0.1854 -0.3133
    6TMC3     C14240   1.847   4.128  10.387 -0.1724  0.3873 -0.0960
    6TMC3     O14241   1.763   4.124  10.299  0.6322 -0.4775  0.6874
    6TMC3     H14242   1.916   4.014  10.182 -1.0210  0.4640  0.9084
    6TMC3    H114243   2.085   4.212  10.510 -0.8311  0.4716 -0.1508
    6TMC3    H214244   2.281   3.872  10.345  2.9592  2.8032  0.4492
    6TMC3    C714245   2.307   4.064  10.539 -0.9503  0.8281 -0.1765
    6TMC3    C814246   2.099   3.841  10.161 -0.0060  0.2904 -0.0498
    6TMC3    O114247   2.285   4.155  10.619 -0.4475 -0.1943 -0.0642
    6TMC3    O214248   2.185   3.824  10.076  0.1101  0.4343 -0.5729
    7MPD2     C14249   2.800   3.878  11.592 -0.4534 -0.1799 -0.3438
    7MPD2    C114250   2.735   3.992  11.553 -0.1389 -0.0801 -0.3730
    7MPD2    C214251   2.617   4.021  11.622  0.2226 -0.0219 -0.4066
    7MPD2    C314252   2.574   3.963  11.737 -0.7782 -0.3835  0.7981
    7MPD2    C414253   2.652   3.859  11.779 -0.1235  0.9924 -0.0181
    7MPD2    C514254   2.760   3.813  11.707  0.6755 -0.2986  0.0433
    7MPD2     H14255   2.550   4.098  11.587  2.1012  0.7763 -2.3022
    7MPD2    H114256   2.617   3.801  11.864 -1.6531 -2.1046 -2.7639
    7MPD2    H214257   2.888   3.839  11.542  0.3526 -0.3089  1.1440
    7MPD2    H314258   2.810   3.718  11.724  1.8123  0.1886 -0.5623
    7MPD2     N14259   2.455   3.994  11.805 -0.1095  0.6329  0.6299
    7MPD2    H514260   2.426   3.940  11.886  0.9095 -1.4346 -0.4083
    7MPD2    N114261   2.773   4.066  11.441 -0.6347 -0.2189  0.2959
    7MPD2    H714262   2.845   4.024  11.383 -0.2646  0.9650 -0.0877
    8TMC3    C114263   2.771   4.237  11.274 -0.4966 -0.7958  0.3598
    8TMC3    C214264   2.716   4.169  11.171  0.1522 -0.4049 -1.5255
    8TMC3    C314265   2.665   4.253  11.075  0.4248 -0.2816  0.3336
    8TMC3    C414266   2.770   4.374  11.281  0.0502  0.2943  0.3103
    8TMC3    C514267   2.712   4.455  11.184 -0.1482 -0.3391 -0.1597
    8TMC3    C614268   2.663   4.390  11.076  0.0776  0.0941 -0.6416
    8TMC3     C14269   2.733   4.190  11.405 -0.2397  0.4471  0.1284
    8TMC3     O14270   2.650   4.258  11.464  0.3163  0.2350  0.7034
    8TMC3     H14271   2.697   4.063  11.165  0.8510 -0.4635 -2.7340
    8TMC3    H114272   2.808   4.422  11.370 -0.0198 -0.0433  0.5217
    8TMC3    H214273   2.605   4.437  10.997 -0.2679 -0.0803 -0.4906
    8TMC3    C714274   2.612   4.540  11.241 -0.0741  0.1141  1.1842
    8TMC3    C814275   2.613   4.196  10.951 -0.3004 -0.7304  0.9908
    8TMC3    O114276   2.581   4.631  11.167  0.0572 -0.3437  0.5529
    8TMC3    O214277   2.514   4.248  10.903  0.3595 -0.2738 -0.0720
    9MPD2     C14278   2.760   3.922  10.756  0.0812 -0.6079 -0.5918
    9MPD2    C114279   2.662   4.009  10.804  0.4694  1.3132 -0.5012
    9MPD2    C214280   2.546   4.028  10.727  0.2203 -0.2581  0.3598
    9MPD2    C314281   2.530   3.969  10.600 -0.0057  0.1600 -0.6611
    9MPD2    C414282   2.631   3.894  10.551  0.2547 -0.0695  0.0051
    9MPD2    C514283   2.748   3.866  10.628 -0.6218  0.6255 -0.6643
    9MPD2     H14284   2.457   4.081  10.758 -0.9036 -2.2352  0.4675
    9MPD2    H114285   2.635   3.845  10.454 -0.5955 -0.1355  0.0033
    9MPD2    H214286   2.857   3.930  10.805 -0.4120 -0.2279  0.3269
    9MPD2    H314287   2.827   3.801  10.591 -0.6591 -0.5278  1.3279
    9MPD2     N14288   2.415   3.977  10.519  0.0788 -0.0223  0.2682
    9MPD2    H514289   2.419   3.921  10.434  2.5621  0.5381  0.0159
    9MPD2    N114290   2.691   4.085  10.914 -0.1563  0.8486 -0.4647
    9MPD2    H714291   2.780   4.070  10.960 -1.1763 -1.1628  0.8435
    1MPD1     C14292   1.198   3.345  15.896  0.1527  0.0176 -0.1094
    1MPD1    C114293   1.169   3.357  15.760 -0.0411 -1.2022 -1.3206
    1MPD1    C214294   1.209   3.258  15.681 -0.9936  1.0477  0.0684
    1MPD1    C314295   1.266   3.144  15.734  0.0296 -0.9175 -0.3180
    1MPD1    C414296   1.284   3.127  15.869 -0.7653  0.8032 -0.5067
    1MPD1    C514297   1.253   3.227  15.949 -0.3439 -0.1670 -0.2521
    1MPD1     H14298   1.191   3.267  15.575 -0.1504  0.7247 -0.0990
    1MPD1    H114299   1.337   3.042  15.910 -1.6311  0.5225  0.0191
    1MPD1    H214300   1.174   3.428  15.962 -2.0450 -1.8611  1.4714
    1MPD1    H314301   1.278   3.228  16.054 -0.3017 -0.6470 -0.2563
    1MPD1     N14302   1.316   3.038  15.657 -0.6953  0.3970  0.0805
    1MPD1    H514303   1.368   2.967  15.709  0.4049  0.4890 -0.8990
    1MPD1    N114304   1.143   3.484  15.703  0.7875 -0.4617  0.0516
    1MPD1    H614305   1.111   3.481  15.607  2.7771  0.8797 -0.6678
    1MPD1    H714306   1.083   3.543  15.761  0.7231 -0.5290  0.0536
    2TMC2    C114307   1.467   2.832  15.273  0.8963  0.0325  0.0245
    2TMC2    C214308   1.595   2.828  15.318 -0.0169  0.8892 -0.3874
    2TMC2    C314309   1.621   2.868  15.444  0.4185 -0.3709  0.2560
    2TMC2    C414310   1.358   2.893  15.342 -0.0006  0.2574  0.3904
    2TMC2    C514311   1.399   2.930  15.466 -0.2052  0.4692 -0.3855
    2TMC2    C614312   1.525   2.910  15.532 -0.3174 -0.6173 -0.3798
    2TMC2     C14313   1.456   2.862  15.132 -0.4750 -0.2505  0.0576
    2TMC2     O14314   1.520   2.796  15.043 -0.2561 -0.1970  0.5022
    2TMC2     H14315   1.675   2.796  15.252  1.5733  1.1287  1.4046
    2TMC2    H114316   1.256   2.902  15.308 -0.4178  0.8660  1.7914
    2TMC2    H214317   1.556   2.957  15.625  1.3142 -1.0727 -0.6967
    2TMC2    C714318   1.321   3.040  15.520 -0.3295 -0.8138  0.0733
    2TMC2    C814319   1.760   2.906  15.474 -0.2644  0.7049 -1.0231
    2TMC2    O114320   1.282   3.112  15.432  0.1844 -0.0169  0.1440
    2TMC2    O214321   1.853   2.928  15.396 -0.3825  0.3949  0.1148
    2TMC2    O514322   1.768   2.836  15.583 -0.0887  0.4084 -0.2374
    2TMC2    H514323   1.683   2.798  15.613  0.6039 -0.7639  0.2352
    3MPD1     C14324   1.259   3.156  14.759 -0.9072 -0.6241 -1.2943
    3MPD1    C114325   1.191   3.175  14.874  0.8977  0.0008  0.3840
    3MPD1    C214326   1.240   3.119  14.988 -0.5644 -0.2216  0.0872
    3MPD1    C314327   1.350   3.040  14.994  0.4017  0.2182 -0.2129
    3MPD1    C414328   1.417   3.014  14.879  0.0381  0.2175  0.2828
    3MPD1    C514329   1.369   3.079  14.760 -0.0992 -0.4269  0.1552
    3MPD1     H14330   1.199   3.130  15.088 -0.9578 -0.5134 -0.0432
    3MPD1    H114331   1.509   2.957  14.879  0.2757  0.5985 -0.1410
    3MPD1    H214332   1.237   3.217  14.672  1.9404 -0.6222 -1.9941
    3MPD1    H314333   1.438   3.090  14.677  0.9317  3.3868  1.4951
    3MPD1     N14334   1.378   2.975  15.115 -0.3505  0.0404 -1.1592
    3MPD1    H514335   1.336   3.026  15.192  3.8451  0.4598  0.8511
    3MPD1    N114336   1.094   3.278  14.874  0.2338 -0.4476  0.0179
    3MPD1    H614337   1.015   3.241  14.927  0.9531 -0.7173  0.9141
    3MPD1    H714338   1.059   3.289  14.779 -2.2776 -3.4169  0.6017
    1TMC1    C114339   4.455   2.184  12.719  0.3409 -0.7281  0.6779
    1TMC1    C214340   4.363   2.242  12.639  0.7232 -0.4108  0.0997
    1TMC1    C314341   4.238   2.249  12.677 -0.0669  0.6080 -0.4721
    1TMC1    C414342   4.413   2.137  12.840 -0.4268  0.0067  0.2139
    1TMC1    C514343   4.276   2.153  12.879  0.4146 -0.4202  0.5667
    1TMC1    C614344   4.186   2.203  12.793  0.1906  0.1574 -0.3685
    1TMC1     C14345   4.595   2.170  12.684 -0.1422 -0.7170  0.0664
    1TMC1     O14346   4.669   2.142  12.775 -0.1441 -0.0163 -0.2261
    1TMC1     H14347   4.388   2.256  12.535  0.2922  0.9897  0.1843
    1TMC1    H114348   4.487   2.112  12.915  0.5281  2.7649  0.1990
    1TMC1    H214349   4.079   2.206  12.809  0.3058  0.2744  0.3787
    1TMC1    C714350   4.227   2.061  12.972 -0.2402 -0.1325  0.0209
    1TMC1    C814351   4.143   2.285  12.568  0.2330  0.2640  0.5378
    1TMC1    O114352   4.281   1.953  12.988 -0.6713  0.7173  0.5886
    1TMC1    O214353   4.175   2.355  12.472  0.5899  0.1756  0.5848
    1TMC1    O314354   4.106   2.100  13.003  0.1379  0.6936 -0.5195
    1TMC1    H314355   4.091   2.196  12.988  0.1408  0.6730 -0.6543
    1TMC1    O514356   4.044   2.185  12.557  0.1217  0.2492 -0.8988
    1TMC1    H514357   4.058   2.121  12.630  1.2600  1.1886 -0.3002
    2MPD2     C14358   0.023   2.205  12.349  0.1736 -0.3405 -0.2875
    2MPD2    C114359   0.009   2.175  12.486 -0.3537  0.1376 -0.3418
    2MPD2    C214360   0.114   2.112  12.551 -0.0239  1.4169 -0.6561
    2MPD2    C314361   0.230   2.090  12.480 -0.0131 -0.4227  0.5510
    2MPD2    C414362   0.236   2.117  12.342  0.2707  0.0815  0.0132
    2MPD2    C514363   0.136   2.170  12.275  0.6894  0.5969 -0.0590
    2MPD2     H14364   0.115   2.084  12.655  0.2814 -2.2386 -1.6345
    2MPD2    H114365   0.318   2.088  12.277 -0.0277  0.7094 -0.6388
    2MPD2    H214366   4.674   2.238  12.291 -0.7547  2.0892  2.3858
    2MPD2    H314367   0.148   2.182  12.168 -0.0523  0.1827 -0.1889
    2MPD2     N14368   0.339   2.030  12.547 -0.2895 -0.5635 -0.2016
    2MPD2    H514369   0.339   2.015  12.647  0.8111 -1.5221 -0.3356
    2MPD2    N114370   4.627   2.199  12.554 -0.2867 -0.2640  0.2380
    2MPD2    H714371   4.544   2.217  12.498  0.8188  0.3147 -1.2184
    3TCq1    O114372   0.842   1.681  12.437 -0.4229 -0.1432 -0.5336
    3TCq1    C114373   0.837   1.709  12.569 -1.0792  0.1412  0.5748
    3TCq1    O214374   0.866   1.637  12.664  0.1715  0.1424 -0.7848
    3TCq1    C214375   0.761   1.827  12.594 -0.4456  0.1944  0.4655
    3TCq1    C314376   0.787   1.886  12.711  0.0050 -0.7271  0.1584
    3TCq1    C414377   0.706   1.987  12.752  0.0670  0.0848  0.2350
    3TCq1    C514378   0.592   2.011  12.681  0.9689 -0.1544  0.2967
    3TCq1    C614379   0.561   1.941  12.573  0.4474 -0.4831 -0.2380
    3TCq1    C714380   0.645   1.843  12.528 -1.5220 -0.2531  0.1245
    3TCq1    C814381   0.454   1.980  12.481  0.1597  0.6794 -0.2267
    3TCq1    O414382   0.475   1.971  12.360 -0.4568 -0.1273 -0.0075
    3TCq1    C914383   0.729   2.045  12.879  0.1344 -0.2893  0.3002
    3TCq1    O514384   0.622   2.084  12.938 -0.1512  0.3350  0.0302
    3TCq1    O614385   0.848   2.044  12.924  0.0583 -0.0606  0.1136
    3TCq1    H114386   0.818   1.754  12.375 -0.7690  0.6233  0.5145
    3TCq1    H214387   0.878   1.871  12.769  0.5910 -2.0089 -1.0945
    3TCq1    H314388   0.516   2.081  12.712  0.2676 -1.1325  0.7618
    3TCq1    H414389   0.619   1.778  12.445  0.5684 -2.3919  1.1290
    1MPD2     C14390   4.100   2.840  14.861 -0.4394 -0.7302  0.2482
    1MPD2    C114391   4.002   2.913  14.803 -0.1520  0.5121 -0.2276
    1MPD2    C214392   3.879   2.855  14.786 -0.0864  0.2734  0.4362
    1MPD2    C314393   3.841   2.728  14.836 -0.3602  0.0568 -0.0100
    1MPD2    C414394   3.938   2.655  14.902  0.4216  0.1339  0.1241
    1MPD2    C514395   4.065   2.710  14.903 -0.1680 -0.1747  0.5084
    1MPD2     H14396   3.801   2.918  14.743 -0.2854  2.0263  3.3805
    1MPD2    H114397   3.913   2.558  14.944  2.3441  0.3758  1.8486
    1MPD2    H214398   4.201   2.876  14.879 -0.6662  1.0603 -2.0354
    1MPD2    H314399   4.149   2.654  14.942  1.1141  0.8968 -0.6743
    1MPD2     N14400   3.704   2.683  14.838  0.0888  0.6650  0.3182
    1MPD2    H514401   3.685   2.619  14.914  0.1277 -1.6522 -1.6474
    1MPD2    N114402   4.039   3.046  14.756 -0.2432 -0.6520  0.0078
    1MPD2    H714403   4.136   3.074  14.756 -0.1209 -1.0732  1.5347
    2TMC3    C114404   3.996   3.267  14.658 -0.1201  0.0033 -0.5192
    2TMC3    C214405   3.888   3.340  14.609  0.2119  0.2487 -0.1779
    2TMC3    C314406   3.891   3.394  14.480  0.4084  0.3217 -0.7303
    2TMC3    C414407   4.116   3.267  14.593  0.0896 -0.6062 -0.1881
    2TMC3    C514408   4.122   3.334  14.473  0.0118  0.1787  0.1467
    2TMC3    C614409   4.016   3.401  14.418  0.1554  0.1185  0.3985
    2TMC3     C14410   3.944   3.140  14.721 -0.6522  0.4907 -0.4593
    2TMC3     O14411   3.823   3.127  14.716 -0.1237  0.3244  0.0955
    2TMC3     H14412   3.795   3.355  14.662 -1.3951 -2.2479 -2.2872
    2TMC3    H114413   4.204   3.214  14.627 -1.0225 -1.3067  1.6087
    2TMC3    H214414   4.029   3.427  14.314  0.1298  0.0098  0.3688
    2TMC3    C714415   4.257   3.366  14.437  0.1082  0.8903 -0.6351
    2TMC3    C814416   3.786   3.341  14.397 -0.2543  0.3541  0.3887
    2TMC3    O114417   4.347   3.298  14.486  0.3562 -0.5315 -0.2091
    2TMC3    O214418   3.787   3.379  14.276 -0.3278  0.1644  0.4212
    3TCq1    O114419   4.089   4.267  13.853  0.0633  0.0031 -0.2292
    3TCq1    C114420   4.111   4.208  13.967  0.4701 -1.3503 -0.6752
    3TCq1    O214421   4.032   4.189  14.061  0.5976 -0.1702  0.4497
    3TCq1    C214422   4.255   4.217  13.981 -0.0233  1.0808  0.1423
    3TCq1    C314423   4.314   4.339  13.977 -0.8612 -0.1548 -0.5070
    3TCq1    C414424   4.430   4.359  14.055 -0.3242 -0.3293  1.3208
    3TCq1    C514425   4.493   4.256  14.117  0.2626  0.7228  0.0085
    3TCq1    C614426   4.425   4.134  14.124  0.6226 -0.1472  0.2222
    3TCq1    C714427   4.307   4.114  14.058 -0.4247 -0.4431  0.7118
    3TCq1    C814428   4.501   4.012  14.178  0.3396  0.1926 -0.0862
    3TCq1    O414429   4.616   4.019  14.199 -0.1224 -0.2372  0.0141
    3TCq1    C914430   4.493   4.488  14.041 -0.6617 -0.6416  0.4436
    3TCq1    O514431   4.471   4.545  13.932 -0.3029 -0.2159 -0.0216
    3TCq1    O614432   4.593   4.507  14.115  0.2703  0.3530 -0.2429
    3TCq1    H114433   4.165   4.287  13.794 -1.1763  1.3750 -1.3905
    3TCq1    H214434   4.265   4.419  13.921 -1.5921 -1.2447 -1.4143
    3TCq1    H314435   4.589   4.272  14.164 -0.1548  2.2694  0.3235
    3TCq1    H414436   4.251   4.022  14.068 -0.7131 -0.2744  0.6431
    4MPD2     C14437   4.575   3.746  14.322 -0.3059  0.0809 -0.6704
    4MPD2    C114438   4.450   3.775  14.269 -0.2536 -0.1265 -0.0541
    4MPD2    C214439   4.347   3.691  14.293  0.2120  0.3804  0.4673
    4MPD2    C314440   4.376   3.570  14.351  0.1789 -0.0782 -0.3546
    4MPD2    C414441   4.498   3.534  14.393  0.5475 -0.2557  0.2486
    4MPD2    C514442   4.605   3.625  14.375 -0.5402  0.4929 -0.2017
    4MPD2     H14443   4.246   3.716  14.265  0.6588  0.3802 -1.1853
    4MPD2    H114444   4.516   3.433  14.429  0.4788  0.3141  1.8792
    4MPD2    H214445   4.661   3.811  14.308 -1.0659  1.1643 -0.2952
    4MPD2    H314446   4.705   3.603  14.412 -0.3072  2.8016  0.5062
    4MPD2     N14447   4.267   3.486  14.377  0.1622 -0.6165  0.1375
    4MPD2    H514448   4.175   3.528  14.366  1.2029  1.3326 -1.1775
    4MPD2    N114449   4.420   3.904  14.202 -0.4478  0.0694 -0.5717
    4MPD2    H714450   4.321   3.916  14.187 -0.6299 -1.1733 -0.3874
    5TMC2    C114451   3.284   2.740  14.650  0.1015  0.4226 -0.7815
    5TMC2    C214452   3.239   2.801  14.772  0.3417 -0.1240  0.6216
    5TMC2    C314453   3.317   2.791  14.888 -0.4676  1.0988 -0.3630
    5TMC2    C414454   3.407   2.674  14.656  0.8504 -0.6862 -0.4349
    5TMC2    C514455   3.481   2.674  14.769  0.2369 -0.5825 -0.0753
    5TMC2    C614456   3.438   2.728  14.882 -0.2368 -0.3003  0.2939
    5TMC2     C14457   3.285   2.835  14.542  0.0300 -0.5456  0.1002
    5TMC2     O14458   3.181   2.876  14.489  0.1719 -0.4772 -0.7974
    5TMC2     H14459   3.155   2.869  14.773  2.0143  1.9714  1.1280
    5TMC2    H114460   3.440   2.622  14.568  2.1292 -1.3984  0.4655
    5TMC2    H214461   3.491   2.704  14.974 -0.9948 -2.1962  0.2367
    5TMC2    C714462   3.617   2.707  14.734  0.2437  0.2481 -0.8821
    5TMC2    C814463   3.269   2.830  15.018 -0.0627  0.0777 -0.1911
    5TMC2    O114464   3.634   2.758  14.622 -0.2872  0.4049  0.2878
    5TMC2    O214465   3.337   2.894  15.098  0.2087  0.2719  0.5359
    5TMC2    O514466   3.140   2.798  15.031  0.0094 -0.3301  0.4031
    5TMC2    H514467   3.110   2.727  14.971 -1.2388  0.8652 -0.3899
    6MPD2     C14468   3.559   3.194  14.281  1.1901  0.2310 -0.2104
    6MPD2    C114469   3.623   3.157  14.395 -0.2789 -0.4645  0.1868
    6MPD2    C214470   3.578   3.051  14.470  0.1238  0.4177  0.1331
    6MPD2    C314471   3.460   2.986  14.439 -0.0899 -0.5712  0.3351
    6MPD2    C414472   3.394   3.018  14.323 -0.1014 -0.7399  0.1409
    6MPD2    C514473   3.449   3.113  14.240  0.5757  0.2632 -0.5474
    6MPD2     H14474   3.634   3.038  14.563 -2.8369 -0.5316  1.7707
    6MPD2    H114475   3.305   2.966  14.288  0.2665 -0.5995 -1.0073
    6MPD2    H214476   3.587   3.274  14.213  0.0077  0.5909 -0.2619
    6MPD2    H314477   3.415   3.126  14.138  0.6535 -0.7226 -0.6955
    6MPD2     N14478   3.410   2.890  14.532  0.0934 -0.1407  0.6963
    6MPD2    H514479   3.482   2.862  14.597 -0.5654  0.5181  1.7186
    6MPD2    N114480   3.734   3.223  14.447  0.4874 -0.1208  0.4031
    6MPD2    H714481   3.776   3.189  14.532 -1.5799 -0.3717  1.3106
  945NH3     N114482   0.508   3.189  17.127 -0.3887 -0.1575 -0.2759
  945NH3     H214483   0.516   3.190  17.026  0.7819  0.0704 -0.1801
  945NH3     H314484   0.448   3.110  17.149  0.8838 -0.9023  0.4788
  945NH3     H414485   0.447   3.268  17.144  0.1087  0.7337 -2.6099
  946SOD     NA14486   0.829   0.128  17.448 -0.2219 -0.0072  0.2616
  947SOD     NA14487   4.100   1.992  13.448  0.8098  0.1228  0.5310
  948SOD     NA14488   3.680   4.680   9.580  0.0083  0.1532 -0.2441
  949SOD     NA14489   3.488   4.636   8.293  0.3771 -0.2052  0.2207
  950SOD     NA14490   1.499   0.772   4.793 -0.1988 -0.3989 -0.4465
  951SOD     NA14491   1.313   0.689  12.900 -0.0962 -0.0366  0.0952
  952SOD     NA14492   2.020   1.104  14.473  0.0542 -0.2748 -0.5420
  953SOD     NA14493   2.266   3.635  15.381  0.2998 -0.2712 -0.4159
  954SOL     OW14494   3.764   2.261   6.873 -0.3089  0.6320  0.0477
  954SOL    HW114495   3.714   2.195   6.824  0.9993  1.0457 -1.8506
  954SOL    HW214496   3.815   2.203   6.929 -2.0829  1.4100  2.4722
  955SOL     OW14497   4.032   4.005   8.641  0.9829  0.2762  0.3328
  955SOL    HW114498   3.983   3.924   8.653 -1.8575  1.9485 -0.1138
  955SOL    HW214499   3.985   4.073   8.690  1.8253  0.3793  1.0002
  956SOL     OW14500   2.431   4.082   1.977 -0.0744  0.1723 -0.3791
  956SOL    HW114501   2.349   4.047   1.941  0.1820 -2.5825  1.6854
  956SOL    HW214502   2.485   4.066   1.900  1.1308 -0.6653  0.6409
  957SOL     OW14503   3.201   0.929   0.919  0.1239 -0.2528 -0.0568
  957SOL    HW114504   3.200   0.888   0.833  0.2980 -0.5027  0.0593
  957SOL    HW214505   3.232   1.014   0.887  2.8138 -0.3994  2.1679
  958SOL     OW14506   2.738   0.513   3.911  0.3700  0.3260 -0.5650
  958SOL    HW114507   2.676   0.458   3.862  0.6193  0.4887 -1.0663
  958SOL    HW214508   2.768   0.445   3.971  2.4799  1.3673 -0.4642
  959SOL     OW14509   2.852   2.917   1.785 -0.1993 -0.1732 -0.1385
  959SOL    HW114510   2.847   2.869   1.703  1.7500  1.0308 -0.9474
  959SOL    HW214511   2.946   2.932   1.792 -0.0128 -1.2931 -0.1711
  960SOL     OW14512   0.116   4.237  15.036 -0.3464  0.0026 -0.7720
  960SOL    HW114513   0.075   4.286  14.965 -0.0670  1.9259  0.4147
  960SOL    HW214514   0.080   4.151  15.011 -2.5502  0.5477  0.5056
  961SOL     OW14515   0.853   4.170   7.385  0.0618  0.2560  0.5478
  961SOL    HW114516   0.854   4.261   7.415 -0.2669  0.6653 -0.6839
  961SOL    HW214517   0.879   4.123   7.463  2.1069 -0.5633 -0.6323
  962SOL     OW14518   3.250   3.667   9.060 -0.1187  0.1759  0.1878
  962SOL    HW114519   3.197   3.713   8.994  0.8355 -0.4632 -1.0351
  962SOL    HW214520   3.232   3.577   9.032  0.8894 -0.3500  1.2407
  963SOL     OW14521   1.378   2.562  16.779 -0.7132 -0.4770  0.1656
  963SOL    HW114522   1.358   2.655  16.784 -0.2125 -0.4059  0.8017
  963SOL    HW214523   1.459   2.559  16.829 -0.7385  1.6722  0.3153
  964SOL     OW14524   0.697   1.453  11.311  0.2032 -0.2037 -0.3048
  964SOL    HW114525   0.729   1.535  11.276 -0.6346  0.5808  0.7737
  964SOL    HW214526   0.780   1.408  11.326 -0.4184 -2.2470 -2.9184
  965SOL     OW14527   2.936   0.664  11.419 -0.6039 -0.4129 -0.6740
  965SOL    HW114528   2.877   0.701  11.353 -1.4679  0.3084  0.5154
  965SOL    HW214529   2.876   0.672  11.493 -1.8743 -2.9095 -1.4331
  966SOL     OW14530   4.447   4.721   1.536  0.6824  0.1339 -0.6509
  966SOL    HW114531   4.404   0.036   1.467 -1.4434 -2.1806 -1.0737
  966SOL    HW214532   4.376   4.702   1.597 -0.1290  0.6005 -1.4470
  967SOL     OW14533   4.456   1.682   0.316 -0.1331 -0.4629 -0.0290
  967SOL    HW114534   4.409   1.599   0.313 -0.9374  0.0089 -0.5805
  967SOL    HW214535   4.546   1.649   0.311 -0.1096 -0.3312 -0.5240
  968SOL     OW14536   2.581   3.642   5.992  0.3353 -0.0261  0.4154
  968SOL    HW114537   2.636   3.574   5.953 -0.1526 -0.1443 -0.0615
  968SOL    HW214538   2.512   3.642   5.926 -1.4997  3.2359  2.3193
  969SOL     OW14539   2.992   3.899   8.649 -0.6205 -0.3195  0.5352
  969SOL    HW114540   2.904   3.910   8.613 -0.7378 -1.2187  0.5318
  969SOL    HW214541   3.027   3.823   8.602 -0.1810  0.7101 -0.7762
  970SOL     OW14542   0.434   3.937   9.646  0.2467 -0.1385 -0.2996
  970SOL    HW114543   0.374   3.866   9.670  1.3148 -0.6515  0.9005
  970SOL    HW214544   0.467   3.927   9.557 -0.1321  1.5363 -0.6244
  971SOL     OW14545   1.369   4.501   3.400 -0.0124  0.5711 -0.0041
  971SOL    HW114546   1.374   4.561   3.475 -0.7007 -0.3356  0.7609
  971SOL    HW214547   1.463   4.481   3.397 -0.0977 -0.0856  1.8249
  972SOL     OW14548   1.621   4.449   3.395 -0.2146 -0.4338  0.0106
  972SOL    HW114549   1.671   4.410   3.467 -0.2681  1.6684  1.1583
  972SOL    HW214550   1.663   4.413   3.317  0.1098  3.4352 -1.5738
  973SOL     OW14551   0.146   3.792   7.258 -0.2123  0.9461  0.4195
  973SOL    HW114552   0.126   3.704   7.225  0.3629  0.8749  0.2608
  973SOL    HW214553   0.241   3.792   7.273  0.0998  2.8226 -1.5862
  974SOL     OW14554   1.845   2.758   8.431 -0.2180 -0.6330 -0.1546
  974SOL    HW114555   1.820   2.695   8.364 -2.0270 -0.6465  0.5250
  974SOL    HW214556   1.838   2.704   8.511  1.0826 -0.8346 -0.1785
  975SOL     OW14557   4.571   0.977   6.040  0.4749 -0.2780 -0.2858
  975SOL    HW114558   4.634   1.049   6.038  1.3841 -1.0108  1.7274
  975SOL    HW214559   4.572   0.963   6.134 -0.2694 -2.0335 -0.5306
  976SOL     OW14560   3.155   1.231  10.718 -0.0755 -0.1918 -0.0637
  976SOL    HW114561   3.201   1.314  10.730  2.5323 -1.5109 -0.9431
  976SOL    HW214562   3.173   1.208  10.627  2.1585 -0.0042  0.3520
  977SOL     OW14563   2.015   1.295  14.324  0.3015 -0.2256  0.3951
  977SOL    HW114564   2.023   1.285  14.229 -1.9368 -2.6063  0.4628
  977SOL    HW214565   2.061   1.379  14.331  0.8257 -0.4272 -0.6073
  978SOL     OW14566   3.185   0.060  10.031  0.2302 -0.1290 -0.3157
  978SOL    HW114567   3.231   0.076   9.949  1.8478  0.9454  0.8139
  978SOL    HW214568   3.093   0.079  10.010  0.0775  0.7118  1.0649
  979SOL     OW14569   0.651   0.213   4.312  0.2782 -0.5564  0.6770
  979SOL    HW114570   0.615   0.192   4.398 -0.5891 -1.2066  0.1541
  979SOL    HW214571   0.598   0.292   4.296  2.2000  0.5339 -0.2645
  980SOL     OW14572   2.122   2.438   7.861  0.5007  0.2306 -0.1318
  980SOL    HW114573   2.042   2.489   7.872 -1.2816 -2.4817 -0.5508
  980SOL    HW214574   2.174   2.500   7.809  1.9145  0.5797  1.6630
  981SOL     OW14575   0.288   3.765   6.265  0.2836 -0.2956  0.7517
  981SOL    HW114576   0.337   3.842   6.296  0.4254 -0.7932  1.7939
  981SOL    HW214577   0.356   3.725   6.211 -0.4645 -2.0846  1.1342
  982SOL     OW14578   4.455   4.078  17.552 -0.4895  0.2543 -0.0957
  982SOL    HW114579   4.387   4.134  17.589 -0.8103 -0.9878  1.1796
  982SOL    HW214580   4.430   4.070  17.460  1.9720 -0.6706 -0.6643
  983SOL     OW14581   1.271   1.622   4.764  0.2720  0.4412 -0.2832
  983SOL    HW114582   1.197   1.569   4.735  0.0105 -0.8596  2.8073
  983SOL    HW214583   1.280   1.668   4.681  1.0280  2.4239  0.9016
  984SOL     OW14584   4.112   3.929  15.014 -0.3023 -0.0477  0.0930
  984SOL    HW114585   4.040   3.867  15.019 -1.5304  1.2949 -0.7393
  984SOL    HW214586   4.182   3.866  15.030 -0.5563 -0.1962  0.5909
  985SOL     OW14587   0.647   1.222   6.602  0.1492 -0.2484 -0.4295
  985SOL    HW114588   0.708   1.232   6.528 -0.7488  0.6094 -1.0442
  985SOL    HW214589   0.690   1.140   6.629 -1.7863 -0.3979  2.0879
  986SOL     OW14590   0.047   3.429  17.376 -0.3323  0.0499  0.0067
  986SOL    HW114591   0.054   3.463  17.465 -1.1182  0.2072  0.0086
  986SOL    HW214592   4.736   3.499  17.330 -1.2072 -0.3484  0.3021
  987SOL     OW14593   2.201   2.513   4.714 -0.2093 -0.2572  0.3566
  987SOL    HW114594   2.163   2.447   4.773  1.7624 -1.6839  0.0569
  987SOL    HW214595   2.229   2.583   4.773  2.0900  0.3290 -1.4210
  988SOL     OW14596   0.234   2.491   1.630 -0.5350  0.0433 -0.5161
  988SOL    HW114597   0.300   2.516   1.565  0.1233 -0.0734  0.1128
  988SOL    HW214598   0.299   2.441   1.679 -1.6276  0.0836  0.9467
  989SOL     OW14599   3.112   1.166  11.741  0.2415  0.3410 -0.3649
  989SOL    HW114600   3.122   1.145  11.648  0.7928 -1.5525  0.1165
  989SOL    HW214601   3.191   1.217  11.758  0.5931 -0.4823  0.4872
  990SOL     OW14602   1.323   2.771   5.418 -0.5254 -0.5470  0.2768
  990SOL    HW114603   1.248   2.802   5.470 -0.5006 -1.1285  0.6587
  990SOL    HW214604   1.303   2.677   5.418 -0.1310 -0.6282  0.4843
  991SOL     OW14605   1.470   3.989   6.522 -0.1871 -0.1295 -0.2310
  991SOL    HW114606   1.501   3.973   6.612 -0.8904  1.1435  0.2439
  991SOL    HW214607   1.393   3.934   6.512 -0.1199 -0.0203 -1.3157
  992SOL     OW14608   0.437   3.914   1.294  0.3541  0.2397  0.1596
  992SOL    HW114609   0.447   3.997   1.341 -0.9808 -0.4153  1.6020
  992SOL    HW214610   0.520   3.887   1.256 -0.9225 -1.3626 -1.4857
  993SOL     OW14611   2.603   3.479   6.517  0.2947  0.7454 -0.1653
  993SOL    HW114612   2.557   3.544   6.570 -1.4853  0.0230 -0.8213
  993SOL    HW214613   2.604   3.534   6.438  0.1776  1.3378  0.2458
  994SOL     OW14614   4.611   2.914   7.264  0.3472  0.0898 -0.5198
  994SOL    HW114615   4.584   2.985   7.206  0.0622 -0.2041 -0.7519
  994SOL    HW214616   4.595   2.842   7.203  0.1932  0.4022 -0.8474
  995SOL     OW14617   1.584   0.665   2.824 -0.0286  0.1353 -0.3938
  995SOL    HW114618   1.645   0.685   2.894 -1.7084  1.2440  0.7480
  995SOL    HW214619   1.523   0.739   2.826  0.5488  0.6014 -0.0459
  996SOL     OW14620   3.978   3.672   1.569  0.2434  0.6219 -0.7819
  996SOL    HW114621   4.051   3.709   1.618  0.3648 -2.8174  1.5973
  996SOL    HW214622   3.985   3.717   1.485  1.9623 -0.4286 -1.1934
  997SOL     OW14623   0.328   1.757  10.599 -0.4235 -0.6265 -0.5044
  997SOL    HW114624   0.421   1.752  10.576  0.5469 -0.4879  3.2838
  997SOL    HW214625   0.311   1.666  10.621  0.0314 -0.4665  0.5403
  998SOL     OW14626   1.773   1.273   4.899  0.1048  0.4276 -0.1563
  998SOL    HW114627   1.841   1.293   4.835  0.6011  0.2562  0.3255
  998SOL    HW214628   1.785   1.342   4.964 -0.3915 -0.9488  1.3945
  999SOL     OW14629   1.181   0.789   6.206 -0.1314 -0.0201 -0.1187
  999SOL    HW114630   1.122   0.733   6.256  0.6417 -2.1760 -1.6261
  999SOL    HW214631   1.161   0.875   6.243 -0.9713  0.1728 -1.0191
 1000SOL     OW14632   0.670   3.829   3.393 -0.3488  0.6114 -0.5262
 1000SOL    HW114633   0.721   3.749   3.378  0.6830  0.9253  1.2814
 1000SOL    HW214634   0.727   3.905   3.383  2.9065 -2.0544 -2.6650
 1001SOL     OW14635   4.576   1.227   7.010 -0.4644  0.3459 -0.0084
 1001SOL    HW114636   4.592   1.303   6.953 -1.1572  1.0435  0.7323
 1001SOL    HW214637   4.606   1.151   6.961  0.4735  1.7110 -1.5797
 1002SOL     OW14638   0.691   3.301  11.678 -0.4789  0.3197  0.6375
 1002SOL    HW114639   0.718   3.250  11.755  1.7004  1.4972  0.6475
 1002SOL    HW214640   0.761   3.366  11.665  1.4263 -2.2401 -1.8015
 1003SOL     OW14641   1.591   1.453  15.520  0.0786  0.3704  0.3536
 1003SOL    HW114642   1.644   1.437  15.442  1.3207  0.3209  1.2024
 1003SOL    HW214643   1.585   1.548  15.517 -1.7010  0.2974  1.3017
 1004SOL     OW14644   3.779   0.844   3.001  0.0572 -0.1378  0.2130
 1004SOL    HW114645   3.778   0.939   2.995  0.6710  0.0414  3.1346
 1004SOL    HW214646   3.685   0.831   2.986 -0.1632 -0.6630  2.0167
 1005SOL     OW14647   2.440   0.237   4.698 -0.4289 -0.1691  0.1928
 1005SOL    HW114648   2.498   0.273   4.632 -1.2506  2.5361  0.9601
 1005SOL    HW214649   2.359   0.285   4.682 -0.2096  0.1168 -0.0608
 1006SOL     OW14650   1.070   0.952   7.461  0.1406  0.2060 -0.2143
 1006SOL    HW114651   0.991   0.902   7.479 -0.3028  0.1914 -2.2398
 1006SOL    HW214652   1.117   0.941   7.544  0.2949  0.3788 -0.2781
 1007SOL     OW14653   4.595   3.973   8.845 -0.8601  0.2166  0.1056
 1007SOL    HW114654   4.538   3.958   8.920  2.2186  0.0119  2.4116
 1007SOL    HW214655   4.566   4.055   8.805 -0.6280 -0.0919 -0.6910
 1008SOL     OW14656   2.285   1.958   7.940  0.0789 -0.3770  0.0846
 1008SOL    HW114657   2.238   1.909   8.009 -1.7290  1.0090 -0.1755
 1008SOL    HW214658   2.272   2.043   7.981 -0.3613  0.4750 -1.8670
 1009SOL     OW14659   1.198   4.641   4.227  0.1842  0.3070 -0.0820
 1009SOL    HW114660   1.123   4.587   4.203  1.7062 -2.4104  1.2380
 1009SOL    HW214661   1.167   4.728   4.200  1.2558  0.6057 -0.3830
 1010SOL     OW14662   1.924   1.766  12.413 -0.0743 -0.2724  0.2905
 1010SOL    HW114663   1.924   1.728  12.501 -1.8795  0.1086  0.4492
 1010SOL    HW214664   2.016   1.793  12.406 -0.0265 -0.0960  1.5643
 1011SOL     OW14665   0.898   1.483   7.563 -0.3738 -0.2418  0.3304
 1011SOL    HW114666   0.810   1.519   7.552 -0.0725  1.1284  2.4139
 1011SOL    HW214667   0.884   1.400   7.608  1.2751  0.2452  1.7388
 1012SOL     OW14668   2.926   2.893   4.276 -0.0156 -0.7728 -0.9463
 1012SOL    HW114669   2.851   2.950   4.258 -0.2221 -1.1343 -1.2236
 1012SOL    HW214670   2.940   2.861   4.187 -1.2883  0.1672 -1.4710
 1013SOL     OW14671   1.617   4.281   5.191  0.0458  0.0530 -0.2582
 1013SOL    HW114672   1.697   4.236   5.216 -1.2944 -0.8354  2.4837
 1013SOL    HW214673   1.604   4.329   5.273  1.0141 -0.5475  0.2473
 1014SOL     OW14674   0.470   1.852   7.311  0.5448 -0.2598 -0.2674
 1014SOL    HW114675   0.559   1.881   7.293  0.2621  1.0557  0.4381
 1014SOL    HW214676   0.448   1.803   7.232 -1.1389  0.2730 -0.1387
 1015SOL     OW14677   1.899   1.011  11.519  0.1902  1.1244  0.3697
 1015SOL    HW114678   1.869   1.059  11.442  0.9053 -1.1973 -1.3408
 1015SOL    HW214679   1.825   1.040  11.572  0.1826 -0.4410  1.2296
 1016SOL     OW14680   3.776   1.874  11.353  0.0974  0.7654 -0.1918
 1016SOL    HW114681   3.754   1.804  11.413  0.5113 -0.4484 -1.4590
 1016SOL    HW214682   3.791   1.831  11.269 -0.8688 -0.9123  0.4936
 1017SOL     OW14683   4.242   1.374   8.467 -0.2656  0.0717 -0.4412
 1017SOL    HW114684   4.275   1.366   8.556 -0.8257 -2.0512 -0.4227
 1017SOL    HW214685   4.322   1.346   8.422  0.4984  1.1894  0.1916
 1018SOL     OW14686   2.594   3.202   4.817 -0.2347  0.0006 -0.0372
 1018SOL    HW114687   2.553   3.195   4.903 -2.9031  0.4973 -1.2729
 1018SOL    HW214688   2.682   3.174   4.845 -1.2490 -1.8359  1.3083
 1019SOL     OW14689   2.611   0.313   5.410 -0.2339 -0.4967  0.4054
 1019SOL    HW114690   2.605   0.407   5.428 -0.5265 -0.9668  2.6405
 1019SOL    HW214691   2.687   0.275   5.454  1.9472  0.9881 -2.0182
 1020SOL     OW14692   3.777   1.392   2.860 -0.3717 -0.1120 -0.6673
 1020SOL    HW114693   3.723   1.396   2.781  0.9085  1.4375 -1.4507
 1020SOL    HW214694   3.705   1.427   2.913  0.5895  0.8283  0.0063
 1021SOL     OW14695   2.462   1.146   3.712  0.8069  0.0910  0.3481
 1021SOL    HW114696   2.428   1.136   3.801  1.4942  1.6238  0.7837
 1021SOL    HW214697   2.543   1.096   3.723  0.4677 -0.1631  1.7242
 1022SOL     OW14698   3.089   4.032   3.335 -0.0333 -0.1379  0.4834
 1022SOL    HW114699   3.180   4.038   3.364 -0.5242 -1.9563  2.3461
 1022SOL    HW214700   3.048   4.096   3.394 -1.1142 -0.8965  0.5507
 1023SOL     OW14701   3.179   0.710  11.090  0.5287  0.5135  0.0802
 1023SOL    HW114702   3.235   0.771  11.041  0.3608  0.4908 -0.1383
 1023SOL    HW214703   3.217   0.718  11.178  0.4319  2.1343 -0.0378
 1024SOL     OW14704   3.898   3.204   3.519 -0.2014  0.3503 -0.3135
 1024SOL    HW114705   3.817   3.161   3.492  0.3438 -0.0350 -1.3436
 1024SOL    HW214706   3.939   3.213   3.433  0.6205  0.5768  0.0934
 1025SOL     OW14707   4.731   0.268   6.970  0.1959 -0.7839  0.6745
 1025SOL    HW114708   4.661   0.292   6.910  1.8586  1.3056 -0.4130
 1025SOL    HW214709   4.679   0.299   7.044  0.2050  0.8438 -0.0066
 1026SOL     OW14710   0.889   1.532   4.417  0.1494 -0.0720 -0.1434
 1026SOL    HW114711   0.953   1.505   4.352 -0.1618  3.1444 -1.7671
 1026SOL    HW214712   0.947   1.549   4.492 -2.8959 -0.1524  2.2604
 1027SOL     OW14713   3.742   3.683   0.925 -0.1653  0.4859 -0.0103
 1027SOL    HW114714   3.710   3.601   0.964  0.8729  0.8413  1.5792
 1027SOL    HW214715   3.716   3.657   0.837 -1.8348  1.9039  0.0598
 1028SOL     OW14716   1.416   3.521   6.526 -0.0204 -0.2576 -0.8581
 1028SOL    HW114717   1.503   3.486   6.544 -0.3642 -0.5519  0.2084
 1028SOL    HW214718   1.373   3.454   6.473 -0.1710 -1.0985  0.3344
 1029SOL     OW14719   2.259   3.563   3.854 -0.0247 -0.5568  0.1273
 1029SOL    HW114720   2.343   3.568   3.808  0.9361  0.5321  2.0220
 1029SOL    HW214721   2.246   3.469   3.841 -0.9624 -0.5130  0.7111
 1030SOL     OW14722   4.446   1.796   3.601  0.0397 -0.3190 -0.5371
 1030SOL    HW114723   4.371   1.808   3.659 -0.3697 -0.5385 -1.0194
 1030SOL    HW214724   4.513   1.854   3.635 -0.1384 -1.7501  2.2333
 1031SOL     OW14725   1.935   4.735   2.848 -0.5408  0.6439 -0.0220
 1031SOL    HW114726   1.973   0.018   2.762 -1.6032 -0.0220 -0.6426
 1031SOL    HW214727   1.858   4.684   2.823  0.3349 -1.0979  0.8240
 1032SOL     OW14728   0.024   1.453   7.915  0.4537 -0.0305  0.0562
 1032SOL    HW114729   0.061   1.506   7.845 -1.8746 -1.5359 -2.2909
 1032SOL    HW214730   4.669   1.484   7.909  0.2437 -0.3813  1.2957
 1033SOL     OW14731   1.083   2.987  12.460 -0.7056 -0.1127  0.4551
 1033SOL    HW114732   1.073   2.973  12.366  1.7695 -3.4979  0.7130
 1033SOL    HW214733   1.142   2.915  12.482 -1.8909 -1.0704  0.4812
 1034SOL     OW14734   1.749   3.425   7.775 -0.4030  0.1906 -0.2916
 1034SOL    HW114735   1.682   3.479   7.817 -1.4697  0.8633 -2.8195
 1034SOL    HW214736   1.801   3.399   7.851 -0.3424 -2.9541 -1.4354
 1035SOL     OW14737   3.839   0.377  17.445  0.2451 -0.0361 -0.2784
 1035SOL    HW114738   3.780   0.452  17.449 -0.4103 -0.6844  2.0460
 1035SOL    HW214739   3.865   0.386  17.353 -0.2445  0.1602 -0.3955
 1036SOL     OW14740   2.320   1.459   3.113  0.1809 -0.8610 -0.6352
 1036SOL    HW114741   2.310   1.379   3.165  0.8020 -0.4594  0.0974
 1036SOL    HW214742   2.232   1.495   3.118  0.9744  0.8599  1.1375
 1037SOL     OW14743   0.971   3.397   0.539 -0.2686 -0.5038 -0.3526
 1037SOL    HW114744   1.032   3.325   0.525  0.4824  0.2679 -1.0104
 1037SOL    HW214745   0.977   3.445   0.457  0.0931 -2.2914 -1.3670
 1038SOL     OW14746   0.527   0.297  17.140  0.1068 -0.8733  0.0251
 1038SOL    HW114747   0.575   0.378  17.126  1.0936 -1.6800 -1.2626
 1038SOL    HW214748   0.436   0.326  17.134 -0.2860 -2.0028  0.5443
 1039SOL     OW14749   3.992   0.511   4.163 -0.4553  0.0029 -0.7966
 1039SOL    HW114750   3.939   0.551   4.094 -1.9121  1.0325  0.9279
 1039SOL    HW214751   3.925   0.453   4.199 -1.5377  2.6938  1.5166
 1040SOL     OW14752   4.433   0.063   7.623  0.2710  0.6009  0.0558
 1040SOL    HW114753   4.432   4.709   7.656  2.1282  0.6324  0.1928
 1040SOL    HW214754   4.429   0.110   7.707 -0.0793 -1.1195  1.0027
 1041SOL     OW14755   0.142   2.695   7.292  0.5462  0.0056 -0.4623
 1041SOL    HW114756   0.200   2.647   7.233 -0.6108  0.3077 -1.8455
 1041SOL    HW214757   0.204   2.715   7.362 -0.0319  0.9000 -0.2018
 1042SOL     OW14758   4.645   2.418  10.988  0.0753 -0.2596 -0.1315
 1042SOL    HW114759   4.731   2.382  10.967 -0.7783 -1.4341 -1.5615
 1042SOL    HW214760   4.663   2.506  11.023 -1.5426 -0.5659  1.4794
 1043SOL     OW14761   2.134   1.491   5.983  0.5078 -0.3514 -0.0494
 1043SOL    HW114762   2.107   1.400   5.997  0.3861 -0.4193 -0.7167
 1043SOL    HW214763   2.074   1.510   5.911  0.7415  1.2829  0.1816
 1044SOL     OW14764   3.728   1.629  16.114 -0.2716  0.0619  0.8710
 1044SOL    HW114765   3.799   1.669  16.165  0.7479  2.4780 -2.4164
 1044SOL    HW214766   3.645   1.667  16.143  0.2006  0.8683  1.1994
 1045SOL     OW14767   3.294   4.057   7.062  0.2742  0.3359 -0.5244
 1045SOL    HW114768   3.333   4.043   7.149  2.0927 -0.6901 -1.4920
 1045SOL    HW214769   3.238   4.134   7.072 -0.9584 -0.6849  0.5336
 1046SOL     OW14770   4.175   1.186  13.033  0.3341 -0.5693  0.2456
 1046SOL    HW114771   4.089   1.191  13.074 -0.7280 -1.1135 -1.8845
 1046SOL    HW214772   4.178   1.266  12.980  1.3633 -1.1584 -0.5774
 1047SOL     OW14773   2.846   4.540   1.117 -0.3667 -0.1121 -0.2041
 1047SOL    HW114774   2.926   4.491   1.098 -0.1324  0.0466  0.3886
 1047SOL    HW214775   2.799   4.463   1.151 -0.2474 -0.0955 -0.0025
 1048SOL     OW14776   1.449   2.196   8.233 -0.3891  0.2708 -0.4479
 1048SOL    HW114777   1.378   2.261   8.235 -2.6776 -2.3442  3.5175
 1048SOL    HW214778   1.508   2.233   8.299 -1.3159 -0.4707  0.7967
 1049SOL     OW14779   2.213   1.928   7.519 -0.0214 -0.6672 -0.4835
 1049SOL    HW114780   2.148   1.890   7.579  0.6261 -1.2611 -0.1531
 1049SOL    HW214781   2.147   1.940   7.451 -1.2738 -2.4150  0.4063
 1050SOL     OW14782   0.193   3.602   8.477 -0.3818  0.5062 -0.4878
 1050SOL    HW114783   0.255   3.531   8.460 -1.5041 -0.1820 -1.7233
 1050SOL    HW214784   0.165   3.570   8.563  1.0342 -1.8357 -0.8971
 1051SOL     OW14785   2.482   0.417   2.065 -0.7092  0.5425  0.1230
 1051SOL    HW114786   2.492   0.373   1.980 -1.6485  2.3043 -0.9054
 1051SOL    HW214787   2.427   0.493   2.043  0.5223  2.0113  2.1235
 1052SOL     OW14788   1.734   4.092   7.193  0.0486 -0.2110  0.3706
 1052SOL    HW114789   1.770   4.137   7.116 -1.0101  0.5383  0.3269
 1052SOL    HW214790   1.648   4.056   7.173  0.8562 -1.0057 -1.7213
 1053SOL     OW14791   3.365   2.902  10.141  0.7670  0.4868 -0.3591
 1053SOL    HW114792   3.328   2.973  10.193 -0.6928 -0.8555  0.4422
 1053SOL    HW214793   3.441   2.877  10.195  0.5242 -1.8756 -1.1292
 1054SOL     OW14794   0.434   1.288   7.980  0.1284 -0.1995 -0.3563
 1054SOL    HW114795   0.459   1.353   7.915  1.0745  0.2580  0.4590
 1054SOL    HW214796   0.399   1.218   7.925 -0.2809 -1.3878  1.4025
 1055SOL     OW14797   2.236   0.377   4.607  0.3227 -0.4982 -0.1288
 1055SOL    HW114798   2.257   0.468   4.628  0.8602 -0.1245 -2.2878
 1055SOL    HW214799   2.206   0.387   4.516  1.0062 -3.3653 -0.6539
 1056SOL     OW14800   1.342   1.557   8.864  0.1021 -0.3225 -0.2759
 1056SOL    HW114801   1.259   1.512   8.874  0.3868 -0.0108  3.6036
 1056SOL    HW214802   1.312   1.646   8.848  1.7299  0.3886  0.5535
 1057SOL     OW14803   2.075   0.788  14.054  0.5148  0.4838  0.1366
 1057SOL    HW114804   2.140   0.729  14.091 -0.1908 -0.1486  0.3690
 1057SOL    HW214805   2.090   0.785  13.959  0.9545 -1.9367  0.2771
 1058SOL     OW14806   3.129   4.708  10.312 -0.1008  0.0846 -0.6032
 1058SOL    HW114807   3.194   4.708  10.242  0.9853  0.6155  0.4080
 1058SOL    HW214808   3.094   4.620  10.298  0.1302 -0.2053  0.7052
 1059SOL     OW14809   3.928   3.721   0.194 -0.2891  0.5862  0.2566
 1059SOL    HW114810   3.963   3.634   0.175  0.1617  0.4992  1.4620
 1059SOL    HW214811   3.883   3.707   0.277 -2.1323 -0.9776 -1.0092
 1060SOL     OW14812   4.346   1.825  16.613 -0.1195  0.5984  0.2393
 1060SOL    HW114813   4.370   1.826  16.521 -0.6727 -0.6922  0.0777
 1060SOL    HW214814   4.322   1.917  16.626 -3.2058 -0.1311 -0.2912
 1061SOL     OW14815   0.226   1.368  17.152 -0.0384 -0.6021  0.1572
 1061SOL    HW114816   0.239   1.302  17.220 -1.2419  0.1185  1.0834
 1061SOL    HW214817   0.293   1.432  17.176 -0.8371  0.0005  0.7861
 1062SOL     OW14818   4.103   2.748   5.222  0.3088  0.5496  0.3681
 1062SOL    HW114819   4.139   2.681   5.280  2.4283  1.2967 -0.0691
 1062SOL    HW214820   4.150   2.815   5.271  1.9291  0.3953 -0.9822
 1063SOL     OW14821   2.439   0.174  17.105  0.5405  0.2546  0.5047
 1063SOL    HW114822   2.506   0.146  17.043  0.4988 -0.2432  0.6803
 1063SOL    HW214823   2.380   0.098  17.103  0.7201  0.1681 -1.2281
 1064SOL     OW14824   0.703   2.290   3.139 -0.0985 -0.2917  0.0650
 1064SOL    HW114825   0.752   2.232   3.198  1.1425 -0.9423 -1.5737
 1064SOL    HW214826   0.759   2.367   3.149  0.6350 -1.0662  1.8889
 1065SOL     OW14827   1.459   3.416   3.126 -0.0624  0.1879 -0.2843
 1065SOL    HW114828   1.410   3.496   3.104  0.6605  0.4164 -1.0503
 1065SOL    HW214829   1.506   3.396   3.046 -1.6490 -1.9353 -0.6841
 1066SOL     OW14830   1.507   4.540   9.528  0.3565  0.0228  0.0361
 1066SOL    HW114831   1.418   4.540   9.564  0.3334 -0.4025 -0.0213
 1066SOL    HW214832   1.493   4.566   9.437  1.4692 -0.7746 -0.3615
 1067SOL     OW14833   1.986   1.634   7.100  0.2340 -0.4367 -0.0319
 1067SOL    HW114834   1.944   1.709   7.142 -1.2572 -0.0154 -2.2555
 1067SOL    HW214835   1.980   1.661   7.008  1.7568  0.7115  0.2039
 1068SOL     OW14836   3.943   2.943   1.532  0.7312 -0.4832 -0.0845
 1068SOL    HW114837   3.950   3.034   1.504 -0.2468 -0.3800  0.0234
 1068SOL    HW214838   3.946   2.896   1.449 -0.3030  0.7447 -0.8194
 1069SOL     OW14839   3.412   0.204   6.218  0.3730 -0.5353  0.0256
 1069SOL    HW114840   3.357   0.193   6.295  1.5905  2.7972  1.4029
 1069SOL    HW214841   3.499   0.188   6.255  0.7597 -0.2255 -0.7629
 1070SOL     OW14842   2.024   2.198   7.823 -0.0858  0.1931  0.0637
 1070SOL    HW114843   2.055   2.176   7.735  0.8155 -1.0621  0.6961
 1070SOL    HW214844   2.050   2.290   7.829 -0.1896  0.3594 -2.1089
 1071SOL     OW14845   3.999   3.864   6.044  0.1921  0.4323 -0.0495
 1071SOL    HW114846   4.081   3.865   6.094 -0.8095  1.6472  1.5413
 1071SOL    HW214847   3.994   3.951   6.005 -2.6579  0.2526 -0.0648
 1072SOL     OW14848   1.783   4.237   5.501 -0.3209  0.7028  0.3109
 1072SOL    HW114849   1.803   4.291   5.577 -3.9669  1.3282  0.8024
 1072SOL    HW214850   1.694   4.267   5.481  0.0454  0.7733 -1.2600
 1073SOL     OW14851   3.589   2.480  11.936  0.1340 -0.4611 -0.5328
 1073SOL    HW114852   3.524   2.528  11.987  2.9456  1.0650  1.6008
 1073SOL    HW214853   3.589   2.394  11.979  2.5348  0.4779  1.3518
 1074SOL     OW14854   3.252   4.379  10.445 -0.2053 -0.2702  0.0807
 1074SOL    HW114855   3.162   4.380  10.410  0.6095  1.5711 -1.9347
 1074SOL    HW214856   3.252   4.459  10.497  0.6735  0.8730 -1.6677
 1075SOL     OW14857   3.887   1.184   3.464  0.6064  0.2608  0.3265
 1075SOL    HW114858   3.815   1.248   3.463  1.2633  1.0189  1.1076
 1075SOL    HW214859   3.956   1.250   3.460  0.0176  0.9102  0.7698
 1076SOL     OW14860   1.971   3.887   7.478 -0.4166 -0.6371 -0.0036
 1076SOL    HW114861   1.943   3.846   7.396 -0.4118 -0.3031 -0.1694
 1076SOL    HW214862   2.049   3.835   7.497  0.0859 -0.5420 -1.8185
 1077SOL     OW14863   2.095   1.882  15.820  0.1319  0.4095  0.2122
 1077SOL    HW114864   2.017   1.922  15.782  0.1659  0.9512  0.7031
 1077SOL    HW214865   2.144   1.962  15.838 -0.6548  1.1443 -0.9234
 1078SOL     OW14866   0.596   4.183   9.595  0.3329 -0.0025  0.1119
 1078SOL    HW114867   0.639   4.099   9.612  0.2647 -0.2525 -0.9712
 1078SOL    HW214868   0.576   4.219   9.681  0.1767 -1.8556  0.8562
 1079SOL     OW14869   2.266   2.523   7.444 -0.4611  0.1571 -0.0107
 1079SOL    HW114870   2.314   2.589   7.394  0.5920 -0.1970  0.5263
 1079SOL    HW214871   2.184   2.518   7.396 -0.1582 -0.7240 -0.4412
 1080SOL     OW14872   2.634   4.196   0.377 -0.4840 -0.0372  0.2899
 1080SOL    HW114873   2.673   4.178   0.463  1.5358  3.3771  0.0964
 1080SOL    HW214874   2.711   4.187   0.321 -0.4433 -2.9635  0.8316
 1081SOL     OW14875   4.021   0.827   0.640 -0.0546 -0.5830 -0.1995
 1081SOL    HW114876   3.927   0.809   0.644 -0.3131  1.0671  1.3644
 1081SOL    HW214877   4.037   0.855   0.730  0.1093 -1.9560  0.1959
 1082SOL     OW14878   4.462   3.696   0.443  0.3811  0.2713  0.7973
 1082SOL    HW114879   4.522   3.744   0.385  1.0997 -0.7684  0.6797
 1082SOL    HW214880   4.473   3.747   0.523  1.7112  0.3088  0.6025
 1083SOL     OW14881   3.978   0.654  12.410 -0.2411  0.5591  0.2257
 1083SOL    HW114882   3.994   0.722  12.344  0.2975 -1.0075 -1.2510
 1083SOL    HW214883   4.045   0.684  12.471  1.0413 -0.6404 -0.6105
 1084SOL     OW14884   2.540   0.513  12.370  0.0153 -0.0566 -0.7170
 1084SOL    HW114885   2.482   0.441  12.396 -0.3043  0.6992  0.6522
 1084SOL    HW214886   2.610   0.501  12.434 -0.4226  0.3452 -0.1656
 1085SOL     OW14887   1.248   2.379  13.986  1.1247  0.2036 -0.1650
 1085SOL    HW114888   1.235   2.339  13.900  2.2436 -0.6061  0.0464
 1085SOL    HW214889   1.165   2.361  14.030  1.3020 -0.2645 -0.0265
 1086SOL     OW14890   3.443   3.036   9.057 -0.4654 -0.0905 -0.3155
 1086SOL    HW114891   3.520   3.058   9.005 -0.4792 -0.3916 -0.4604
 1086SOL    HW214892   3.372   3.046   8.994  3.0366  1.7390 -3.9872
 1087SOL     OW14893   1.411   1.768   2.872  0.2039  0.3767 -0.3126
 1087SOL    HW114894   1.422   1.854   2.832 -0.7528 -0.5541 -2.5990
 1087SOL    HW214895   1.471   1.780   2.946 -0.2582  0.9519 -0.0310
 1088SOL     OW14896   3.028   4.659   3.402 -0.0259 -0.6289  0.3069
 1088SOL    HW114897   3.111   4.691   3.366 -0.7669  1.5385  0.5619
 1088SOL    HW214898   3.029   4.565   3.381  1.5847 -0.8104  1.1291
 1089SOL     OW14899   3.501   0.487   6.972  0.0245 -0.3145  0.0181
 1089SOL    HW114900   3.414   0.516   6.997  0.2538 -1.6882  2.3847
 1089SOL    HW214901   3.532   0.561   6.921 -0.6315  0.3877  0.6442
 1090SOL     OW14902   2.660   1.896   2.809 -0.2832 -0.2156  0.0195
 1090SOL    HW114903   2.687   1.875   2.720 -0.6502  1.4845 -0.4886
 1090SOL    HW214904   2.585   1.839   2.824 -1.7375  1.7964  0.3375
 1091SOL     OW14905   3.177   2.603   8.114  0.9127 -0.6230  0.1801
 1091SOL    HW114906   3.204   2.663   8.045 -0.6085 -0.8178 -0.5904
 1091SOL    HW214907   3.108   2.551   8.072 -1.6230  1.2043  2.0699
 1092SOL     OW14908   1.939   3.543   5.517 -0.2802  0.4258  0.7502
 1092SOL    HW114909   1.863   3.595   5.489 -1.0835 -1.5202 -0.6644
 1092SOL    HW214910   1.979   3.522   5.433 -2.8157 -0.1473 -0.3329
 1093SOL     OW14911   2.333   0.283  15.988  0.4289  0.1655 -0.3159
 1093SOL    HW114912   2.282   0.289  16.068 -1.9221 -4.0671 -1.5098
 1093SOL    HW214913   2.415   0.256  16.030 -0.1577 -1.0037  0.0569
 1094SOL     OW14914   0.752   0.730  11.419  0.6496  0.2665 -0.3079
 1094SOL    HW114915   0.774   0.782  11.342 -1.0137  1.1448 -0.1847
 1094SOL    HW214916   0.835   0.684  11.432  1.2883  1.0648 -1.5507
 1095SOL     OW14917   3.675   1.794   4.742  0.3534 -0.2485 -0.1224
 1095SOL    HW114918   3.647   1.704   4.726 -0.9731  0.3840 -1.2246
 1095SOL    HW214919   3.619   1.850   4.689 -0.0431  0.0327  0.5896
 1096SOL     OW14920   0.236   2.431   6.054  0.4222 -0.0631 -0.3755
 1096SOL    HW114921   0.240   2.484   5.974 -1.8048  2.0342  0.8980
 1096SOL    HW214922   0.168   2.369   6.028 -0.1805  0.4155  0.0547
 1097SOL     OW14923   1.581   4.699   3.951  1.0042  0.0262  0.0166
 1097SOL    HW114924   1.661   4.646   3.957  1.5946  0.7120 -1.6451
 1097SOL    HW214925   1.535   4.653   3.881  0.4597  3.3981 -1.8491
 1098SOL     OW14926   0.745   1.466   2.037  0.1523 -0.6029 -0.2572
 1098SOL    HW114927   0.769   1.404   2.106  0.3402 -0.0637  0.1684
 1098SOL    HW214928   0.833   1.494   2.011  0.1416 -0.4343 -0.1151
 1099SOL     OW14929   3.454   1.147   2.449 -0.2247 -0.5089  0.1528
 1099SOL    HW114930   3.385   1.099   2.405  0.8628 -1.5166 -0.4536
 1099SOL    HW214931   3.512   1.071   2.457  0.4295  0.2429  2.5956
 1100SOL     OW14932   1.246   1.044  16.586 -0.3555  0.0698  0.2063
 1100SOL    HW114933   1.281   1.014  16.670  1.1022 -0.2244 -0.5251
 1100SOL    HW214934   1.263   1.139  16.584 -1.0189  0.2895  3.9868
 1101SOL     OW14935   0.306   1.739   5.076 -0.2184  0.7263  0.0273
 1101SOL    HW114936   0.352   1.738   4.992 -0.2446  0.2384  0.0195
 1101SOL    HW214937   0.373   1.785   5.127 -0.0255  1.0895 -0.5431
 1102SOL     OW14938   1.263   1.875  13.196 -0.2981 -0.4520 -0.2062
 1102SOL    HW114939   1.316   1.896  13.119 -1.0150  2.6923  0.1979
 1102SOL    HW214940   1.177   1.869  13.156 -1.7629 -0.9664  3.0009
 1103SOL     OW14941   1.547   0.836  13.326 -0.4630  0.0261 -0.0499
 1103SOL    HW114942   1.585   0.877  13.248 -0.1867  2.5030  1.3950
 1103SOL    HW214943   1.525   0.751  13.287 -0.5658 -0.2107  0.5207
 1104SOL     OW14944   0.463   3.311  13.906  0.8363 -0.1625 -0.1264
 1104SOL    HW114945   0.429   3.337  13.820  1.9016 -2.0079 -1.1077
 1104SOL    HW214946   0.409   3.355  13.971 -0.7674  0.0933 -1.6256
 1105SOL     OW14947   2.131   3.018  14.830 -0.7566 -0.0104  0.1858
 1105SOL    HW114948   2.119   3.044  14.739 -0.1938  0.2644  0.1878
 1105SOL    HW214949   2.097   3.097  14.872  3.4209  2.4539 -1.1272
 1106SOL     OW14950   1.807   0.225  11.074 -0.0899  0.3908  0.1095
 1106SOL    HW114951   1.881   0.194  11.022 -1.0418 -0.9443 -0.4542
 1106SOL    HW214952   1.735   0.215  11.012 -0.4421  1.4331  0.3518
 1107SOL     OW14953   3.704   3.798   2.110 -0.3700  0.0816 -0.4463
 1107SOL    HW114954   3.737   3.833   2.193 -0.7499  0.8849 -0.6323
 1107SOL    HW214955   3.608   3.799   2.110 -0.3678  0.1562 -0.7123
 1108SOL     OW14956   2.745   0.430   7.501  0.0161 -0.5705  0.4441
 1108SOL    HW114957   2.695   0.391   7.573 -1.2194 -0.0768 -0.1300
 1108SOL    HW214958   2.692   0.510   7.495  1.2519  0.0903 -1.5990
 1109SOL     OW14959   0.738   1.153  16.314 -0.1598 -0.0041  1.3320
 1109SOL    HW114960   0.816   1.105  16.288  0.0923  0.7207  0.7398
 1109SOL    HW214961   0.709   1.192  16.231 -0.5729  0.3910  1.6565
 1110SOL     OW14962   0.808   3.277   7.859  0.2743 -0.9679 -0.0405
 1110SOL    HW114963   0.862   3.248   7.933 -0.7096  1.4083  1.5891
 1110SOL    HW214964   0.728   3.287   7.911 -0.4980  0.0770 -1.4325
 1111SOL     OW14965   0.543   0.761   6.666 -0.0784 -0.5597  0.0453
 1111SOL    HW114966   0.458   0.774   6.708  1.2743 -2.0364  3.2739
 1111SOL    HW214967   0.531   0.793   6.576 -0.0836  1.3628  0.7312
 1112SOL     OW14968   0.052   2.205  11.764 -0.2810 -0.4608  0.0976
 1112SOL    HW114969   0.112   2.157  11.821 -2.7080 -2.2713  1.1643
 1112SOL    HW214970   0.010   2.130  11.721 -2.7270  1.4006 -0.7563
 1113SOL     OW14971   3.692   4.717  11.107  0.4514  0.5543 -0.0798
 1113SOL    HW114972   3.648   0.008  11.025 -0.9818  0.0861  0.5294
 1113SOL    HW214973   3.744   0.056  11.134 -1.2663  1.6106  0.3115
 1114SOL     OW14974   2.671   4.483   3.698 -0.2952  0.1382  0.2306
 1114SOL    HW114975   2.579   4.502   3.684 -0.3099 -0.1857 -0.0844
 1114SOL    HW214976   2.684   4.404   3.646  0.3115  0.3111  0.1178
 1115SOL     OW14977   3.556   3.995   5.459 -0.0740  0.1136  0.1783
 1115SOL    HW114978   3.568   4.060   5.529 -2.5220  0.1351  0.5993
 1115SOL    HW214979   3.648   3.987   5.435 -0.5484 -1.7036 -1.0548
 1116SOL     OW14980   0.999   3.297   3.250  0.5473 -0.0787 -0.9729
 1116SOL    HW114981   1.089   3.271   3.231  0.9395  1.0687 -0.6941
 1116SOL    HW214982   0.950   3.268   3.174  0.9496 -1.2072 -0.7948
 1117SOL     OW14983   4.572   2.105   0.807  0.3642 -0.1712  0.8955
 1117SOL    HW114984   4.567   2.150   0.891  2.3476  2.3213 -0.3403
 1117SOL    HW214985   4.621   2.026   0.831 -0.0785 -0.6552  0.2116
 1118SOL     OW14986   2.284   1.848   4.548  0.2232  0.1736  0.5760
 1118SOL    HW114987   2.367   1.804   4.568  0.5823  0.3272 -0.5501
 1118SOL    HW214988   2.310   1.914   4.484 -0.0761  0.9657  1.2828
 1119SOL     OW14989   2.854   3.679  13.770  0.6539  0.1544  0.8104
 1119SOL    HW114990   2.889   3.617  13.706  1.7851 -1.7994  3.3358
 1119SOL    HW214991   2.937   3.690  13.815  0.9773 -1.3095  0.5604
 1120SOL     OW14992   1.973   2.374   5.920  0.0043 -0.3426 -0.1960
 1120SOL    HW114993   1.964   2.324   5.839 -2.0985  2.6536 -1.7915
 1120SOL    HW214994   2.067   2.394   5.922 -0.1771  0.5855 -1.2685
 1121SOL     OW14995   0.639   1.471   4.334 -0.0192 -0.1452 -0.0839
 1121SOL    HW114996   0.620   1.537   4.268  2.6569 -1.2503 -1.9236
 1121SOL    HW214997   0.726   1.501   4.360  0.1650 -0.0373 -0.8531
 1122SOL     OW14998   0.547   3.152   1.056 -0.1037  0.2475  0.8120
 1122SOL    HW114999   0.553   3.158   0.960 -0.9418  1.0400  0.8082
 1122SOL    HW215000   0.628   3.181   1.098 -0.5642  2.0148  0.4708
 1123SOL     OW15001   2.894   1.475   3.394 -0.1535  0.5289 -0.0407
 1123SOL    HW115002   2.834   1.461   3.321  0.3810 -0.5219 -0.2932
 1123SOL    HW215003   2.846   1.436   3.467  1.7611 -0.5288  0.6483
 1124SOL     OW15004   4.008   2.772   7.966  0.1543 -0.6039 -0.3145
 1124SOL    HW115005   4.085   2.779   7.910 -1.5616  1.2358 -2.4689
 1124SOL    HW215006   3.940   2.781   7.899  0.7097 -0.1637 -0.8199
 1125SOL     OW15007   1.908   2.116   6.246  0.5357 -0.3184 -0.0102
 1125SOL    HW115008   1.960   2.036   6.234 -0.1175 -0.8149  0.5188
 1125SOL    HW215009   1.842   2.105   6.178  0.8261 -0.2182 -0.3129
 1126SOL     OW15010   2.319   0.593   2.508  0.2000  0.1715 -0.6993
 1126SOL    HW115011   2.299   0.664   2.448 -3.1991  0.9106  1.3283
 1126SOL    HW215012   2.247   0.603   2.570  0.1989  0.8936 -0.8189
 1127SOL     OW15013   0.562   0.410   5.660  0.4427 -0.1057  0.5012
 1127SOL    HW115014   0.548   0.421   5.566  2.0421 -1.8045  0.0769
 1127SOL    HW215015   0.478   0.375   5.689  0.2875  0.0077  0.1912
 1128SOL     OW15016   1.277   2.524   6.602  0.0598 -0.4035 -0.2249
 1128SOL    HW115017   1.205   2.554   6.546 -0.6931 -3.0725 -0.6829
 1128SOL    HW215018   1.342   2.480   6.547 -0.6304 -0.9651 -0.5811
 1129SOL     OW15019   1.428   0.671   4.157  0.2043  0.3315  0.1331
 1129SOL    HW115020   1.474   0.742   4.202 -0.7610  0.3416  1.0873
 1129SOL    HW215021   1.466   0.589   4.189 -1.6424 -0.9948 -1.0287
 1130SOL     OW15022   3.822   0.547   1.566  0.7605  0.7242  0.3200
 1130SOL    HW115023   3.870   0.578   1.642  0.8335 -1.0156  0.9813
 1130SOL    HW215024   3.872   0.561   1.486 -2.4736 -0.7865 -1.9611
 1131SOL     OW15025   0.511   4.168   4.387  0.2466 -0.2557 -0.4000
 1131SOL    HW115026   0.527   4.237   4.452 -0.3758 -1.1265  0.6678
 1131SOL    HW215027   0.440   4.116   4.425  2.2038 -1.9474  0.9289
 1132SOL     OW15028   1.132   4.731   5.521 -0.1440 -0.2935  0.3580
 1132SOL    HW115029   1.107   4.676   5.447  0.7820  2.2965 -1.9015
 1132SOL    HW215030   1.212   0.032   5.483 -0.3592 -0.2075 -0.0195
 1133SOL     OW15031   1.273   0.654   5.780  0.0588  0.1873  0.1940
 1133SOL    HW115032   1.276   0.559   5.771  1.1853  0.4212 -1.8801
 1133SOL    HW215033   1.363   0.677   5.803 -0.1571  1.1282  0.0967
 1134SOL     OW15034   3.791   0.305   8.448  0.2266 -0.5408 -0.7447
 1134SOL    HW115035   3.822   0.341   8.365 -1.0685 -1.4137 -1.6053
 1134SOL    HW215036   3.758   0.384   8.490  0.7304  0.3787 -2.0687
 1135SOL     OW15037   2.517   2.383  14.935  0.3543  0.0747 -0.0939
 1135SOL    HW115038   2.609   2.357  14.935  0.3695  0.1227  1.4273
 1135SOL    HW215039   2.508   2.401  15.029 -0.1960  0.5055 -0.2303
 1136SOL     OW15040   4.662   2.333   7.424  0.7616  0.1206  0.6025
 1136SOL    HW115041   4.710   2.365   7.347 -0.9562  0.5769 -0.2951
 1136SOL    HW215042   4.717   2.382   7.484  0.7429 -1.1846  1.6688
 1137SOL     OW15043   3.587   1.436   5.599 -0.4640  0.1036  0.0834
 1137SOL    HW115044   3.501   1.401   5.578 -0.1853 -1.0807  0.9542
 1137SOL    HW215045   3.570   1.521   5.640  1.1401  0.2615  0.4472
 1138SOL     OW15046   0.408   3.929  12.217 -0.3957 -0.0062 -0.1867
 1138SOL    HW115047   0.498   3.896  12.226 -0.5603 -0.1489  0.9662
 1138SOL    HW215048   0.356   3.864  12.170 -1.3906  0.3457  0.4253
 1139SOL     OW15049   1.107   1.540  16.847 -0.0259 -0.4966 -0.5417
 1139SOL    HW115050   1.084   1.484  16.921  0.9964  1.9758  1.6468
 1139SOL    HW215051   1.152   1.479  16.789  0.4501 -1.3919  0.7670
 1140SOL     OW15052   3.109   2.441  10.160  0.1747  0.5960  0.0117
 1140SOL    HW115053   3.047   2.375  10.192  2.0210 -1.4890 -0.7080
 1140SOL    HW215054   3.071   2.451  10.073  1.2028  0.5077 -0.4435
 1141SOL     OW15055   3.824   2.640   1.410  0.1633  0.0277 -0.3014
 1141SOL    HW115056   3.769   2.627   1.332 -2.2894  3.1025  0.9006
 1141SOL    HW215057   3.888   2.698   1.370 -1.1406  1.0176 -0.9674
 1142SOL     OW15058   1.885   1.576   3.583 -0.1378 -0.3477  0.1734
 1142SOL    HW115059   1.865   1.504   3.522  2.3409 -0.0199 -1.0285
 1142SOL    HW215060   1.803   1.626   3.583 -1.0923 -1.9014 -2.6686
 1143SOL     OW15061   3.662   1.644   1.236  0.1143 -0.1470  0.1114
 1143SOL    HW115062   3.595   1.681   1.293  1.8645  1.2905  1.2137
 1143SOL    HW215063   3.745   1.661   1.281  1.0810 -0.7545 -1.4263
 1144SOL     OW15064   0.473   0.702   6.102 -0.7708  0.0969 -0.3893
 1144SOL    HW115065   0.417   0.779   6.097 -3.1274 -1.4095  3.0858
 1144SOL    HW215066   0.490   0.692   6.008  0.5265  1.1633 -0.2744
 1145SOL     OW15067   3.458   2.810   6.103  0.2221 -0.2676 -0.3754
 1145SOL    HW115068   3.398   2.796   6.176  0.9132 -1.7324 -0.0982
 1145SOL    HW215069   3.538   2.774   6.141  0.6419 -0.4919 -1.4673
 1146SOL     OW15070   0.070   2.196   0.214 -0.7943  0.1847 -0.0450
 1146SOL    HW115071   0.059   2.216   0.307  2.7868 -2.1097  0.8699
 1146SOL    HW215072   4.714   2.190   0.187 -0.6475 -1.4382 -0.1904
 1147SOL     OW15073   4.186   1.347   1.564  0.4681  0.2330  0.1815
 1147SOL    HW115074   4.123   1.336   1.493  0.2573  1.9387  0.0893
 1147SOL    HW215075   4.199   1.441   1.549  0.2741  0.1742 -0.3441
 1148SOL     OW15076   0.285   0.980   5.258 -0.1302  0.2474 -0.2004
 1148SOL    HW115077   0.337   1.060   5.263 -0.5678  0.6991 -2.9795
 1148SOL    HW215078   0.271   0.985   5.164  0.0034 -0.9305 -0.2824
 1149SOL     OW15079   0.034   0.752   6.065 -0.1696 -0.2243 -0.2756
 1149SOL    HW115080   4.693   0.807   6.078  0.7264  0.3593  2.7239
 1149SOL    HW215081   4.736   0.663   6.062 -1.1792  0.0885  1.7126
 1150SOL     OW15082   2.200   0.127  15.797  0.0261 -0.1532  0.1277
 1150SOL    HW115083   2.115   0.171  15.793 -0.3985 -0.9268  0.7592
 1150SOL    HW215084   2.243   0.181  15.863  0.3148 -2.0496  1.4753
 1151SOL     OW15085   1.348   0.948  11.806  0.1098 -0.2282  0.0357
 1151SOL    HW115086   1.338   1.011  11.877 -2.3007 -0.0044 -0.4821
 1151SOL    HW215087   1.383   0.870  11.849 -1.3682 -1.0632 -0.2594
 1152SOL     OW15088   0.516   2.836   9.155 -0.1759  0.4821  0.3079
 1152SOL    HW115089   0.483   2.842   9.065  0.0384 -2.2534  0.0628
 1152SOL    HW215090   0.539   2.744   9.166 -1.0322  0.3814  1.2655
 1153SOL     OW15091   2.536   0.442   2.598 -0.1093  0.0897  0.1843
 1153SOL    HW115092   2.473   0.461   2.527 -0.5145 -0.2320  0.4592
 1153SOL    HW215093   2.487   0.471   2.675  0.7935  0.4192  0.6325
 1154SOL     OW15094   4.494   0.000   0.398 -1.1806  0.6594 -0.5142
 1154SOL    HW115095   4.429   0.018   0.466  0.7857 -2.4488  2.1814
 1154SOL    HW215096   4.480   4.642   0.388 -3.6233  1.0779 -1.1103
 1155SOL     OW15097   4.583   2.344   6.826 -0.5193 -0.3904 -0.2265
 1155SOL    HW115098   4.610   2.401   6.755  0.6939 -0.2336  0.3661
 1155SOL    HW215099   4.662   2.290   6.835  0.4136  0.6288 -2.4435
 1156SOL     OW15100   1.894   4.137   7.432  0.4036  0.0621  0.1704
 1156SOL    HW115101   1.919   4.046   7.452 -1.2574 -0.2515  0.8072
 1156SOL    HW215102   1.842   4.122   7.354 -1.3263 -0.9749  1.5072
 1157SOL     OW15103   4.659   0.196  12.421 -0.0167 -0.2891 -0.0791
 1157SOL    HW115104   4.606   0.125  12.459  0.6923 -1.8248 -1.9439
 1157SOL    HW215105   4.597   0.267  12.407  0.6971  0.3257 -0.1487
 1158SOL     OW15106   0.241   0.061   2.104  0.3402 -0.3525  0.5092
 1158SOL    HW115107   0.233   0.100   2.017  0.7000  0.3172  0.7733
 1158SOL    HW215108   0.167   0.111   2.140  0.3837  1.1739 -1.5284
 1159SOL     OW15109   0.057   3.340  10.584 -0.1455  0.6364  0.3988
 1159SOL    HW115110   0.122   3.411  10.586  1.2829 -0.7023  1.4262
 1159SOL    HW215111   0.032   3.329  10.492  0.1631  1.2917  0.2359
 1160SOL     OW15112   0.294   1.023  15.618 -0.3966  0.2690 -0.1419
 1160SOL    HW115113   0.365   1.081  15.643  0.7832 -0.3124 -2.1148
 1160SOL    HW215114   0.297   1.024  15.522  0.3426 -3.2047 -0.1594
 1161SOL     OW15115   4.466   0.511   6.337 -0.4531  0.4374 -0.1086
 1161SOL    HW115116   4.465   0.499   6.432 -0.3348  0.3311 -0.1199
 1161SOL    HW215117   4.383   0.557   6.326 -0.4256  0.6726  0.6544
 1162SOL     OW15118   3.244   0.751  11.711  0.1090 -0.0584 -0.2992
 1162SOL    HW115119   3.301   0.821  11.744 -0.2736 -0.3990  1.0962
 1162SOL    HW215120   3.156   0.772  11.743  0.1635  0.9939 -0.8338
 1163SOL     OW15121   1.551   0.509   1.209  0.3667  0.3120  0.9943
 1163SOL    HW115122   1.524   0.554   1.289 -0.5498 -0.5251  1.1532
 1163SOL    HW215123   1.535   0.567   1.135 -1.1883  0.7139  1.6547
 1164SOL     OW15124   3.972   4.475   7.274  0.1042  0.1627  0.2943
 1164SOL    HW115125   3.931   4.433   7.349  1.4832 -1.2872  0.2445
 1164SOL    HW215126   3.974   4.567   7.297 -1.2908  0.0128  1.0050
 1165SOL     OW15127   1.133   0.542   2.658  0.3498  0.1662 -0.3864
 1165SOL    HW115128   1.142   0.618   2.715  1.2226 -0.0350 -0.2617
 1165SOL    HW215129   1.138   0.480   2.730 -1.9059 -0.1541 -0.4960
 1166SOL     OW15130   2.842   4.037  15.785  0.0482 -0.4509 -0.0112
 1166SOL    HW115131   2.749   4.057  15.784  0.4863  1.5872  0.6970
 1166SOL    HW215132   2.880   4.107  15.838  1.1423 -0.4678 -0.7786
 1167SOL     OW15133   3.276   2.512   6.201  0.4070 -0.1307  0.6149
 1167SOL    HW115134   3.311   2.597   6.228  0.9351  0.0561 -0.6309
 1167SOL    HW215135   3.204   2.539   6.143 -0.0819 -0.9044  0.8622
 1168SOL     OW15136   1.175   4.639  11.138  0.2937  0.5439  0.2166
 1168SOL    HW115137   1.181   4.544  11.143  1.1667  0.5351 -1.2773
 1168SOL    HW215138   1.183   4.663  11.231 -0.1461 -0.6947  0.5756
 1169SOL     OW15139   2.428   2.235   4.115 -0.3865 -0.2665  0.0992
 1169SOL    HW115140   2.513   2.192   4.123  0.5367  2.0450  2.7179
 1169SOL    HW215141   2.431   2.287   4.035  1.4192  0.4005  0.6020
 1170SOL     OW15142   1.873   0.387  12.226 -0.0486 -0.3252 -0.4766
 1170SOL    HW115143   1.792   0.435  12.245  0.5361  1.1642 -1.7263
 1170SOL    HW215144   1.842   0.339  12.150 -1.1780 -1.4453  0.7031
 1171SOL     OW15145   3.116   3.862   6.016  0.2922  0.6690 -0.1351
 1171SOL    HW115146   3.052   3.932   6.003  1.4998  1.2893 -2.8464
 1171SOL    HW215147   3.073   3.784   5.980 -3.8921  2.6596  0.6470
 1172SOL     OW15148   3.815   2.532  13.195  0.4078 -0.0740  0.1460
 1172SOL    HW115149   3.741   2.512  13.137  0.8145 -2.0478  0.3456
 1172SOL    HW215150   3.786   2.490  13.277  1.3632  0.6925  0.8765
 1173SOL     OW15151   4.121   3.827   2.055 -0.4091 -0.2479 -0.2856
 1173SOL    HW115152   4.053   3.786   2.108 -0.6339  1.1455  0.4921
 1173SOL    HW215153   4.110   3.769   1.979 -1.6136 -0.1300 -0.2034
 1174SOL     OW15154   2.607   3.641   3.285  0.1253  0.2465  0.0544
 1174SOL    HW115155   2.646   3.721   3.249 -0.7094  0.4671 -0.3435
 1174SOL    HW215156   2.687   3.612   3.331  0.6686  0.2715 -0.8851
 1175SOL     OW15157   3.892   2.216   7.969  0.2958 -0.2328 -0.4933
 1175SOL    HW115158   3.880   2.311   7.974 -0.3887 -0.2926 -0.9919
 1175SOL    HW215159   3.925   2.188   8.055 -0.2407 -2.1577 -0.8998
 1176SOL     OW15160   0.852   3.407   3.966  0.0359 -0.6340 -0.7800
 1176SOL    HW115161   0.798   3.452   3.902 -0.2627 -1.4691 -1.1201
 1176SOL    HW215162   0.781   3.369   4.017 -0.3718 -1.8577 -2.2407
 1177SOL     OW15163   0.391   2.336   1.772  0.5036 -0.1931  0.5603
 1177SOL    HW115164   0.347   2.302   1.850 -0.2874 -0.1271  0.1419
 1177SOL    HW215165   0.466   2.357   1.828 -0.1498  2.2184  0.5165
 1178SOL     OW15166   3.724   1.632   3.590  0.5306 -0.4175 -0.1940
 1178SOL    HW115167   3.704   1.725   3.606  1.4374  0.0553 -1.8232
 1178SOL    HW215168   3.680   1.594   3.666  0.9350  0.0000  0.2428
 1179SOL     OW15169   2.471   0.526   7.830 -0.4962  0.1842 -0.0756
 1179SOL    HW115170   2.383   0.491   7.835 -0.0060 -0.9407  0.5083
 1179SOL    HW215171   2.471   0.550   7.737  0.0356  1.7837  0.3338
 1180SOL     OW15172   4.200   2.528  15.485 -0.3559  0.1787  0.1084
 1180SOL    HW115173   4.257   2.476  15.543 -1.1909 -1.3701 -0.4467
 1180SOL    HW215174   4.219   2.482  15.403  0.4300  0.8853 -0.1022
 1181SOL     OW15175   3.800   4.030   7.913  0.5612  0.1123  0.5520
 1181SOL    HW115176   3.849   3.970   7.858 -1.5425  0.1488 -1.3755
 1181SOL    HW215177   3.713   3.990   7.922  1.0057 -0.8575  0.4700
 1182SOL     OW15178   2.418   3.289   7.364  0.1527  0.2065 -0.1856
 1182SOL    HW115179   2.368   3.270   7.443  0.8609  1.5593  0.5809
 1182SOL    HW215180   2.503   3.261   7.396 -0.4877  0.9959  2.2334
 1183SOL     OW15181   1.662   0.871   7.133  0.0257  0.0642  0.0369
 1183SOL    HW115182   1.662   0.958   7.174 -0.8068  1.0967 -2.1550
 1183SOL    HW215183   1.651   0.896   7.041 -1.3856 -1.5254 -0.2183
 1184SOL     OW15184   4.014   4.493   5.806 -0.2022  0.0226 -0.1067
 1184SOL    HW115185   3.938   4.540   5.772  0.6638  0.5271 -1.3238
 1184SOL    HW215186   4.076   4.564   5.817 -0.1496 -0.2262  1.1764
 1185SOL     OW15187   3.269   2.704  11.172 -1.0345  0.3108 -0.4933
 1185SOL    HW115188   3.209   2.762  11.125 -0.5959  0.1277 -1.2810
 1185SOL    HW215189   3.354   2.748  11.170 -0.1238 -1.4190  0.0892
 1186SOL     OW15190   1.496   3.149   6.184 -0.0350  0.4872  0.1407
 1186SOL    HW115191   1.532   3.220   6.130  2.0799 -1.4624 -0.9917
 1186SOL    HW215192   1.579   3.111   6.211  0.8367  0.7723 -2.1019
 1187SOL     OW15193   1.512   3.205   0.149  0.0565 -0.1192 -0.3766
 1187SOL    HW115194   1.441   3.238   0.094  0.2867  1.6722  0.3889
 1187SOL    HW215195   1.554   3.164   0.073  0.6413  0.7048 -0.5009
 1188SOL     OW15196   1.327   3.313  17.724  0.2314  0.3832  0.1451
 1188SOL    HW115197   1.264   3.385  17.727  0.0379  0.2211 -0.0428
 1188SOL    HW215198   1.292   3.273  17.645  1.9610 -0.6477 -0.0997
 1189SOL     OW15199   2.984   4.577   2.558 -0.1354  0.1506  0.2551
 1189SOL    HW115200   3.050   4.645   2.540  0.3911 -0.8922 -1.7738
 1189SOL    HW215201   2.908   4.626   2.590 -1.3213 -0.6653 -1.3497
 1190SOL     OW15202   2.744   4.090   9.237  0.1437  0.1386  0.1344
 1190SOL    HW115203   2.674   4.034   9.271  0.3737  0.4612  1.1174
 1190SOL    HW215204   2.814   4.061   9.295  0.1125 -0.5217 -0.1493
 1191SOL     OW15205   0.687   1.231   8.943  0.1898 -0.3825  1.1731
 1191SOL    HW115206   0.766   1.261   8.898 -0.4226  0.2895  0.5606
 1191SOL    HW215207   0.624   1.303   8.939  1.1020  0.4431  1.5596
 1192SOL     OW15208   0.737   1.684   0.485  0.0512  0.0156  0.5220
 1192SOL    HW115209   0.702   1.675   0.396 -1.0417 -0.8526  1.0442
 1192SOL    HW215210   0.725   1.779   0.490 -1.9389 -0.3768  3.1533
 1193SOL     OW15211   0.743   3.287  16.449 -0.1903 -0.1389  0.2155
 1193SOL    HW115212   0.782   3.229  16.384 -2.3692 -1.7406  0.3594
 1193SOL    HW215213   0.648   3.287  16.438 -0.1216  1.4187 -0.4383
 1194SOL     OW15214   2.725   0.713   2.368  0.4555 -0.1937  0.2020
 1194SOL    HW115215   2.644   0.740   2.412  0.0173  2.2781 -2.1579
 1194SOL    HW215216   2.685   0.634   2.332  0.5638 -0.8441  1.4958
 1195SOL     OW15217   2.287   4.128   5.235 -0.1320  0.4060 -0.1791
 1195SOL    HW115218   2.207   4.132   5.183 -1.1641 -0.5124  1.3207
 1195SOL    HW215219   2.319   4.215   5.212 -2.0605  1.6279  1.7964
 1196SOL     OW15220   4.719   4.643   4.281 -0.9092 -0.1761  0.1924
 1196SOL    HW115221   4.718   4.563   4.334  1.7322 -0.2432  0.1321
 1196SOL    HW215222   4.644   4.622   4.225 -0.7199 -1.4249  0.4014
 1197SOL     OW15223   2.066   4.231   4.547  0.1881 -0.5531 -0.2288
 1197SOL    HW115224   1.981   4.194   4.569  0.4432 -0.2523  1.3048
 1197SOL    HW215225   2.129   4.168   4.583  0.7298 -1.6751 -3.1741
 1198SOL     OW15226   3.216   4.675   3.927  0.3046  0.1283 -0.8118
 1198SOL    HW115227   3.282   4.686   3.858  2.1003  0.7835  1.0165
 1198SOL    HW215228   3.222   4.581   3.947  2.4376  0.6847  1.1384
 1199SOL     OW15229   1.056   1.486  10.221 -0.2881  0.5331  0.7620
 1199SOL    HW115230   1.124   1.427  10.253 -1.5317 -1.3681 -0.1401
 1199SOL    HW215231   0.978   1.442  10.255  0.4213 -0.8130  0.6449
 1200SOL     OW15232   4.514   4.656   3.797 -0.0972 -0.0032 -0.3445
 1200SOL    HW115233   4.599   4.641   3.755  0.5718  0.1277  0.9846
 1200SOL    HW215234   4.531   4.679   3.888 -2.1689 -0.3075  0.1247
 1201SOL     OW15235   1.166   1.841  16.234  0.2498 -0.6346 -0.1393
 1201SOL    HW115236   1.153   1.929  16.197  1.4658 -1.1962 -1.9043
 1201SOL    HW215237   1.148   1.790  16.156 -2.2383  1.3251 -0.8693
 1202SOL     OW15238   3.515   1.599   8.301 -0.8044  0.8703  0.0877
 1202SOL    HW115239   3.520   1.600   8.206 -1.3426  2.0136  0.0841
 1202SOL    HW215240   3.607   1.579   8.322 -0.2347  2.3201 -1.0661
 1203SOL     OW15241   4.625   2.414   4.596  0.0657  0.2869 -0.2061
 1203SOL    HW115242   4.636   2.359   4.518 -0.3890 -0.6951  0.4258
 1203SOL    HW215243   4.715   2.440   4.616  0.5710  1.3119 -3.8542
 1204SOL     OW15244   0.074   3.578  16.733 -0.1207 -0.3822  0.1013
 1204SOL    HW115245   0.166   3.604  16.738 -0.3162  0.6137 -1.2896
 1204SOL    HW215246   0.021   3.657  16.718  0.4475 -0.0265 -0.0300
 1205SOL     OW15247   4.285   0.952   9.118  0.1521  0.2633 -0.0667
 1205SOL    HW115248   4.377   0.928   9.131  0.4041  2.5557  2.4651
 1205SOL    HW215249   4.258   0.979   9.206  1.1043 -1.1580  0.6654
 1206SOL     OW15250   1.001   0.926   2.929  0.3085  0.3106  0.0190
 1206SOL    HW115251   0.937   0.946   2.998 -0.8267  0.1752 -0.9939
 1206SOL    HW215252   1.007   0.830   2.927  2.6644  0.4674 -0.8625
 1207SOL     OW15253   3.666   4.150   5.681 -0.5319  0.5285  0.5708
 1207SOL    HW115254   3.711   4.231   5.659 -0.0996 -0.3312 -1.7002
 1207SOL    HW215255   3.577   4.178   5.659 -0.4423 -0.6640 -1.3151
 1208SOL     OW15256   3.949   0.018  13.098  0.4462  0.0458  0.2465
 1208SOL    HW115257   3.965   0.028  13.192  1.7492  3.3364 -0.3394
 1208SOL    HW215258   4.010   4.684  13.074 -0.0402  0.6824 -2.7763
 1209SOL     OW15259   0.095   2.948   7.904  0.0094  0.3327  0.7175
 1209SOL    HW115260   0.076   2.905   7.987  0.2004 -0.1346  0.5212
 1209SOL    HW215261   0.066   2.880   7.843 -2.5314  2.1771 -0.1140
 1210SOL     OW15262   1.154   1.166   0.492  0.1223  0.0117 -0.6210
 1210SOL    HW115263   1.059   1.168   0.503  0.2188  0.9521  0.0831
 1210SOL    HW215264   1.168   1.148   0.399  0.2089  1.1312 -0.8333
 1211SOL     OW15265   1.361   3.067   5.814 -0.4904 -0.3937 -0.6830
 1211SOL    HW115266   1.275   3.105   5.829  0.6028  1.9838 -0.4473
 1211SOL    HW215267   1.365   2.987   5.866  2.4175  0.8405  1.0106
 1212SOL     OW15268   1.651   3.779   3.482  0.3811  0.4281  0.4914
 1212SOL    HW115269   1.575   3.826   3.516 -0.2753 -0.7532  0.6715
 1212SOL    HW215270   1.615   3.727   3.410  1.4205  1.0369 -0.4675
 1213SOL     OW15271   0.695   3.780   7.561 -0.1571 -0.3808  0.7016
 1213SOL    HW115272   0.621   3.720   7.552 -0.7288  0.8339 -2.4090
 1213SOL    HW215273   0.770   3.720   7.563  0.7037  0.6389 -0.7900
 1214SOL     OW15274   1.186   0.116   8.870 -0.0016 -0.0275  0.1256
 1214SOL    HW115275   1.149   0.043   8.821  0.9746  0.0782 -0.7834
 1214SOL    HW215276   1.133   0.115   8.950  0.3795  0.6592  0.3877
 1215SOL     OW15277   2.866   0.748   5.738 -1.2525 -0.4255 -0.2060
 1215SOL    HW115278   2.948   0.787   5.770 -0.5567 -1.7747 -0.3352
 1215SOL    HW215279   2.818   0.821   5.699 -0.5852 -1.1539 -2.4148
 1216SOL     OW15280   2.767   0.481   2.738  0.1324 -0.0204 -0.0425
 1216SOL    HW115281   2.764   0.571   2.768  0.7219  0.1662 -0.5185
 1216SOL    HW215282   2.695   0.466   2.678 -0.4538 -0.0311  0.6717
 1217SOL     OW15283   2.598   2.892   1.922  0.1289 -0.2318 -0.0856
 1217SOL    HW115284   2.526   2.867   1.864  0.3975 -1.2788  0.0315
 1217SOL    HW215285   2.673   2.856   1.876 -0.9562 -1.2841 -1.0302
 1218SOL     OW15286   0.151   0.761   3.291 -0.5869  0.2337  0.2444
 1218SOL    HW115287   0.179   0.852   3.291 -0.3492  0.1463 -1.3251
 1218SOL    HW215288   0.069   0.770   3.243 -1.2809  0.6306  1.4885
 1219SOL     OW15289   1.121   1.060   3.380  0.0704 -0.4976  0.1559
 1219SOL    HW115290   1.134   0.969   3.352  1.4030  0.3255 -1.8849
 1219SOL    HW215291   1.033   1.052   3.415  0.3841 -0.0624  1.0372
 1220SOL     OW15292   2.303   0.939   3.597 -0.2343  0.1939  0.2622
 1220SOL    HW115293   2.379   0.925   3.540 -0.0304  0.7676  0.3960
 1220SOL    HW215294   2.331   1.003   3.662 -0.8688 -0.2650  0.9845
 1221SOL     OW15295   1.718   1.715   7.823 -0.6601  0.2062  0.2864
 1221SOL    HW115296   1.804   1.707   7.865 -0.8937  1.6060  1.0148
 1221SOL    HW215297   1.714   1.623   7.797  1.8906  0.1516  0.0677
 1222SOL     OW15298   3.046   0.206   7.233 -0.1309 -0.4261 -0.4807
 1222SOL    HW115299   2.960   0.241   7.208  0.4595  0.1704 -1.6781
 1222SOL    HW215300   3.084   0.268   7.296 -1.5480 -2.1601  2.0947
 1223SOL     OW15301   0.042   2.423  15.214  0.4859  0.2045 -0.4748
 1223SOL    HW115302   0.009   2.439  15.302 -0.8770 -1.1746 -0.7313
 1223SOL    HW215303   0.132   2.396  15.235 -0.8051 -1.7675  2.5025
 1224SOL     OW15304   0.787   1.588  14.853 -0.0750 -0.2413 -0.1225
 1224SOL    HW115305   0.808   1.633  14.771 -0.9019  1.7558  0.7613
 1224SOL    HW215306   0.744   1.505  14.831  2.7331 -2.0046  1.0035
 1225SOL     OW15307   3.812   4.526  10.049 -0.2612 -0.1736  0.1936
 1225SOL    HW115308   3.882   4.497   9.992 -0.6236 -1.5473  0.4515
 1225SOL    HW215309   3.814   4.465  10.123  0.0345  0.9245  1.1092
 1226SOL     OW15310   4.660   1.477   4.445  0.7758 -0.4353  0.1766
 1226SOL    HW115311   4.590   1.521   4.494 -0.4012  0.0448 -1.9091
 1226SOL    HW215312   4.671   1.409   4.511 -1.1665  0.6696  1.6578
 1227SOL     OW15313   2.607   2.427   8.779 -0.3455 -0.3226 -0.0111
 1227SOL    HW115314   2.551   2.431   8.703  0.7915 -0.7710 -0.8743
 1227SOL    HW215315   2.583   2.513   8.813 -0.4701 -0.2694 -0.2366
 1228SOL     OW15316   2.540   2.399   3.371  0.3608  0.8313 -0.0180
 1228SOL    HW115317   2.592   2.343   3.428 -2.3180 -0.8138  0.7792
 1228SOL    HW215318   2.610   2.448   3.327 -0.1540  2.6718  1.2039
 1229SOL     OW15319   2.041   4.077   5.547 -0.6518  0.1873  0.1776
 1229SOL    HW115320   1.973   4.140   5.570 -1.7482 -1.2776  0.9845
 1229SOL    HW215321   2.120   4.131   5.550 -0.3043 -0.3934  1.6903
 1230SOL     OW15322   3.748   2.151  15.789  0.2533 -0.8652 -0.1590
 1230SOL    HW115323   3.813   2.110  15.845 -1.1044 -3.7016 -0.6779
 1230SOL    HW215324   3.683   2.085  15.765  1.5340 -2.1657 -0.0051
 1231SOL     OW15325   4.221   3.674   5.214  0.4293  0.2775  0.6805
 1231SOL    HW115326   4.192   3.615   5.283 -2.0218  0.7343  0.0346
 1231SOL    HW215327   4.313   3.665   5.238  0.8889  0.8027 -0.8490
 1232SOL     OW15328   4.566   2.605  17.146  0.2088 -0.0936 -0.7476
 1232SOL    HW115329   4.583   2.690  17.186 -1.6320  0.7314 -1.7549
 1232SOL    HW215330   4.522   2.605  17.061 -0.7464  0.6398 -0.2342
 1233SOL     OW15331   4.172   2.483   2.624 -0.3394  0.1213 -0.1799
 1233SOL    HW115332   4.158   2.576   2.605  2.5406  0.4105 -0.8713
 1233SOL    HW215333   4.117   2.473   2.702  0.8625 -0.6494  0.5594
 1234SOL     OW15334   4.028   2.621   4.684  0.1139 -0.7335 -0.0959
 1234SOL    HW115335   4.052   2.528   4.680 -1.3841 -1.0806 -0.9238
 1234SOL    HW215336   4.060   2.660   4.765  0.2788 -3.1784  1.0027
 1235SOL     OW15337   2.538   0.504   8.234 -0.0090 -0.1859 -0.0143
 1235SOL    HW115338   2.614   0.448   8.250  0.3833  0.6260  0.9356
 1235SOL    HW215339   2.463   0.446   8.243  1.5755 -2.1960  0.2408
 1236SOL     OW15340   2.904   0.904   4.698 -0.0907 -1.2902  1.0429
 1236SOL    HW115341   2.991   0.934   4.674 -0.4008  0.7865  2.5256
 1236SOL    HW215342   2.922   0.833   4.760  1.1502 -1.7003  0.2181
 1237SOL     OW15343   3.898   4.644   7.820 -0.2710  0.1908 -0.7651
 1237SOL    HW115344   3.922   4.558   7.855  0.6267  0.3784 -0.8997
 1237SOL    HW215345   3.986   4.683   7.814  0.4048 -1.0092  1.2076
 1238SOL     OW15346   0.060   1.155  14.231 -0.2338 -0.2590 -0.3902
 1238SOL    HW115347   4.726   1.162  14.166 -0.1084 -0.9991 -0.6031
 1238SOL    HW215348   0.093   1.245  14.238 -0.0235 -0.3110 -0.7540
 1239SOL     OW15349   0.657   2.713   5.514 -0.1103 -0.2148 -0.0091
 1239SOL    HW115350   0.641   2.619   5.509  0.5012 -0.4129  1.7288
 1239SOL    HW215351   0.745   2.707   5.478 -0.3615 -0.3766 -0.5988
 1240SOL     OW15352   3.365   3.060   7.408 -0.6309  0.3000 -0.2557
 1240SOL    HW115353   3.442   3.054   7.463 -0.5674 -0.2610 -0.4073
 1240SOL    HW215354   3.297   3.074   7.474 -0.1796 -1.4299  0.5812
 1241SOL     OW15355   2.362   4.599   2.319 -0.4018  0.1889  0.0199
 1241SOL    HW115356   2.422   4.631   2.386  0.9926  0.1731 -1.2229
 1241SOL    HW215357   2.380   4.670   2.258  1.8629 -0.2420  0.1702
 1242SOL     OW15358   3.754   4.237   3.828 -0.1013 -0.0475 -0.2392
 1242SOL    HW115359   3.705   4.195   3.757  1.1938 -3.6983  1.0171
 1242SOL    HW215360   3.756   4.156   3.879 -0.1348  0.2850  0.2862
 1243SOL     OW15361   2.807   3.179  12.768  0.3463 -0.4135 -0.3245
 1243SOL    HW115362   2.725   3.224  12.788 -0.1355 -0.7395 -1.6023
 1243SOL    HW215363   2.774   3.093  12.744 -0.5395 -0.3125  0.5136
 1244SOL     OW15364   2.009   2.867  10.955 -0.4322  0.0819  0.1977
 1244SOL    HW115365   1.915   2.863  10.937 -0.1932  0.2140 -1.0802
 1244SOL    HW215366   2.030   2.954  10.923  0.1514 -0.7613 -1.7273
 1245SOL     OW15367   2.337   1.595   2.008  0.5998  0.8479  0.0301
 1245SOL    HW115368   2.318   1.614   2.100 -2.0967 -0.8804 -0.1793
 1245SOL    HW215369   2.427   1.627   2.010  0.8541  0.0335  1.3648
 1246SOL     OW15370   4.589   1.036   3.579  0.3064 -0.2548  0.2967
 1246SOL    HW115371   4.603   1.118   3.533  1.1910 -1.3858 -1.4505
 1246SOL    HW215372   4.582   0.983   3.499  1.4602  0.6911 -0.4306
 1247SOL     OW15373   4.653   1.117   1.068 -0.2542  0.2217 -0.3662
 1247SOL    HW115374   4.589   1.182   1.042  1.4999  1.4864 -1.5352
 1247SOL    HW215375   4.721   1.137   1.004  0.4420 -2.9896 -0.6452
 1248SOL     OW15376   0.044   1.325   3.938  0.0908 -0.0206  0.3536
 1248SOL    HW115377   0.037   1.309   4.032  3.9894 -0.2540  0.5995
 1248SOL    HW215378   4.725   1.403   3.926 -1.8287 -1.1571  1.7420
 1249SOL     OW15379   0.487   1.184   2.797  0.4464 -0.0686  0.2281
 1249SOL    HW115380   0.437   1.123   2.851 -0.2869  1.4333  1.2453
 1249SOL    HW215381   0.434   1.263   2.806 -1.7708 -1.7350  1.9436
 1250SOL     OW15382   0.995   1.461   5.942 -0.0346 -0.0865  0.0466
 1250SOL    HW115383   1.074   1.413   5.966 -1.4591 -0.5381  3.7325
 1250SOL    HW215384   1.031   1.549   5.954  1.5087 -1.0919  2.7632
 1251SOL     OW15385   2.535   0.896   1.908  0.1537  0.0919 -0.6195
 1251SOL    HW115386   2.600   0.893   1.838 -1.1896  2.8435 -2.0164
 1251SOL    HW215387   2.534   0.811   1.953 -1.4833 -0.6184 -1.9731
 1252SOL     OW15388   3.346   1.092   7.603 -0.6505  0.2584  0.1319
 1252SOL    HW115389   3.323   1.177   7.566 -0.1029  0.1988 -0.3470
 1252SOL    HW215390   3.351   1.116   7.695  0.5499  1.1328 -0.1509
 1253SOL     OW15391   4.521   4.195   7.315 -0.0580  0.6009  0.1950
 1253SOL    HW115392   4.472   4.221   7.393  0.6698 -0.4491  0.9957
 1253SOL    HW215393   4.466   4.224   7.242  2.0987 -0.5616 -1.8871
 1254SOL     OW15394   4.563   3.984   7.085  0.0018 -0.4994 -0.0969
 1254SOL    HW115395   4.572   4.062   7.139 -0.4548 -0.8520  0.4963
 1254SOL    HW215396   4.542   4.022   7.000  1.3732  0.7686  0.1366
 1255SOL     OW15397   3.066   3.202   3.712 -0.0051 -0.3311  0.3558
 1255SOL    HW115398   3.012   3.183   3.789  0.4089 -2.3943  0.1481
 1255SOL    HW215399   3.153   3.180   3.747 -0.5454 -0.4114  1.6529
 1256SOL     OW15400   4.116   4.033   1.180 -0.2809 -0.0141 -0.4800
 1256SOL    HW115401   4.031   4.010   1.142  0.0110 -0.8805 -0.6187
 1256SOL    HW215402   4.153   3.950   1.209  0.7775  1.1603  1.5232
 1257SOL     OW15403   2.246   1.588  10.299 -0.2115 -0.4105  0.5784
 1257SOL    HW115404   2.200   1.630  10.371 -2.6260 -2.4574  0.2225
 1257SOL    HW215405   2.304   1.663  10.281  0.3694 -0.6601  1.4037
 1258SOL     OW15406   1.884   4.717  11.864  0.0575  0.1761  0.2604
 1258SOL    HW115407   1.904   0.048  11.799  1.0675 -0.4022 -0.0239
 1258SOL    HW215408   1.933   4.647  11.821  2.4030  2.6156 -1.1042
 1259SOL     OW15409   2.693   3.496  15.563 -0.1826 -0.3253 -0.4058
 1259SOL    HW115410   2.773   3.534  15.598  0.9757 -2.0646 -1.1685
 1259SOL    HW215411   2.735   3.440  15.497  0.1139  0.6964 -1.0810
 1260SOL     OW15412   1.751   2.839   3.029 -0.2379  0.2074  0.0117
 1260SOL    HW115413   1.825   2.881   3.072  0.5361 -0.6453 -0.5040
 1260SOL    HW215414   1.754   2.755   3.075 -0.1236  0.3697  0.3003
 1261SOL     OW15415   2.367   4.424  10.720 -0.4602 -0.1374  0.1407
 1261SOL    HW115416   2.281   4.383  10.726 -0.3563 -0.5848 -1.7194
 1261SOL    HW215417   2.419   4.369  10.779 -1.3671 -1.2976 -0.1438
 1262SOL     OW15418   4.650   3.600  15.013 -0.2520 -0.9110 -0.0218
 1262SOL    HW115419   4.687   3.625  15.098  1.6406 -2.0392 -0.5193
 1262SOL    HW215420   4.617   3.512  15.031  0.6559 -1.3166 -0.3447
 1263SOL     OW15421   0.463   0.310   6.681 -0.2150 -0.2748  0.0882
 1263SOL    HW115422   0.417   0.300   6.765  0.2017 -1.4136  0.1786
 1263SOL    HW215423   0.408   0.269   6.615  0.9745 -0.9345 -0.4882
 1264SOL     OW15424   1.201   1.664  12.530 -0.2728  0.5181 -0.1292
 1264SOL    HW115425   1.272   1.605  12.504 -1.5392 -1.8868  1.9449
 1264SOL    HW215426   1.191   1.702  12.442  1.6347  1.7649  0.1734
 1265SOL     OW15427   4.170   3.703   4.155 -0.0369  0.4429  0.4449
 1265SOL    HW115428   4.223   3.684   4.078 -0.0147  0.0700  0.5549
 1265SOL    HW215429   4.217   3.782   4.182 -1.0019  1.3521 -0.5632
 1266SOL     OW15430   2.160   0.015   3.639  0.0602  0.1176  0.1598
 1266SOL    HW115431   2.077   4.727   3.599 -0.6075  1.8845  0.4963
 1266SOL    HW215432   2.153   0.110   3.624  2.8020  0.2531 -0.2234
 1267SOL     OW15433   3.606   2.591   2.713 -0.1853 -0.0780 -0.2670
 1267SOL    HW115434   3.698   2.618   2.722 -0.1699  0.0865 -0.9217
 1267SOL    HW215435   3.614   2.510   2.663  0.0780 -0.1598 -0.0952
 1268SOL     OW15436   2.176   0.053   4.982  0.4061 -0.3039  0.2963
 1268SOL    HW115437   2.244   0.111   5.015  1.5335 -1.2149 -0.4320
 1268SOL    HW215438   2.217   0.032   4.897 -1.9630  0.4036 -1.0232
 1269SOL     OW15439   1.983   2.350   1.422  0.0972 -0.3221  0.5118
 1269SOL    HW115440   1.992   2.273   1.479 -0.1197 -2.4291 -2.3334
 1269SOL    HW215441   1.898   2.335   1.380 -0.2098 -2.6066  1.9809
 1270SOL     OW15442   3.438   0.790   3.225 -0.2165  0.0230  0.2086
 1270SOL    HW115443   3.533   0.796   3.240 -0.2415  2.2081 -0.4645
 1270SOL    HW215444   3.406   0.879   3.235  1.4779  0.8677 -1.8513
 1271SOL     OW15445   0.986   2.194   8.047 -0.3692  0.1426  0.1929
 1271SOL    HW115446   1.036   2.168   8.124  1.9503  2.3932 -0.5340
 1271SOL    HW215447   1.022   2.281   8.027 -1.6389  1.0292  1.7953
 1272SOL     OW15448   3.777   2.832   4.050  0.3357 -0.2341 -0.7946
 1272SOL    HW115449   3.736   2.782   4.120  0.3333 -0.0292 -0.6502
 1272SOL    HW215450   3.809   2.764   3.990  0.3947 -1.6808  0.9018
 1273SOL     OW15451   0.145   3.103  17.466 -0.2562 -0.2702 -0.1338
 1273SOL    HW115452   0.078   3.035  17.475  0.6923 -1.2900 -0.6674
 1273SOL    HW215453   0.088   3.179  17.472  0.2468  0.0759  0.3462
 1274SOL     OW15454   4.652   4.411   1.615 -0.0063  0.0447 -0.5403
 1274SOL    HW115455   4.670   4.501   1.645  1.0740  0.1538 -1.5101
 1274SOL    HW215456   4.577   4.419   1.557  1.2188 -2.2823 -2.4304
 1275SOL     OW15457   0.043   3.958  11.641  0.1334  0.6992 -0.2050
 1275SOL    HW115458   4.698   3.928  11.599 -1.3850  2.2133  1.6625
 1275SOL    HW215459   0.002   3.997  11.718 -1.1703  0.1448 -0.6277
 1276SOL     OW15460   3.480   0.835   8.679 -0.3577  0.0638 -0.2840
 1276SOL    HW115461   3.543   0.903   8.658  1.8349 -2.4185 -1.6752
 1276SOL    HW215462   3.422   0.848   8.604 -0.8528 -1.3160 -0.1407
 1277SOL     OW15463   2.731   3.314   2.941 -0.1216 -0.6700  0.0543
 1277SOL    HW115464   2.701   3.401   2.969  2.3017  0.2804 -0.3152
 1277SOL    HW215465   2.817   3.322   2.982  0.7440  2.8567 -2.5098
 1278SOL     OW15466   4.126   2.857   4.502 -0.4222 -0.3890 -0.1990
 1278SOL    HW115467   4.122   2.762   4.516 -1.4412 -0.3923 -0.5102
 1278SOL    HW215468   4.040   2.884   4.536 -0.2079 -1.8657  1.5346
 1279SOL     OW15469   3.420   4.390   9.808 -0.4968 -0.1929  0.0808
 1279SOL    HW115470   3.493   4.328   9.815 -0.2049  0.3354  1.7855
 1279SOL    HW215471   3.369   4.363   9.884 -3.2888 -2.5504 -2.6265
 1280SOL     OW15472   3.718   2.685   3.795 -0.7652  0.6212  0.3448
 1280SOL    HW115473   3.665   2.681   3.715  0.7580  1.7675 -0.7093
 1280SOL    HW215474   3.777   2.611   3.783 -2.2488 -0.2747 -1.4615
 1281SOL     OW15475   0.714   2.244   0.776  0.1293 -0.3180 -0.4645
 1281SOL    HW115476   0.671   2.261   0.861 -0.9417  0.3438 -1.1387
 1281SOL    HW215477   0.652   2.261   0.706 -0.5548  0.9076  0.4336
 1282SOL     OW15478   1.106   0.193   4.199 -0.4306 -0.3586  0.2404
 1282SOL    HW115479   1.036   0.143   4.242 -2.2153  0.5570 -1.5895
 1282SOL    HW215480   1.070   0.281   4.209  2.1891  0.4970  1.9688
 1283SOL     OW15481   2.739   0.322   8.571  0.1062 -0.3173  0.4037
 1283SOL    HW115482   2.812   0.285   8.621  1.0278 -2.7489 -2.7256
 1283SOL    HW215483   2.721   0.400   8.623  1.0940 -0.8026  1.4668
 1284SOL     OW15484   2.406   3.080  17.613 -0.3545 -0.4591 -0.3337
 1284SOL    HW115485   2.426   3.001  17.561 -1.2482 -0.0707 -1.2577
 1284SOL    HW215486   2.365   3.041  17.690 -0.9656 -0.9751 -0.9180
 1285SOL     OW15487   1.470   0.009   5.154  0.1077 -0.1039  0.0384
 1285SOL    HW115488   1.505   0.043   5.071  0.7411  1.5829  1.0002
 1285SOL    HW215489   1.556   4.732   5.193  1.1772  0.6020 -2.0526
 1286SOL     OW15490   3.123   3.115   9.282 -0.2919 -0.1156 -0.0287
 1286SOL    HW115491   3.097   3.207   9.288 -0.4067 -0.2700  2.0449
 1286SOL    HW215492   3.133   3.115   9.187  3.5196 -0.1700  0.3836
 1287SOL     OW15493   3.396   4.609   5.907  0.6321  0.3064 -0.4578
 1287SOL    HW115494   3.448   4.593   5.829  1.6288 -0.6039  0.4104
 1287SOL    HW215495   3.383   4.704   5.903 -0.1199  0.2773  1.2425
 1288SOL     OW15496   2.806   2.968  16.041 -0.2143  0.9764  0.2315
 1288SOL    HW115497   2.800   2.959  15.946  0.9769  0.7130  0.1820
 1288SOL    HW215498   2.784   3.061  16.049 -1.6465  0.6592  0.1198
 1289SOL     OW15499   4.292   3.402   5.117 -0.5384  0.0078 -0.2861
 1289SOL    HW115500   4.198   3.420   5.114 -1.0109 -2.5688 -1.5260
 1289SOL    HW215501   4.298   3.390   5.022  2.3361 -2.3694  0.1793
 1290SOL     OW15502   0.481   2.978   4.831  0.0644 -0.0396  0.0202
 1290SOL    HW115503   0.454   2.907   4.889 -0.3736 -0.3101 -0.5152
 1290SOL    HW215504   0.463   3.055   4.885 -3.9378  0.0787 -1.4912
 1291SOL     OW15505   4.340   1.599  14.435 -0.4042 -0.3176 -0.0792
 1291SOL    HW115506   4.425   1.615  14.394 -0.2571 -2.1942 -0.5050
 1291SOL    HW215507   4.294   1.584  14.353  0.8318  1.2590 -1.0697
 1292SOL     OW15508   2.235   2.776   3.479  0.6849 -0.3908 -0.0552
 1292SOL    HW115509   2.328   2.763   3.497  0.9714  0.7624 -0.6863
 1292SOL    HW215510   2.210   2.690   3.512 -1.0257  0.4734  0.8664
 1293SOL     OW15511   2.435   2.279  17.117  0.4927 -0.1770 -0.6373
 1293SOL    HW115512   2.506   2.311  17.061  0.3980  0.0849 -0.6072
 1293SOL    HW215513   2.366   2.274  17.051  0.7059 -1.7459 -0.7506
 1294SOL     OW15514   1.371   1.716   0.795  0.3955 -0.4041 -0.1764
 1294SOL    HW115515   1.306   1.711   0.725  0.1063 -1.8441  0.1766
 1294SOL    HW215516   1.410   1.631   0.774  1.2546 -0.1582  0.4362
 1295SOL     OW15517   3.413   2.799   1.461  0.1199 -0.4346  0.0326
 1295SOL    HW115518   3.382   2.811   1.550 -0.3299 -0.4806 -0.1162
 1295SOL    HW215519   3.458   2.714   1.468  0.4715 -0.2287  0.3071
 1296SOL     OW15520   0.318   2.336  11.745  0.6000  0.0587  0.1336
 1296SOL    HW115521   0.279   2.311  11.661  0.1641 -2.4864  1.1023
 1296SOL    HW215522   0.307   2.259  11.801  0.8467  1.4983  2.1350
 1297SOL     OW15523   0.579   4.110   5.823 -0.1723  0.4904  0.7794
 1297SOL    HW115524   0.627   4.192   5.823  1.1557 -0.2828  1.5683
 1297SOL    HW215525   0.524   4.121   5.901  1.3668  1.8785  1.6773
 1298SOL     OW15526   1.109   2.478   2.415 -0.1035  0.0524 -0.0729
 1298SOL    HW115527   1.123   2.407   2.478  0.6857 -0.4480 -0.8258
 1298SOL    HW215528   1.192   2.486   2.368 -0.6102 -2.0002 -1.3146
 1299SOL     OW15529   0.612   2.945  17.673  0.1231 -0.2718  0.5399
 1299SOL    HW115530   0.572   2.939  17.587 -0.7456  2.5082  0.7338
 1299SOL    HW215531   0.588   2.864  17.718  0.5885 -0.4867  0.4063
 1300SOL     OW15532   0.338   4.615   5.674  0.1380  0.0914  0.0698
 1300SOL    HW115533   0.391   4.537   5.657  0.0705  0.3305 -1.2539
 1300SOL    HW215534   0.265   4.595   5.615 -0.0965 -1.9133  1.0420
 1301SOL     OW15535   4.563   2.948   9.377  0.3108  0.3067  0.4130
 1301SOL    HW115536   4.625   2.998   9.430 -0.0110  0.8258  0.2977
 1301SOL    HW215537   4.505   3.023   9.368 -0.0467 -0.0335 -0.1459
 1302SOL     OW15538   3.084   4.002   1.801 -0.4204 -0.5628 -0.0819
 1302SOL    HW115539   3.149   4.005   1.730 -0.3890  2.6712  0.0477
 1302SOL    HW215540   3.081   4.092   1.834  4.1306 -0.4846  0.1594
 1303SOL     OW15541   2.255   3.132   3.551 -0.4617  0.0733 -0.1820
 1303SOL    HW115542   2.191   3.080   3.501 -1.6188  0.1818  1.1790
 1303SOL    HW215543   2.329   3.127   3.491  0.9050 -0.6526  1.5828
 1304SOL     OW15544   1.691   0.944  12.920 -0.2758 -0.3114 -0.4491
 1304SOL    HW115545   1.744   0.950  12.841 -0.6393 -0.9065 -0.7447
 1304SOL    HW215546   1.662   1.035  12.928  2.5710  0.4431  1.1154
 1305SOL     OW15547   0.815   4.469   5.456 -0.2699  0.2309  0.3406
 1305SOL    HW115548   0.797   4.482   5.363 -0.5740 -2.3502  0.0470
 1305SOL    HW215549   0.758   4.540   5.486 -0.5124  0.8645 -1.6001
 1306SOL     OW15550   4.556   3.379   7.907  0.3667  0.4397  0.3441
 1306SOL    HW115551   4.538   3.459   7.956 -0.0142  0.3168  0.4079
 1306SOL    HW215552   4.643   3.359   7.939  0.7047  0.9805 -0.2324
 1307SOL     OW15553   0.784   3.562   3.291  1.0581  0.2218 -0.0532
 1307SOL    HW115554   0.767   3.538   3.200 -0.2369 -1.5340  0.6456
 1307SOL    HW215555   0.717   3.506   3.330  1.1660  1.6049  2.1229
 1308SOL     OW15556   1.924   0.690  14.321  0.2190 -0.8248 -0.5256
 1308SOL    HW115557   1.888   0.663  14.406  0.6977 -0.2055 -0.1248
 1308SOL    HW215558   1.852   0.678  14.259  0.6002 -0.0884 -1.1072
 1309SOL     OW15559   3.331   1.470   3.598 -0.1032  0.3705 -0.1438
 1309SOL    HW115560   3.350   1.460   3.692 -0.9817  2.3544  0.2543
 1309SOL    HW215561   3.239   1.445   3.592 -0.1520  0.6175 -0.4428
 1310SOL     OW15562   0.074   4.297   1.788 -0.3618 -0.5837  0.3788
 1310SOL    HW115563   0.122   4.232   1.738 -0.7604  0.7547 -1.7639
 1310SOL    HW215564   0.006   4.317   1.724 -2.7074  0.6122  3.2370
 1311SOL     OW15565   0.591   2.509   4.064  0.4119  0.1242  0.4214
 1311SOL    HW115566   0.505   2.545   4.088 -0.5827 -1.5272 -0.7205
 1311SOL    HW215567   0.575   2.466   3.980  0.5037  0.6424  0.1389
 1312SOL     OW15568   0.290   3.894   6.003 -0.2211  0.2257 -0.1895
 1312SOL    HW115569   0.224   3.874   5.936 -2.0190 -0.3845  1.7714
 1312SOL    HW215570   0.301   3.811   6.050  0.2495  0.8197  0.7321
 1313SOL     OW15571   4.479   2.740   7.062  0.5362 -0.0571 -0.2554
 1313SOL    HW115572   4.470   2.655   7.019  2.2449 -0.3026 -0.1653
 1313SOL    HW215573   4.515   2.795   6.993  0.6768  0.1020 -0.0559
 1314SOL     OW15574   2.171   4.323   7.810 -0.0500 -0.0330 -0.3905
 1314SOL    HW115575   2.209   4.259   7.870 -0.2310 -0.8948 -1.1816
 1314SOL    HW215576   2.079   4.301   7.830  0.0796  0.5358  0.7933
 1315SOL     OW15577   4.567   3.560   6.161  0.0153 -0.0091  0.1010
 1315SOL    HW115578   4.652   3.570   6.204 -0.9330 -2.1672  2.4571
 1315SOL    HW215579   4.600   3.528   6.077  0.2400  0.0499  0.1678
 1316SOL     OW15580   4.136   1.548   8.029  0.3226  0.4025  0.4842
 1316SOL    HW115581   4.120   1.547   8.124  1.7100 -0.7139  0.7057
 1316SOL    HW215582   4.203   1.614   8.015  1.8049 -1.4665 -1.1155
 1317SOL     OW15583   0.217   4.658  14.391  0.2179 -0.0420 -0.0507
 1317SOL    HW115584   0.214   4.563  14.402  0.9750 -0.2283 -1.5564
 1317SOL    HW215585   0.241   4.663  14.299  1.0781 -0.3111  0.1548
 1318SOL     OW15586   3.550   4.650   9.770 -0.2818 -0.6829  0.2985
 1318SOL    HW115587   3.544   4.555   9.776  0.2783 -0.7001  0.6184
 1318SOL    HW215588   3.589   4.679   9.852 -0.7557 -0.0356  0.2976
 1319SOL     OW15589   1.308   1.189   7.259  0.3999  0.4423 -0.3869
 1319SOL    HW115590   1.388   1.220   7.214  0.9701 -1.3183 -0.5759
 1319SOL    HW215591   1.345   1.129   7.324 -1.1182 -0.9251 -0.8018
 1320SOL     OW15592   3.873   0.670   2.828 -0.2549  0.3294  0.1509
 1320SOL    HW115593   3.956   0.643   2.869 -0.1060 -1.1303 -1.0630
 1320SOL    HW215594   3.854   0.754   2.869 -0.1305 -0.6758  2.2813
 1321SOL     OW15595   2.119   4.189   6.255  0.4747 -0.5698 -0.1760
 1321SOL    HW115596   2.182   4.219   6.190  1.2119  3.8875  2.5770
 1321SOL    HW215597   2.045   4.248   6.237  0.1800 -0.4244  1.5216
 1322SOL     OW15598   2.369   4.148   0.275  0.2775 -0.3267 -0.1696
 1322SOL    HW115599   2.357   4.063   0.318 -0.2592  0.9412  2.2120
 1322SOL    HW215600   2.459   4.170   0.297  0.0641  3.4058 -3.1430
 1323SOL     OW15601   4.705   3.184   0.194  0.6484  0.3784 -0.3946
 1323SOL    HW115602   4.711   3.242   0.118 -3.1253  1.5170  0.1678
 1323SOL    HW215603   0.022   3.109   0.167  0.6590  0.7940 -1.5210
 1324SOL     OW15604   4.678   0.182   7.720  1.0135 -0.4470  0.5076
 1324SOL    HW115605   4.609   0.115   7.719 -0.0056  0.6317 -1.8224
 1324SOL    HW215606   4.703   0.175   7.628  1.3205 -0.5878  0.6016
 1325SOL     OW15607   2.379   4.299   6.624  0.3697 -0.1973 -0.0420
 1325SOL    HW115608   2.401   4.237   6.695  1.0075  0.9440  0.7566
 1325SOL    HW215609   2.462   4.305   6.577  0.4920  2.2040  0.5119
 1326SOL     OW15610   0.911   4.617   1.614 -0.3105  0.1272  0.2330
 1326SOL    HW115611   0.934   4.678   1.544  2.3672 -0.8382  0.2981
 1326SOL    HW215612   0.835   4.572   1.576 -0.0598  0.1339 -0.2760
 1327SOL     OW15613   0.764   0.804   5.731 -0.5906 -0.1830  0.3329
 1327SOL    HW115614   0.850   0.792   5.771  0.1434  0.0757 -1.1800
 1327SOL    HW215615   0.740   0.887   5.772 -1.3610 -0.1157 -0.2410
 1328SOL     OW15616   2.538   1.881   5.080 -0.3262  0.1495  0.4313
 1328SOL    HW115617   2.512   1.834   5.000  1.0062 -1.9091  1.2234
 1328SOL    HW215618   2.631   1.896   5.063 -0.0926  0.0337  1.5911
 1329SOL     OW15619   3.663   2.270  16.363 -0.0845  0.0440 -0.0862
 1329SOL    HW115620   3.611   2.286  16.284  1.0222  1.5518 -0.5097
 1329SOL    HW215621   3.692   2.360  16.379  1.0095 -0.0964 -1.2650
 1330SOL     OW15622   1.113   3.770   2.253 -0.0609 -0.1837 -0.8265
 1330SOL    HW115623   1.108   3.749   2.160 -1.3259  2.5784 -1.3617
 1330SOL    HW215624   1.069   3.694   2.290 -1.8044  1.4398  0.4120
 1331SOL     OW15625   3.742   2.353   2.743 -1.0335 -0.6363 -0.4169
 1331SOL    HW115626   3.777   2.332   2.657 -0.4197  0.7621 -0.5048
 1331SOL    HW215627   3.776   2.282   2.798 -3.3846  1.3712  3.6458
 1332SOL     OW15628   1.643   4.481   8.313 -0.2209 -0.4748  0.5871
 1332SOL    HW115629   1.725   4.481   8.362 -0.6228 -1.3861  1.2527
 1332SOL    HW215630   1.583   4.426   8.363  0.1317  0.2436  1.8065
 1333SOL     OW15631   1.122   3.239   4.224  0.2323  0.4831  0.0914
 1333SOL    HW115632   1.059   3.174   4.253  1.2684 -0.2756  0.6506
 1333SOL    HW215633   1.206   3.210   4.261  0.1919 -0.5233 -0.5988
 1334SOL     OW15634   1.670   4.677   8.958  0.6360  0.5652 -0.6026
 1334SOL    HW115635   1.582   4.676   8.997 -0.2387 -0.4363 -2.5496
 1334SOL    HW215636   1.720   4.731   9.019  1.0307 -2.5665  1.8589
 1335SOL     OW15637   4.242   0.524  11.854  0.5272  0.1246  0.5284
 1335SOL    HW115638   4.307   0.571  11.802  1.0542 -2.1016 -0.8445
 1335SOL    HW215639   4.221   0.444  11.805  3.1431  1.5034 -2.7887
 1336SOL     OW15640   2.243   2.631   7.685  0.2601 -0.1773  0.1613
 1336SOL    HW115641   2.240   2.608   7.592  1.2943  2.6071 -0.5640
 1336SOL    HW215642   2.262   2.724   7.667 -0.1215 -0.4476 -1.6699
 1337SOL     OW15643   2.770   2.446  12.469  0.3828  0.0942  0.6838
 1337SOL    HW115644   2.824   2.402  12.402  1.4614  1.1002  0.8833
 1337SOL    HW215645   2.681   2.419  12.450  0.2864  2.5203 -2.3893
 1338SOL     OW15646   3.013   3.054   5.931 -0.2077  0.0726 -0.7940
 1338SOL    HW115647   3.107   3.070   5.926 -0.1501 -0.0969 -0.2036
 1338SOL    HW215648   2.993   3.129   5.986 -0.9634 -0.9894  0.3720
 1339SOL     OW15649   0.986   2.447  16.735 -0.1634 -0.4663 -0.1039
 1339SOL    HW115650   1.077   2.460  16.708 -0.8838  1.4843 -1.5553
 1339SOL    HW215651   0.967   2.534  16.769 -1.5661  0.1659 -2.4666
 1340SOL     OW15652   1.171   2.698  15.111  0.1273 -0.2158 -0.0029
 1340SOL    HW115653   1.111   2.624  15.108  1.1976 -1.0467 -1.0216
 1340SOL    HW215654   1.155   2.727  15.021 -1.6572  1.7541  0.9420
 1341SOL     OW15655   2.302   0.840   2.362  0.5660 -0.2666  0.0322
 1341SOL    HW115656   2.206   0.843   2.354  0.8389  2.5848 -1.8891
 1341SOL    HW215657   2.332   0.833   2.272  1.4822 -0.1573  0.3330
 1342SOL     OW15658   0.885   0.239  14.544  0.2267 -0.2026 -0.1912
 1342SOL    HW115659   0.977   0.252  14.565  0.4730 -3.8131  1.0349
 1342SOL    HW215660   0.847   0.278  14.623  1.5320 -0.7086  0.6719
 1343SOL     OW15661   4.698   0.737   4.974 -0.2672  0.2195  0.2761
 1343SOL    HW115662   4.630   0.802   4.957  0.4536  0.9533  0.2117
 1343SOL    HW215663   4.734   0.780   5.051 -0.9023 -1.7498  1.6683
 1344SOL     OW15664   3.374   1.042   0.108  0.3480 -0.0424  0.0846
 1344SOL    HW115665   3.414   1.122   0.142  1.0037 -0.2232 -0.2445
 1344SOL    HW215666   3.443   0.975   0.109  0.3437 -0.0459  0.1540
 1345SOL     OW15667   0.602   1.956   8.609  0.1826 -0.4072 -0.0943
 1345SOL    HW115668   0.528   2.011   8.635  0.2422 -0.0174 -0.7445
 1345SOL    HW215669   0.584   1.866   8.635 -1.1450 -0.0039  0.3947
 1346SOL     OW15670   3.535   1.883   7.608  0.0521  0.0302  0.1653
 1346SOL    HW115671   3.504   1.879   7.517 -0.5370  0.6101  0.3437
 1346SOL    HW215672   3.492   1.963   7.635 -0.4434  0.0990 -0.8380
 1347SOL     OW15673   0.898   3.381   8.264  0.0874  0.1000  0.2148
 1347SOL    HW115674   0.901   3.444   8.337 -3.3596  0.6403 -0.0773
 1347SOL    HW215675   0.923   3.426   8.183  1.4465 -0.7216  0.1858
 1348SOL     OW15676   1.197   2.894   0.160 -0.1890  0.3725  0.0641
 1348SOL    HW115677   1.153   2.822   0.206  2.9512 -1.0423  0.8282
 1348SOL    HW215678   1.184   2.885   0.066  1.7280 -0.4648 -0.0988
 1349SOL     OW15679   2.682   1.459   8.521  0.0720  0.1114  0.3883
 1349SOL    HW115680   2.730   1.401   8.580 -0.3224 -1.9402 -1.2980
 1349SOL    HW215681   2.664   1.397   8.450  0.6973 -0.9385  1.1515
 1350SOL     OW15682   3.803   1.866  15.458  0.3551  0.1219 -0.9663
 1350SOL    HW115683   3.763   1.880  15.372 -0.0432  0.8100 -0.6749
 1350SOL    HW215684   3.735   1.818  15.506  0.6505  0.1523 -0.5135
 1351SOL     OW15685   2.515   1.166   6.442 -0.0318  0.6451  0.0316
 1351SOL    HW115686   2.491   1.084   6.485 -1.6154  1.3540  0.4886
 1351SOL    HW215687   2.602   1.183   6.479 -0.8047  2.7143  0.8974
 1352SOL     OW15688   2.744   3.121   2.285 -1.0510 -0.5541 -0.7674
 1352SOL    HW115689   2.831   3.155   2.305 -0.1385 -2.4815 -1.4361
 1352SOL    HW215690   2.693   3.197   2.256 -0.3736 -0.9714 -3.0034
 1353SOL     OW15691   3.614   2.660   4.524  0.4447 -0.1281 -0.1290
 1353SOL    HW115692   3.525   2.669   4.492 -0.3896  0.5330  2.4074
 1353SOL    HW215693   3.619   2.568   4.551 -1.9913  0.3800  2.0041
 1354SOL     OW15694   4.232   0.198   6.760  0.1008 -0.1362 -0.3400
 1354SOL    HW115695   4.183   0.144   6.697  0.7123 -1.2668  0.1430
 1354SOL    HW215696   4.205   0.285   6.732  1.2693  0.5016  0.5199
 1355SOL     OW15697   4.686   4.430   4.442 -0.4501  0.0723  0.4159
 1355SOL    HW115698   4.641   4.349   4.420  1.2044 -0.9070  0.7024
 1355SOL    HW215699   0.031   4.384   4.462 -0.1836 -0.2810 -1.5552
 1356SOL     OW15700   0.799   1.143  14.561 -0.2455 -0.7194  0.7191
 1356SOL    HW115701   0.858   1.183  14.496 -0.1322 -0.8797  0.7223
 1356SOL    HW215702   0.829   1.053  14.552  2.0212  0.0144  0.8351
 1357SOL     OW15703   3.059   3.791   8.888 -0.0467  0.2719 -0.1567
 1357SOL    HW115704   3.025   3.829   8.806 -2.2378  0.0744  0.6674
 1357SOL    HW215705   2.985   3.819   8.941  0.1659  0.2620  0.1445
 1358SOL     OW15706   2.908   1.074   9.062  0.5272 -0.1086  0.4886
 1358SOL    HW115707   2.824   1.111   9.089 -0.2316 -1.3694 -0.1671
 1358SOL    HW215708   2.881   0.984   9.044  0.1399  0.3624 -1.2665
 1359SOL     OW15709   4.065   3.165   1.029 -0.2292  0.1350 -0.0869
 1359SOL    HW115710   4.048   3.198   1.118  0.6151  1.3331 -0.3856
 1359SOL    HW215711   4.110   3.239   0.989 -1.5324  0.7992 -0.3149
 1360SOL     OW15712   4.254   2.432   6.071 -0.2458 -0.0722 -0.3054
 1360SOL    HW115713   4.186   2.435   6.138  0.9911  3.3320  0.8294
 1360SOL    HW215714   4.220   2.366   6.011  1.8460 -1.4139  0.0069
 1361SOL     OW15715   4.179   1.591   3.664 -0.6639  0.1671  0.4380
 1361SOL    HW115716   4.180   1.518   3.601 -0.4124  2.3713 -2.0995
 1361SOL    HW215717   4.109   1.646   3.629 -0.0266  0.6423 -0.1010
 1362SOL     OW15718   4.450   3.817  12.293  0.0643 -0.1515 -0.0714
 1362SOL    HW115719   4.528   3.793  12.342  0.2772 -1.2624 -0.9440
 1362SOL    HW215720   4.455   3.908  12.323  1.0561 -0.8386  1.8250
 1363SOL     OW15721   2.229   3.976   6.811  0.3200  0.0229  0.1211
 1363SOL    HW115722   2.192   3.924   6.739 -1.5751 -2.0484  2.5757
 1363SOL    HW215723   2.167   3.970   6.884  0.5444  2.5971  0.5242
 1364SOL     OW15724   4.610   4.445   7.634  0.1664  0.1796  0.1843
 1364SOL    HW115725   4.628   4.480   7.547  1.0036 -1.9094 -0.4729
 1364SOL    HW215726   4.566   4.519   7.677 -1.5081  0.2843 -1.7102
 1365SOL     OW15727   3.840   0.934   6.244  0.0491  0.2161 -0.1925
 1365SOL    HW115728   3.855   0.997   6.315  3.2043 -1.4381  0.6405
 1365SOL    HW215729   3.763   0.974   6.205  0.8789  1.6411 -0.3761
 1366SOL     OW15730   3.407   1.693   5.151  0.0150  0.2841  0.5621
 1366SOL    HW115731   3.455   1.627   5.100 -1.2493 -0.9203  0.9410
 1366SOL    HW215732   3.449   1.773   5.119 -1.0182 -0.0240 -1.5575
 1367SOL     OW15733   0.277   3.890   3.697 -0.4638 -0.1242  0.0658
 1367SOL    HW115734   0.366   3.901   3.732 -0.2333 -0.2083 -0.4930
 1367SOL    HW215735   0.278   3.801   3.660 -0.2522 -0.2260  0.3133
 1368SOL     OW15736   2.036   1.543   8.118  0.0537 -0.6103  0.0339
 1368SOL    HW115737   1.941   1.556   8.124  0.3220  0.6675  1.6819
 1368SOL    HW215738   2.034   1.471   8.056  3.5789 -0.1937 -0.5247
 1369SOL     OW15739   1.711   2.675   4.466 -0.2978 -0.4791 -0.3617
 1369SOL    HW115740   1.621   2.661   4.496 -0.0983 -0.9084  0.0536
 1369SOL    HW215741   1.763   2.642   4.539 -0.4843  0.4084  0.1751
 1370SOL     OW15742   1.911   1.278   0.942  0.0635 -0.2191 -0.0080
 1370SOL    HW115743   1.962   1.356   0.919  1.2005 -0.6446  1.0141
 1370SOL    HW215744   1.852   1.303   1.013 -0.1189 -1.3274  0.2281
 1371SOL     OW15745   2.214   3.979   2.487 -0.5098  0.0895  0.0977
 1371SOL    HW115746   2.292   4.035   2.493 -0.4545  0.1911 -1.6365
 1371SOL    HW215747   2.201   3.990   2.393  0.7092  2.0148  0.1545
 1372SOL     OW15748   1.518   1.758   3.128 -0.3624  0.3540  0.1580
 1372SOL    HW115749   1.503   1.704   3.205 -0.9474 -1.9588 -1.5557
 1372SOL    HW215750   1.613   1.765   3.127 -0.4453  1.5464  1.5084
 1373SOL     OW15751   1.201   4.678   7.973  0.5149  0.2686  0.2865
 1373SOL    HW115752   1.149   4.736   7.917 -2.3101 -1.3249  1.2153
 1373SOL    HW215753   1.254   0.006   8.021 -1.0063  1.2871  0.6164
 1374SOL     OW15754   0.147   2.816  12.472 -0.9732  0.5442  0.0719
 1374SOL    HW115755   0.233   2.810  12.430 -0.3699  0.0364  1.3903
 1374SOL    HW215756   0.159   2.779  12.559  0.6703  0.7380 -0.0762
 1375SOL     OW15757   0.150   2.505   4.602  0.2702  0.3572 -0.0891
 1375SOL    HW115758   0.151   2.571   4.672  0.8101 -0.5241  0.7290
 1375SOL    HW215759   0.135   2.565   4.529  2.4678 -0.2407 -1.0281
 1376SOL     OW15760   1.513   2.459   0.565  0.4153 -0.0998  0.1296
 1376SOL    HW115761   1.567   2.499   0.633  3.3048 -0.3377 -2.0119
 1376SOL    HW215762   1.501   2.373   0.606  1.4457 -0.9139 -1.2693
 1377SOL     OW15763   4.440   2.790   7.930 -0.4815 -0.2082  0.3378
 1377SOL    HW115764   4.529   2.799   7.895 -0.3025  0.1901  0.8896
 1377SOL    HW215765   4.428   2.696   7.944 -1.1318 -0.1696  0.0231
 1378SOL     OW15766   4.591   2.879   6.855 -0.0994  0.1965  0.4911
 1378SOL    HW115767   4.667   2.835   6.816 -1.4924  0.1963 -2.2150
 1378SOL    HW215768   4.540   2.897   6.777  3.7854 -0.4160 -2.2027
 1379SOL     OW15769   0.390   4.291   1.966  0.6089 -0.0649 -0.2839
 1379SOL    HW115770   0.406   4.377   1.927  0.4475 -0.3059 -0.8857
 1379SOL    HW215771   0.301   4.263   1.946  0.6610 -0.0969 -0.4764
 1380SOL     OW15772   3.458   1.079   7.309 -0.1566  0.1583  1.1852
 1380SOL    HW115773   3.381   1.031   7.341  0.5446  0.0558  2.7296
 1380SOL    HW215774   3.419   1.166   7.299  0.0151  0.1959  0.8685
 1381SOL     OW15775   2.302   1.059   3.932  0.2447  0.2259  0.0779
 1381SOL    HW115776   2.361   1.052   4.006 -0.8378 -0.4274  0.8846
 1381SOL    HW215777   2.301   0.969   3.899 -2.1293  1.0587 -2.1315
 1382SOL     OW15778   0.767   4.321  14.354 -0.4748  0.6319 -0.0409
 1382SOL    HW115779   0.818   4.399  14.330  0.3976  0.2884  0.7049
 1382SOL    HW215780   0.675   4.348  14.346 -1.8066 -3.6852  0.4978
 1383SOL     OW15781   4.700   1.623  13.655  0.3395 -0.1788  0.0380
 1383SOL    HW115782   4.714   1.650  13.746  0.6215  0.0461 -0.0688
 1383SOL    HW215783   4.708   1.528  13.647  0.1761 -0.0008 -2.4877
 1384SOL     OW15784   2.830   2.387  14.812  0.0988 -0.0739  0.0339
 1384SOL    HW115785   2.850   2.316  14.751  2.9389  1.2694 -0.6120
 1384SOL    HW215786   2.863   2.465  14.766  1.7049 -1.1702 -0.6735
 1385SOL     OW15787   1.031   4.488   3.701 -0.1152  0.2468 -0.1958
 1385SOL    HW115788   1.066   4.405   3.667 -0.4799 -0.8193  2.0117
 1385SOL    HW215789   1.106   4.544   3.683 -1.0810  1.6106  0.0530
 1386SOL     OW15790   3.756   4.215   9.117 -0.3011 -0.3650 -0.1437
 1386SOL    HW115791   3.668   4.182   9.133 -0.0551 -0.3371  1.3183
 1386SOL    HW215792   3.801   4.181   9.194 -1.8342 -2.0411  0.0087
 1387SOL     OW15793   0.422   1.710   5.937 -0.0351 -0.0302  0.0751
 1387SOL    HW115794   0.429   1.805   5.948  2.6389 -0.2886  0.6803
 1387SOL    HW215795   0.328   1.701   5.949  0.4705 -2.2327  2.4227
 1388SOL     OW15796   3.037   4.123   4.229 -0.3306  0.0153  0.7098
 1388SOL    HW115797   2.996   4.071   4.160  0.4187 -0.0381  0.3060
 1388SOL    HW215798   2.997   4.210   4.222 -0.0346  0.0782 -0.1237
 1389SOL     OW15799   1.461   2.110   3.558 -0.5248  0.1315  0.0384
 1389SOL    HW115800   1.499   2.055   3.490 -0.1377 -0.0196  0.3762
 1389SOL    HW215801   1.478   2.201   3.534 -2.9516  1.2709  2.6578
 1390SOL     OW15802   2.825   1.645   0.097 -0.3704  0.1877 -0.1000
 1390SOL    HW115803   2.875   1.654   0.178  1.8904 -0.9560 -1.3760
 1390SOL    HW215804   2.883   1.579   0.059 -1.4094 -1.6242  1.4067
 1391SOL     OW15805   1.426   2.965   7.477  0.0619  0.3137  0.5339
 1391SOL    HW115806   1.471   2.919   7.548  0.3759  0.2285  0.2829
 1391SOL    HW215807   1.481   3.042   7.460  2.2935 -1.3971 -0.1727
 1392SOL     OW15808   1.453   3.399   7.583  0.1148  0.1509 -0.0946
 1392SOL    HW115809   1.547   3.385   7.590  0.2898  1.1966 -0.3727
 1392SOL    HW215810   1.441   3.488   7.617 -0.8460 -0.6581  1.6799
 1393SOL     OW15811   4.496   3.300   6.901  0.4778 -0.4926 -0.1691
 1393SOL    HW115812   4.560   3.371   6.906  1.3344 -1.4695  3.2672
 1393SOL    HW215813   4.417   3.344   6.933  0.1542 -1.1815 -0.0187
 1394SOL     OW15814   3.192   3.553   7.047 -0.1089  0.3485  0.0607
 1394SOL    HW115815   3.261   3.491   7.071 -1.1676 -1.5943 -1.8856
 1394SOL    HW215816   3.122   3.487   7.051  0.3396 -0.0286  1.8767
 1395SOL     OW15817   0.988   3.980   6.915 -0.7345 -0.3072  0.1561
 1395SOL    HW115818   0.986   4.015   7.004  1.0161  0.6018 -0.1707
 1395SOL    HW215819   0.919   4.035   6.878  0.1409  0.3340 -0.5332
 1396SOL     OW15820   3.520   2.554   6.861  0.1415 -0.0216  0.2703
 1396SOL    HW115821   3.467   2.477   6.880 -0.7390 -0.2810 -3.1534
 1396SOL    HW215822   3.611   2.524   6.861  0.4474  0.9072  0.1909
 1397SOL     OW15823   0.059   1.504  12.645 -0.2337 -0.3600 -0.5183
 1397SOL    HW115824   0.109   1.565  12.591  0.6665 -1.0808 -0.5067
 1397SOL    HW215825   0.084   1.427  12.593  2.2657  0.3402 -0.3848
 1398SOL     OW15826   2.845   2.627   1.754 -0.1791 -0.2752 -0.1802
 1398SOL    HW115827   2.870   2.672   1.835  2.2547  0.0959 -1.1523
 1398SOL    HW215828   2.764   2.579   1.769 -0.3448 -0.9606 -3.3606
 1399SOL     OW15829   2.942   0.909   0.479  0.2522 -0.1293  1.2220
 1399SOL    HW115830   2.857   0.875   0.508 -0.7488  1.2177 -0.1012
 1399SOL    HW215831   2.952   0.872   0.392  1.8862  0.1840  1.2749
 1400SOL     OW15832   2.181   1.139   1.563 -0.5168 -0.4330 -0.0477
 1400SOL    HW115833   2.093   1.171   1.584  0.5727  2.1590  0.5444
 1400SOL    HW215834   2.237   1.173   1.633 -0.5246 -1.2313  0.3477
 1401SOL     OW15835   1.252   1.768   6.064  0.2183 -0.3379  0.0419
 1401SOL    HW115836   1.259   1.708   5.989 -1.7586 -3.5119  2.3817
 1401SOL    HW215837   1.156   1.773   6.063  0.2146 -0.5195 -1.3421
 1402SOL     OW15838   3.048   1.878   4.868 -0.1747  0.5875  0.4372
 1402SOL    HW115839   2.975   1.883   4.929 -0.3819 -1.4255  0.3639
 1402SOL    HW215840   3.080   1.792   4.896  1.0156  0.0884 -2.4219
 1403SOL     OW15841   0.912   4.666  14.283 -0.3368 -0.6152  0.3600
 1403SOL    HW115842   0.917   4.584  14.234  0.8013 -1.5723  2.0737
 1403SOL    HW215843   0.963   4.723  14.227  1.1444 -1.1075  1.2098
 1404SOL     OW15844   2.968   2.776   7.938  0.3088 -0.0212  0.0808
 1404SOL    HW115845   2.914   2.706   7.975  1.1811  0.9559  3.2421
 1404SOL    HW215846   2.960   2.748   7.847 -1.6561 -0.3768  0.3514
 1405SOL     OW15847   4.717   2.191   7.835 -0.3613  0.3008  0.2428
 1405SOL    HW115848   0.056   2.182   7.776  0.8894  1.6987  1.6330
 1405SOL    HW215849   4.712   2.104   7.876 -0.2834 -0.0497 -0.4998
 1406SOL     OW15850   1.182   4.213   7.740 -0.1646 -0.0737  0.2183
 1406SOL    HW115851   1.139   4.280   7.793 -0.0315 -0.3362  0.6590
 1406SOL    HW215852   1.173   4.266   7.661  0.0362  1.0280  0.9256
 1407SOL     OW15853   2.443   3.639   5.773  0.4071  0.1779  0.2639
 1407SOL    HW115854   2.449   3.690   5.692 -2.4132 -1.1768 -0.7984
 1407SOL    HW215855   2.380   3.574   5.741  2.5777 -1.5308 -0.5681
 1408SOL     OW15856   3.295   2.276   8.635  0.1849  0.2237 -0.1481
 1408SOL    HW115857   3.286   2.185   8.608 -0.8232  0.7990 -1.7359
 1408SOL    HW215858   3.270   2.321   8.555  0.9179 -1.8512 -1.5340
 1409SOL     OW15859   4.107   3.143   4.604 -0.3994  0.4974  0.1976
 1409SOL    HW115860   4.171   3.111   4.666 -1.0332 -1.5432 -0.1897
 1409SOL    HW215861   4.155   3.135   4.521 -3.4575 -0.9346 -1.4741
 1410SOL     OW15862   1.351   0.279   3.602 -0.8339 -0.0060 -0.0748
 1410SOL    HW115863   1.401   0.357   3.626  1.5122 -0.9742 -1.7640
 1410SOL    HW215864   1.326   0.244   3.687 -0.5881 -0.9128 -0.3704
 1411SOL     OW15865   1.870   3.503   8.244  0.0421  0.2991  0.3974
 1411SOL    HW115866   1.907   3.455   8.318 -0.1671 -0.8445 -0.2459
 1411SOL    HW215867   1.821   3.561   8.302  1.9008  1.2990  0.9671
 1412SOL     OW15868   3.453   0.659  14.746  0.1544  0.0177 -0.3464
 1412SOL    HW115869   3.457   0.681  14.839 -2.9363  1.9267 -0.6673
 1412SOL    HW215870   3.544   0.647  14.720  0.4315  0.0852  0.5682
 1413SOL     OW15871   0.436   0.685   2.484 -0.3301  0.0094  0.5237
 1413SOL    HW115872   0.513   0.641   2.449 -1.5613 -2.4027  0.8619
 1413SOL    HW215873   0.367   0.619   2.491 -1.3189  1.0469  0.7365
 1414SOL     OW15874   3.435   3.623   6.262  0.4100 -0.3664  0.0759
 1414SOL    HW115875   3.427   3.713   6.231  0.5034  0.1320  1.5067
 1414SOL    HW215876   3.363   3.630   6.325  1.8899  1.3957  1.5790
 1415SOL     OW15877   3.708   1.634   3.206  0.1335 -0.3726  0.0128
 1415SOL    HW115878   3.729   1.708   3.263  0.2195 -2.2825  2.4705
 1415SOL    HW215879   3.782   1.645   3.145 -0.0816  0.8537 -0.0188
 1416SOL     OW15880   1.140   0.620  13.711 -1.1098  0.3143  0.1469
 1416SOL    HW115881   1.210   0.604  13.649 -1.1473 -2.0785  0.7139
 1416SOL    HW215882   1.147   0.715  13.710 -0.9171  0.2934 -0.1194
 1417SOL     OW15883   3.850   3.375   8.751  0.7819 -0.1360  0.3342
 1417SOL    HW115884   3.883   3.286   8.767  2.7850  0.7414  1.0817
 1417SOL    HW215885   3.822   3.369   8.659  0.4504 -2.0480  0.5505
 1418SOL     OW15886   1.053   3.711   3.818 -0.0550  0.3992 -0.6024
 1418SOL    HW115887   1.010   3.787   3.780 -0.4297  0.4890 -0.0002
 1418SOL    HW215888   1.078   3.659   3.742  0.9817 -0.0399  0.0278
 1419SOL     OW15889   1.864   4.713   2.307  0.2451 -0.2910 -0.1460
 1419SOL    HW115890   1.853   0.004   2.216  0.4989 -0.1721 -0.1410
 1419SOL    HW215891   1.868   0.063   2.349 -1.9832 -0.0319 -0.4204
 1420SOL     OW15892   1.947   4.607  10.007  0.2112  0.1017  0.3621
 1420SOL    HW115893   1.986   4.554   9.937 -2.8919 -1.2357 -0.3263
 1420SOL    HW215894   1.987   4.693   9.995 -0.0741  0.2131  0.2292
 1421SOL     OW15895   0.053   0.658  17.333  0.3477  0.7602 -0.4704
 1421SOL    HW115896   0.057   0.606  17.413 -1.2665 -0.0844 -0.9350
 1421SOL    HW215897   0.056   0.587  17.269 -2.4842  2.1083 -2.0998
 1422SOL     OW15898   3.130   4.198   5.541  0.3598  0.7566 -0.2901
 1422SOL    HW115899   3.105   4.121   5.491 -0.0537  0.9539 -0.3873
 1422SOL    HW215900   3.077   4.193   5.620  2.4262  1.0176  1.1215
 1423SOL     OW15901   1.550   2.395   3.254 -0.0393 -0.4151 -0.2509
 1423SOL    HW115902   1.619   2.394   3.187  1.3751  1.4720  1.1563
 1423SOL    HW215903   1.489   2.352   3.195  0.9633 -1.9315 -0.1695
 1424SOL     OW15904   4.136   0.801   5.162 -0.2234 -0.0236 -0.2848
 1424SOL    HW115905   4.146   0.717   5.207 -1.1639  1.1302  2.0740
 1424SOL    HW215906   4.139   0.856   5.240 -0.0690 -0.2769 -0.1139
 1425SOL     OW15907   4.026   4.048  10.803  0.2795  0.1121  0.3641
 1425SOL    HW115908   3.955   3.988  10.826  1.1894 -0.6548  1.2179
 1425SOL    HW215909   4.076   4.043  10.885 -1.0109  1.0009  1.2176
 1426SOL     OW15910   0.094   4.403  14.135 -0.3426  0.0698  0.3035
 1426SOL    HW115911   0.103   4.354  14.053 -0.6787 -2.3479  1.6899
 1426SOL    HW215912   0.005   4.440  14.130  0.9495  3.0119 -0.4845
 1427SOL     OW15913   1.158   2.166   6.216  0.4568  0.0936  0.3827
 1427SOL    HW115914   1.242   2.145   6.175 -0.9953  0.4967 -2.8122
 1427SOL    HW215915   1.164   2.260   6.236 -0.5819 -0.0742  1.4512
 1428SOL     OW15916   2.226   3.352   1.998 -0.6856 -0.2733 -0.2209
 1428SOL    HW115917   2.235   3.436   2.043 -0.1546 -0.9765  0.9955
 1428SOL    HW215918   2.168   3.312   2.063  0.3741  0.4628  1.1903
 1429SOL     OW15919   0.121   3.892   9.020  0.0042 -0.5849  0.2862
 1429SOL    HW115920   0.060   3.965   9.020 -1.5798 -1.9119  0.9805
 1429SOL    HW215921   0.075   3.832   9.078  0.2613 -0.9822  0.0771
 1430SOL     OW15922   1.472   3.217   3.840  0.1528 -0.0126  0.4716
 1430SOL    HW115923   1.494   3.217   3.933 -1.1192 -3.0239  0.7693
 1430SOL    HW215924   1.404   3.150   3.839 -0.0499  0.1925  0.7024
 1431SOL     OW15925   1.645   3.914   5.068 -0.2172  0.4836 -0.2869
 1431SOL    HW115926   1.630   3.944   4.978  0.3541  3.0272  0.4707
 1431SOL    HW215927   1.555   3.891   5.090  0.0807 -0.0892  0.3216
 1432SOL     OW15928   0.417   1.382  11.242  0.3866  0.2505  0.3878
 1432SOL    HW115929   0.406   1.474  11.263 -1.7077  0.1609 -0.2884
 1432SOL    HW215930   0.511   1.368  11.240  0.2353 -1.0913  2.4190
 1433SOL     OW15931   4.343   3.526   1.898  0.2006 -0.6054 -0.6983
 1433SOL    HW115932   4.374   3.568   1.818  0.6182  0.1725 -0.1293
 1433SOL    HW215933   4.405   3.568   1.958 -0.4267  1.2450 -1.3501
 1434SOL     OW15934   2.354   2.683   2.218  0.0135 -0.5384  0.3094
 1434SOL    HW115935   2.385   2.758   2.267  0.0383  0.1284 -0.7327
 1434SOL    HW215936   2.262   2.680   2.245 -0.4575  0.1355 -1.2562
 1435SOL     OW15937   4.130   3.321   6.048 -0.4375 -0.3395 -0.0530
 1435SOL    HW115938   4.054   3.334   5.992  0.6612  3.5286 -0.6522
 1435SOL    HW215939   4.135   3.392   6.111  0.5558 -1.5189  1.2039
 1436SOL     OW15940   1.723   0.002   9.390  0.7130  0.3410 -0.1620
 1436SOL    HW115941   1.720   0.080   9.446 -0.4268 -2.0111  3.0786
 1436SOL    HW215942   1.818   0.008   9.374  0.8151 -0.5658  0.1432
 1437SOL     OW15943   0.100   1.460   3.205  0.4583  0.6087 -0.3644
 1437SOL    HW115944   0.086   1.420   3.119 -1.6595  2.8678 -1.0729
 1437SOL    HW215945   0.180   1.511   3.194  0.5428 -0.2661 -3.8526
 1438SOL     OW15946   3.061   1.839   3.816 -0.2095 -0.1875  0.0834
 1438SOL    HW115947   3.077   1.784   3.892  1.9763  1.0711  0.5180
 1438SOL    HW215948   2.996   1.899   3.853 -0.1088 -0.9505  1.4874
 1439SOL     OW15949   1.811   3.791  12.339  0.1253 -0.1052  0.3234
 1439SOL    HW115950   1.872   3.818  12.271 -4.2097  2.5835 -2.5376
 1439SOL    HW215951   1.859   3.718  12.378  2.4175 -0.0908 -2.5232
 1440SOL     OW15952   0.578   1.248  14.439 -0.3026  0.1093  0.2034
 1440SOL    HW115953   0.601   1.339  14.421 -0.8758  0.3922  0.8984
 1440SOL    HW215954   0.655   1.215  14.484 -0.2915  0.8790  0.7306
 1441SOL     OW15955   3.395   3.384  13.893  0.4378  0.1267 -0.1019
 1441SOL    HW115956   3.478   3.431  13.897 -0.2566  1.4714 -2.0916
 1441SOL    HW215957   3.362   3.415  13.977  1.5948 -0.4669  0.5782
 1442SOL     OW15958   2.066   2.033   8.957  0.2036 -0.0682 -0.2348
 1442SOL    HW115959   2.057   1.955   9.012  1.4284  1.0145  1.5427
 1442SOL    HW215960   2.153   2.064   8.982  0.3633  0.2608 -1.2097
 1443SOL     OW15961   3.146   0.999   8.319  0.4399 -0.3613  0.3400
 1443SOL    HW115962   3.177   1.057   8.249 -0.0340 -1.2823 -0.6444
 1443SOL    HW215963   3.059   0.975   8.286  0.2112  1.6655 -0.5231
 1444SOL     OW15964   0.519   4.645  15.274  0.3869  0.3476  0.6913
 1444SOL    HW115965   0.572   4.580  15.321  0.8399 -0.0777 -0.3822
 1444SOL    HW215966   0.457   4.674  15.340 -1.0712  1.4568 -1.1491
 1445SOL     OW15967   0.762   3.699   6.574 -0.1749 -0.0551  0.4596
 1445SOL    HW115968   0.704   3.659   6.510 -0.1651 -3.1735  2.3781
 1445SOL    HW215969   0.792   3.629   6.632 -0.8810  0.2280  1.1678
 1446SOL     OW15970   4.105   3.087   1.991  0.2246  0.1396 -0.1217
 1446SOL    HW115971   4.050   3.121   1.921 -1.0061 -0.1988  0.6906
 1446SOL    HW215972   4.132   3.170   2.028 -0.3423  0.2398  0.0666
 1447SOL     OW15973   4.010   0.973   8.869  0.1758 -0.0132  0.0497
 1447SOL    HW115974   3.922   0.938   8.853  0.2361 -0.6260  1.1202
 1447SOL    HW215975   4.066   0.906   8.907  0.6997  0.4515  0.0998
 1448SOL     OW15976   2.720   4.206   3.845 -0.0766  0.2578  0.0947
 1448SOL    HW115977   2.812   4.232   3.856  0.4091 -1.7168  0.7019
 1448SOL    HW215978   2.698   4.216   3.752  1.2221  2.5768  0.0390
 1449SOL     OW15979   2.069   1.201   7.479 -0.0197  0.7562 -0.0041
 1449SOL    HW115980   2.119   1.181   7.400  0.6328 -1.5004  0.9591
 1449SOL    HW215981   1.980   1.170   7.468  1.2552 -1.7813 -3.1281
 1450SOL     OW15982   0.862   3.111   2.795  0.5322  0.1544  0.0772
 1450SOL    HW115983   0.766   3.112   2.799  0.5686  0.7038  0.8670
 1450SOL    HW215984   0.860   3.088   2.702 -1.2836 -2.6444  0.7874
 1451SOL     OW15985   2.079   0.670   3.028 -0.1760  0.1198  0.5199
 1451SOL    HW115986   2.154   0.728   3.015 -0.0497 -0.3778 -0.9364
 1451SOL    HW215987   2.090   0.634   3.116 -0.4663  1.7770  1.2148
 1452SOL     OW15988   4.106   2.216   8.892  0.1228 -0.6334 -0.0824
 1452SOL    HW115989   4.174   2.170   8.942 -0.0605 -1.9705 -1.0711
 1452SOL    HW215990   4.054   2.253   8.963 -0.3425 -0.4633 -0.5129
 1453SOL     OW15991   3.838   1.113   0.562 -0.0166 -0.1402 -0.5219
 1453SOL    HW115992   3.838   1.033   0.509 -1.2568  0.0233 -0.7539
 1453SOL    HW215993   3.855   1.066   0.644 -0.7212 -0.1312 -0.3699
 1454SOL     OW15994   1.443   0.795   1.349  0.2603  0.6243  0.2135
 1454SOL    HW115995   1.420   0.816   1.439 -0.8225 -0.7405  0.2541
 1454SOL    HW215996   1.423   0.877   1.303 -0.6495  0.7855  0.9089
 1455SOL     OW15997   2.485   3.986   5.876 -0.2124 -0.5349 -0.1712
 1455SOL    HW115998   2.580   3.996   5.880 -0.0917 -1.5958 -0.4802
 1455SOL    HW215999   2.472   3.954   5.787 -0.8135  1.7557 -0.9184
 1456SOL     OW16000   4.534   3.079   7.064 -0.3714 -0.5741  0.5256
 1456SOL    HW116001   4.511   3.149   7.003 -0.0576 -0.7151  0.2476
 1456SOL    HW216002   4.562   3.007   7.008 -0.1366 -1.1765  1.4182
 1457SOL     OW16003   4.300   0.132   7.029  0.2586 -0.3913 -0.0604
 1457SOL    HW116004   4.271   0.168   6.945 -1.3912 -1.5527  0.0109
 1457SOL    HW216005   4.299   0.210   7.084 -0.0064 -1.4555  1.4207
 1458SOL     OW16006   1.279   1.580   5.284  0.0273  0.3541  0.3975
 1458SOL    HW116007   1.317   1.668   5.281  0.1615  0.2596 -0.5394
 1458SOL    HW216008   1.227   1.579   5.204  0.9428 -1.8915 -0.1758
 1459SOL     OW16009   3.442   1.417   2.441  0.0582  0.4081 -0.9892
 1459SOL    HW116010   3.431   1.324   2.458  0.1169  0.8355  1.4497
 1459SOL    HW216011   3.410   1.429   2.352  0.9477  1.4950 -1.1660
 1460SOL     OW16012   0.952   2.851   6.446  0.6455 -0.0239 -0.8106
 1460SOL    HW116013   0.934   2.939   6.412  0.2461  0.5302  0.8546
 1460SOL    HW216014   1.007   2.872   6.521 -1.7031 -0.2313  0.9597
 1461SOL     OW16015   4.653   0.196  11.167  0.4877 -0.4887  0.0798
 1461SOL    HW116016   4.570   0.212  11.121  0.0014 -1.6832  0.5460
 1461SOL    HW216017   4.620   0.144  11.241 -0.8922 -2.3349 -1.8406
 1462SOL     OW16018   4.553   2.713   2.165 -0.0390  0.2882 -0.3402
 1462SOL    HW116019   4.641   2.679   2.180 -0.9905 -2.1846 -0.4348
 1462SOL    HW216020   4.508   2.639   2.206 -1.4891  0.5166 -1.5382
 1463SOL     OW16021   1.863   0.801   2.124 -0.3163  0.1310 -0.2729
 1463SOL    HW116022   1.916   0.734   2.167  0.2405  0.0624 -1.0741
 1463SOL    HW216023   1.792   0.753   2.079 -0.1551 -0.8816  0.5420
 1464SOL     OW16024   4.658   2.461   7.155  0.6362  0.3645 -0.7061
 1464SOL    HW116025   4.702   2.390   7.107 -0.1231 -0.8476  0.3697
 1464SOL    HW216026   0.002   2.496   7.195  0.5680 -1.8610  1.4310
 1465SOL     OW16027   2.121   0.640  13.464  0.2657 -0.0402 -0.1066
 1465SOL    HW116028   2.053   0.579  13.435 -0.3088 -0.1530  1.4796
 1465SOL    HW216029   2.176   0.577  13.510  0.0457 -0.2453 -0.1263
 1466SOL     OW16030   1.581   1.762   4.411  0.1942 -0.6320 -0.2277
 1466SOL    HW116031   1.637   1.687   4.430  3.2820  1.4927 -0.9413
 1466SOL    HW216032   1.495   1.740   4.447  0.5683  2.1682  2.2971
 1467SOL     OW16033   2.700   0.431  16.467  0.2449 -0.0430 -0.5874
 1467SOL    HW116034   2.630   0.471  16.415 -0.5858 -2.2617 -1.1694
 1467SOL    HW216035   2.657   0.358  16.512 -1.2304  0.7488 -0.6904
 1468SOL     OW16036   1.623   2.327   9.805  0.1965 -0.2628 -0.0076
 1468SOL    HW116037   1.623   2.251   9.863  0.4076  1.5480  2.3549
 1468SOL    HW216038   1.703   2.305   9.758  0.6441  1.5722 -0.1093
 1469SOL     OW16039   4.693   1.577   3.893  0.1949 -0.2319  0.0240
 1469SOL    HW116040   4.634   1.648   3.920 -1.0684 -1.4250  0.4001
 1469SOL    HW216041   0.033   1.595   3.949 -1.0124  0.8173  1.3222
 1470SOL     OW16042   1.456   2.446   7.874 -0.0977 -0.5919  0.2893
 1470SOL    HW116043   1.493   2.533   7.867 -0.6173 -0.4984 -1.3129
 1470SOL    HW216044   1.505   2.426   7.954 -1.0095  0.7825  1.1888
 1471SOL     OW16045   3.986   1.071   2.090 -0.4016 -0.1692 -0.4436
 1471SOL    HW116046   3.937   1.009   2.036  1.1594 -1.5928 -0.1945
 1471SOL    HW216047   4.076   1.038   2.089 -1.6782 -3.5734 -1.0694
 1472SOL     OW16048   2.105   4.033   5.875  0.2352  0.1243  0.0490
 1472SOL    HW116049   2.101   3.938   5.865  1.1985  0.2838 -1.8023
 1472SOL    HW216050   2.049   4.057   5.801  1.5632 -1.4720 -1.4571
 1473SOL     OW16051   0.567   4.091   7.645 -0.2879 -0.3719 -0.5644
 1473SOL    HW116052   0.543   4.076   7.737 -0.8628 -2.1463 -1.0145
 1473SOL    HW216053   0.656   4.120   7.663  0.3363 -3.0086  0.6049
 1474SOL     OW16054   4.278   2.218  11.779 -0.2376 -0.0467 -0.2568
 1474SOL    HW116055   4.366   2.245  11.807 -1.7864 -0.7195  5.1537
 1474SOL    HW216056   4.257   2.140  11.830 -2.2683  0.6509 -0.0502
 1475SOL     OW16057   1.660   0.494   7.319  0.1082  1.0667  0.3148
 1475SOL    HW116058   1.688   0.542   7.241  0.7933 -0.1387 -0.1734
 1475SOL    HW216059   1.733   0.433   7.328 -1.2537 -0.4005  1.3185
 1476SOL     OW16060   4.036   3.366   9.249  0.4934 -0.1737  0.1756
 1476SOL    HW116061   4.084   3.290   9.215  1.7575  1.1161 -0.9361
 1476SOL    HW216062   4.003   3.395   9.164  2.1277  2.0547  0.3053
 1477SOL     OW16063   4.304   0.766   7.460  0.0823  0.1011  0.0359
 1477SOL    HW116064   4.329   0.730   7.375 -0.6438 -2.7960  1.0756
 1477SOL    HW216065   4.229   0.709   7.477  0.6554 -0.2609  1.3460
 1478SOL     OW16066   0.780   1.926  17.016  0.1809  0.7016 -0.1890
 1478SOL    HW116067   0.836   2.000  16.989  2.7527 -0.1635  2.7103
 1478SOL    HW216068   0.824   1.857  16.966 -2.1213 -0.2310 -0.9065
 1479SOL     OW16069   0.753   0.034  16.387 -0.0545 -0.1448 -0.2574
 1479SOL    HW116070   0.826   0.023  16.448 -0.6269  1.9232  0.8151
 1479SOL    HW216071   0.749   0.130  16.383 -0.7578 -0.0999  1.6779
 1480SOL     OW16072   2.337   0.816  12.982 -0.2615  0.5301 -0.7575
 1480SOL    HW116073   2.418   0.784  12.944 -0.6617 -1.6266  0.2140
 1480SOL    HW216074   2.314   0.889  12.924  1.3370 -0.6967 -2.8939
 1481SOL     OW16075   0.320   2.011  16.454 -0.0677  0.1001 -0.3901
 1481SOL    HW116076   0.277   1.953  16.391  1.4840 -0.5789 -0.8121
 1481SOL    HW216077   0.407   2.026  16.417  0.6941 -1.5149  0.7401
 1482SOL     OW16078   4.042   4.489   6.216 -0.3890 -1.0375 -0.3100
 1482SOL    HW116079   3.976   4.438   6.170  0.2065 -0.8875 -1.3286
 1482SOL    HW216080   3.989   4.513   6.292  0.5582  1.0704 -0.3110
 1483SOL     OW16081   4.018   4.463   7.987  0.3009  0.3091  0.0697
 1483SOL    HW116082   3.991   4.484   8.076 -0.1713  0.5703 -0.1315
 1483SOL    HW216083   3.941   4.411   7.963 -2.0452  3.4974  0.5728
 1484SOL     OW16084   1.402   3.996   4.122 -0.8962  0.0144 -0.2218
 1484SOL    HW116085   1.435   3.954   4.201  0.8210 -0.9922 -1.4710
 1484SOL    HW216086   1.365   3.915   4.086  2.9443 -1.7897 -0.0203
 1485SOL     OW16087   1.071   4.044   5.390  0.4471 -0.3247  0.0905
 1485SOL    HW116088   1.042   4.114   5.449  2.6721  0.3667  0.3477
 1485SOL    HW216089   1.128   4.094   5.332  1.0443 -0.1119  0.8521
 1486SOL     OW16090   0.004   4.173   1.052  0.1819  0.9622 -0.6806
 1486SOL    HW116091   4.729   4.197   1.144 -0.9993 -0.9378 -0.3277
 1486SOL    HW216092   0.068   4.103   1.067  1.3528  1.9921 -0.8044
 1487SOL     OW16093   3.026   0.425   9.140  0.5678 -0.5798 -0.6226
 1487SOL    HW116094   2.977   0.446   9.061  2.1740 -0.6764 -1.6547
 1487SOL    HW216095   3.041   0.516   9.166  0.4590 -1.0328  1.0002
 1488SOL     OW16096   0.512   2.692  10.130  0.2619  0.1228 -0.5630
 1488SOL    HW116097   0.459   2.771  10.129  0.0962  0.0067 -0.7340
 1488SOL    HW216098   0.567   2.693  10.209  1.8675 -0.7879 -1.6764
 1489SOL     OW16099   0.516   4.206   2.453  0.3144 -0.2045 -0.2694
 1489SOL    HW116100   0.562   4.249   2.381 -0.0044 -1.4494 -1.2313
 1489SOL    HW216101   0.450   4.155   2.405 -1.1770  1.0909  0.4172
 1490SOL     OW16102   4.321   1.796  10.008 -0.0281 -0.5899  0.6223
 1490SOL    HW116103   4.399   1.756   9.972 -0.5928 -0.9885 -0.1653
 1490SOL    HW216104   4.276   1.718  10.039  0.7441 -2.1704 -2.2538
 1491SOL     OW16105   4.677   2.740   7.770 -0.3120 -0.9014 -0.5803
 1491SOL    HW116106   4.714   2.654   7.752 -0.0873 -1.0019  0.3419
 1491SOL    HW216107   4.655   2.771   7.682 -0.1345  0.5288 -0.1184
 1492SOL     OW16108   0.761   2.530   9.104 -0.0114  0.0680 -0.1164
 1492SOL    HW116109   0.693   2.538   9.170  2.0398  1.8513  1.7977
 1492SOL    HW216110   0.783   2.622   9.085 -0.3202  0.0203 -0.7011
 1493SOL     OW16111   4.124   1.585  15.855  0.5124 -0.3877  0.0489
 1493SOL    HW116112   4.100   1.649  15.788 -2.2878 -1.2808  0.2231
 1493SOL    HW216113   4.099   1.625  15.938  0.2512  0.9197 -0.6581
 1494SOL     OW16114   3.332   1.612  14.347 -0.1776 -0.3255 -0.3007
 1494SOL    HW116115   3.328   1.517  14.352  1.1211 -0.3342  0.4642
 1494SOL    HW216116   3.260   1.639  14.404  1.1788  0.4167  1.0578
 1495SOL     OW16117   2.534   1.782   8.045  0.4287 -0.5494  0.6862
 1495SOL    HW116118   2.533   1.704   7.990 -0.5800 -0.0971  0.0498
 1495SOL    HW216119   2.453   1.825   8.018 -0.6567 -1.9072  1.7811
 1496SOL     OW16120   4.246   3.685  17.729 -0.6519 -0.1333  0.2151
 1496SOL    HW116121   4.259   3.700  17.636 -1.4598  0.2307  0.1635
 1496SOL    HW216122   4.326   3.637   0.009 -0.0003  0.1035 -1.6724
 1497SOL     OW16123   4.527   3.882   4.939  0.9060  0.5830 -0.3992
 1497SOL    HW116124   4.486   3.796   4.944 -1.1632  1.4781 -1.8731
 1497SOL    HW216125   4.459   3.939   4.975  0.6225 -0.5305  0.8301
 1498SOL     OW16126   3.579   2.246   0.620 -0.6604  0.0474 -0.6551
 1498SOL    HW116127   3.583   2.276   0.711 -2.4567  1.6792 -1.1019
 1498SOL    HW216128   3.503   2.298   0.591 -1.1490 -0.6859 -0.6901
 1499SOL     OW16129   2.438   3.471   4.922  0.5920  0.3361  0.6975
 1499SOL    HW116130   2.448   3.559   4.957  2.1401  0.7286 -0.7268
 1499SOL    HW216131   2.440   3.413   4.998 -0.7905 -0.1544  0.3613
 1500SOL     OW16132   4.582   2.093   3.064 -0.0080  0.1797  0.1882
 1500SOL    HW116133   4.494   2.094   3.025 -0.0231  1.9437  0.2773
 1500SOL    HW216134   4.636   2.116   2.989 -1.0708  2.1273  0.0447
 1501SOL     OW16135   1.041   0.860   5.372 -0.2947 -0.6020 -0.2287
 1501SOL    HW116136   1.066   0.848   5.463 -0.0572 -1.2624 -0.3837
 1501SOL    HW216137   1.071   0.778   5.332  1.1290  1.0413 -2.5771
 1502SOL     OW16138   0.624   2.693   2.047 -0.0044  0.2882  0.2510
 1502SOL    HW116139   0.588   2.775   2.081  0.4730  0.4855  0.2718
 1502SOL    HW216140   0.705   2.685   2.096 -0.4779  0.8521  1.1180
 1503SOL     OW16141   1.755   2.000   3.521 -0.1753 -0.0538 -0.3919
 1503SOL    HW116142   1.720   2.049   3.595  1.9677  0.0511  0.5636
 1503SOL    HW216143   1.730   1.911   3.545  1.5949 -0.7630 -1.1348
 1504SOL     OW16144   1.553   4.006   8.672  0.0041  0.5130 -0.2224
 1504SOL    HW116145   1.478   4.036   8.620 -0.6252  0.3731  0.6096
 1504SOL    HW216146   1.506   3.955   8.738  1.5015  0.0841  0.5114
 1505SOL     OW16147   1.160   2.573   9.156  0.1886  0.4098  0.5558
 1505SOL    HW116148   1.233   2.589   9.215  0.7774  2.6749 -0.7833
 1505SOL    HW216149   1.129   2.492   9.197  2.4209 -0.8938 -0.3272
 1506SOL     OW16150   2.348   2.609   1.516  0.2052  0.1962 -0.4632
 1506SOL    HW116151   2.375   2.536   1.572 -1.0281  1.4255  1.7422
 1506SOL    HW216152   2.276   2.637   1.573 -0.8562  0.8008 -2.1026
 1507SOL     OW16153   1.995   0.863   7.297 -0.1759  0.1357 -0.2350
 1507SOL    HW116154   2.051   0.931   7.259  2.3570 -1.9173 -0.1600
 1507SOL    HW216155   1.934   0.923   7.339 -1.4747 -0.8275 -0.7739
 1508SOL     OW16156   4.662   0.757   3.101  0.3471  0.1021  0.0587
 1508SOL    HW116157   4.678   0.672   3.059  2.6510  0.5331  0.0840
 1508SOL    HW216158   4.653   0.803   3.017  0.7648  0.7384  0.3618
 1509SOL     OW16159   3.352   2.266   8.921  0.9757  0.2692 -0.1315
 1509SOL    HW116160   3.348   2.291   8.829  0.8017 -2.3726 -0.8263
 1509SOL    HW216161   3.303   2.186   8.937  0.4859  0.7815  0.9945
 1510SOL     OW16162   4.494   3.803   2.417  0.2467  0.1368  0.0559
 1510SOL    HW116163   4.404   3.797   2.449  0.4093 -0.9725  0.2882
 1510SOL    HW216164   4.483   3.895   2.393 -1.0098  0.1319  0.6205
 1511SOL     OW16165   2.255   0.756   7.693  0.0956  0.2751 -0.1575
 1511SOL    HW116166   2.349   0.756   7.680 -0.0748 -3.4532 -1.4858
 1511SOL    HW216167   2.234   0.668   7.723  1.4455  0.2432  0.6719
 1512SOL     OW16168   1.054   0.680   9.411  0.2662 -0.3806  0.6923
 1512SOL    HW116169   1.064   0.774   9.396 -1.6513  0.0300  2.0051
 1512SOL    HW216170   0.998   0.677   9.489 -1.0572 -0.5053 -0.2718
 1513SOL     OW16171   1.718   1.174  11.933 -0.2890 -0.1939  0.0718
 1513SOL    HW116172   1.658   1.245  11.957 -2.2705 -2.0094  0.4838
 1513SOL    HW216173   1.758   1.159  12.019  0.2289  1.3978  0.1147
 1514SOL     OW16174   0.891   3.966   7.566 -0.5288  0.0604 -0.6311
 1514SOL    HW116175   0.825   3.900   7.547 -1.3056  0.6143  0.1323
 1514SOL    HW216176   0.855   4.019   7.637 -0.4306  0.3139 -0.7727
 1515SOL     OW16177   3.611   0.281   6.553  0.0256 -0.4699 -0.0677
 1515SOL    HW116178   3.608   0.197   6.600 -1.0804 -1.1217 -1.2985
 1515SOL    HW216179   3.699   0.307   6.580 -0.9304  0.2776  2.3394
 1516SOL     OW16180   2.462   1.541   8.958 -0.3663  0.1446 -0.2579
 1516SOL    HW116181   2.471   1.580   9.045  1.6207  1.1856 -0.9301
 1516SOL    HW216182   2.419   1.615   8.915  1.7899  0.9304 -1.1120
 1517SOL     OW16183   1.912   1.096   4.494 -0.1933  0.0756  0.2903
 1517SOL    HW116184   1.875   1.046   4.421 -0.8727  0.4973  0.3479
 1517SOL    HW216185   1.918   1.180   4.450  0.4748 -1.3689 -2.3733
 1518SOL     OW16186   3.953   2.826   9.159 -0.8364  0.3547 -0.0649
 1518SOL    HW116187   3.980   2.834   9.250 -4.3781 -1.3713  1.0973
 1518SOL    HW216188   3.886   2.895   9.162 -1.0015  0.1915 -0.0055
 1519SOL     OW16189   4.344   2.041   9.006  0.4232  0.3200 -0.4023
 1519SOL    HW116190   4.366   2.133   9.022  1.3184  0.0442 -0.0507
 1519SOL    HW216191   4.417   2.014   8.952  1.4480 -0.7862  1.5476
 1520SOL     OW16192   2.972   3.321   7.385 -0.3400  0.9272  0.1656
 1520SOL    HW116193   3.043   3.384   7.372 -0.8220  1.1720 -1.2165
 1520SOL    HW216194   2.891   3.372   7.389 -1.1498 -0.2773 -1.1574
 1521SOL     OW16195   2.291   1.092   2.488 -0.0989  0.1789  0.1377
 1521SOL    HW116196   2.209   1.073   2.534  0.0669 -1.5006 -0.2752
 1521SOL    HW216197   2.312   1.001   2.468  2.3892  1.0880 -1.3663
 1522SOL     OW16198   0.873   0.582  10.712 -0.9902  0.0404  0.4999
 1522SOL    HW116199   0.867   0.614  10.622  0.7759 -0.1115  0.3331
 1522SOL    HW216200   0.788   0.542  10.729 -1.2769  1.6657  2.8610
 1523SOL     OW16201   2.794   2.671  14.341 -0.3891 -0.0187 -0.8398
 1523SOL    HW116202   2.884   2.673  14.308  0.3940 -3.4544  1.1705
 1523SOL    HW216203   2.774   2.761  14.367 -2.0910 -0.2675 -1.2959
 1524SOL     OW16204   0.509   1.978   3.504 -0.2265 -0.0310  1.2565
 1524SOL    HW116205   0.506   1.892   3.546  0.9267  1.5661  4.5962
 1524SOL    HW216206   0.452   2.026   3.564 -0.7732  0.6694  0.1740
 1525SOL     OW16207   1.508   1.601   3.776 -0.3470  0.2129 -0.3446
 1525SOL    HW116208   1.453   1.525   3.795 -0.0465 -0.1724 -1.0273
 1525SOL    HW216209   1.475   1.657   3.846  0.3524 -0.4198  0.4838
 1526SOL     OW16210   2.847   2.585   0.575 -0.0270  0.3411  0.0016
 1526SOL    HW116211   2.902   2.647   0.527  0.7441  0.8703  1.5451
 1526SOL    HW216212   2.917   2.552   0.632 -0.6132  0.0274  0.5340
 1527SOL     OW16213   0.597   0.876   7.532  0.0510  0.1145  0.1779
 1527SOL    HW116214   0.554   0.869   7.447  0.5851  0.3839 -0.1147
 1527SOL    HW216215   0.574   0.967   7.551 -3.2303 -0.2811 -1.8783
 1528SOL     OW16216   2.170   1.579   4.050  0.7025 -0.0504  0.7158
 1528SOL    HW116217   2.192   1.655   4.105  0.6411  1.1909 -0.9817
 1528SOL    HW216218   2.095   1.545   4.099 -0.7113  2.5622  0.3699
 1529SOL     OW16219   0.739   3.443   0.914  0.2063  0.1988  0.6317
 1529SOL    HW116220   0.821   3.399   0.892  0.3906 -0.6217  2.9690
 1529SOL    HW216221   0.730   3.501   0.839 -1.1148  0.7621  1.2312
 1530SOL     OW16222   0.066   4.425  15.700 -0.1132 -0.2526 -0.4755
 1530SOL    HW116223   0.132   4.463  15.758 -0.8301 -0.1183  0.2426
 1530SOL    HW216224   0.083   4.490  15.632 -2.4147  1.5498  0.6626
 1531SOL     OW16225   3.363   1.883   8.804 -0.0765 -0.3019 -0.2670
 1531SOL    HW116226   3.280   1.874   8.756 -0.4228 -0.0425  0.2804
 1531SOL    HW216227   3.430   1.867   8.738 -0.3029  1.1595 -0.8305
 1532SOL     OW16228   1.186   2.691   7.405 -0.1694 -0.3009 -0.2673
 1532SOL    HW116229   1.166   2.755   7.336 -0.7860  1.5829  1.6677
 1532SOL    HW216230   1.264   2.731   7.444  0.5227 -1.0997 -0.8407
 1533SOL     OW16231   4.496   0.764   8.523 -0.2692  0.0924  0.0949
 1533SOL    HW116232   4.564   0.764   8.589 -1.6040 -1.2582  1.4587
 1533SOL    HW216233   4.527   0.834   8.465  1.0182  0.9588  1.8346
 1534SOL     OW16234   1.371   3.701   2.316 -0.3883  0.0375 -0.3545
 1534SOL    HW116235   1.418   3.784   2.321  1.6461 -1.2460  2.1520
 1534SOL    HW216236   1.290   3.738   2.280  0.6538  2.4798 -0.1822
 1535SOL     OW16237   1.676   1.642   6.661  0.1934 -0.0714 -0.1371
 1535SOL    HW116238   1.593   1.689   6.649 -0.4910 -1.6330 -1.4116
 1535SOL    HW216239   1.681   1.636   6.757 -1.7748 -0.9231 -0.0845
 1536SOL     OW16240   1.047   4.454  15.163  0.2403  0.1123  0.1362
 1536SOL    HW116241   0.988   4.379  15.170 -1.2531  1.3831  1.2519
 1536SOL    HW216242   0.980   4.519  15.184  1.0351 -0.2079  3.5847
 1537SOL     OW16243   0.250   0.474   2.573  0.2861 -0.4384  0.2757
 1537SOL    HW116244   0.282   0.391   2.537  0.6441  0.1721 -0.8129
 1537SOL    HW216245   0.200   0.507   2.499  2.4204  0.8667 -0.5806
 1538SOL     OW16246   1.280   2.065   8.528  0.1359 -0.1444 -0.3422
 1538SOL    HW116247   1.322   2.134   8.579 -0.7769  0.1634 -0.0132
 1538SOL    HW216248   1.187   2.071   8.549  0.7621  1.0870  2.0861
 1539SOL     OW16249   1.580   4.439   6.714  0.4777 -0.2889 -0.0909
 1539SOL    HW116250   1.650   4.501   6.698 -0.5283  1.3036  1.6223
 1539SOL    HW216251   1.586   4.384   6.636  2.4445  0.5509 -0.5187
 1540SOL     OW16252   0.416   1.446   3.508 -0.7699 -0.3365 -0.0103
 1540SOL    HW116253   0.345   1.459   3.570 -0.8372  0.7738 -0.3243
 1540SOL    HW216254   0.469   1.380   3.553  0.4274  1.0997  0.6696
 1541SOL     OW16255   3.859   3.103   7.948  0.2405 -0.1023  0.0265
 1541SOL    HW116256   3.892   3.146   8.026  0.8563 -0.0260 -0.2772
 1541SOL    HW216257   3.939   3.088   7.897  0.2027  0.5653 -0.2357
 1542SOL     OW16258   3.068   3.591   4.382  0.5902 -0.3951 -1.2405
 1542SOL    HW116259   3.059   3.523   4.315 -2.0782 -2.0280  0.7126
 1542SOL    HW216260   3.072   3.666   4.324  1.8744  0.2959 -0.2535
 1543SOL     OW16261   2.635   0.291   6.564  0.1595  0.6769 -0.0326
 1543SOL    HW116262   2.724   0.259   6.553 -0.1188 -0.8034  2.0008
 1543SOL    HW216263   2.596   0.212   6.600  1.6133 -0.3342 -0.6828
 1544SOL     OW16264   4.410   0.134   9.919 -0.1099  0.1582  0.0294
 1544SOL    HW116265   4.351   0.209   9.925  0.4011  0.6356 -1.0271
 1544SOL    HW216266   4.465   0.151   9.995 -1.3707 -1.9056  1.4150
 1545SOL     OW16267   3.134   4.446   9.340 -0.2523 -0.1373  0.5452
 1545SOL    HW116268   3.180   4.522   9.305 -1.7814 -0.0476 -1.2910
 1545SOL    HW216269   3.132   4.463   9.434 -0.3398  0.3688  0.4500
 1546SOL     OW16270   0.950   4.259   5.509  0.6123 -0.3226 -0.0867
 1546SOL    HW116271   0.910   4.336   5.469  0.9700  0.5598  1.2623
 1546SOL    HW216272   1.006   4.300   5.575 -1.3610  0.1702  1.2662
 1547SOL     OW16273   0.162   3.132   5.326 -0.5775 -0.2663 -0.1428
 1547SOL    HW116274   0.142   3.129   5.420 -1.8763  0.3089 -0.4029
 1547SOL    HW216275   0.090   3.183   5.291  0.3288  0.8938 -0.2884
 1548SOL     OW16276   3.429   0.939   4.167  0.2232 -0.0260  0.1686
 1548SOL    HW116277   3.393   0.858   4.131  1.1230 -0.2830 -0.1707
 1548SOL    HW216278   3.467   0.982   4.091  0.2653 -0.1444  0.1220
 1549SOL     OW16279   1.428   2.572   9.264  0.6840 -0.3584 -0.1608
 1549SOL    HW116280   1.450   2.504   9.200  0.3123 -0.3495 -0.3016
 1549SOL    HW216281   1.412   2.529   9.348  2.3375  1.6114  1.1647
 1550SOL     OW16282   1.967   1.016   1.969 -0.1326 -0.7104 -0.0988
 1550SOL    HW116283   1.921   0.939   2.003 -1.9045  0.4885  0.2052
 1550SOL    HW216284   1.904   1.048   1.905 -1.6937  0.5767  2.0854
 1551SOL     OW16285   0.793   4.208   0.736  0.8480 -0.0278 -0.3065
 1551SOL    HW116286   0.865   4.270   0.750 -0.5073  1.4776 -0.0851
 1551SOL    HW216287   0.848   4.130   0.726 -1.1562 -1.1684 -2.6072
 1552SOL     OW16288   2.891   4.252   0.213 -0.2074 -0.5513  0.5236
 1552SOL    HW116289   2.902   4.282   0.303  1.5903  0.4432 -0.0142
 1552SOL    HW216290   2.910   4.334   0.167 -0.7781 -1.2364 -0.9386
 1553SOL     OW16291   0.177   2.400   7.295 -0.0907  0.0134 -0.5876
 1553SOL    HW116292   0.200   2.461   7.365  0.6058 -0.7554 -0.1395
 1553SOL    HW216293   0.240   2.426   7.228  0.6851 -3.2687 -1.1544
 1554SOL     OW16294   0.271   1.456   5.403 -0.1136  0.0969 -0.6097
 1554SOL    HW116295   0.240   1.507   5.328 -1.7649  2.1618  1.4876
 1554SOL    HW216296   0.280   1.527   5.466 -1.0316 -0.7871  0.5190
 1555SOL     OW16297   0.658   2.521  17.168 -0.2389 -0.1228 -0.0463
 1555SOL    HW116298   0.716   2.474  17.108 -1.0522 -0.4445 -0.5690
 1555SOL    HW216299   0.715   2.587  17.207 -1.0877 -0.1759  1.2713
 1556SOL     OW16300   2.494   0.372   3.268  0.5934 -0.2679  0.0728
 1556SOL    HW116301   2.434   0.338   3.335 -0.8828 -1.9016 -2.0969
 1556SOL    HW216302   2.443   0.364   3.188 -0.6040  1.2820  0.6715
 1557SOL     OW16303   2.839   1.344   2.870  0.1547  0.1293 -0.0031
 1557SOL    HW116304   2.784   1.398   2.927 -1.7708 -1.8424  0.0016
 1557SOL    HW216305   2.781   1.321   2.798  0.8467 -0.0787 -0.4854
 1558SOL     OW16306   1.053   0.083   3.247  0.4890  0.1731 -0.1754
 1558SOL    HW116307   1.066   0.013   3.311 -2.3325  0.3874  0.6312
 1558SOL    HW216308   0.997   0.040   3.182 -0.1558 -1.3871  1.4176
 1559SOL     OW16309   2.095   1.095   8.707 -0.1895 -0.3890 -0.0410
 1559SOL    HW116310   2.147   1.173   8.693 -0.4235 -0.3048 -0.4436
 1559SOL    HW216311   2.029   1.137   8.762  0.4840  0.0118  0.4570
 1560SOL     OW16312   4.174   0.771  12.898 -0.5317  0.2105 -0.3253
 1560SOL    HW116313   4.243   0.707  12.916 -0.0720  0.7843 -0.0379
 1560SOL    HW216314   4.098   0.713  12.908 -0.5604  0.1736 -0.7641
 1561SOL     OW16315   1.850   3.945   3.173  0.5368 -1.1400 -0.2426
 1561SOL    HW116316   1.867   4.023   3.120 -1.3805 -0.5974 -0.0567
 1561SOL    HW216317   1.855   3.876   3.106  1.1582 -0.3696 -0.9801
 1562SOL     OW16318   3.916   4.225   1.494  0.2666  0.4035  0.2008
 1562SOL    HW116319   3.829   4.257   1.518  0.0452  1.6107 -2.1781
 1562SOL    HW216320   3.930   4.140   1.535  0.7505  0.9740  1.2144
 1563SOL     OW16321   3.380   1.297  11.834  0.1154 -0.3139  0.5270
 1563SOL    HW116322   3.473   1.312  11.853  0.7261 -0.9254 -1.8761
 1563SOL    HW216323   3.352   1.337  11.916 -0.0642  0.7320 -0.0466
 1564SOL     OW16324   3.424   0.675   9.351  0.4037 -0.0890 -0.2608
 1564SOL    HW116325   3.501   0.731   9.363 -1.2972  1.8130  1.8377
 1564SOL    HW216326   3.424   0.646   9.260  2.8794 -0.0788 -0.2579
 1565SOL     OW16327   2.580   2.445   9.124  0.3175  0.5298 -0.0162
 1565SOL    HW116328   2.590   2.536   9.097  0.5641  0.3367 -0.5686
 1565SOL    HW216329   2.494   2.430   9.085 -1.1778  2.3377  2.5766
 1566SOL     OW16330   1.272   0.213   6.759  0.3777  0.2575 -0.1453
 1566SOL    HW116331   1.196   0.271   6.752  0.8596  0.8894 -0.1346
 1566SOL    HW216332   1.237   0.131   6.793  0.2522  0.0192 -0.8494
 1567SOL     OW16333   1.305   1.445   3.427  0.4119  0.1412 -0.6338
 1567SOL    HW116334   1.230   1.442   3.367  0.1175 -2.2872 -0.1423
 1567SOL    HW216335   1.259   1.413   3.505  0.0892  2.2584  0.0624
 1568SOL     OW16336   2.066   1.020   6.889  0.0114 -0.1574 -0.0629
 1568SOL    HW116337   1.984   1.068   6.878 -0.0221  0.0408  0.9896
 1568SOL    HW216338   2.129   1.076   6.935 -1.3545  0.9601  0.4571
 1569SOL     OW16339   1.736   1.436   7.891  0.1267  0.0633  0.0746
 1569SOL    HW116340   1.734   1.461   7.984 -1.3606 -1.3504  0.4276
 1569SOL    HW216341   1.675   1.362   7.890  1.6270 -1.2420  3.1442
 1570SOL     OW16342   1.283   2.996   6.355 -0.0104 -0.0676  0.4112
 1570SOL    HW116343   1.303   2.903   6.345  1.1532  0.3145 -0.7603
 1570SOL    HW216344   1.369   3.032   6.375 -1.0829  1.1458  2.8423
 1571SOL     OW16345   4.673   3.994  10.488 -0.0336 -0.0283 -0.3815
 1571SOL    HW116346   4.581   4.005  10.466  0.1132  0.2792 -0.8341
 1571SOL    HW216347   4.665   3.952  10.574 -1.2885 -3.6783 -2.2758
 1572SOL     OW16348   4.088   3.079   9.872 -0.7382 -0.2646  0.0790
 1572SOL    HW116349   4.106   3.172   9.883  0.8952 -0.5006 -0.6341
 1572SOL    HW216350   4.155   3.058   9.808  0.5390  0.9535  1.0265
 1573SOL     OW16351   2.877   4.347   6.384 -0.3591 -0.2149  0.1948
 1573SOL    HW116352   2.863   4.388   6.299  3.8441 -0.8874 -0.8411
 1573SOL    HW216353   2.961   4.302   6.374  0.6893  1.5244  1.3759
 1574SOL     OW16354   4.000   4.315   9.420  0.4187 -0.4519 -0.0849
 1574SOL    HW116355   4.012   4.392   9.364  2.4107  0.3254  1.4120
 1574SOL    HW216356   3.905   4.309   9.423  0.4758 -1.2033  0.0368
 1575SOL     OW16357   4.533   3.999   5.285 -0.0801  0.0983 -0.1564
 1575SOL    HW116358   4.593   4.072   5.300 -0.0799 -0.3099  1.8186
 1575SOL    HW216359   4.492   4.031   5.205 -0.0995  1.9138  0.5735
 1576SOL     OW16360   4.626   0.963   4.325 -0.4352  0.1807  0.3156
 1576SOL    HW116361   4.619   0.871   4.299 -1.7801 -0.1684  1.9148
 1576SOL    HW216362   4.546   0.982   4.374 -0.0349  1.7710  0.3786
 1577SOL     OW16363   3.490   1.055   3.555  0.3123 -0.0642 -0.5778
 1577SOL    HW116364   3.395   1.054   3.543  0.1826 -0.1751  0.4354
 1577SOL    HW216365   3.483   1.057   3.651  0.1403  0.5094 -0.5970
 1578SOL     OW16366   3.595   3.329   1.905 -0.2018  0.1572 -0.3492
 1578SOL    HW116367   3.592   3.327   1.809 -1.4964  1.1858 -0.3203
 1578SOL    HW216368   3.555   3.413   1.927  1.6081  0.6522  1.0268
 1579SOL     OW16369   1.185   1.162   2.874  0.3468 -0.1088 -0.1976
 1579SOL    HW116370   1.239   1.174   2.952 -0.2631  1.2658  0.0046
 1579SOL    HW216371   1.129   1.089   2.903  0.7376 -0.5381 -0.5176
 1580SOL     OW16372   3.336   2.074   7.606 -0.3902  0.1553 -0.3786
 1580SOL    HW116373   3.351   2.126   7.684 -0.6635  1.3716 -1.1370
 1580SOL    HW216374   3.358   2.137   7.538 -0.0148 -0.0557 -0.4527
 1581SOL     OW16375   3.588   2.964   2.313  0.1060 -0.3691 -0.3914
 1581SOL    HW116376   3.572   3.000   2.226 -0.9346 -2.5390 -1.0795
 1581SOL    HW216377   3.573   2.870   2.304  0.7692 -0.3906 -1.2271
 1582SOL     OW16378   3.814   0.079   9.696  0.2168 -0.0154  0.4433
 1582SOL    HW116379   3.831   0.072   9.790 -0.7166 -0.9383  0.5498
 1582SOL    HW216380   3.895   0.050   9.656 -0.1120  0.4359 -0.5371
 1583SOL     OW16381   3.294   0.776   5.924  0.0198 -0.1897  0.3626
 1583SOL    HW116382   3.346   0.856   5.926  0.2217 -0.3411  1.1497
 1583SOL    HW216383   3.353   0.711   5.886  0.0615  0.6989 -1.1048
 1584SOL     OW16384   0.333   1.894  15.003 -0.1689  0.6622  0.2869
 1584SOL    HW116385   0.303   1.971  14.953  1.3906  1.5050  0.6301
 1584SOL    HW216386   0.417   1.880  14.959 -0.0263  0.2086  0.7119
 1585SOL     OW16387   4.557   2.297   2.528  0.1422 -0.0874 -0.5063
 1585SOL    HW116388   4.624   2.267   2.467  2.3145 -0.3166  1.9535
 1585SOL    HW216389   4.559   2.393   2.518 -3.7262 -0.3004 -3.2757
 1586SOL     OW16390   1.772   1.255  12.201 -0.2051  0.5378 -0.2375
 1586SOL    HW116391   1.786   1.349  12.196 -0.2285  0.5261 -0.5307
 1586SOL    HW216392   1.842   1.211  12.250 -0.1368  0.9328  0.0178
 1587SOL     OW16393   0.838   2.501  15.688 -0.0968 -0.2384 -0.1333
 1587SOL    HW116394   0.918   2.529  15.644 -0.1659  0.8264  0.4180
 1587SOL    HW216395   0.817   2.423  15.636 -1.9336 -1.1980  2.0519
 1588SOL     OW16396   3.172   1.223  12.718  0.5461 -0.1381 -0.1835
 1588SOL    HW116397   3.135   1.311  12.714 -0.8754 -0.7755 -1.0945
 1588SOL    HW216398   3.259   1.233  12.680  1.6530 -1.2614  2.0198
 1589SOL     OW16399   0.802   0.535   5.612  0.3328 -0.6375  0.2952
 1589SOL    HW116400   0.754   0.475   5.668 -0.3649 -1.0243 -0.7111
 1589SOL    HW216401   0.771   0.622   5.636  0.9495  0.3043 -2.2995
 1590SOL     OW16402   1.650   0.358   8.679  0.2719 -0.7849 -0.1417
 1590SOL    HW116403   1.689   0.289   8.733 -1.1532  0.2518  2.1865
 1590SOL    HW216404   1.560   0.350   8.709 -0.7874  1.2151 -2.7903
 1591SOL     OW16405   1.228   1.789   5.634 -0.5996  0.3247  0.4636
 1591SOL    HW116406   1.291   1.859   5.613 -1.8558  0.3386 -3.3139
 1591SOL    HW216407   1.161   1.831   5.687 -1.2287 -0.9020  0.6385
 1592SOL     OW16408   2.911   1.592   8.159 -0.1128 -0.2824 -0.1014
 1592SOL    HW116409   2.847   1.649   8.201  0.9185  2.0315 -1.6845
 1592SOL    HW216410   2.922   1.531   8.232 -1.8524 -0.2891  0.1659
 1593SOL     OW16411   1.478   1.204   8.912  0.1724 -0.0396 -0.2751
 1593SOL    HW116412   1.559   1.191   8.862  0.1348  1.2104 -0.6511
 1593SOL    HW216413   1.427   1.264   8.859 -0.8414 -1.0300 -0.4090
 1594SOL     OW16414   0.409   4.576   1.914 -0.2915  0.3940  0.1143
 1594SOL    HW116415   0.472   4.624   1.967  0.9108  1.2047 -2.0236
 1594SOL    HW216416   0.326   4.602   1.954  0.0317 -0.1015  1.0913
 1595SOL     OW16417   2.517   1.474   9.339 -0.1860  0.2873  0.4681
 1595SOL    HW116418   2.570   1.430   9.405  1.9395  0.2128 -1.2994
 1595SOL    HW216419   2.462   1.405   9.302 -0.1776  0.2228  0.5768
 1596SOL     OW16420   1.956   1.089   9.750  0.1478  0.1548  0.3058
 1596SOL    HW116421   1.942   1.038   9.830 -0.1641 -1.4288 -0.7655
 1596SOL    HW216422   2.003   1.162   9.790  1.0505  0.7842 -1.8991
 1597SOL     OW16423   3.386   2.138   9.367 -0.3801 -0.1503  0.0057
 1597SOL    HW116424   3.451   2.132   9.438 -2.0039  0.3153  1.5194
 1597SOL    HW216425   3.404   2.056   9.320 -0.1536 -1.8603  3.0659
 1598SOL     OW16426   0.089   2.270   4.160  0.0681  0.0778  0.0746
 1598SOL    HW116427   0.109   2.262   4.066 -1.9914 -1.0666 -0.2608
 1598SOL    HW216428   0.177   2.301   4.181  0.1595  0.9823 -1.6588
 1599SOL     OW16429   0.548   1.440   7.775  0.1575  0.9156  0.3060
 1599SOL    HW116430   0.627   1.387   7.765  0.8190  1.3703  2.9101
 1599SOL    HW216431   0.530   1.470   7.686 -0.6908 -0.0247  0.1690
 1600SOL     OW16432   1.800   1.683  15.704  0.3001 -0.0682 -0.3062
 1600SOL    HW116433   1.734   1.704  15.637  2.0252  0.9337 -1.6906
 1600SOL    HW216434   1.870   1.661  15.643  1.1448 -0.3896  0.7963
 1601SOL     OW16435   1.699   1.540  11.194 -0.0790  0.0063  0.3848
 1601SOL    HW116436   1.732   1.593  11.267 -0.6371  1.4447 -0.4225
 1601SOL    HW216437   1.781   1.517  11.151  0.7872 -0.3701  2.2128
 1602SOL     OW16438   1.765   0.890   3.582 -1.1030  0.3274  0.1221
 1602SOL    HW116439   1.692   0.841   3.544  0.8520 -0.5968 -2.4756
 1602SOL    HW216440   1.811   0.814   3.617 -1.2045  0.5541  0.7307
 1603SOL     OW16441   3.678   1.003   8.614  0.4890 -0.1809  0.6362
 1603SOL    HW116442   3.662   1.091   8.647 -0.0399 -0.5950  1.4979
 1603SOL    HW216443   3.724   1.023   8.533  1.1855 -0.8763  0.8520
 1604SOL     OW16444   3.027   4.601   8.549 -0.4585 -0.2028  0.2399
 1604SOL    HW116445   3.031   4.623   8.642 -0.3487 -0.6630  0.3453
 1604SOL    HW216446   3.030   4.687   8.506  1.8215 -0.0326  0.7562
 1605SOL     OW16447   1.064   3.340   3.796  0.4248 -0.4223 -0.3811
 1605SOL    HW116448   1.013   3.322   3.718 -1.6251 -1.4030  1.1818
 1605SOL    HW216449   0.989   3.344   3.856  0.2826 -0.6781 -0.5406
 1606SOL     OW16450   0.161   2.842  11.215 -1.1018 -0.3115 -0.5416
 1606SOL    HW116451   0.180   2.824  11.307 -1.4100 -2.8679 -0.9591
 1606SOL    HW216452   0.212   2.922  11.203 -0.5554 -0.5564  0.1267
 1607SOL     OW16453   2.841   0.926   2.109  0.0062 -0.3825 -0.4682
 1607SOL    HW116454   2.792   0.844   2.100  0.3737 -0.5625 -0.8188
 1607SOL    HW216455   2.773   0.974   2.157 -0.9613 -2.7318  0.5165
 1608SOL     OW16456   4.016   2.400   3.136 -0.5291 -0.1582 -0.6129
 1608SOL    HW116457   4.042   2.408   3.227 -0.6086 -0.4621 -0.5641
 1608SOL    HW216458   4.030   2.307   3.117 -1.3929 -0.8974  2.4912
 1609SOL     OW16459   4.121   4.611   4.779  0.2733 -0.0590 -0.0747
 1609SOL    HW116460   4.181   4.663   4.832  0.3671  2.1932 -2.3526
 1609SOL    HW216461   4.152   4.523   4.801 -0.0542  0.3056  1.8092
 1610SOL     OW16462   2.430   4.622   3.610  0.5560 -0.0958 -0.1455
 1610SOL    HW116463   2.481   4.702   3.624  0.4975 -0.1860  0.6134
 1610SOL    HW216464   2.349   4.672   3.613  0.7655  0.3833 -2.8444
 1611SOL     OW16465   1.888   1.366   2.271  0.1163 -0.5246  0.2165
 1611SOL    HW116466   1.966   1.395   2.224  0.5433 -1.1341  0.5609
 1611SOL    HW216467   1.851   1.455   2.278  2.2300  0.4377 -0.8797
 1612SOL     OW16468   3.749   1.480  15.003  0.0962  0.0103 -0.8585
 1612SOL    HW116469   3.766   1.519  14.917 -0.1311 -0.1315 -0.9670
 1612SOL    HW216470   3.837   1.497  15.037  0.3959  0.1689 -1.7146
 1613SOL     OW16471   2.217   2.669   2.566  0.1468  0.1142 -0.0877
 1613SOL    HW116472   2.176   2.670   2.479 -1.1807 -2.6928  0.5194
 1613SOL    HW216473   2.155   2.702   2.630  0.4585  1.1392 -0.3116
 1614SOL     OW16474   0.665   4.512  13.925 -0.8018  0.2471  0.2732
 1614SOL    HW116475   0.607   4.547  13.993 -0.9452  1.4339 -0.4492
 1614SOL    HW216476   0.612   4.533  13.848  0.3439 -2.2777 -1.1991
 1615SOL     OW16477   4.232   2.929  10.549  0.2623  0.1479 -0.4783
 1615SOL    HW116478   4.213   2.873  10.473  2.4416  1.4788 -1.9694
 1615SOL    HW216479   4.289   2.878  10.606 -1.3717 -0.4771  0.6130
 1616SOL     OW16480   2.642   1.855   5.707  0.0528 -0.7746 -0.4200
 1616SOL    HW116481   2.557   1.882   5.673  1.0868  0.7987 -1.7364
 1616SOL    HW216482   2.708   1.879   5.642 -0.9967  0.8998 -0.8643
 1617SOL     OW16483   0.670   2.237   2.630  0.6258 -0.1725 -0.3157
 1617SOL    HW116484   0.639   2.312   2.680 -1.3995 -0.2574 -1.4473
 1617SOL    HW216485   0.756   2.236   2.673 -0.4238 -0.4392  1.8054
 1618SOL     OW16486   3.974   2.848  12.157 -0.3071  0.2842 -0.3469
 1618SOL    HW116487   4.029   2.817  12.229  1.3541  2.0098 -0.8971
 1618SOL    HW216488   3.943   2.763  12.124  0.0108  0.1375 -0.2714
 1619SOL     OW16489   0.010   3.391  15.389  0.1306  0.1057  0.0612
 1619SOL    HW116490   4.681   3.400  15.459  2.2781 -0.8141  2.1801
 1619SOL    HW216491   4.716   3.461  15.331 -0.3379 -0.1751 -0.0373
 1620SOL     OW16492   0.719   1.951  16.687 -0.5755  0.5508 -0.1087
 1620SOL    HW116493   0.773   1.962  16.765 -0.1143 -1.0233 -0.2080
 1620SOL    HW216494   0.762   1.997  16.614  0.7674  0.3092  0.5175
 1621SOL     OW16495   0.924   1.484   8.468  0.4158  0.5210  0.1985
 1621SOL    HW116496   0.981   1.550   8.508 -1.2755  0.3666  2.8913
 1621SOL    HW216497   0.919   1.515   8.378 -0.8793  0.9904  0.4191
 1622SOL     OW16498   2.846   4.375   6.088 -0.6998 -0.2527 -0.2892
 1622SOL    HW116499   2.929   4.375   6.040  0.1776  0.9367  1.1961
 1622SOL    HW216500   2.818   4.459   6.053 -1.3277  1.2980  3.9321
 1623SOL     OW16501   4.053   4.263   0.574  0.0036  0.6733  0.7639
 1623SOL    HW116502   4.083   4.172   0.575 -2.4354 -0.1374  0.7561
 1623SOL    HW216503   4.113   4.301   0.638  2.4889 -0.9195 -0.6547
 1624SOL     OW16504   3.009   1.184  13.814  0.3321 -0.5993  0.9338
 1624SOL    HW116505   3.071   1.233  13.760 -0.7254  1.1101  1.2899
 1624SOL    HW216506   3.069   1.159  13.884 -0.5405  2.3594  2.7247
 1625SOL     OW16507   1.009   4.351  17.740  0.2989  0.0505 -0.3635
 1625SOL    HW116508   1.102   4.375   0.003  0.2520  0.2125 -0.2713
 1625SOL    HW216509   0.971   4.395   0.073  1.3877  0.7138 -0.2062
 1626SOL     OW16510   1.822   4.044   8.410  0.5432  0.5614 -0.1456
 1626SOL    HW116511   1.890   3.985   8.377 -1.2129 -0.5410 -1.8949
 1626SOL    HW216512   1.847   4.120   8.357 -3.5375  0.3138 -2.4700
 1627SOL     OW16513   0.882   0.901  14.538 -0.2264 -0.3601 -0.3810
 1627SOL    HW116514   0.902   0.853  14.458 -1.3239 -1.1227 -0.2088
 1627SOL    HW216515   0.852   0.826  14.591 -2.1597  0.2656 -0.5805
 1628SOL     OW16516   1.156   2.775   3.478  0.0032  0.4249  0.4492
 1628SOL    HW116517   1.124   2.741   3.394 -0.3440  1.2933  0.2331
 1628SOL    HW216518   1.213   2.846   3.448 -0.8013 -0.2325 -2.6806
 1629SOL     OW16519   2.869   3.697   2.156  0.4368 -0.1186  0.1560
 1629SOL    HW116520   2.839   3.788   2.144 -2.8565 -1.4053 -1.4307
 1629SOL    HW216521   2.791   3.651   2.126  0.6310 -1.0013  1.0410
 1630SOL     OW16522   2.943   1.551  15.711  0.3420 -0.5246  0.3642
 1630SOL    HW116523   2.882   1.613  15.752  1.4457  0.9949 -0.3146
 1630SOL    HW216524   3.018   1.609  15.703 -0.8526  1.0276  0.4673
 1631SOL     OW16525   0.295   2.282   3.288  0.7881  0.4327 -0.4229
 1631SOL    HW116526   0.294   2.194   3.251  1.0935  0.2551 -0.0074
 1631SOL    HW216527   0.276   2.259   3.380 -0.2901  0.8861 -0.5278
 1632SOL     OW16528   4.517   0.367   2.278 -0.6461 -0.2551 -0.2478
 1632SOL    HW116529   4.428   0.352   2.248 -0.5597  0.5562 -0.9287
 1632SOL    HW216530   4.566   0.401   2.203  0.2978 -1.4394 -0.1726
 1633SOL     OW16531   2.630   2.651   4.904 -0.1767 -0.3625  0.1367
 1633SOL    HW116532   2.566   2.603   4.956 -1.0327  1.5113  0.7767
 1633SOL    HW216533   2.602   2.648   4.812 -2.1226  3.0267  0.6551
 1634SOL     OW16534   2.435   3.217  11.588  0.2838  0.1278  0.3427
 1634SOL    HW116535   2.410   3.163  11.514  0.3706 -1.1840  1.2748
 1634SOL    HW216536   2.458   3.295  11.538  0.0321  0.6300  1.0043
 1635SOL     OW16537   1.516   0.982   9.257 -0.0456 -0.3383 -0.1679
 1635SOL    HW116538   1.611   0.972   9.259 -0.0432 -0.2523  0.0991
 1635SOL    HW216539   1.499   1.076   9.247  0.2334 -0.1819  0.8377
 1636SOL     OW16540   2.775   3.645  16.040  0.2266 -0.6915  0.6227
 1636SOL    HW116541   2.815   3.706  15.978 -0.0003 -1.1993 -0.0188
 1636SOL    HW216542   2.717   3.590  15.987  2.4351 -2.0568 -0.3916
 1637SOL     OW16543   1.433   1.942  11.793 -0.3824 -0.1812  0.1155
 1637SOL    HW116544   1.354   1.993  11.805 -0.0543  0.8276 -1.9671
 1637SOL    HW216545   1.484   1.960  11.872 -0.7876 -1.1511  0.5991
 1638SOL     OW16546   2.205   0.739  14.381  0.0511 -0.8111  0.1595
 1638SOL    HW116547   2.119   0.712  14.351 -0.3810 -1.3086  1.8268
 1638SOL    HW216548   2.200   0.835  14.377  0.6583 -0.8475 -1.4663
 1639SOL     OW16549   0.042   0.600   9.946 -0.0165  0.4047 -0.5145
 1639SOL    HW116550   0.037   0.574   9.853 -0.5125  0.6954 -0.5697
 1639SOL    HW216551   0.133   0.594   9.974 -0.1703  0.9254  0.0966
 1640SOL     OW16552   4.312   1.158   6.843  0.4794 -0.6288 -0.5223
 1640SOL    HW116553   4.233   1.115   6.877 -0.1844  2.1399  1.4285
 1640SOL    HW216554   4.377   1.090   6.861  1.2939  0.5675  1.0155
 1641SOL     OW16555   1.014   0.033   4.589  0.0278  0.4834 -0.1370
 1641SOL    HW116556   0.989   4.678   4.607 -0.4277  0.8328  0.9908
 1641SOL    HW216557   0.968   0.047   4.506 -0.5699  0.2395  0.1542
 1642SOL     OW16558   3.514   4.054   4.216 -0.3866 -0.5736  0.0535
 1642SOL    HW116559   3.502   3.982   4.277  1.7374 -0.4887  0.5763
 1642SOL    HW216560   3.434   4.106   4.227  1.5128  2.3510  0.1727
 1643SOL     OW16561   1.181   3.634   3.553 -0.8771 -0.0618 -0.4082
 1643SOL    HW116562   1.241   3.560   3.552  0.2173  0.8825 -3.8320
 1643SOL    HW216563   1.132   3.628   3.470 -1.2433 -1.9691 -0.0569
 1644SOL     OW16564   0.188   3.114   5.970 -0.4414  0.0426 -0.0389
 1644SOL    HW116565   0.125   3.057   5.926 -0.2399  0.0191 -0.2968
 1644SOL    HW216566   0.265   3.086   5.919 -0.9263  0.5169 -1.0331
 1645SOL     OW16567   1.877   2.136   8.498 -0.1507  0.1905 -0.2797
 1645SOL    HW116568   1.940   2.118   8.428 -2.6699 -2.8935 -1.7544
 1645SOL    HW216569   1.941   2.183   8.551  1.0303 -1.8902  0.0954
 1646SOL     OW16570   3.721   3.909   3.724  0.3047  0.0899 -0.7961
 1646SOL    HW116571   3.717   3.930   3.817  0.2612  2.1653 -1.2587
 1646SOL    HW216572   3.813   3.925   3.707  0.4855 -0.2825 -0.1752
 1647SOL     OW16573   2.549   1.304  14.135 -0.1730 -0.9002  0.1983
 1647SOL    HW116574   2.632   1.351  14.144 -0.8697  0.3648  0.0427
 1647SOL    HW216575   2.548   1.271  14.225  0.2142  0.4258  0.6828
 1648SOL     OW16576   1.129   4.735   6.795  0.3688 -0.4023 -0.1800
 1648SOL    HW116577   1.105   4.697   6.879 -1.2397 -0.6917 -0.7863
 1648SOL    HW216578   1.194   4.671   6.768  1.5899  1.2250 -1.1237
 1649SOL     OW16579   1.260   4.142   6.355  0.6945  0.1701  0.1439
 1649SOL    HW116580   1.344   4.113   6.391  0.8030  0.0848 -0.1780
 1649SOL    HW216581   1.261   4.086   6.278  1.2517  0.1773  0.1451
 1650SOL     OW16582   1.102   0.028   7.218  0.2730  0.2215 -0.6353
 1650SOL    HW116583   1.118   0.121   7.238 -1.2529  0.1595  0.9142
 1650SOL    HW216584   1.042   0.007   7.290 -1.2260 -0.8551 -2.2052
 1651SOL     OW16585   3.966   4.393   7.632  0.0697 -0.2351 -1.3087
 1651SOL    HW116586   4.013   4.476   7.631 -2.7367  1.3809  0.6054
 1651SOL    HW216587   4.028   4.345   7.687 -1.1502 -1.9450 -1.4014
 1652SOL     OW16588   1.983   3.872   8.260 -0.1976  0.5998 -0.1931
 1652SOL    HW116589   1.953   3.858   8.170 -1.3374 -3.2659  0.7878
 1652SOL    HW216590   2.045   3.799   8.263 -0.4884  0.3688  0.1744
 1653SOL     OW16591   2.699   3.771  16.421 -0.4681 -0.0365 -0.4048
 1653SOL    HW116592   2.633   3.733  16.480 -0.3743  1.0113  0.3752
 1653SOL    HW216593   2.746   3.696  16.385  0.7918 -0.6076  2.4080
 1654SOL     OW16594   0.363   3.943   4.068  0.0411 -0.6843  0.0508
 1654SOL    HW116595   0.293   3.952   4.004 -0.8498  0.3829  1.1795
 1654SOL    HW216596   0.316   3.894   4.135  0.1299 -0.1916  0.4704
 1655SOL     OW16597   4.353   2.952  16.535  0.1794  1.1983  0.0557
 1655SOL    HW116598   4.429   2.985  16.487  0.2862 -0.7669 -1.1391
 1655SOL    HW216599   4.278   2.998  16.496  0.0299 -1.8366 -3.2800
 1656SOL     OW16600   1.461   2.193   6.156 -0.1692 -0.4506 -0.1071
 1656SOL    HW116601   1.532   2.240   6.201 -0.7398 -0.7654  1.1409
 1656SOL    HW216602   1.437   2.141   6.233 -1.3080 -0.2124 -0.3110
 1657SOL     OW16603   2.579   3.822   1.247 -0.0453 -0.8278 -0.4929
 1657SOL    HW116604   2.499   3.787   1.207  0.7178 -1.8933 -1.0885
 1657SOL    HW216605   2.636   3.747   1.232  0.7115 -0.4773  0.6469
 1658SOL     OW16606   3.408   0.838  15.772  0.5778  0.3376 -0.1420
 1658SOL    HW116607   3.333   0.857  15.716  0.1160  2.4969  1.1995
 1658SOL    HW216608   3.378   0.776  15.839 -0.5700 -0.1235 -1.0867
 1659SOL     OW16609   2.056   1.046   0.907  0.0785 -0.1591  0.1376
 1659SOL    HW116610   2.007   1.119   0.944  3.1488  1.8626  0.1724
 1659SOL    HW216611   2.144   1.076   0.928 -0.4698  1.4260  0.1409
 1660SOL     OW16612   0.316   2.312   8.700  0.3607  0.1200 -0.6876
 1660SOL    HW116613   0.241   2.333   8.643 -0.3628 -1.0497 -0.1866
 1660SOL    HW216614   0.269   2.278   8.776  0.0850 -0.1078 -0.9515
 1661SOL     OW16615   4.158   2.922   3.159  0.0373 -0.5015 -0.0194
 1661SOL    HW116616   4.160   2.827   3.168  0.4815 -0.6411 -1.5394
 1661SOL    HW216617   4.252   2.938   3.171  0.4102 -1.7129 -1.3614
 1662SOL     OW16618   1.877   1.634  10.322  0.3180  0.5475 -0.1125
 1662SOL    HW116619   1.962   1.646  10.364  0.8717 -0.6323 -0.9142
 1662SOL    HW216620   1.824   1.685  10.384  0.0859  1.4742 -1.0749
 1663SOL     OW16621   4.552   4.291   4.885  0.0021 -0.0787 -0.0602
 1663SOL    HW116622   4.520   4.336   4.807  1.6725 -1.4406 -1.5285
 1663SOL    HW216623   4.500   4.336   4.952  0.0820  0.4009 -0.3211
 1664SOL     OW16624   3.155   1.022   9.107  0.6107  0.3408  0.2264
 1664SOL    HW116625   3.153   0.971   9.026 -0.0533  1.0160 -0.1765
 1664SOL    HW216626   3.066   1.056   9.108  0.5251  0.1351 -0.9827
 1665SOL     OW16627   1.519   2.888   8.142 -0.3470  0.2384  0.4531
 1665SOL    HW116628   1.600   2.887   8.192 -0.3685 -1.5805  0.4433
 1665SOL    HW216629   1.473   2.831   8.203  0.9445 -0.8116  0.4455
 1666SOL     OW16630   3.372   4.091   2.124 -0.9264  0.4175  0.3720
 1666SOL    HW116631   3.354   4.182   2.100 -0.6251  0.2793 -0.3649
 1666SOL    HW216632   3.419   4.104   2.206 -0.0281  0.8396 -0.2083
 1667SOL     OW16633   0.338   0.845   3.789  0.3502  0.1786  0.3757
 1667SOL    HW116634   0.431   0.858   3.811  0.7211 -0.5021 -0.7822
 1667SOL    HW216635   0.348   0.767   3.734 -0.3102  0.4612 -0.1364
 1668SOL     OW16636   2.701   1.759  11.835 -0.0580 -0.0307  0.5029
 1668SOL    HW116637   2.692   1.706  11.756 -0.4669  0.0087  0.5259
 1668SOL    HW216638   2.688   1.686  11.896  0.9687  0.0273  0.7869
 1669SOL     OW16639   4.421   4.238   0.956 -0.0260 -0.1016 -0.1366
 1669SOL    HW116640   4.434   4.290   1.036 -0.7950  0.7057 -0.5318
 1669SOL    HW216641   4.499   4.266   0.908 -0.4910 -0.9951 -1.4128
 1670SOL     OW16642   2.126   2.176   6.098 -0.1531 -0.2766 -0.2674
 1670SOL    HW116643   2.050   2.190   6.154  1.2316  2.6690  0.8780
 1670SOL    HW216644   2.153   2.264   6.073 -1.8173  0.2254 -0.2879
 1671SOL     OW16645   2.636   0.111   4.213  0.0280  0.4028 -0.3065
 1671SOL    HW116646   2.568   0.060   4.259  0.9163 -1.1409 -0.6917
 1671SOL    HW216647   2.705   0.104   4.279 -0.0265 -1.3685 -0.4368
 1672SOL     OW16648   4.125   0.955   8.507  0.0865  0.2411 -0.0781
 1672SOL    HW116649   4.176   0.875   8.519 -1.0670 -0.2466  1.5749
 1672SOL    HW216650   4.186   1.018   8.546  0.4759 -0.5393  0.5747
 1673SOL     OW16651   4.072   2.403   6.271  0.0909 -0.1090 -0.1679
 1673SOL    HW116652   4.003   2.468   6.286  0.0635 -0.0121 -0.6946
 1673SOL    HW216653   4.121   2.419   6.352  0.8642 -1.5249 -0.3484
 1674SOL     OW16654   3.446   2.195   6.670 -0.4705 -0.1924  0.7788
 1674SOL    HW116655   3.470   2.237   6.587  0.5493 -0.4108  0.9633
 1674SOL    HW216656   3.514   2.128   6.673  0.1526  0.3563 -0.9883
 1675SOL     OW16657   3.751   1.168  16.560 -0.3540  0.8257 -0.3682
 1675SOL    HW116658   3.736   1.116  16.482 -3.3143  0.3868  0.5037
 1675SOL    HW216659   3.736   1.260  16.536  0.1879  1.1978  0.6967
 1676SOL     OW16660   2.980   2.539   7.370 -0.3465 -0.4057 -0.1668
 1676SOL    HW116661   3.056   2.495   7.407 -0.3646 -2.3972 -2.5184
 1676SOL    HW216662   2.983   2.624   7.415 -1.3187 -0.8351  0.7075
 1677SOL     OW16663   1.091   0.121   1.904  0.3053  0.0346 -0.3055
 1677SOL    HW116664   1.133   0.205   1.922 -1.2518  0.5807  0.7837
 1677SOL    HW216665   1.053   0.139   1.818 -0.2917  0.4922  0.0490
 1678SOL     OW16666   0.944   3.747   1.260 -0.1026  0.2352  0.0618
 1678SOL    HW116667   0.970   3.681   1.195  1.6299  2.2997 -1.3507
 1678SOL    HW216668   1.019   3.762   1.316 -0.1260  0.6919 -0.0287
 1679SOL     OW16669   1.446   2.930  14.290  0.1814  0.0534 -0.1963
 1679SOL    HW116670   1.464   2.836  14.289  0.5778  0.1310 -0.9330
 1679SOL    HW216671   1.502   2.960  14.218  0.1711 -2.6724 -1.3270
 1680SOL     OW16672   3.201   3.915  15.350  0.0827 -0.3687  0.5092
 1680SOL    HW116673   3.180   3.937  15.260  2.5172 -0.4108 -0.0549
 1680SOL    HW216674   3.213   3.820  15.340  1.4998 -0.1149 -0.1676
 1681SOL     OW16675   4.079   0.428   0.972 -1.1955  0.2218  0.3693
 1681SOL    HW116676   4.101   0.459   0.884  2.0886  1.1457  1.4937
 1681SOL    HW216677   4.131   0.347   0.971 -0.2661  0.8092  1.8465
 1682SOL     OW16678   1.186   3.755   1.439 -0.4932  0.1542  0.1953
 1682SOL    HW116679   1.120   3.758   1.508  1.8309  1.7134  2.3351
 1682SOL    HW216680   1.258   3.802   1.480 -2.1782  3.4155 -0.6021
 1683SOL     OW16681   2.163   4.298   0.191  0.0630  0.0723  0.0077
 1683SOL    HW116682   2.110   4.233   0.237  0.7246 -0.1928  0.3918
 1683SOL    HW216683   2.251   4.265   0.209 -0.5380 -0.5599  1.7665
 1684SOL     OW16684   4.336   1.757   8.913  0.5077 -0.1285 -0.3385
 1684SOL    HW116685   4.429   1.773   8.930  0.4537  1.7770 -1.7452
 1684SOL    HW216686   4.301   1.846   8.923  1.3033  0.2686 -1.0181
 1685SOL     OW16687   2.152   1.796   8.119 -0.4848 -0.0782  0.3501
 1685SOL    HW116688   2.126   1.704   8.123 -1.3635  0.2069  1.2834
 1685SOL    HW216689   2.105   1.829   8.195 -1.7144 -2.2462  0.5203
 1686SOL     OW16690   1.578   3.406  10.816  0.0734 -0.4597 -0.5341
 1686SOL    HW116691   1.597   3.473  10.882 -1.4552 -1.8992  1.3511
 1686SOL    HW216692   1.512   3.354  10.862  1.3590 -1.2216  0.4596
 1687SOL     OW16693   1.024   0.143  10.170 -0.0546  0.3913  0.6176
 1687SOL    HW116694   1.101   0.199  10.180  0.3458 -0.5133  2.7658
 1687SOL    HW216695   0.987   0.178  10.089 -0.5995  0.5951  0.9496
 1688SOL     OW16696   1.113   4.680   9.335 -0.6535 -0.1534 -0.0016
 1688SOL    HW116697   1.179   4.728   9.384 -0.8881 -1.0881  1.2388
 1688SOL    HW216698   1.085   0.003   9.265  2.9557  1.1185 -0.3526
 1689SOL     OW16699   0.040   3.217  17.034 -1.0875  0.6750  0.2163
 1689SOL    HW116700   4.702   3.235  17.093 -1.1279 -0.1347  0.4143
 1689SOL    HW216701   0.096   3.159  17.086 -0.7729  0.4152 -0.4139
 1690SOL     OW16702   1.625   2.711   5.113 -0.2595 -0.0321  0.0605
 1690SOL    HW116703   1.665   2.625   5.102 -1.5153 -0.8428  1.7797
 1690SOL    HW216704   1.560   2.717   5.042 -0.3371  2.0935  0.3309
 1691SOL     OW16705   0.414   1.805   6.990 -0.1822 -0.6697  0.5547
 1691SOL    HW116706   0.475   1.877   6.997  0.1944 -0.9525  0.1873
 1691SOL    HW216707   0.480   1.735   6.987  1.3787  0.8599 -0.4062
 1692SOL     OW16708   0.382   4.257   8.174  0.4313  0.4558 -0.5370
 1692SOL    HW116709   0.381   4.182   8.233 -2.0486  0.3144 -0.7767
 1692SOL    HW216710   0.400   4.327   8.238 -1.0681 -0.1243  0.5231
 1693SOL     OW16711   3.520   1.036   0.712 -0.3850 -0.3710  0.1727
 1693SOL    HW116712   3.605   1.022   0.753 -0.6440 -2.0583  0.1142
 1693SOL    HW216713   3.546   1.059   0.623 -1.7800  2.4880  0.5002
 1694SOL     OW16714   4.364   1.708   2.971  0.4146  0.9607 -0.1151
 1694SOL    HW116715   4.434   1.773   2.966 -0.1473  1.7514  2.3033
 1694SOL    HW216716   4.321   1.734   2.890 -0.9669 -2.8034 -0.5978
 1695SOL     OW16717   0.299   0.423   1.673  0.3476 -0.4613 -0.7542
 1695SOL    HW116718   0.238   0.495   1.658  0.3966 -0.3817 -0.5736
 1695SOL    HW216719   0.343   0.455   1.752 -1.0971  1.6890 -0.8096
 1696SOL     OW16720   4.130   1.366   5.004  0.0395  0.2463 -0.0452
 1696SOL    HW116721   4.194   1.326   5.063 -0.7066 -1.1978 -0.2190
 1696SOL    HW216722   4.051   1.352   5.057 -0.6273  1.6859 -0.6485
 1697SOL     OW16723   0.832   4.650  15.149  0.2529 -0.3972  0.0172
 1697SOL    HW116724   0.741   4.678  15.138  0.3355 -0.7773 -1.6325
 1697SOL    HW216725   0.869   4.700  15.076 -1.8834 -0.6345 -1.2300
 1698SOL     OW16726   0.959   2.712   1.828 -0.7302  0.2199 -0.1426
 1698SOL    HW116727   0.927   2.688   1.914  1.6755 -0.4398  0.5603
 1698SOL    HW216728   1.024   2.780   1.845  0.2751 -1.8472  4.1590
 1699SOL     OW16729   2.919   3.855   2.887  0.6025  0.5293 -0.6846
 1699SOL    HW116730   2.948   3.909   2.960  0.7717  0.9893 -1.0931
 1699SOL    HW216731   2.941   3.916   2.816 -0.8357  0.5946 -1.0759
 1700SOL     OW16732   2.748   4.627   5.627 -0.1001 -0.2468  0.1839
 1700SOL    HW116733   2.827   4.652   5.675  0.2848 -2.1194  0.5414
 1700SOL    HW216734   2.722   4.552   5.681 -1.1035  1.0258  1.4281
 1701SOL     OW16735   0.366   3.311   6.663 -0.1541 -0.3219  0.2847
 1701SOL    HW116736   0.354   3.222   6.631 -2.6928 -0.1684  0.7492
 1701SOL    HW216737   0.283   3.315   6.710 -0.0076 -2.1404  0.6683
 1702SOL     OW16738   2.806   1.115   9.969  0.6095 -0.1716 -0.2783
 1702SOL    HW116739   2.793   1.059  10.046  0.9623  0.7485  0.4490
 1702SOL    HW216740   2.719   1.112   9.928  0.5752 -2.0217 -0.0551
 1703SOL     OW16741   0.295   0.982   2.906 -0.1035 -0.1865 -0.1753
 1703SOL    HW116742   0.269   0.951   2.819  2.4976  0.0902 -1.0435
 1703SOL    HW216743   0.209   1.015   2.933 -0.7947 -3.9250  2.2457
 1704SOL     OW16744   1.227   2.170  11.276  0.0635 -0.1319  0.0878
 1704SOL    HW116745   1.308   2.194  11.232 -1.0036  1.8119 -0.7794
 1704SOL    HW216746   1.261   2.130  11.356  0.4499  1.4354  0.7014
 1705SOL     OW16747   2.071   2.221   9.176  0.0128  0.1556  0.4850
 1705SOL    HW116748   2.097   2.175   9.255  2.6078  0.1074 -0.4078
 1705SOL    HW216749   2.020   2.151   9.135 -1.5646  0.5312  1.7627
 1706SOL     OW16750   4.009   1.849  17.600 -0.4811 -0.2109  0.2377
 1706SOL    HW116751   3.966   1.930  17.573  2.0072  0.5597 -1.3096
 1706SOL    HW216752   3.946   1.778  17.584  2.3183 -2.2595 -1.6142
 1707SOL     OW16753   3.285   4.592   6.735 -0.0426 -0.0082 -0.4405
 1707SOL    HW116754   3.318   4.668   6.784  0.2977  0.0919 -0.8232
 1707SOL    HW216755   3.201   4.576   6.777  0.4554 -0.7510  0.2724
 1708SOL     OW16756   1.134   3.112  11.986  0.2932 -0.0211  0.0969
 1708SOL    HW116757   1.096   3.157  12.061  2.3902 -2.2559  2.4568
 1708SOL    HW216758   1.130   3.176  11.914 -2.3401  0.2503  0.4912
 1709SOL     OW16759   3.890   2.370   4.815  0.2216 -0.5372 -0.8221
 1709SOL    HW116760   3.968   2.417   4.844 -0.2699  0.3015 -0.8375
 1709SOL    HW216761   3.894   2.376   4.719  1.2527  0.4004 -0.7242
 1710SOL     OW16762   4.261   4.465  12.238 -0.2352 -0.2945 -0.4960
 1710SOL    HW116763   4.259   4.559  12.255 -1.2934 -0.4697  0.3668
 1710SOL    HW216764   4.300   4.459  12.150 -2.1602 -1.0096 -1.3071
 1711SOL     OW16765   3.073   4.475   4.335 -0.3428 -0.8173 -0.1992
 1711SOL    HW116766   3.043   4.445   4.250  0.4887 -0.7341 -0.5177
 1711SOL    HW216767   3.000   4.535   4.352  0.9887  0.7383  0.1004
 1712SOL     OW16768   4.347   3.200   7.845 -0.1332 -0.0255  0.4548
 1712SOL    HW116769   4.423   3.240   7.886 -0.3038  0.2487  0.5035
 1712SOL    HW216770   4.391   3.178   7.763 -0.9491 -0.6631  0.1866
 1713SOL     OW16771   2.745   3.257  11.588  0.3211  0.0057 -0.1279
 1713SOL    HW116772   2.737   3.218  11.500 -2.4131 -0.4908  0.3446
 1713SOL    HW216773   2.833   3.227  11.613  0.1532  1.1578  1.7843
 1714SOL     OW16774   2.684   4.515   0.240  0.1534 -1.0565  0.1389
 1714SOL    HW116775   2.643   4.551   0.319  2.7732  1.2610  0.4536
 1714SOL    HW216776   2.611   4.462   0.209  0.3201 -0.1546 -1.7959
 1715SOL     OW16777   0.645   0.591   8.471 -0.0154  0.6662 -0.2639
 1715SOL    HW116778   0.634   0.669   8.417 -0.7225  0.9783  0.3350
 1715SOL    HW216779   0.643   0.626   8.561 -0.6467  1.6887 -0.6776
 1716SOL     OW16780   4.304   3.473  15.969  0.3385  0.0199 -0.7815
 1716SOL    HW116781   4.366   3.509  16.033  0.4409 -2.1077  0.3179
 1716SOL    HW216782   4.323   3.529  15.894  0.4175 -1.1353 -1.6189
 1717SOL     OW16783   4.368   2.987   6.603  0.4300 -0.3958 -0.3160
 1717SOL    HW116784   4.291   2.965   6.654  0.9222 -0.0802  0.5712
 1717SOL    HW216785   4.360   3.083   6.602 -0.3791 -0.4695 -0.5459
 1718SOL     OW16786   4.717   1.846   3.193 -0.0699 -0.2935 -0.0752
 1718SOL    HW116787   0.057   1.853   3.136 -0.8382  0.4823 -0.9954
 1718SOL    HW216788   4.666   1.926   3.178 -2.1786 -1.3260  1.4037
 1719SOL     OW16789   0.026   1.760   4.992 -0.1794  0.6723  0.3085
 1719SOL    HW116790   4.727   1.835   4.944  0.8733  0.3463 -0.9878
 1719SOL    HW216791   0.114   1.785   5.021  0.4902 -0.5193 -0.6914
 1720SOL     OW16792   1.057   0.242   8.426 -0.1252  0.2719  0.3794
 1720SOL    HW116793   1.051   0.312   8.491  3.0667 -1.1132  2.1567
 1720SOL    HW216794   1.147   0.222   8.450 -0.5503  0.3017  2.0249
 1721SOL     OW16795   2.073   3.294  13.340 -0.0094 -0.1535 -0.3435
 1721SOL    HW116796   2.159   3.282  13.380 -0.4163 -3.1854 -0.3277
 1721SOL    HW216797   2.036   3.206  13.349  1.7806 -1.0496 -1.9065
 1722SOL     OW16798   3.162   0.174   6.801  0.0149  0.2248 -0.0306
 1722SOL    HW116799   3.248   0.140   6.827 -0.4935 -0.0223  1.3461
 1722SOL    HW216800   3.107   0.150   6.875 -0.3403  0.3266 -0.2654
 1723SOL     OW16801   0.573   1.728   3.665 -0.3361 -0.1005 -0.0536
 1723SOL    HW116802   0.497   1.671   3.654 -1.0088  0.7546  0.1129
 1723SOL    HW216803   0.640   1.670   3.629 -1.1914 -1.3555  0.3709
 1724SOL     OW16804   4.163   1.797   3.355  0.3528 -0.1985  0.0009
 1724SOL    HW116805   4.186   1.709   3.324 -1.1931 -0.1287 -1.3744
 1724SOL    HW216806   4.243   1.842   3.328 -1.3474  2.2525 -0.9386
 1725SOL     OW16807   4.402   1.837   0.081 -0.0999  0.2773  0.3105
 1725SOL    HW116808   4.412   1.807   0.172  0.6776  0.5470  0.3174
 1725SOL    HW216809   4.306   1.838   0.074  0.0138  1.9099 -0.8881
 1726SOL     OW16810   0.710   0.236  11.389 -0.5259 -0.3416  0.6409
 1726SOL    HW116811   0.650   0.188  11.446  0.2149 -0.7668  1.0568
 1726SOL    HW216812   0.647   0.295  11.347 -2.3550 -3.0321 -0.4371
 1727SOL     OW16813   1.495   1.094   0.530  0.8603  0.5719 -0.1801
 1727SOL    HW116814   1.532   1.180   0.550  0.4905  0.9647 -1.1605
 1727SOL    HW216815   1.458   1.065   0.613 -0.4072  2.3277 -0.1186
 1728SOL     OW16816   2.685   1.364   2.228 -0.1138 -0.3401  0.3682
 1728SOL    HW116817   2.630   1.437   2.256 -1.1046 -0.7874 -0.4300
 1728SOL    HW216818   2.772   1.403   2.239 -1.0082  0.4333  4.4345
 1729SOL     OW16819   0.849   2.371  12.879  0.6095  0.3161  0.1279
 1729SOL    HW116820   0.910   2.301  12.856 -0.3416 -0.4822  0.0024
 1729SOL    HW216821   0.802   2.385  12.797  0.4169 -2.2887 -0.2305
 1730SOL     OW16822   4.634   0.403  15.312 -0.1599 -0.3331 -0.5254
 1730SOL    HW116823   4.594   0.410  15.398 -0.3119  0.1419 -0.6346
 1730SOL    HW216824   4.727   0.423  15.324  0.1649 -1.4795 -1.1970
 1731SOL     OW16825   3.356   2.657   5.638  0.1329 -0.0925 -0.0712
 1731SOL    HW116826   3.449   2.632   5.635 -0.0584 -0.8933  0.7592
 1731SOL    HW216827   3.345   2.667   5.732  2.3352  3.5572 -0.1870
 1732SOL     OW16828   1.658   1.298   2.175 -0.0986  0.4884  0.4251
 1732SOL    HW116829   1.684   1.304   2.083 -0.5022 -0.9673  0.2212
 1732SOL    HW216830   1.739   1.321   2.222  0.7086 -0.4183 -0.5173
 1733SOL     OW16831   4.458   1.517   3.556 -0.1030  0.2837  0.1728
 1733SOL    HW116832   4.459   1.612   3.570  0.4610  0.5481 -1.6808
 1733SOL    HW216833   4.370   1.503   3.522  0.1199 -0.6297 -0.0108
 1734SOL     OW16834   0.243   0.168   5.660 -0.5614 -0.1029 -0.1853
 1734SOL    HW116835   0.167   0.185   5.716 -1.2525 -0.4903 -0.9920
 1734SOL    HW216836   0.266   0.078   5.682 -0.8838 -0.1276  0.0422
 1735SOL     OW16837   2.051   3.792   1.338 -0.1614 -0.0678 -0.6054
 1735SOL    HW116838   1.973   3.835   1.302 -0.9889  0.1548  1.4108
 1735SOL    HW216839   2.099   3.780   1.257 -0.1184  0.9826 -0.7355
 1736SOL     OW16840   2.898   4.012   4.448  0.0853 -0.2843 -0.2480
 1736SOL    HW116841   2.920   4.046   4.361  0.4551  0.6684  0.2235
 1736SOL    HW216842   2.981   3.970   4.471  1.0194  1.3738 -0.6107
 1737SOL     OW16843   2.350   3.445  13.102  0.8764 -0.4402 -0.2969
 1737SOL    HW116844   2.348   3.540  13.094 -0.1618 -0.6602 -2.6069
 1737SOL    HW216845   2.432   3.438  13.153  0.1668 -0.8621  0.8027
 1738SOL     OW16846   2.215   3.820   3.182  0.3007 -0.2435  0.2847
 1738SOL    HW116847   2.241   3.768   3.259  3.9496 -0.1897 -0.8808
 1738SOL    HW216848   2.190   3.754   3.118 -0.8721  2.3347 -1.8918
 1739SOL     OW16849   1.940   2.217   8.173  1.1589 -0.0677  0.0340
 1739SOL    HW116850   2.015   2.180   8.220 -0.1668 -1.5504  0.9901
 1739SOL    HW216851   1.939   2.153   8.102 -0.1257  2.0378 -1.8408
 1740SOL     OW16852   3.106   0.419   7.383 -0.0405 -0.2551  0.3314
 1740SOL    HW116853   3.189   0.460   7.358 -0.4837 -0.3080 -1.2445
 1740SOL    HW216854   3.061   0.498   7.414  0.3253  0.2303 -0.3802
 1741SOL     OW16855   3.526   2.647   7.334  0.3038 -0.3199 -0.4264
 1741SOL    HW116856   3.449   2.612   7.291 -0.5935  0.8094  0.2590
 1741SOL    HW216857   3.596   2.617   7.275 -0.4939 -1.8456 -0.5818
 1742SOL     OW16858   0.996   0.594   3.309 -0.4965 -0.0066  0.4440
 1742SOL    HW116859   0.905   0.615   3.290 -0.4324  0.9140  1.1208
 1742SOL    HW216860   0.994   0.507   3.348  1.1491 -0.8310 -1.3147
 1743SOL     OW16861   1.461   1.613   2.612  0.2678  0.2093  0.2643
 1743SOL    HW116862   1.368   1.608   2.593  0.5385 -0.0021 -0.9975
 1743SOL    HW216863   1.461   1.631   2.706  4.9517 -2.5844  0.8040
 1744SOL     OW16864   2.830   1.924   9.083 -0.2556  0.2088 -0.6097
 1744SOL    HW116865   2.819   1.841   9.130 -2.6631  0.8510 -0.0319
 1744SOL    HW216866   2.912   1.914   9.035 -1.7239 -0.5538 -2.9257
 1745SOL     OW16867   3.178   0.544  15.720  0.3037 -0.0019 -0.6787
 1745SOL    HW116868   3.179   0.511  15.810 -2.9215  0.3206 -0.5212
 1745SOL    HW216869   3.135   0.627  15.742  0.9516  0.7872 -2.4133
 1746SOL     OW16870   4.032   1.630   8.526  0.2549  0.1748  0.2631
 1746SOL    HW116871   4.107   1.617   8.584 -0.7120 -1.2774  1.1808
 1746SOL    HW216872   3.971   1.688   8.571  1.9696  0.6564  1.9804
 1747SOL     OW16873   1.303   4.695   5.894 -0.2873 -0.0296  0.1103
 1747SOL    HW116874   1.354   0.011   5.831  0.2306  0.2012  0.7273
 1747SOL    HW216875   1.358   4.619   5.877  0.4603  0.7347 -0.9546
 1748SOL     OW16876   1.766   0.878  13.179  0.3783  0.4223 -0.4007
 1748SOL    HW116877   1.843   0.922  13.216 -0.7126  0.7333  1.4447
 1748SOL    HW216878   1.753   0.929  13.099  0.0528  1.1407  0.1113
 1749SOL     OW16879   2.783   0.049  13.937 -0.2170 -0.2714 -0.0064
 1749SOL    HW116880   2.844   0.068  14.008 -1.4008  0.6598  0.7719
 1749SOL    HW216881   2.835   4.714  13.900  0.1719  1.1008 -2.0635
 1750SOL     OW16882   4.425   0.077   5.267  0.2017 -0.0660  0.2102
 1750SOL    HW116883   4.401   0.113   5.352 -0.0056  0.1424  0.0614
 1750SOL    HW216884   4.435   4.719   5.285  2.1530 -0.0651 -0.8013
 1751SOL     OW16885   0.452   4.147   3.725  0.3144  0.0483  0.3442
 1751SOL    HW116886   0.494   4.062   3.736  0.7156 -0.1253 -2.5302
 1751SOL    HW216887   0.517   4.207   3.761 -0.0769  1.1215 -0.7404
 1752SOL     OW16888   0.266   2.848   3.884 -0.4183 -0.4001 -0.2562
 1752SOL    HW116889   0.253   2.935   3.923 -0.7447  0.5561 -2.4804
 1752SOL    HW216890   0.350   2.862   3.842 -0.1661  0.8141  0.6444
 1753SOL     OW16891   2.963   4.440  16.351 -0.5127 -0.8083 -0.0798
 1753SOL    HW116892   2.891   4.464  16.293 -0.5141  2.7103  1.3786
 1753SOL    HW216893   2.968   4.345  16.340  2.4368 -0.7248  0.4175
 1754SOL     OW16894   2.314   0.386   5.359 -0.4120 -0.3260 -0.3965
 1754SOL    HW116895   2.406   0.413   5.360  0.0918 -2.0937 -0.0379
 1754SOL    HW216896   2.319   0.291   5.351  3.6008 -0.1078 -0.6907
 1755SOL     OW16897   4.680   3.483   6.904 -0.0030 -0.1907 -0.5950
 1755SOL    HW116898   4.656   3.564   6.857 -1.7638  0.0542  0.7382
 1755SOL    HW216899   4.719   3.530   6.978 -1.4909 -0.1947  0.1869
 1756SOL     OW16900   4.252   2.343   0.816  0.0379  0.2473  0.1324
 1756SOL    HW116901   4.263   2.264   0.763  4.9070  2.8806 -2.8271
 1756SOL    HW216902   4.246   2.305   0.904  3.6330  1.2882  0.8203
 1757SOL     OW16903   2.196   3.787   2.671 -0.3807  0.1107 -0.2659
 1757SOL    HW116904   2.134   3.739   2.615 -0.7917 -0.9107  1.0584
 1757SOL    HW216905   2.225   3.854   2.609  2.1540 -0.6765  0.0422
 1758SOL     OW16906   0.527   4.736   7.610 -0.0813 -0.5927 -0.1429
 1758SOL    HW116907   0.515   0.094   7.623 -0.6178 -0.6091 -0.4713
 1758SOL    HW216908   0.561   4.722   7.698  1.3532 -0.8722 -0.7463
 1759SOL     OW16909   0.245   4.652   5.991 -0.3126  0.3829  0.0868
 1759SOL    HW116910   0.334   4.629   5.963 -0.4120 -0.5604  0.5243
 1759SOL    HW216911   0.213   4.688   5.909 -1.2706  0.4023  0.4712
 1760SOL     OW16912   1.827   2.173   9.654 -0.0570 -0.3700 -0.0396
 1760SOL    HW116913   1.762   2.172   9.584  0.9052 -1.3409 -0.9116
 1760SOL    HW216914   1.822   2.082   9.683 -0.4929 -0.2200  0.3602
 1761SOL     OW16915   1.140   4.373   6.289 -0.3489 -0.7134 -0.2735
 1761SOL    HW116916   1.131   4.383   6.384 -2.0137 -0.0925 -0.4859
 1761SOL    HW216917   1.189   4.291   6.292 -1.2568 -1.2925 -1.1640
 1762SOL     OW16918   3.953   1.899   8.159 -0.1713 -0.3502  0.0988
 1762SOL    HW116919   3.950   1.855   8.075 -1.2516 -1.3531  0.6691
 1762SOL    HW216920   3.862   1.893   8.186 -0.0573 -0.9249  0.3611
 1763SOL     OW16921   4.355   2.008   6.699  0.2118  0.6478  0.0761
 1763SOL    HW116922   4.320   1.962   6.622 -0.4035  1.3228 -0.0589
 1763SOL    HW216923   4.429   1.953   6.724 -0.9632 -1.1903 -0.4795
 1764SOL     OW16924   2.584   3.069   0.079  0.2762  0.3124  0.4438
 1764SOL    HW116925   2.543   3.058   0.165  0.2465 -0.3337  0.3443
 1764SOL    HW216926   2.505   3.108   0.041 -0.8310 -3.4569 -1.1340
 1765SOL     OW16927   1.539   0.538   2.177  0.2086  1.0553  0.2629
 1765SOL    HW116928   1.502   0.627   2.182 -1.0251  0.4915  1.0643
 1765SOL    HW216929   1.579   0.538   2.090  1.3451  1.2160  0.7871
 1766SOL     OW16930   2.709   0.154   2.314 -0.5761  0.1771 -0.4638
 1766SOL    HW116931   2.726   0.110   2.230  3.5972 -0.0751  0.5316
 1766SOL    HW216932   2.661   0.086   2.362 -0.3272  1.5573  1.7074
 1767SOL     OW16933   4.443   2.324  12.310  0.4061 -0.5184  0.0377
 1767SOL    HW116934   4.467   2.416  12.321 -0.9467 -0.1152 -0.3999
 1767SOL    HW216935   4.364   2.331  12.257  0.3180 -0.0043  0.2346
 1768SOL     OW16936   1.294   2.972   5.176  0.1275  0.4640 -0.4334
 1768SOL    HW116937   1.330   2.903   5.231  1.1675  1.3419 -0.0000
 1768SOL    HW216938   1.325   3.047   5.228  0.9040  0.3122 -0.6751
 1769SOL     OW16939   1.285   0.379   3.333 -0.2223  0.4525  0.1172
 1769SOL    HW116940   1.301   0.355   3.424 -0.0760 -2.6604 -0.7390
 1769SOL    HW216941   1.191   0.385   3.349 -0.4255 -1.6597 -0.3415
 1770SOL     OW16942   0.681   3.392   2.123 -0.2472  0.7058  0.0127
 1770SOL    HW116943   0.610   3.442   2.084 -0.2151 -2.1708 -3.6932
 1770SOL    HW216944   0.647   3.380   2.212  1.0658 -1.9259  0.1596
 1771SOL     OW16945   1.031   2.067   3.062 -0.2179  0.8952  0.1737
 1771SOL    HW116946   1.033   2.162   3.070  1.4966  0.8253  0.5628
 1771SOL    HW216947   1.121   2.038   3.079  1.0008  3.3156 -2.1266
 1772SOL     OW16948   0.367   0.966   5.533 -0.0445  0.1002  0.0883
 1772SOL    HW116949   0.334   0.975   5.444 -2.6307  0.8292  1.1174
 1772SOL    HW216950   0.431   1.036   5.546 -0.4318  0.6113 -0.8158
 1773SOL     OW16951   2.323   1.897   2.644  0.3572 -0.1673  0.3705
 1773SOL    HW116952   2.325   1.988   2.674 -2.2402 -0.6478  1.9537
 1773SOL    HW216953   2.344   1.853   2.726  1.4674 -0.2309  0.0587
 1774SOL     OW16954   1.213   0.435   1.634 -0.4506 -0.1126 -0.0272
 1774SOL    HW116955   1.258   0.359   1.597  3.3867  1.7981  0.8370
 1774SOL    HW216956   1.246   0.503   1.575  1.2969  0.4527  1.6182
 1775SOL     OW16957   2.150   1.594   2.612 -0.3251 -0.1233 -0.4873
 1775SOL    HW116958   2.159   1.502   2.640  3.1123  0.5347  0.5124
 1775SOL    HW216959   2.095   1.626   2.684  0.5877  1.2197 -0.3910
 1776SOL     OW16960   1.327   2.840  16.828 -0.4606 -0.1499 -0.1165
 1776SOL    HW116961   1.340   2.916  16.772 -0.3213 -0.9709 -1.1855
 1776SOL    HW216962   1.408   2.851  16.879 -2.3019  1.7090  2.4040
 1777SOL     OW16963   1.846   4.401   4.853  0.2905  0.7813  0.0193
 1777SOL    HW116964   1.924   4.398   4.908 -0.8759 -0.4549  1.5933
 1777SOL    HW216965   1.863   4.467   4.785 -0.2991 -0.0116 -0.8870
 1778SOL     OW16966   0.286   3.477  11.645 -0.0787 -0.6273 -0.0935
 1778SOL    HW116967   0.258   3.492  11.555 -1.3557  0.0210  0.4105
 1778SOL    HW216968   0.253   3.391  11.672 -2.4673  0.7871  1.5439
 1779SOL     OW16969   4.421   3.026   9.631 -0.0195 -0.1981  0.3210
 1779SOL    HW116970   4.407   3.092   9.564  1.2216 -0.3067 -0.0452
 1779SOL    HW216971   4.503   3.059   9.668  0.5646 -0.2613 -0.9208
 1780SOL     OW16972   3.614   0.469   4.087 -0.3835 -0.5595  0.0780
 1780SOL    HW116973   3.547   0.505   4.029 -1.0329  0.4769  1.4524
 1780SOL    HW216974   3.580   0.463   4.177  1.3224  0.0632  0.7671
 1781SOL     OW16975   2.394   3.238   6.978  0.5506 -0.2314 -0.0427
 1781SOL    HW116976   2.322   3.176   6.976 -0.6396  1.2049 -1.4607
 1781SOL    HW216977   2.442   3.228   6.896 -0.3130 -1.2920 -0.4059
 1782SOL     OW16978   1.836   0.235   6.135 -0.2212 -0.2958  0.1697
 1782SOL    HW116979   1.918   0.276   6.108  0.0585  0.6396  2.3941
 1782SOL    HW216980   1.816   0.206   6.046 -0.8675  1.7932 -0.3659
 1783SOL     OW16981   0.930   3.719  14.369  0.0650 -0.6050  0.1534
 1783SOL    HW116982   0.990   3.752  14.302 -0.6648  0.3316 -0.0442
 1783SOL    HW216983   0.984   3.659  14.420 -0.8152 -1.4143  0.1321
 1784SOL     OW16984   3.738   1.907  12.899 -0.6951  0.1117  0.0806
 1784SOL    HW116985   3.741   1.825  12.948 -1.4742  0.5111  0.8000
 1784SOL    HW216986   3.673   1.893  12.830 -0.8865  0.5613  0.1715
 1785SOL     OW16987   3.517   2.202   1.734 -0.1379 -0.1480  0.0596
 1785SOL    HW116988   3.587   2.181   1.671  0.1455  2.7796 -0.6084
 1785SOL    HW216989   3.488   2.119   1.772  2.8911 -0.2457  2.1584
 1786SOL     OW16990   1.848   3.404   6.078 -0.2370  0.0720  0.4311
 1786SOL    HW116991   1.808   3.331   6.030  1.0544 -0.0368 -0.4592
 1786SOL    HW216992   1.766   3.445   6.107 -1.7367 -0.6398 -2.8423
 1787SOL     OW16993   1.821   1.737   8.904  0.0804 -0.5021 -0.0701
 1787SOL    HW116994   1.752   1.802   8.918 -0.4169 -0.9844 -0.2710
 1787SOL    HW216995   1.764   1.670   8.867 -1.2351 -1.9286  4.4559
 1788SOL     OW16996   1.576   1.016   8.625  0.5471 -0.4568 -0.7567
 1788SOL    HW116997   1.611   1.094   8.668 -1.1403  0.9615 -1.9703
 1788SOL    HW216998   1.647   0.952   8.626  1.6938  0.8320  0.5691
 1789SOL     OW16999   4.307   0.979  13.784 -0.2713 -0.3107  0.4249
 1789SOL    HW117000   4.272   0.924  13.854 -0.2643 -0.2869  0.4474
 1789SOL    HW217001   4.224   1.020  13.762  1.1707  1.4643 -1.7624
 1790SOL     OW17002   3.200   0.761   8.092  0.1868 -0.5712 -0.1921
 1790SOL    HW117003   3.261   0.770   8.018  0.0970 -2.2864 -0.4567
 1790SOL    HW217004   3.256   0.784   8.166  0.8704 -1.4752 -0.4374
 1791SOL     OW17005   2.269   0.479   4.959 -0.3825 -0.1578 -0.3623
 1791SOL    HW117006   2.265   0.567   4.922  3.3987  0.3372  0.3877
 1791SOL    HW217007   2.181   0.441   4.952 -1.0856  0.7864  3.3356
 1792SOL     OW17008   3.154   1.019   4.664  0.2637 -0.0198 -0.1300
 1792SOL    HW117009   3.239   0.975   4.655  1.5172  2.8139 -2.1542
 1792SOL    HW217010   3.168   1.080   4.736  0.3477 -0.8654  0.5615
 1793SOL     OW17011   1.560   3.494   2.860 -0.1574 -0.3188  0.0530
 1793SOL    HW117012   1.557   3.545   2.780 -0.2235  0.5151  0.5884
 1793SOL    HW217013   1.641   3.532   2.894 -0.4211 -0.2129  0.5661
 1794SOL     OW17014   3.514   2.890   4.690 -0.1241 -0.1306  0.1172
 1794SOL    HW117015   3.601   2.851   4.680 -0.8063 -1.3827 -0.9979
 1794SOL    HW217016   3.478   2.850   4.770  0.3820  0.4171  0.6174
 1795SOL     OW17017   2.471   2.677   2.716  0.8761 -0.6255 -0.0076
 1795SOL    HW117018   2.409   2.662   2.644 -1.0495 -1.0819  1.7297
 1795SOL    HW217019   2.524   2.598   2.702  0.6766 -0.3107 -2.5761
 1796SOL     OW17020   3.521   0.712   6.833 -0.1677 -0.0711 -0.5752
 1796SOL    HW117021   3.458   0.772   6.872  0.3750  0.4425 -0.4819
 1796SOL    HW217022   3.486   0.707   6.744 -1.1760 -0.9534 -0.1305
 1797SOL     OW17023   2.265   4.685  17.136 -0.4107 -0.4080  0.1420
 1797SOL    HW117024   2.247   4.713  17.226 -0.6686 -1.0128  0.2755
 1797SOL    HW217025   2.288   4.597  17.163 -2.5515 -1.8305 -2.7084
 1798SOL     OW17026   1.914   3.663   4.435 -0.3496  0.1507 -0.1495
 1798SOL    HW117027   1.838   3.671   4.377 -0.2981  0.2209 -0.2072
 1798SOL    HW217028   1.895   3.586   4.489 -0.8041 -0.4524 -1.1586
 1799SOL     OW17029   0.781   2.808   9.089  0.6252 -0.4445 -0.2717
 1799SOL    HW117030   0.718   2.834   9.157  2.1192 -0.5320  1.1357
 1799SOL    HW217031   0.756   2.862   9.014  0.8307  0.6920  0.4738
 1800SOL     OW17032   4.079   1.915  15.441  0.4532  0.1426 -0.3836
 1800SOL    HW117033   4.110   1.829  15.415  1.9471  0.1725  1.3179
 1800SOL    HW217034   3.986   1.898  15.456  0.8920 -0.2222  1.9129
 1801SOL     OW17035   2.601   3.058  12.583 -0.1470  0.3206  0.0004
 1801SOL    HW117036   2.659   2.992  12.621 -0.8104 -0.3947 -0.2313
 1801SOL    HW217037   2.543   3.078  12.656 -1.7576 -1.9131 -0.6845
 1802SOL     OW17038   0.732   2.152   3.780 -0.0283  0.1848 -0.2132
 1802SOL    HW117039   0.726   2.057   3.782  1.5193  0.0602 -1.4950
 1802SOL    HW217040   0.749   2.168   3.873  1.9445  0.6617 -0.6707
 1803SOL     OW17041   4.084   3.386   2.414 -0.2373 -0.1382 -0.5622
 1803SOL    HW117042   4.085   3.294   2.391  1.8280  0.2747 -2.1598
 1803SOL    HW217043   4.151   3.392   2.483 -0.6383 -2.5435  0.0032
 1804SOL     OW17044   2.427   2.902   2.363 -0.5733  0.0982  0.1002
 1804SOL    HW117045   2.413   2.955   2.441  1.6148  0.6186  0.1366
 1804SOL    HW217046   2.520   2.883   2.371 -0.8434 -1.4798 -0.5983
 1805SOL     OW17047   1.399   0.242   9.857 -0.2884 -0.2500  0.4302
 1805SOL    HW117048   1.307   0.266   9.861 -0.0959  0.9618 -2.8568
 1805SOL    HW217049   1.407   0.159   9.809 -3.0633  0.1808 -0.7586
 1806SOL     OW17050   4.304   0.677  10.792 -0.1400 -0.8780  0.1800
 1806SOL    HW117051   4.379   0.618  10.794  0.3546 -0.3278 -1.4148
 1806SOL    HW217052   4.356   0.756  10.776 -0.1353 -0.5306  1.9501
 1807SOL     OW17053   1.627   4.251   4.925  0.2242 -0.2723  0.3613
 1807SOL    HW117054   1.597   4.240   5.015  2.4121  2.3239  1.3856
 1807SOL    HW217055   1.714   4.285   4.945 -0.7830  1.6853  1.4808
 1808SOL     OW17056   3.704   1.208   3.096 -0.1457  0.1254 -0.5728
 1808SOL    HW117057   3.648   1.164   3.160 -0.9275 -0.4213 -1.6339
 1808SOL    HW217058   3.647   1.284   3.084 -1.2923 -0.9731 -2.1389
 1809SOL     OW17059   0.993   2.306   7.586 -0.1663 -0.0973  0.2896
 1809SOL    HW117060   1.022   2.338   7.672  1.0808 -1.8342  0.5071
 1809SOL    HW217061   1.060   2.340   7.527  0.9770 -0.2925  1.4768
 1810SOL     OW17062   0.309   0.799  13.285 -0.1665 -0.4837  0.4837
 1810SOL    HW117063   0.323   0.823  13.377  0.9916 -0.5465  0.3153
 1810SOL    HW217064   0.402   0.800  13.263  0.0204  0.1201  1.3039
 1811SOL     OW17065   0.073   0.510  17.106  0.0897 -0.3371 -0.3575
 1811SOL    HW117066   0.137   0.448  17.072  0.8075  0.3350 -0.2140
 1811SOL    HW217067   0.022   0.528  17.026  0.5101  1.1671 -0.2956
 1812SOL     OW17068   2.181   0.701   8.266 -0.0444 -0.3330  0.1210
 1812SOL    HW117069   2.126   0.643   8.213 -1.3568  0.5578  0.5023
 1812SOL    HW217070   2.258   0.723   8.213 -0.3007  0.5180  0.1042
 1813SOL     OW17071   3.536   4.598   8.061 -0.7278  0.1352 -0.0845
 1813SOL    HW117072   3.515   4.506   8.044 -1.2003  0.4372 -1.1222
 1813SOL    HW217073   3.454   4.632   8.023 -1.0316 -0.9836 -0.4407
 1814SOL     OW17074   2.540   1.662  11.090 -0.7527  0.0927  0.6089
 1814SOL    HW117075   2.542   1.756  11.105 -0.9734  0.1132  0.4985
 1814SOL    HW217076   2.484   1.658  11.012 -1.2012  1.8805  0.8576
 1815SOL     OW17077   2.148   4.715  12.120  0.0550 -0.1047 -0.4646
 1815SOL    HW117078   2.116   0.013  12.203  0.1219 -1.3519  0.0622
 1815SOL    HW217079   2.100   4.633  12.111 -0.9075  0.2884  1.0575
 1816SOL     OW17080   4.506   3.416   7.609 -0.3054 -0.7734  0.0892
 1816SOL    HW117081   4.535   3.500   7.573 -0.3229 -0.3375  1.1136
 1816SOL    HW217082   4.541   3.406   7.697 -0.9932  0.4575  0.4990
 1817SOL     OW17083   1.091   3.177   5.694 -0.2325 -0.0493 -0.0707
 1817SOL    HW117084   1.037   3.250   5.727 -0.2058  0.8450 -2.0251
 1817SOL    HW217085   1.166   3.222   5.655 -0.5456  1.3088  0.8573
 1818SOL     OW17086   3.582   0.361   5.459  0.4133  0.0778 -0.0555
 1818SOL    HW117087   3.629   0.313   5.391  1.0581 -2.1402  1.9764
 1818SOL    HW217088   3.648   0.368   5.528 -1.6297 -0.8861  1.9955
 1819SOL     OW17089   4.643   1.982   4.505 -0.4511 -0.3590 -0.3186
 1819SOL    HW117090   4.600   2.068   4.511  3.3751  1.5287  0.1037
 1819SOL    HW217091   4.636   1.977   4.409  1.5893  0.6174 -0.5212
 1820SOL     OW17092   4.234   4.242   8.030 -0.3406 -0.4106  0.2802
 1820SOL    HW117093   4.227   4.154   8.069 -1.5139 -0.6410 -0.4719
 1820SOL    HW217094   4.215   4.287   8.112 -1.3647 -0.0522 -0.1570
 1821SOL     OW17095   0.120   4.034   8.719  0.0737  0.0389 -0.0766
 1821SOL    HW117096   0.049   3.976   8.744  0.0923 -0.9384 -2.2429
 1821SOL    HW217097   0.073   4.096   8.664  0.0906 -0.3650 -0.5516
 1822SOL     OW17098   1.514   1.513   0.705 -0.1109 -0.0978 -0.6016
 1822SOL    HW117099   1.582   1.541   0.643  0.8927  1.4179  1.2024
 1822SOL    HW217100   1.480   1.435   0.660 -0.0342 -0.6947  0.3882
 1823SOL     OW17101   3.511   2.416   1.303  0.6989  0.5115 -0.0280
 1823SOL    HW117102   3.536   2.336   1.258  0.8427  0.2189  0.5762
 1823SOL    HW217103   3.575   2.469   1.256  0.6775 -0.5591 -1.2388
 1824SOL     OW17104   0.950   2.085   1.502 -0.0733 -0.0647  0.9730
 1824SOL    HW117105   0.962   2.155   1.567 -0.3486  0.6251  0.2678
 1824SOL    HW217106   0.966   2.129   1.419 -1.0890 -2.2578 -0.3673
 1825SOL     OW17107   1.313   0.022  10.365 -0.7920 -0.0290 -0.0591
 1825SOL    HW117108   1.318   0.067  10.449 -0.0833 -0.1103 -0.0507
 1825SOL    HW217109   1.334   0.095  10.307  1.6031  0.6408  1.6256
 1826SOL     OW17110   0.842   4.278   8.938  0.7417 -0.8507  0.2077
 1826SOL    HW117111   0.915   4.303   8.996 -0.7189  2.2179  0.7261
 1826SOL    HW217112   0.883   4.275   8.852  0.3192  1.4442 -0.0584
 1827SOL     OW17113   3.944   2.322  13.000  1.1030 -0.2915 -0.4861
 1827SOL    HW117114   3.856   2.330  13.039  1.1327  1.1650 -0.7068
 1827SOL    HW217115   3.934   2.358  12.912  0.4934 -0.1634 -0.3651
 1828SOL     OW17116   2.332   2.009   6.002 -0.1914  0.2859 -0.9031
 1828SOL    HW117117   2.251   2.033   6.048 -0.4087 -1.6619 -0.2564
 1828SOL    HW217118   2.376   2.094   6.007  1.6383 -0.7104  0.2470
 1829SOL     OW17119   2.399   2.070  16.705 -0.4739  0.3748 -0.0073
 1829SOL    HW117120   2.335   2.082  16.635  0.7213  0.3085 -1.1153
 1829SOL    HW217121   2.373   1.980  16.725  1.5631 -0.4485 -1.0848
 1830SOL     OW17122   1.571   1.106   7.552 -0.0183 -0.2719  0.4627
 1830SOL    HW117123   1.495   1.109   7.494  0.3030 -1.8893 -0.0351
 1830SOL    HW217124   1.561   1.177   7.615 -1.3016 -0.6225  0.6667
 1831SOL     OW17125   1.453   1.458   8.329  0.1780 -0.0876  0.0963
 1831SOL    HW117126   1.358   1.461   8.338  0.0446 -0.2474 -1.2609
 1831SOL    HW217127   1.461   1.517   8.254  2.1600  0.6756  0.9011
 1832SOL     OW17128   1.864   2.417   4.143 -0.1319  0.5761 -0.4871
 1832SOL    HW117129   1.883   2.487   4.080  1.9905 -0.2315 -0.7664
 1832SOL    HW217130   1.841   2.345   4.085  0.7026 -0.5976  0.6272
 1833SOL     OW17131   1.862   2.368   4.700  0.3328  0.5211 -0.4116
 1833SOL    HW117132   1.835   2.459   4.706 -1.9554 -0.1361 -0.4719
 1833SOL    HW217133   1.850   2.355   4.606 -1.7025  1.2181 -0.2585
 1834SOL     OW17134   2.547   0.982   8.377 -0.2924  0.1621  0.4954
 1834SOL    HW117135   2.610   1.011   8.443 -0.9287 -0.9569  1.5802
 1834SOL    HW217136   2.477   1.047   8.380 -0.9911 -0.5412 -0.4889
 1835SOL     OW17137   1.438   3.642   5.903  0.0192  0.3479 -0.0110
 1835SOL    HW117138   1.411   3.673   5.816  2.8572  2.2726 -0.1740
 1835SOL    HW217139   1.530   3.628   5.881 -0.3745 -0.3067 -1.2984
 1836SOL     OW17140   0.287   0.343   7.840  0.1751  0.4972  0.4101
 1836SOL    HW117141   0.365   0.392   7.864  0.6158  0.2595 -0.5398
 1836SOL    HW217142   0.225   0.415   7.826 -0.6837 -0.5648 -1.2358
 1837SOL     OW17143   2.520   2.573   3.796  0.2288 -0.4299  0.0375
 1837SOL    HW117144   2.477   2.638   3.852 -1.1626  0.7357 -2.3772
 1837SOL    HW217145   2.499   2.607   3.709  1.5268 -1.4463 -0.6746
 1838SOL     OW17146   1.258   1.286   2.632 -0.4255 -0.1081 -0.8004
 1838SOL    HW117147   1.341   1.270   2.587  1.7262  1.0755  2.7361
 1838SOL    HW217148   1.260   1.235   2.713 -1.3228  2.3117  0.7372
 1839SOL     OW17149   3.702   4.187   6.944 -0.5122  0.3430 -0.3405
 1839SOL    HW117150   3.661   4.221   6.865 -0.4904 -1.1356 -0.9955
 1839SOL    HW217151   3.685   4.092   6.942  1.7649 -0.1007  1.1359
 1840SOL     OW17152   3.584   3.065   7.576  0.1817 -0.4684  0.0696
 1840SOL    HW117153   3.540   3.007   7.639  1.1272 -0.5549  0.6649
 1840SOL    HW217154   3.677   3.056   7.600  0.5767 -0.5514 -1.5058
 1841SOL     OW17155   4.328   0.476   3.668 -0.2535 -0.6999  0.3620
 1841SOL    HW117156   4.356   0.561   3.633 -0.7405 -0.2265  1.1127
 1841SOL    HW217157   4.367   0.419   3.603  0.1063  0.2915 -0.2949
 1842SOL     OW17158   3.449   1.619   1.751 -0.2845  0.2698  0.0409
 1842SOL    HW117159   3.373   1.639   1.695 -0.0583 -0.0713 -0.3852
 1842SOL    HW217160   3.510   1.681   1.713  0.2315 -0.4883 -0.3614
 1843SOL     OW17161   1.785   0.631   7.100 -0.1662 -0.5846 -0.0225
 1843SOL    HW117162   1.869   0.653   7.058  0.1130 -1.0887  0.2663
 1843SOL    HW217163   1.752   0.720   7.112  0.5895 -0.3011 -0.0290
 1844SOL     OW17164   2.407   2.725   4.005 -0.0465  0.5877 -0.2374
 1844SOL    HW117165   2.324   2.767   4.027 -0.0330  0.9649 -0.9118
 1844SOL    HW217166   2.414   2.655   4.071 -2.8516  1.0241  0.5141
 1845SOL     OW17167   2.470   4.509   4.997 -0.0226  0.1729  0.1123
 1845SOL    HW117168   2.396   4.503   4.937  0.3258 -0.7567 -0.2202
 1845SOL    HW217169   2.516   4.430   4.969 -0.0072  1.2368 -2.8855
 1846SOL     OW17170   1.989   4.709   9.382  0.1482  0.6112  0.2938
 1846SOL    HW117171   2.052   4.688   9.313  0.0018 -2.8264  1.2283
 1846SOL    HW217172   2.048   4.731   9.454  0.2274  0.1418  0.3675
 1847SOL     OW17173   1.163   0.972   8.387 -0.0356 -0.4342 -0.4964
 1847SOL    HW117174   1.096   0.923   8.339  1.1529 -2.7888  0.2779
 1847SOL    HW217175   1.117   1.054   8.405  0.4394 -0.1517 -0.5476
 1848SOL     OW17176   4.676   3.866  15.011 -0.3196 -0.0432 -0.4010
 1848SOL    HW117177   0.034   3.852  15.001  0.1114  1.0470  2.1086
 1848SOL    HW217178   4.652   3.773  15.012  0.1283 -0.1573 -0.1386
 1849SOL     OW17179   1.132   4.184   3.965  0.4304 -0.4201 -0.5032
 1849SOL    HW117180   1.115   4.260   4.020  1.0817  0.5329 -1.6149
 1849SOL    HW217181   1.206   4.143   4.008 -1.1498  0.0257  2.6262
 1850SOL     OW17182   0.773   2.745   3.235 -0.0855  0.1074  0.0636
 1850SOL    HW117183   0.754   2.811   3.168 -1.4881 -0.9025 -0.5424
 1850SOL    HW217184   0.817   2.806   3.294  1.7737 -0.1783 -1.0103
 1851SOL     OW17185   2.838   0.676   6.263  0.7236 -1.0836 -0.4661
 1851SOL    HW117186   2.803   0.587   6.259  1.3910 -1.3714  0.0214
 1851SOL    HW217187   2.855   0.700   6.172  0.5942  2.2855  0.3860
 1852SOL     OW17188   1.700   2.126   9.074  0.2877 -0.0987  0.1668
 1852SOL    HW117189   1.685   2.220   9.077  0.7977  0.0303 -1.4778
 1852SOL    HW217190   1.655   2.096   9.153  1.6159  1.0303  1.3596
 1853SOL     OW17191   1.344   3.378   7.173 -0.2966 -0.1765 -0.4527
 1853SOL    HW117192   1.278   3.349   7.111 -0.7714 -1.3446  0.6023
 1853SOL    HW217193   1.305   3.367   7.260 -1.1405 -1.0932 -0.9575
 1854SOL     OW17194   4.678   4.694   0.103  0.6024  0.1994 -0.3381
 1854SOL    HW117195   4.674   4.603   0.134  0.0577  0.4678  0.3860
 1854SOL    HW217196   4.696   0.004   0.185 -2.3298  2.3577 -0.9048
 1855SOL     OW17197   2.420   0.311  16.328  0.1603  0.3377  0.1512
 1855SOL    HW117198   2.480   0.365  16.277 -0.8598  0.5932 -0.7805
 1855SOL    HW217199   2.340   0.361  16.318  1.3946  2.2635  0.0010
 1856SOL     OW17200   4.249   4.161   3.356  0.3654 -0.3350 -0.1005
 1856SOL    HW117201   4.200   4.079   3.361  0.3565 -0.1629  2.7026
 1856SOL    HW217202   4.183   4.212   3.310  1.7372  0.5389 -1.0948
 1857SOL     OW17203   0.341   1.811   4.300 -0.1129  0.3664  0.3703
 1857SOL    HW117204   0.289   1.885   4.269  1.0515  0.3690 -1.5690
 1857SOL    HW217205   0.271   1.750   4.322 -0.9563 -0.2157 -3.9842
 1858SOL     OW17206   2.660   2.360  16.975 -0.4827  0.0823 -0.0285
 1858SOL    HW117207   2.661   2.356  16.880  1.2045  0.2679 -0.0158
 1858SOL    HW217208   2.656   2.448  17.012 -0.3472  0.2411 -0.3918
 1859SOL     OW17209   4.121   4.329   8.286 -0.3928 -0.1413  0.1651
 1859SOL    HW117210   4.032   4.327   8.250  0.1503 -1.2599 -1.0958
 1859SOL    HW217211   4.132   4.418   8.318 -0.8966  0.5490 -1.5287
 1860SOL     OW17212   2.612   1.706   5.378 -0.0289  0.1089  0.0047
 1860SOL    HW117213   2.544   1.671   5.435  0.3267  0.6460  0.7594
 1860SOL    HW217214   2.572   1.786   5.343  0.1408 -0.5002 -1.5674
 1861SOL     OW17215   3.304   3.168  15.486  0.2749  0.0941 -0.1583
 1861SOL    HW117216   3.394   3.145  15.511 -0.4511 -0.6164  1.8085
 1861SOL    HW217217   3.254   3.098  15.527 -2.3175  1.3797 -1.1434
 1862SOL     OW17218   1.757   3.856   5.725 -0.1563 -0.1690 -0.2378
 1862SOL    HW117219   1.849   3.838   5.744  0.2023  0.5682 -1.3006
 1862SOL    HW217220   1.715   3.773   5.749  2.7178 -2.3888 -2.9967
 1863SOL     OW17221   3.840   1.949   2.399 -0.5524 -0.3065 -0.6079
 1863SOL    HW117222   3.869   2.040   2.404 -1.4780 -0.2206  2.9056
 1863SOL    HW217223   3.917   1.914   2.444  0.0991  0.3725 -1.1728
 1864SOL     OW17224   2.845   4.392  11.632  0.1288 -0.5034 -0.6452
 1864SOL    HW117225   2.927   4.371  11.587 -0.0201 -2.0861 -0.1850
 1864SOL    HW217226   2.782   4.334  11.589 -0.7373 -1.4221  1.8786
 1865SOL     OW17227   0.728   3.520   8.679 -0.0363  0.5812 -0.2154
 1865SOL    HW117228   0.651   3.569   8.707  0.8621  1.1854  1.2669
 1865SOL    HW217229   0.771   3.514   8.765  0.6664 -1.1856 -0.6965
 1866SOL     OW17230   1.210   2.312   9.285 -0.0590  0.2666  0.3315
 1866SOL    HW117231   1.282   2.300   9.223  1.2331  1.6835  1.5760
 1866SOL    HW217232   1.143   2.245   9.266 -1.2062  1.3980  0.3848
 1867SOL     OW17233   4.035   2.489  11.035 -0.2323 -0.0195  0.2982
 1867SOL    HW117234   4.085   2.529  11.107  1.4895 -0.4499 -0.6401
 1867SOL    HW217235   4.112   2.450  10.993 -1.7623  0.3289 -2.8410
 1868SOL     OW17236   4.473   2.632   4.695 -0.0729  0.0644  0.4651
 1868SOL    HW117237   4.516   2.557   4.653 -4.3634 -2.7717  1.1416
 1868SOL    HW217238   4.440   2.689   4.626 -0.6273 -3.2541 -2.0104
 1869SOL     OW17239   3.318   2.051   3.290  0.0644  0.2413  0.4141
 1869SOL    HW117240   3.408   2.047   3.257  0.4264  2.0218  1.1409
 1869SOL    HW217241   3.256   2.067   3.218  0.8748 -0.5227 -0.4471
 1870SOL     OW17242   4.575   2.384   2.206  0.2475 -0.1105  0.4821
 1870SOL    HW117243   4.638   2.455   2.195 -2.9657  2.3024 -2.2840
 1870SOL    HW217244   4.627   2.321   2.256 -0.1664 -0.0738  0.9639
 1871SOL     OW17245   2.701   0.779  12.363  0.2329  0.6499 -0.6617
 1871SOL    HW117246   2.661   0.694  12.346 -0.0145  0.5810  0.2801
 1871SOL    HW217247   2.780   0.775  12.309  0.4932  0.9861 -0.3029
 1872SOL     OW17248   0.938   2.254   2.822  0.7468  0.1287  0.0876
 1872SOL    HW117249   0.906   2.295   2.902 -1.1855 -0.4104 -0.4088
 1872SOL    HW217250   0.951   2.166   2.857  2.3245  0.0343 -0.7193
 1873SOL     OW17251   3.746   3.883   1.439  0.2627  0.7609  0.1693
 1873SOL    HW117252   3.732   3.857   1.348 -1.0391 -0.9400  0.8587
 1873SOL    HW217253   3.740   3.795   1.477  0.8814 -0.6182 -2.9300
 1874SOL     OW17254   3.058   3.664   3.500  0.5370  0.4221 -0.3253
 1874SOL    HW117255   3.149   3.682   3.478 -0.1537  0.2709 -3.4039
 1874SOL    HW217256   3.065   3.624   3.586  2.2831  1.5595  0.0637
 1875SOL     OW17257   2.908   4.723   4.591  0.1174 -0.6755 -0.0893
 1875SOL    HW117258   2.980   4.707   4.652  0.4758 -2.2647 -0.9286
 1875SOL    HW217259   2.849   4.653   4.615  0.2786 -0.2700  1.5036
 1876SOL     OW17260   4.363   1.798   2.493 -0.0355  0.1441 -0.6152
 1876SOL    HW117261   4.287   1.842   2.454 -0.2297 -0.3987 -0.8526
 1876SOL    HW217262   4.372   1.710   2.455 -1.6362 -0.8687  1.3505
 1877SOL     OW17263   4.053   0.947   2.771 -1.0296  0.2141 -0.2911
 1877SOL    HW117264   4.092   1.028   2.739 -0.8982 -0.1838 -1.1393
 1877SOL    HW217265   3.976   0.981   2.816  1.8215  1.1877  3.8291
 1878SOL     OW17266   1.131   1.562  11.981 -0.0497  0.2391  0.0089
 1878SOL    HW117267   1.208   1.607  11.947 -1.2853  1.6128 -1.0266
 1878SOL    HW217268   1.076   1.555  11.903  0.2064 -2.0935  0.0458
 1879SOL     OW17269   0.218   4.070   6.752  0.8148 -0.1867 -0.1251
 1879SOL    HW117270   0.192   3.985   6.787 -1.0539 -0.2673 -1.7195
 1879SOL    HW217271   0.143   4.128   6.765 -0.5960 -2.5441  2.3386
 1880SOL     OW17272   3.818   4.361   6.133 -0.3499  0.4973 -0.0105
 1880SOL    HW117273   3.796   4.291   6.072 -0.7473  0.9185 -0.3459
 1880SOL    HW217274   3.826   4.302   6.208  1.4183  1.2211  0.3753
 1881SOL     OW17275   3.525   3.056  14.817 -0.5859  0.2992  0.1559
 1881SOL    HW117276   3.561   3.106  14.891  0.3711 -0.5678  0.2684
 1881SOL    HW217277   3.606   3.039  14.770 -1.3168 -2.5274 -0.0481
 1882SOL     OW17278   4.710   0.143   2.185  0.5847  0.7321 -0.0238
 1882SOL    HW117279   4.621   0.158   2.219  0.4472 -0.4325  0.1204
 1882SOL    HW217280   4.723   0.213   2.121  2.8111  0.3678  0.0499
 1883SOL     OW17281   1.752   1.003  14.746 -0.1659 -0.3015 -0.2478
 1883SOL    HW117282   1.757   0.946  14.822  2.1669  1.2150  0.7254
 1883SOL    HW217283   1.844   0.999  14.718 -0.1197 -0.6115 -0.0541
 1884SOL     OW17284   3.387   3.434  10.026 -0.3302  0.4291 -0.8055
 1884SOL    HW117285   3.455   3.435  10.093 -0.9632 -1.1004 -0.1233
 1884SOL    HW217286   3.382   3.342   9.999  0.4878 -0.3026  1.5613
 1885SOL     OW17287   3.709   1.323   2.552 -0.0442 -0.2704  0.4104
 1885SOL    HW117288   3.684   1.297   2.464  1.4544  0.6221 -0.2822
 1885SOL    HW217289   3.641   1.298   2.614 -1.2977 -2.0290 -1.7150
 1886SOL     OW17290   1.013   1.739   3.176  0.4950  0.1206 -0.2664
 1886SOL    HW117291   1.012   1.689   3.094  2.7166 -2.7014  1.4353
 1886SOL    HW217292   0.938   1.797   3.165  0.5344  0.5488  1.7233
 1887SOL     OW17293   3.665   2.824  14.276  0.4222  0.3326 -0.2730
 1887SOL    HW117294   3.680   2.729  14.277  0.5234  0.3713  1.7169
 1887SOL    HW217295   3.636   2.834  14.367 -1.6707 -0.1380 -0.8701
 1888SOL     OW17296   2.383   3.974   6.480 -0.4777  0.0400  0.2199
 1888SOL    HW117297   2.412   4.054   6.437  1.7642 -1.3787 -0.9457
 1888SOL    HW217298   2.464   3.959   6.530  0.3375  0.3135 -1.0257
 1889SOL     OW17299   3.192   3.562   2.080  0.4777  0.0321 -0.2310
 1889SOL    HW117300   3.130   3.549   2.151 -0.1376 -1.8268 -1.1137
 1889SOL    HW217301   3.197   3.658   2.079 -1.3071  0.1412  2.3963
 1890SOL     OW17302   3.266   2.882  11.470 -0.5769 -0.3577 -0.4116
 1890SOL    HW117303   3.290   2.874  11.377  1.6669  0.5666  0.0757
 1890SOL    HW217304   3.313   2.959  11.502 -0.4318 -0.3713 -0.5934
 1891SOL     OW17305   2.360   1.235   1.755 -0.4833 -0.2584 -1.2340
 1891SOL    HW117306   2.455   1.234   1.765 -0.5867  0.3527 -0.1685
 1891SOL    HW217307   2.328   1.165   1.812  2.4392  0.2595  0.9933
 1892SOL     OW17308   3.150   4.200  17.279 -0.4230 -1.0210  0.6244
 1892SOL    HW117309   3.216   4.159  17.335 -0.1107  0.0578  1.0438
 1892SOL    HW217310   3.154   4.294  17.297  3.4229 -1.1642  0.6603
 1893SOL     OW17311   1.308   3.336   6.356  0.2503 -0.0888  0.9453
 1893SOL    HW117312   1.236   3.382   6.314  1.2548  1.0194  0.4077
 1893SOL    HW217313   1.314   3.252   6.311 -3.7813 -0.5376  1.2993
 1894SOL     OW17314   4.450   3.519   1.035 -0.4084  0.1099 -0.1231
 1894SOL    HW117315   4.484   3.444   1.085 -1.5718  1.2216  2.3033
 1894SOL    HW217316   4.369   3.474   1.013 -1.1735  1.0805  0.7752
 1895SOL     OW17317   4.031   3.679   3.082  0.0829  0.8699 -0.4825
 1895SOL    HW117318   3.946   3.691   3.041  0.1459 -1.4560 -1.2993
 1895SOL    HW217319   4.029   3.584   3.091 -1.3044  1.0019  0.6423
 1896SOL     OW17320   4.696   4.170   6.740  0.1045  0.3147 -0.3089
 1896SOL    HW117321   4.673   4.134   6.655 -0.1850 -1.8353  0.6721
 1896SOL    HW217322   4.729   4.257   6.716 -1.1045  0.6942 -0.5868
 1897SOL     OW17323   0.525   2.689   6.258 -0.1999  0.4778 -0.5625
 1897SOL    HW117324   0.510   2.605   6.300  2.1545  0.5461  0.4380
 1897SOL    HW217325   0.578   2.732   6.325 -1.1443 -0.0546  0.5253
 1898SOL     OW17326   4.194   2.015   9.953 -0.6335 -0.0863 -0.3219
 1898SOL    HW117327   4.113   2.010  10.004  0.2805  0.9307  1.2388
 1898SOL    HW217328   4.232   1.933   9.983 -0.7689 -0.1474 -0.3169
 1899SOL     OW17329   0.196   2.413   8.246  0.1438  0.2161  0.5976
 1899SOL    HW117330   0.228   2.503   8.246  2.7904 -0.7152 -0.7784
 1899SOL    HW217331   0.276   2.362   8.237  0.0669  0.0732  0.7144
 1900SOL     OW17332   2.068   2.189   3.354  0.1427 -0.0378 -0.4519
 1900SOL    HW117333   2.133   2.256   3.379  1.3411 -1.6460  0.7308
 1900SOL    HW217334   2.004   2.250   3.317 -1.4473  0.3101  2.9201
 1901SOL     OW17335   0.914   2.714   8.524 -0.5695  0.7469  0.2414
 1901SOL    HW117336   0.841   2.775   8.529 -2.1577 -1.0034 -1.5071
 1901SOL    HW217337   0.869   2.630   8.530  0.9037 -0.2012 -1.9168
 1902SOL     OW17338   0.298   1.774  12.718  0.0473  0.1272  0.3201
 1902SOL    HW117339   0.319   1.842  12.782 -2.2262  0.1084  1.0618
 1902SOL    HW217340   0.250   1.714  12.774 -0.8046  0.6138  0.1137
 1903SOL     OW17341   0.035   0.079   6.125 -0.0720  0.3677  0.4844
 1903SOL    HW117342   0.082   4.731   6.129  0.8082  0.8237 -0.4641
 1903SOL    HW217343   4.735   0.071   6.213 -0.7645 -4.2848 -0.2296
 1904SOL     OW17344   1.016   3.665   5.958 -0.5402  0.3712 -0.6290
 1904SOL    HW117345   1.095   3.624   5.991  0.5327  0.7702 -2.6875
 1904SOL    HW217346   0.970   3.683   6.040  0.6231 -2.8970  0.7027
 1905SOL     OW17347   1.575   2.151   6.525  0.0501 -0.3730 -0.2410
 1905SOL    HW117348   1.557   2.196   6.607  1.7057 -1.3586  0.6743
 1905SOL    HW217349   1.486   2.134   6.494  0.1223 -0.4669 -0.3980
 1906SOL     OW17350   2.769   2.125  16.243  0.0787 -0.1056  0.1193
 1906SOL    HW117351   2.750   2.216  16.264 -1.4798 -0.0519 -1.5281
 1906SOL    HW217352   2.705   2.107  16.174  0.4513  0.7013 -0.4263
 1907SOL     OW17353   2.763   2.383  16.306  0.2072 -0.5790  0.0073
 1907SOL    HW117354   2.856   2.384  16.285  0.5768 -0.0680  1.6803
 1907SOL    HW217355   2.737   2.468  16.269  2.8075 -0.4839 -1.5915
 1908SOL     OW17356   0.797   0.665  11.142  0.1830  0.3405 -0.1543
 1908SOL    HW117357   0.851   0.593  11.106 -1.5000 -0.6261 -0.7578
 1908SOL    HW217358   0.830   0.739  11.091 -2.1256  1.2662 -0.2794
 1909SOL     OW17359   3.264   4.645   8.310  0.6796  0.0472 -0.3533
 1909SOL    HW117360   3.217   4.642   8.226 -1.8046  1.9477  0.9491
 1909SOL    HW217361   3.193   4.675   8.367  2.4318  2.4326  0.5402
 1910SOL     OW17362   1.416   0.378  14.484  0.0589  0.3685 -0.2399
 1910SOL    HW117363   1.464   0.301  14.453  0.7741  0.8825 -0.4026
 1910SOL    HW217364   1.466   0.448  14.442 -2.2664  1.9690 -0.3516
 1911SOL     OW17365   2.480   3.650   3.661  0.5351  0.3140  0.7374
 1911SOL    HW117366   2.481   3.744   3.679  2.2505  0.7786 -1.7777
 1911SOL    HW217367   2.574   3.636   3.650 -0.4705 -4.7214 -1.2269
 1912SOL     OW17368   2.391   1.271   9.239  0.2464 -0.0510 -0.0692
 1912SOL    HW117369   2.370   1.227   9.157 -0.5406  0.5183 -0.1686
 1912SOL    HW217370   2.350   1.218   9.307  3.6734  0.4560  2.3873
 1913SOL     OW17371   1.187   1.816  11.107  0.6037  0.0204  0.7763
 1913SOL    HW117372   1.211   1.908  11.104  1.6031 -0.3011 -0.7740
 1913SOL    HW217373   1.256   1.780  11.162  0.4090 -1.7595 -0.1570
 1914SOL     OW17374   3.208   0.498  12.371 -0.6718 -0.0454 -0.1746
 1914SOL    HW117375   3.259   0.493  12.290  0.2421 -0.1049  0.4028
 1914SOL    HW217376   3.241   0.426  12.424  0.0909 -0.3022 -0.9906
 1915SOL     OW17377   0.776   2.821   3.824 -0.2677  0.4695 -0.3732
 1915SOL    HW117378   0.751   2.779   3.907  2.8368  0.1210  0.3642
 1915SOL    HW217379   0.861   2.783   3.805 -0.4029  0.5040 -1.0256
 1916SOL     OW17380   2.956   1.368  16.491 -0.3475 -0.4754 -0.1279
 1916SOL    HW117381   2.995   1.449  16.524 -2.3343 -0.1574  1.4209
 1916SOL    HW217382   2.871   1.396  16.459 -0.5269 -1.3787 -0.4377
 1917SOL     OW17383   4.313   2.087   2.962 -0.1108 -0.1172  0.2880
 1917SOL    HW117384   4.318   2.010   2.906 -0.5520 -0.7428  1.1171
 1917SOL    HW217385   4.274   2.152   2.904 -0.2120  1.0614  1.6780
 1918SOL     OW17386   2.160   3.325   9.053 -0.1456  0.6802  0.2596
 1918SOL    HW117387   2.068   3.304   9.038 -0.1014  0.2054  0.6313
 1918SOL    HW217388   2.150   3.391   9.122  1.3371 -0.1704  1.3066
 1919SOL     OW17389   2.957   2.240   6.409  0.0218  0.2328  0.3170
 1919SOL    HW117390   2.942   2.258   6.502 -2.9384  0.8136 -0.2500
 1919SOL    HW217391   3.051   2.226   6.415  0.0029  0.1660  0.4532
 1920SOL     OW17392   2.855   2.992   3.539  0.0220  0.7408  0.2415
 1920SOL    HW117393   2.864   3.042   3.458 -0.3296  4.8222  2.6896
 1920SOL    HW217394   2.919   3.026   3.602  0.7399 -0.5686  0.2121
 1921SOL     OW17395   3.360   1.868  13.602  0.0171  0.1572  0.3924
 1921SOL    HW117396   3.281   1.824  13.633  2.2824 -2.1333  2.9018
 1921SOL    HW217397   3.354   1.836  13.512 -0.3710 -0.7083  0.7299
 1922SOL     OW17398   1.339   2.199   0.401 -0.2732 -0.8091 -0.3494
 1922SOL    HW117399   1.342   2.104   0.404  2.3476 -0.7167  0.0632
 1922SOL    HW217400   1.339   2.208   0.306  1.8315  0.8787 -0.2012
 1923SOL     OW17401   1.454   3.638   0.116  0.0129  0.4833  0.0952
 1923SOL    HW117402   1.541   3.666   0.090  0.6439 -0.6363  0.9555
 1923SOL    HW217403   1.442   3.543   0.114  1.2178  0.3483 -0.6278
 1924SOL     OW17404   1.139   0.808  13.346 -0.1954  0.0315  0.4100
 1924SOL    HW117405   1.203   0.846  13.406  1.1468 -0.7582 -0.5336
 1924SOL    HW217406   1.073   0.877  13.340  1.2179  1.1697 -2.2885
 1925SOL     OW17407   0.322   3.046   6.590 -0.0123  0.6092 -0.0013
 1925SOL    HW117408   0.298   2.994   6.513 -3.1610 -0.2665  1.5538
 1925SOL    HW217409   0.385   2.988   6.633  0.8341  1.9952  0.5969
 1926SOL     OW17410   0.327   4.322   3.217  0.6341 -0.5366 -0.0697
 1926SOL    HW117411   0.258   4.291   3.160  0.3535  0.8405 -0.4747
 1926SOL    HW217412   0.293   4.412   3.217  0.0577 -0.7601 -1.3511
 1927SOL     OW17413   1.163   3.505   2.028  0.1741  0.2715  0.1867
 1927SOL    HW117414   1.192   3.429   1.976 -2.0596 -0.4369 -0.0267
 1927SOL    HW217415   1.068   3.501   2.032  0.1954  0.8924  1.1499
 1928SOL     OW17416   4.374   2.647  15.196 -0.2598 -0.2051  0.1205
 1928SOL    HW117417   4.397   2.631  15.104  0.1143  0.1939  0.1460
 1928SOL    HW217418   4.347   2.561  15.228  0.7924 -0.2314  0.9289
 1929SOL     OW17419   1.611   0.463  13.899  0.2707 -0.3070  0.7155
 1929SOL    HW117420   1.606   0.368  13.909  2.0677 -0.2073  2.5523
 1929SOL    HW217421   1.523   0.499  13.912  1.0486  2.5108 -1.8576
 1930SOL     OW17422   3.142   0.981   0.005 -0.7246  0.3478 -0.0775
 1930SOL    HW117423   3.221   0.990   0.060 -0.3915  0.1143 -0.5225
 1930SOL    HW217424   3.178   1.029  17.673  0.1628  1.5412  1.1142
 1931SOL     OW17425   3.326   4.021   8.832 -0.0703 -0.5936 -0.2631
 1931SOL    HW117426   3.314   4.052   8.742 -0.1637 -2.5402 -0.9315
 1931SOL    HW217427   3.260   3.951   8.834  0.2118 -0.8652 -0.4871
 1932SOL     OW17428   4.319   3.444   0.701 -0.3897  0.0444 -0.3753
 1932SOL    HW117429   4.291   3.495   0.625 -1.8878  1.2597  0.9800
 1932SOL    HW217430   4.307   3.508   0.771 -0.1238 -0.8596  0.5038
 1933SOL     OW17431   4.266   2.396  15.214  0.3953  0.3031 -0.2578
 1933SOL    HW117432   4.330   2.327  15.196 -2.7639 -2.4857 -0.8049
 1933SOL    HW217433   4.191   2.376  15.158  3.0739 -1.3836 -3.2572
 1934SOL     OW17434   1.004   2.381   5.023 -0.2767  0.0431  0.4970
 1934SOL    HW117435   1.097   2.362   5.030 -0.1304  1.6513  2.7692
 1934SOL    HW217436   0.975   2.357   5.111  0.5723 -3.5489 -0.1980
 1935SOL     OW17437   2.533   1.782   3.924  0.3439  0.0412  0.6194
 1935SOL    HW117438   2.594   1.726   3.877  1.3916 -0.3513  2.4222
 1935SOL    HW217439   2.476   1.795   3.849 -1.2018  3.1673  2.3269
 1936SOL     OW17440   2.737   2.293   7.385  0.6989  0.1639 -0.2302
 1936SOL    HW117441   2.806   2.301   7.319  3.0730  0.8258  2.3245
 1936SOL    HW217442   2.676   2.359   7.352 -0.2636  0.4248  2.0635
 1937SOL     OW17443   3.243   0.737  12.802 -0.7375 -0.3162 -0.8189
 1937SOL    HW117444   3.179   0.666  12.816 -2.1453  1.4551  1.7473
 1937SOL    HW217445   3.190   0.812  12.777  0.6077  1.0706  0.5321
 1938SOL     OW17446   0.035   3.150   7.296  0.3564  0.2566  0.1646
 1938SOL    HW117447   0.007   3.059   7.310  0.7989  0.3207  1.5280
 1938SOL    HW217448   0.104   3.151   7.230  1.0218  3.6187  0.9553
 1939SOL     OW17449   1.225   2.323   0.616  0.1419 -0.1214 -0.3600
 1939SOL    HW117450   1.294   2.300   0.678  0.3227  0.4777 -0.3474
 1939SOL    HW217451   1.263   2.280   0.539 -0.7990 -2.0840  0.2677
 1940SOL     OW17452   0.513   1.132   7.570  0.1197 -0.1734 -0.5468
 1940SOL    HW117453   0.467   1.196   7.515 -2.8777 -0.5938  1.4477
 1940SOL    HW217454   0.485   1.166   7.655 -1.6516  0.6656 -1.4512
 1941SOL     OW17455   3.233   3.239   6.562  0.3540  0.1502 -0.2206
 1941SOL    HW117456   3.244   3.317   6.616  1.2251  1.1193 -1.7949
 1941SOL    HW217457   3.138   3.246   6.546  0.3432  1.4316  0.4644
 1942SOL     OW17458   1.347   0.332   4.882 -0.4690 -0.1540  0.2532
 1942SOL    HW117459   1.375   0.240   4.884  1.0413  0.2948 -0.9939
 1942SOL    HW217460   1.264   0.313   4.838 -0.6091 -0.6083  0.7140
 1943SOL     OW17461   0.506   2.961   2.096  0.1773 -0.2431 -0.4430
 1943SOL    HW117462   0.446   2.991   2.027 -0.1517  2.2695  0.9795
 1943SOL    HW217463   0.449   2.968   2.172  0.6537  1.9729 -0.3004
 1944SOL     OW17464   4.649   0.964  12.830 -0.7339  0.0833  0.2105
 1944SOL    HW117465   4.635   0.899  12.898  0.0019 -0.7345 -0.4242
 1944SOL    HW217466   0.008   0.978  12.839 -0.6099  0.3851 -1.5892
 1945SOL     OW17467   3.526   2.736   3.012  0.3466 -0.1828 -0.5089
 1945SOL    HW117468   3.526   2.641   3.003 -1.5203  0.0270 -2.6781
 1945SOL    HW217469   3.612   2.766   3.040  0.5741 -2.9547  1.7332
 1946SOL     OW17470   3.534   3.875   7.772  0.2411 -0.2366  0.3618
 1946SOL    HW117471   3.457   3.818   7.764 -1.1437  1.7260 -0.2213
 1946SOL    HW217472   3.564   3.885   7.682  1.8298  0.9032  1.0226
 1947SOL     OW17473   4.253   4.600   6.738  0.4516  0.3406 -0.9303
 1947SOL    HW117474   4.291   4.514   6.721  2.2291  0.9139  0.1663
 1947SOL    HW217475   4.213   4.586   6.824 -0.4620 -0.5834 -1.5037
 1948SOL     OW17476   3.518   4.559   1.739 -0.5082 -0.3535  0.8820
 1948SOL    HW117477   3.612   4.554   1.721 -0.5433 -4.3647  1.8759
 1948SOL    HW217478   3.515   4.655   1.732  0.5117 -0.3881 -0.0629
 1949SOL     OW17479   3.706   4.325   9.413 -0.1839 -0.6573 -0.0617
 1949SOL    HW117480   3.709   4.421   9.415 -0.2819 -0.6962  1.3640
 1949SOL    HW217481   3.642   4.307   9.344 -2.7565  1.1500  1.8644
 1950SOL     OW17482   3.537   4.101   1.364 -0.2074  0.0956  0.3682
 1950SOL    HW117483   3.595   4.046   1.417 -0.2208 -2.0407 -1.8164
 1950SOL    HW217484   3.606   4.146   1.315 -0.5884 -0.3709 -0.5851
 1951SOL     OW17485   0.699   1.597   6.740  0.2637  0.0524  0.9490
 1951SOL    HW117486   0.795   1.599   6.748  0.3579  0.8676 -0.4254
 1951SOL    HW217487   0.681   1.690   6.753 -0.6266 -0.1017  0.7664
 1952SOL     OW17488   2.750   1.467   3.110 -0.0923  0.1447 -0.1337
 1952SOL    HW117489   2.725   1.522   3.184 -3.9852 -2.4053  0.4132
 1952SOL    HW217490   2.683   1.402   3.131 -0.2620  0.4991  0.4125
 1953SOL     OW17491   3.996   2.319   4.579  1.1434 -0.0005  0.2950
 1953SOL    HW117492   4.025   2.239   4.535  2.2553 -0.1822  1.3663
 1953SOL    HW217493   4.001   2.381   4.507 -0.4416 -2.7237 -2.1485
 1954SOL     OW17494   3.246   2.037   7.280  0.4013 -0.5632  0.2599
 1954SOL    HW117495   3.198   2.069   7.356  1.9832 -1.6077  1.7132
 1954SOL    HW217496   3.180   1.991   7.229  0.9336 -0.1984 -0.7668
 1955SOL     OW17497   3.567   0.216  17.401 -0.5087  1.0237 -0.4523
 1955SOL    HW117498   3.521   0.260  17.471  0.2945  1.1390  0.0015
 1955SOL    HW217499   3.651   0.261  17.392  0.4517 -0.9709 -1.5939
 1956SOL     OW17500   0.873   1.780  17.503 -0.0882  0.2339 -0.6006
 1956SOL    HW117501   0.941   1.753  17.441 -0.4436 -1.0673 -0.4218
 1956SOL    HW217502   0.836   1.859  17.463 -1.9808 -0.3212  0.0532
 1957SOL     OW17503   0.922   1.128   7.304  0.4590  0.1029  0.1033
 1957SOL    HW117504   0.959   1.216   7.313  0.2481  0.1918  0.0927
 1957SOL    HW217505   0.981   1.068   7.349  0.5904  0.5459  0.5127
 1958SOL     OW17506   4.572   1.274   3.456  0.3974 -0.5303 -0.4945
 1958SOL    HW117507   4.497   1.259   3.398 -1.1596  2.4512  0.7359
 1958SOL    HW217508   4.545   1.363   3.480 -1.4776 -0.9536 -1.0215
 1959SOL     OW17509   0.484   4.418  15.471 -0.5597  0.0710 -0.1149
 1959SOL    HW117510   0.401   4.451  15.437 -0.3911  1.2118  0.5869
 1959SOL    HW217511   0.458   4.423  15.564  0.6916 -0.5079  0.2623
 1960SOL     OW17512   0.750   0.419  15.325 -0.4028 -0.2878 -0.1965
 1960SOL    HW117513   0.746   0.495  15.384 -3.5057 -1.4812  1.1175
 1960SOL    HW217514   0.656   0.403  15.313 -0.7139  0.8141  0.6992
 1961SOL     OW17515   1.659   0.721   9.238 -0.2540  0.2498  0.2264
 1961SOL    HW117516   1.739   0.671   9.221 -1.1830 -1.8047  1.9797
 1961SOL    HW217517   1.683   0.813   9.221 -0.8368 -0.1047 -2.4915
 1962SOL     OW17518   3.276   4.165  14.770  0.1047 -0.1738  0.2720
 1962SOL    HW117519   3.299   4.146  14.861 -1.4981  0.1724  0.7404
 1962SOL    HW217520   3.223   4.244  14.775  0.4383  0.0756 -0.0896
 1963SOL     OW17521   2.429   4.451  16.520  0.2586  0.6769  0.9314
 1963SOL    HW117522   2.448   4.374  16.575  0.5841 -0.1707 -0.3703
 1963SOL    HW217523   2.495   4.515  16.544  2.7294 -2.3107  2.1618
 1964SOL     OW17524   0.343   0.977  16.468 -0.0703 -0.1938  1.0045
 1964SOL    HW117525   0.326   0.988  16.562 -0.2949  4.1196  0.4224
 1964SOL    HW217526   0.262   1.011  16.430  1.4377  1.9061 -0.2732
 1965SOL     OW17527   2.542   0.632   5.074 -0.2199 -0.0384  0.3264
 1965SOL    HW117528   2.551   0.545   5.036 -0.4070 -0.4440  1.2146
 1965SOL    HW217529   2.495   0.676   5.004 -1.1785 -0.5621  0.6469
 1966SOL     OW17530   4.666   0.766   7.265  0.1961  0.2152 -0.0427
 1966SOL    HW117531   4.572   0.772   7.250 -0.0548 -0.6963  1.2103
 1966SOL    HW217532   4.686   0.835   7.328 -0.8842  1.2097 -0.7899
 1967SOL     OW17533   4.280   2.146   5.789  0.2283  0.7543  0.1347
 1967SOL    HW117534   4.257   2.236   5.810 -1.0823  0.9360 -2.0704
 1967SOL    HW217535   4.367   2.160   5.751 -0.4195  0.6480 -1.3940
 1968SOL     OW17536   4.344   0.089   1.309  0.7044  0.2401  0.4350
 1968SOL    HW117537   4.403   0.051   1.245 -0.4950 -1.4060  0.3044
 1968SOL    HW217538   4.300   0.164   1.268 -2.8835 -0.9233  2.1021
 1969SOL     OW17539   1.473   3.254  17.049 -0.0817  0.0518  0.0817
 1969SOL    HW117540   1.500   3.219  16.964 -1.4002 -2.3310  0.6440
 1969SOL    HW217541   1.518   3.338  17.048  0.5517 -0.2769  1.6442
 1970SOL     OW17542   1.691   4.567  10.066  0.3399  0.1998 -0.0609
 1970SOL    HW117543   1.672   4.500  10.132 -1.5766  1.2243  0.4254
 1970SOL    HW217544   1.787   4.569  10.064  0.3153  1.3386  0.6245
 1971SOL     OW17545   3.979   0.552   4.763 -0.5552  0.2606 -0.6236
 1971SOL    HW117546   4.069   0.557   4.795 -0.5583 -1.1568 -0.4090
 1971SOL    HW217547   3.986   0.623   4.699 -0.7467 -0.2376 -1.1971
 1972SOL     OW17548   1.255   3.626   8.122  0.0137 -0.3322 -0.2267
 1972SOL    HW117549   1.253   3.621   8.218 -1.9281  0.1291 -0.2326
 1972SOL    HW217550   1.205   3.705   8.101 -1.2855 -1.0402  0.1959
 1973SOL     OW17551   1.026   1.371   0.137  0.1789 -0.2157 -0.0475
 1973SOL    HW117552   1.075   1.436   0.087 -1.4458  0.0503 -1.3120
 1973SOL    HW217553   0.971   1.425   0.194 -1.7251 -1.1022 -1.0363
 1974SOL     OW17554   3.434   1.962   9.684 -0.2620  0.0851  0.0996
 1974SOL    HW117555   3.368   1.994   9.746 -0.8506 -0.0624 -0.4520
 1974SOL    HW217556   3.488   1.901   9.735  2.1225  0.5052 -1.9434
 1975SOL     OW17557   1.720   1.441  15.767 -0.2117  0.3207  0.3836
 1975SOL    HW117558   1.760   1.528  15.764  0.2135  0.1028 -0.2169
 1975SOL    HW217559   1.680   1.441  15.680 -0.5668 -1.8010  0.5435
 1976SOL     OW17560   2.697   0.551  10.305 -0.1808 -0.3081  0.0040
 1976SOL    HW117561   2.646   0.631  10.291  0.9449  0.4877  0.3919
 1976SOL    HW217562   2.699   0.521  10.214  0.9060 -0.1191 -0.0391
 1977SOL     OW17563   0.820   4.156   7.778 -0.4216  0.8800  0.2587
 1977SOL    HW117564   0.797   4.153   7.871 -2.9908  0.6023 -0.3944
 1977SOL    HW217565   0.872   4.237   7.775 -0.8751  1.2669  2.6803
 1978SOL     OW17566   0.713   1.249   4.203  0.2258 -0.3441  0.2590
 1978SOL    HW117567   0.690   1.330   4.248 -1.0019 -1.1487  1.0840
 1978SOL    HW217568   0.639   1.196   4.233  0.6695  0.3030  2.5030
 1979SOL     OW17569   3.043   4.183   8.924  0.5957  0.0622 -0.3085
 1979SOL    HW117570   3.117   4.144   8.878 -0.2946 -1.0942 -0.7465
 1979SOL    HW217571   3.063   4.197   9.017  1.6623 -2.0255 -0.2184
 1980SOL     OW17572   3.274   1.622  12.970  0.4353 -0.2382  0.2984
 1980SOL    HW117573   3.308   1.579  13.048 -0.4588 -0.8471  0.3595
 1980SOL    HW217574   3.181   1.618  12.995  0.5628 -2.9216  0.2967
 1981SOL     OW17575   0.157   1.610   4.070 -0.7752  0.6951  0.0843
 1981SOL    HW117576   0.218   1.683   4.078 -0.3641  0.4913 -1.2293
 1981SOL    HW217577   0.210   1.545   4.117 -1.9594 -0.9013 -0.7895
 1982SOL     OW17578   1.788   2.904  16.933  0.2234  0.2443 -0.0352
 1982SOL    HW117579   1.712   2.947  16.896  0.4838  0.8982  0.1855
 1982SOL    HW217580   1.843   2.983  16.930  2.5613 -1.4187 -0.5099
 1983SOL     OW17581   2.262   0.554  15.909  0.1069  0.5106  0.7547
 1983SOL    HW117582   2.277   0.459  15.913  1.5891  0.8042  2.2552
 1983SOL    HW217583   2.346   0.583  15.945  1.1352 -0.3696 -0.9213
 1984SOL     OW17584   2.605   0.855  12.866 -0.2133  0.1231  0.1950
 1984SOL    HW117585   2.697   0.837  12.844 -0.1429 -1.6476  1.9531
 1984SOL    HW217586   2.606   0.922  12.933 -0.9966  0.4014 -0.0758
 1985SOL     OW17587   2.419   2.502   7.027  0.8459  0.4835 -0.0851
 1985SOL    HW117588   2.403   2.581   6.975 -0.8214  1.0777  1.3256
 1985SOL    HW217589   2.514   2.498   7.016  0.9371  0.8576  0.6079
 1986SOL     OW17590   3.340   0.804   1.126 -0.9130 -0.3632 -0.2057
 1986SOL    HW117591   3.292   0.795   1.208 -0.7392  0.6484  0.0096
 1986SOL    HW217592   3.283   0.869   1.084  0.0461  0.2190 -0.6180
 1987SOL     OW17593   0.328   4.195   0.495  0.1418  0.0909  0.1863
 1987SOL    HW117594   0.245   4.150   0.481  1.4643 -1.6436 -2.2289
 1987SOL    HW217595   0.372   4.157   0.571  0.2885 -0.5502 -0.2204
 1988SOL     OW17596   0.447   0.110   4.130 -0.2128  0.3334  0.5366
 1988SOL    HW117597   0.401   0.096   4.213 -0.1885 -2.9311 -0.0125
 1988SOL    HW217598   0.536   0.133   4.156 -0.8955  0.5812  2.6552
 1989SOL     OW17599   0.882   0.195  15.455 -0.1946 -0.6004  0.0325
 1989SOL    HW117600   0.822   0.256  15.413  0.6033  0.6773  0.7528
 1989SOL    HW217601   0.938   0.164  15.383  2.8652  2.2982  1.1628
 1990SOL     OW17602   0.461   3.739   3.041 -0.0434  0.2084  0.2407
 1990SOL    HW117603   0.536   3.757   2.984  0.6878  0.3173  1.2214
 1990SOL    HW217604   0.411   3.820   3.035 -0.0933  0.0914 -0.8942
 1991SOL     OW17605   3.934   0.630  10.307  0.2703  0.4696 -0.4628
 1991SOL    HW117606   4.026   0.608  10.297  0.0600 -0.0808 -1.2133
 1991SOL    HW217607   3.932   0.612  10.401 -0.3542 -2.7344 -1.1167
 1992SOL     OW17608   2.768   3.505   7.110  0.0247 -0.0166  0.4670
 1992SOL    HW117609   2.682   3.530   7.075  0.3693  0.6194  0.0784
 1992SOL    HW217610   2.821   3.583   7.096 -1.8558  0.9636 -1.2117
 1993SOL     OW17611   0.034   1.746   2.806 -0.4534  0.8065  0.5140
 1993SOL    HW117612   0.025   1.770   2.714  0.7630 -0.4672  0.0543
 1993SOL    HW217613   4.696   1.686   2.816  0.7654 -0.6368  0.9836
 1994SOL     OW17614   0.968   3.516   8.028 -1.0414  0.1020  0.2673
 1994SOL    HW117615   1.057   3.486   8.007 -0.8635  0.0828  1.0272
 1994SOL    HW217616   0.942   3.570   7.954  2.7932 -0.0088 -1.1371
 1995SOL     OW17617   3.202   2.474  14.458  0.2470 -0.0389 -0.7284
 1995SOL    HW117618   3.156   2.462  14.541  0.8357 -0.8430 -0.5154
 1995SOL    HW217619   3.153   2.547  14.420 -1.3591 -1.2769 -1.0254
 1996SOL     OW17620   0.360   3.027   8.912  0.3008  0.4126  0.0558
 1996SOL    HW117621   0.375   3.000   8.821  1.8089  3.0909 -0.4959
 1996SOL    HW217622   0.283   2.978   8.940  1.6898 -1.3231  0.8161
 1997SOL     OW17623   1.609   4.205   6.472 -0.5354 -0.1708 -0.4444
 1997SOL    HW117624   1.562   4.122   6.483  0.4073 -0.4919  1.1806
 1997SOL    HW217625   1.702   4.183   6.474 -0.0743  1.8304  0.5791
 1998SOL     OW17626   1.945   3.347   6.317 -0.2082 -0.1328 -0.2638
 1998SOL    HW117627   1.918   3.350   6.225 -0.5486  2.0170 -0.1010
 1998SOL    HW217628   1.861   3.328   6.359  0.9832 -0.3944  1.9780
 1999SOL     OW17629   0.481   3.178  14.408  0.0935  0.4936 -0.1005
 1999SOL    HW117630   0.555   3.185  14.347 -0.0374  2.2479 -0.0597
 1999SOL    HW217631   0.514   3.204  14.495 -0.2092 -2.1951  0.8086
 2000SOL     OW17632   2.253   0.328   6.603  0.1957 -0.5241  0.1502
 2000SOL    HW117633   2.174   0.311   6.551  0.9314 -0.3174 -1.0235
 2000SOL    HW217634   2.261   0.254   6.663 -1.1422  0.1114  1.1288
 2001SOL     OW17635   2.441   1.608   5.591  0.7606 -0.3566  0.0606
 2001SOL    HW117636   2.399   1.655   5.664 -0.4916  0.5942 -1.2470
 2001SOL    HW217637   2.471   1.533   5.642 -0.6821 -0.8506  0.1907
 2002SOL     OW17638   0.834   3.276   1.527  0.6996 -0.1100  0.1725
 2002SOL    HW117639   0.772   3.259   1.456 -1.0576  0.8850  1.4661
 2002SOL    HW217640   0.805   3.365   1.550  1.8656  0.4625 -0.5440
 2003SOL     OW17641   2.867   4.014   8.366  0.3724  0.6449  0.0967
 2003SOL    HW117642   2.772   4.024   8.364  0.2909 -0.2134 -0.6228
 2003SOL    HW217643   2.890   4.076   8.435  0.2231  1.2744 -0.4179
 2004SOL     OW17644   4.134   2.151   5.455 -0.2070  0.3587  0.1314
 2004SOL    HW117645   4.102   2.086   5.518  0.5515 -1.5932 -1.4977
 2004SOL    HW217646   4.057   2.196   5.421 -0.3487 -0.6321 -0.8576
 2005SOL     OW17647   4.124   0.442   6.739  0.1099 -0.3407  0.1746
 2005SOL    HW117648   4.102   0.393   6.818 -0.9851 -0.9811 -0.5260
 2005SOL    HW217649   4.045   0.471   6.695  0.7779 -0.5720 -1.1776
 2006SOL     OW17650   0.391   0.770   8.918 -0.3333 -0.1108  0.2765
 2006SOL    HW117651   0.334   0.773   8.995 -2.5800  0.0876 -1.3885
 2006SOL    HW217652   0.471   0.804   8.957  0.1778 -2.5702  1.3039
 2007SOL     OW17653   0.802   2.026  13.378 -0.6156 -0.1023  0.1992
 2007SOL    HW117654   0.760   1.987  13.301  1.1366 -1.7773  0.0900
 2007SOL    HW217655   0.737   2.095  13.388 -1.0707 -0.1627 -2.1965
 2008SOL     OW17656   1.842   0.542   9.131  0.6206  0.5922 -0.2015
 2008SOL    HW117657   1.799   0.478   9.074  2.1189 -1.3234  0.8120
 2008SOL    HW217658   1.910   0.575   9.072 -0.1749 -0.3385 -1.6352
 2009SOL     OW17659   1.259   0.337   7.957 -0.0142  0.2219 -0.1861
 2009SOL    HW117660   1.195   0.351   8.027  0.5409 -1.3877  0.6314
 2009SOL    HW217661   1.195   0.319   7.889 -2.4972  0.9007  1.9439
 2010SOL     OW17662   0.808   2.932   4.534  0.0292 -0.3630  0.3939
 2010SOL    HW117663   0.776   2.969   4.616 -0.2022  1.4764 -0.5224
 2010SOL    HW217664   0.788   2.839   4.546  0.3544 -0.2736  1.5440
 2011SOL     OW17665   4.063   4.460   5.129  0.2140 -0.1038  0.3224
 2011SOL    HW117666   4.066   4.439   5.035  0.5617  3.9206 -0.5610
 2011SOL    HW217667   3.968   4.457   5.140  0.4915 -1.7285  2.2254
 2012SOL     OW17668   3.257   0.155  10.973  0.3924  0.5426  0.7586
 2012SOL    HW117669   3.256   0.060  10.962  1.3482  0.3839  1.9728
 2012SOL    HW217670   3.214   0.153  11.059  0.1147  0.0150  0.6075
 2013SOL     OW17671   2.480   2.960   3.174 -0.6178 -0.0619 -0.4531
 2013SOL    HW117672   2.424   3.029   3.139 -1.1587 -0.8080 -1.0558
 2013SOL    HW217673   2.515   2.921   3.094  0.6631  0.8743 -0.3400
 2014SOL     OW17674   3.934   3.238   1.838  0.0036 -0.4610 -0.2601
 2014SOL    HW117675   3.858   3.187   1.809  0.9082 -3.3303  2.4494
 2014SOL    HW217676   3.911   3.326   1.808 -0.7436 -0.4517  0.3321
 2015SOL     OW17677   0.213   0.977   8.705  0.7108  0.6032 -0.0023
 2015SOL    HW117678   0.179   1.050   8.654  0.1833 -0.2638 -0.8830
 2015SOL    HW217679   0.277   0.935   8.648  1.3944  1.0794  0.4221
 2016SOL     OW17680   3.427   1.074   5.989 -0.0287 -0.1293  0.3080
 2016SOL    HW117681   3.398   1.165   5.997  2.8064  0.8138 -0.2117
 2016SOL    HW217682   3.482   1.075   6.068  0.6371  1.6210 -0.1583
 2017SOL     OW17683   1.358   3.157   4.322 -0.0215 -0.3515  0.6579
 2017SOL    HW117684   1.417   3.082   4.327  0.6222  0.1683  0.9490
 2017SOL    HW217685   1.381   3.185   4.233 -0.4069 -1.2258  0.2907
 2018SOL     OW17686   0.846   0.034   8.422 -0.1467 -0.3230 -0.0978
 2018SOL    HW117687   0.780   0.067   8.362 -3.2278 -1.5433  2.6273
 2018SOL    HW217688   0.899   0.111   8.441 -0.2092 -0.2028 -0.4124
 2019SOL     OW17689   0.750   2.836   5.057  0.3877 -0.2339  0.0538
 2019SOL    HW117690   0.756   2.761   5.115  1.6158 -1.0611 -1.1417
 2019SOL    HW217691   0.833   2.878   5.078  0.9770  0.5879 -3.9216
 2020SOL     OW17692   1.269   1.046   8.636 -0.3261 -0.6467  0.1360
 2020SOL    HW117693   1.237   1.017   8.551  1.2851 -0.0660 -0.6828
 2020SOL    HW217694   1.363   1.040   8.620 -0.3910  3.2557 -1.5491
 2021SOL     OW17695   4.502   4.024  11.482 -0.3975  0.0777  0.5719
 2021SOL    HW117696   4.434   3.958  11.475  0.0474 -0.0729 -2.6192
 2021SOL    HW217697   4.497   4.052  11.573  1.1374  0.2048  0.6179
 2022SOL     OW17698   3.291   1.561   5.339  0.4784 -0.0278 -0.0357
 2022SOL    HW117699   3.333   1.611   5.269  0.9602 -1.1718 -0.5575
 2022SOL    HW217700   3.324   1.472   5.344  1.7533  0.3760 -1.2862
 2023SOL     OW17701   1.106   1.001   4.011  0.2183 -0.1090  0.7963
 2023SOL    HW117702   1.091   0.959   3.925 -2.6363  2.0321  0.2437
 2023SOL    HW217703   1.114   0.920   4.061  2.2042  0.3897  1.2801
 2024SOL     OW17704   4.022   2.047   3.876  0.1473 -0.6378 -0.7007
 2024SOL    HW117705   4.007   2.080   3.964 -0.2119  0.3850 -1.1411
 2024SOL    HW217706   4.002   2.126   3.825 -1.0268 -0.6662 -0.2856
 2025SOL     OW17707   1.697   0.328   5.256  0.2615 -0.0872 -0.4465
 2025SOL    HW117708   1.722   0.421   5.261 -2.7906  0.6871  0.5759
 2025SOL    HW217709   1.716   0.307   5.165 -2.0315 -1.5364 -0.5958
 2026SOL     OW17710   2.538   3.075   4.570 -0.5950 -0.4532 -0.4956
 2026SOL    HW117711   2.622   3.049   4.534  0.5124  2.2596  0.0869
 2026SOL    HW217712   2.568   3.117   4.651 -1.7739  0.0286 -0.3026
 2027SOL     OW17713   4.325   3.285   0.212 -0.8334 -0.0370  0.2865
 2027SOL    HW117714   4.258   3.258   0.275  0.7842 -2.1991  1.0827
 2027SOL    HW217715   4.408   3.277   0.259 -0.1857 -0.9212 -1.0137
 2028SOL     OW17716   3.778   2.444  15.356 -0.7772 -0.1442 -0.1752
 2028SOL    HW117717   3.851   2.456  15.418 -1.7754  0.0992  0.9470
 2028SOL    HW217718   3.761   2.352  15.377 -0.7844 -0.3001 -0.8849
 2029SOL     OW17719   2.320   1.044  13.183  0.5746 -0.7036  0.0438
 2029SOL    HW117720   2.249   1.024  13.122  0.9892  1.0783 -1.0069
 2029SOL    HW217721   2.393   1.059  13.123  0.6857 -1.9457 -0.1238
 2030SOL     OW17722   4.372   3.969   0.890 -0.2280  0.0395  0.0353
 2030SOL    HW117723   4.418   3.940   0.969 -2.0126 -0.6863  0.8092
 2030SOL    HW217724   4.377   4.062   0.909 -0.7383  0.0078  0.3137
 2031SOL     OW17725   2.769   0.006   8.761  0.1876  0.4134 -0.0772
 2031SOL    HW117726   2.805   0.086   8.724 -0.1613  0.4020 -0.4408
 2031SOL    HW217727   2.846   4.696   8.794  0.8961  0.0198 -2.3186
 2032SOL     OW17728   1.530   2.690   3.267  0.2847  0.1628 -0.0040
 2032SOL    HW117729   1.466   2.705   3.198 -1.8045  3.1600  2.5561
 2032SOL    HW217730   1.506   2.600   3.289 -0.5156  0.0162 -1.4727
 2033SOL     OW17731   2.590   4.288   6.168 -0.4683 -0.3720  0.0212
 2033SOL    HW117732   2.685   4.298   6.170 -0.5982  0.1443  3.6736
 2033SOL    HW217733   2.566   4.363   6.222 -3.2820 -1.0728 -0.2148
 2034SOL     OW17734   3.148   2.571   8.604 -0.0799 -0.7850 -0.3415
 2034SOL    HW117735   3.087   2.516   8.653 -0.7542 -0.4826 -0.8475
 2034SOL    HW217736   3.130   2.548   8.513  3.7490  2.3981 -1.9416
 2035SOL     OW17737   1.144   2.127  16.932  0.5424  0.3277 -0.6778
 2035SOL    HW117738   1.213   2.184  16.966  0.0794 -0.7296  2.0718
 2035SOL    HW217739   1.154   2.132  16.837 -2.6717 -1.0833 -1.0949
 2036SOL     OW17740   0.983   2.223   3.963 -0.1461 -0.1715 -0.1166
 2036SOL    HW117741   0.981   2.300   4.019 -0.2134  0.9785 -1.6964
 2036SOL    HW217742   0.985   2.160   4.035 -0.0214  0.6483  0.5833
 2037SOL     OW17743   3.072   0.976   1.714 -0.0437  0.3010 -0.1398
 2037SOL    HW117744   3.148   0.972   1.657  2.0235  0.2631  2.6373
 2037SOL    HW217745   3.051   1.069   1.709  0.4091  0.3436 -1.2485
 2038SOL     OW17746   0.319   1.933   2.304  0.0178  0.2004  0.2022
 2038SOL    HW117747   0.326   2.017   2.351 -1.3624 -0.1412  1.0057
 2038SOL    HW217748   0.321   1.873   2.379  0.0331  1.3340  1.1148
 2039SOL     OW17749   1.133   0.762  16.223 -0.7573  0.3091 -0.1863
 2039SOL    HW117750   1.226   0.742  16.217 -0.7116  0.2081  0.8537
 2039SOL    HW217751   1.137   0.781  16.317 -0.4620  0.5866 -0.2561
 2040SOL     OW17752   0.971   1.199  11.014  0.4073 -0.3209 -0.1373
 2040SOL    HW117753   0.891   1.252  11.018  1.0950  0.8887 -2.2551
 2040SOL    HW217754   0.996   1.194  11.106  3.7047 -2.5369 -1.1822
 2041SOL     OW17755   1.499   3.270   4.132 -0.4919 -0.1416  0.3638
 2041SOL    HW117756   1.580   3.314   4.156 -1.4927  2.2719 -0.7458
 2041SOL    HW217757   1.455   3.354   4.118 -0.3237 -0.0545  0.3591
 2042SOL     OW17758   2.458   3.261   7.976 -0.2695 -0.8044  0.2842
 2042SOL    HW117759   2.393   3.193   7.995  0.6988 -1.7254  0.2491
 2042SOL    HW217760   2.520   3.253   8.048  1.4011  2.1686 -0.8370
 2043SOL     OW17761   2.256   3.708   2.930 -0.5989  0.3541  0.0178
 2043SOL    HW117762   2.299   3.779   2.977 -1.0033 -0.1965  1.2274
 2043SOL    HW217763   2.256   3.740   2.840  3.4731 -0.1299 -0.1925
 2044SOL     OW17764   3.674   2.440   5.397 -0.0673 -0.0892  0.1194
 2044SOL    HW117765   3.693   2.524   5.437 -2.9057  1.1705 -1.1578
 2044SOL    HW217766   3.579   2.447   5.388 -0.3589 -1.3776  2.2689
 2045SOL     OW17767   4.086   2.540  12.049  0.4031 -0.2130 -0.1005
 2045SOL    HW117768   4.056   2.562  12.137 -0.7612  2.4151 -1.1695
 2045SOL    HW217769   4.020   2.577  11.992  0.4131  0.5589  0.3933
 2046SOL     OW17770   1.281   4.117  14.788 -0.1170  0.3876 -0.5466
 2046SOL    HW117771   1.365   4.138  14.748  0.6170 -2.4151 -0.4625
 2046SOL    HW217772   1.271   4.184  14.855 -4.1984  0.6494 -1.3927
 2047SOL     OW17773   4.373   2.961   0.764 -0.4105 -0.0518 -0.0686
 2047SOL    HW117774   4.300   3.017   0.737  0.0826  0.4441 -0.3815
 2047SOL    HW217775   4.328   2.932   0.843 -1.5854  0.7680 -0.4371
 2048SOL     OW17776   2.103   2.143  11.329 -0.3747 -0.3636  0.0990
 2048SOL    HW117777   2.143   2.196  11.261 -0.1645 -3.5777 -2.2658
 2048SOL    HW217778   2.107   2.203  11.404 -0.6821 -0.7880  0.4556
 2049SOL     OW17779   1.406   0.540   6.553 -0.3945 -0.1298 -0.0584
 2049SOL    HW117780   1.470   0.603   6.519 -1.1042  1.4448  1.4884
 2049SOL    HW217781   1.414   0.560   6.647  1.1812  0.3723 -0.2927
 2050SOL     OW17782   3.057   2.204   6.874 -0.4972 -0.5524 -0.1977
 2050SOL    HW117783   3.146   2.218   6.905  0.4843 -1.3608 -2.6958
 2050SOL    HW217784   3.029   2.152   6.950  0.9762 -1.9961 -0.6334
 2051SOL     OW17785   3.262   0.216  14.830 -0.2478  0.0028 -0.4685
 2051SOL    HW117786   3.274   0.170  14.913  1.8988 -0.7002 -1.1481
 2051SOL    HW217787   3.187   0.180  14.783  0.0880 -1.1033 -0.1523
 2052SOL     OW17788   3.659   2.865   1.338 -0.9530 -0.2579  0.5513
 2052SOL    HW117789   3.569   2.842   1.360 -1.5282  0.1762 -1.3225
 2052SOL    HW217790   3.705   2.839   1.418  0.0361 -1.3742 -0.3853
 2053SOL     OW17791   1.443   4.591   6.451  0.4691  0.1673  0.0770
 2053SOL    HW117792   1.536   4.612   6.455  0.3811  0.2754  1.3951
 2053SOL    HW217793   1.404   4.643   6.380  1.3256  0.7515  0.0338
 2054SOL     OW17794   0.362   2.743   7.708 -0.1899  0.1284 -0.3862
 2054SOL    HW117795   0.452   2.772   7.695  0.4386 -2.1197 -1.0570
 2054SOL    HW217796   0.346   2.745   7.803 -0.6399  1.1831 -0.4871
 2055SOL     OW17797   1.224   2.355  17.604  0.6371 -0.0683  0.0676
 2055SOL    HW117798   1.147   2.303  17.583  2.1699 -1.0873 -3.0234
 2055SOL    HW217799   1.214   2.423  17.536  0.0995  0.3657  0.5865
 2056SOL     OW17800   0.683   0.574   9.295  0.4334  0.0102 -0.1550
 2056SOL    HW117801   0.622   0.641   9.264 -1.0171 -1.2630  0.0036
 2056SOL    HW217802   0.679   0.583   9.391 -1.1683  0.9926 -0.3189
 2057SOL     OW17803   1.565   4.101   3.760  0.2868  0.7331  0.0510
 2057SOL    HW117804   1.497   4.120   3.825  0.4249  0.7074  0.2021
 2057SOL    HW217805   1.632   4.080   3.825 -0.6350  1.7100  1.3396
 2058SOL     OW17806   4.284   2.019   4.550 -0.2641  0.2197  0.1294
 2058SOL    HW117807   4.208   1.987   4.598  0.6509 -2.9218 -0.5455
 2058SOL    HW217808   4.351   1.963   4.591 -0.0255  2.1616  2.4464
 2059SOL     OW17809   0.515   2.611   5.152 -0.0469 -0.2188 -0.2037
 2059SOL    HW117810   0.603   2.591   5.184 -0.1476 -0.0243  0.1934
 2059SOL    HW217811   0.473   2.548   5.211  0.9303 -1.1762 -0.5344
 2060SOL     OW17812   1.916   0.978   4.742 -0.5020  0.0744  0.3233
 2060SOL    HW117813   1.913   1.013   4.653  0.2223  0.6824  0.5398
 2060SOL    HW217814   1.951   0.891   4.720 -0.2651  0.5364 -1.0796
 2061SOL     OW17815   3.708   1.244   7.182 -0.3213  0.0439 -0.0902
 2061SOL    HW117816   3.735   1.295   7.259 -2.0970 -1.7729  1.7648
 2061SOL    HW217817   3.643   1.182   7.215  0.1255 -1.3624 -1.9132
 2062SOL     OW17818   2.350   2.408   2.604  0.0940  0.3079 -0.3221
 2062SOL    HW117819   2.304   2.491   2.600 -0.9902 -0.3200 -0.8300
 2062SOL    HW217820   2.351   2.382   2.512  0.4941 -0.2911 -0.1526
 2063SOL     OW17821   2.692   1.565   6.076  0.1109 -0.1228 -0.3753
 2063SOL    HW117822   2.609   1.609   6.058  0.7741  1.6660  1.0255
 2063SOL    HW217823   2.724   1.596   5.991 -1.6553  1.3790 -0.4816
 2064SOL     OW17824   1.762   0.484   5.546  0.1524 -0.1534  0.2400
 2064SOL    HW117825   1.792   0.511   5.459  1.8012  0.2628  0.9349
 2064SOL    HW217826   1.670   0.503   5.530  0.0456 -0.2149  0.7771
 2065SOL     OW17827   0.818   2.246  17.174 -0.3533  0.7268 -0.8296
 2065SOL    HW117828   0.895   2.285  17.134 -0.0548 -0.3432 -1.3074
 2065SOL    HW217829   0.763   2.245  17.096 -3.3092 -0.5182  1.2851
 2066SOL     OW17830   3.064   0.982   6.900  0.1391  0.0252  0.6805
 2066SOL    HW117831   2.979   0.947   6.876  0.2015 -0.0010  0.5013
 2066SOL    HW217832   3.046   1.000   6.993 -3.7909 -1.5354  0.1955
 2067SOL     OW17833   1.126   1.829   6.748 -0.0873  0.2559 -0.3181
 2067SOL    HW117834   1.033   1.819   6.728 -0.6119  1.7768  1.4353
 2067SOL    HW217835   1.123   1.921   6.773 -3.1416 -0.3029  1.4144
 2068SOL     OW17836   2.950   4.353   7.276 -0.4117 -0.3112 -0.2130
 2068SOL    HW117837   2.956   4.357   7.181  1.0100 -2.1799 -0.1856
 2068SOL    HW217838   2.949   4.448   7.293  0.7293 -0.5198  1.0248
 2069SOL     OW17839   0.641   3.078   8.649 -0.2429  0.2537  0.1790
 2069SOL    HW117840   0.549   3.051   8.643 -0.0520 -0.3047 -0.3675
 2069SOL    HW217841   0.628   3.166   8.682  0.8581  0.2096  0.7290
 2070SOL     OW17842   4.170   0.850   5.881  0.1072  0.2357  0.4873
 2070SOL    HW117843   4.247   0.794   5.871 -0.1894  0.4130 -2.7959
 2070SOL    HW217844   4.210   0.934   5.905  2.9109 -0.6281 -1.1578
 2071SOL     OW17845   0.378   0.015   2.854 -0.1148 -0.3421 -0.6781
 2071SOL    HW117846   0.428   0.097   2.843 -1.9901  0.5634 -2.4931
 2071SOL    HW217847   0.453   4.692   2.864 -0.7536 -1.2710 -1.5245
 2072SOL     OW17848   1.860   1.756   8.425 -0.1799  0.9262 -0.6294
 2072SOL    HW117849   1.785   1.749   8.483  1.3023  2.3268  1.4821
 2072SOL    HW217850   1.836   1.792   8.340 -0.3263  0.3302 -0.8376
 2073SOL     OW17851   2.229   0.091  12.845 -0.1591  0.1144 -0.6916
 2073SOL    HW117852   2.320   0.074  12.869  0.0804  2.0002 -0.2842
 2073SOL    HW217853   2.232   0.180  12.812 -0.1737  1.1121  1.9979
 2074SOL     OW17854   2.074   2.513   6.696  0.4718 -0.0502  0.0395
 2074SOL    HW117855   2.009   2.464   6.746  1.3268 -0.8803  0.3435
 2074SOL    HW217856   2.108   2.557   6.774 -0.5501 -0.2154  0.5708
 2075SOL     OW17857   1.858   3.301   8.609 -0.1762 -0.2268  0.1752
 2075SOL    HW117858   1.812   3.367   8.660 -2.0479  0.5718 -2.5699
 2075SOL    HW217859   1.914   3.255   8.671 -0.4899 -0.0635  0.5780
 2076SOL     OW17860   3.550   0.861   7.153 -0.0269 -0.1667 -0.1887
 2076SOL    HW117861   3.522   0.945   7.189 -0.5894  0.2153 -1.4845
 2076SOL    HW217862   3.471   0.812   7.131 -0.3822  1.1270 -1.8239
 2077SOL     OW17863   1.400   1.005   1.740  0.2175  0.1367 -0.2852
 2077SOL    HW117864   1.430   1.063   1.670  2.2704  0.2585  0.6961
 2077SOL    HW217865   1.376   0.924   1.695 -3.6498  0.8281  0.4722
 2078SOL     OW17866   0.064   0.469   6.003 -0.3112  0.1775 -0.6835
 2078SOL    HW117867   0.155   0.450   6.029  0.7546  0.5620 -4.1062
 2078SOL    HW217868   0.021   0.441   6.084 -0.0785 -0.7495 -0.8796
 2079SOL     OW17869   3.890   2.417   8.565  0.1171 -0.0545 -0.1038
 2079SOL    HW117870   3.888   2.458   8.651  0.8099  0.5069 -0.3571
 2079SOL    HW217871   3.801   2.382   8.577  0.2184 -0.1382  0.3813
 2080SOL     OW17872   1.495   1.607   5.740 -0.2439 -0.0715 -0.1860
 2080SOL    HW117873   1.436   1.674   5.705 -1.5352  0.4729  3.0277
 2080SOL    HW217874   1.550   1.595   5.663  0.2884  0.9852  0.0278
 2081SOL     OW17875   3.696   2.521  16.452  0.3011 -0.5914  0.2539
 2081SOL    HW117876   3.659   2.583  16.515  0.7769  0.3916 -0.4207
 2081SOL    HW217877   3.701   2.574  16.372 -1.2416  1.2032  1.3509
 2082SOL     OW17878   1.227   2.868  13.399 -0.3363  0.3484 -0.3241
 2082SOL    HW117879   1.158   2.926  13.429  0.1584  0.5996  0.3261
 2082SOL    HW217880   1.183   2.784  13.405 -1.7588  1.0789 -0.6083
 2083SOL     OW17881   3.214   2.869   5.159 -0.3742  0.2193 -0.0728
 2083SOL    HW117882   3.216   2.775   5.180 -1.7479 -0.0503 -1.1399
 2083SOL    HW217883   3.277   2.903   5.223 -1.6147  2.0562  0.1632
 2084SOL     OW17884   4.254   1.008  13.450 -0.3444  0.0060 -0.0352
 2084SOL    HW117885   4.277   0.969  13.366  2.6840 -0.3749  0.9552
 2084SOL    HW217886   4.211   0.941  13.503 -1.7711 -0.8606 -2.3170
 2085SOL     OW17887   1.462   3.781   4.681 -0.1845  0.2734 -0.9237
 2085SOL    HW117888   1.507   3.861   4.708  3.3548 -1.7689 -0.7402
 2085SOL    HW217889   1.538   3.723   4.685 -1.7356 -1.8726 -2.5452
 2086SOL     OW17890   1.099   0.175   4.841  0.1191 -0.3849 -0.3883
 2086SOL    HW117891   1.008   0.197   4.862  0.3185  0.0455  0.0430
 2086SOL    HW217892   1.078   0.096   4.791 -1.8335 -0.3323  0.3622
 2087SOL     OW17893   2.116   1.843   8.393 -0.0498  0.3021  0.4298
 2087SOL    HW117894   2.030   1.808   8.417  0.7589 -1.0767  1.3227
 2087SOL    HW217895   2.169   1.836   8.473  0.0554 -1.2451  0.2363
 2088SOL     OW17896   0.737   4.093   4.543  0.5525 -0.1110  0.5795
 2088SOL    HW117897   0.737   4.090   4.447 -0.9086 -0.7829  0.5956
 2088SOL    HW217898   0.831   4.080   4.549  0.6010  0.0540  0.1292
 2089SOL     OW17899   1.030   4.149   1.487 -0.3690 -0.2162 -0.0663
 2089SOL    HW117900   0.965   4.102   1.540 -1.8605  1.0650 -0.7401
 2089SOL    HW217901   1.009   4.240   1.508  0.5793  0.1503 -0.6948
 2090SOL     OW17902   4.377   2.212   1.788 -0.5350  0.3489  0.1484
 2090SOL    HW117903   4.295   2.255   1.812 -0.4930  0.0152  0.9079
 2090SOL    HW217904   4.438   2.286   1.783  0.3578 -0.6370 -3.4547
 2091SOL     OW17905   2.570   1.534   5.166 -0.1891  0.2154  0.1053
 2091SOL    HW117906   2.603   1.585   5.240  3.8899 -1.7136 -0.3826
 2091SOL    HW217907   2.478   1.561   5.169  0.1481  1.4064 -0.3618
 2092SOL     OW17908   4.168   4.673   7.700  0.5991 -0.0588 -0.3612
 2092SOL    HW117909   4.208   4.620   7.631 -0.5778  0.4089 -1.4032
 2092SOL    HW217910   4.217   0.018   7.687 -1.0987  0.8778 -0.9627
 2093SOL     OW17911   2.591   2.141   6.247  0.1074 -0.1429 -0.1993
 2093SOL    HW117912   2.610   2.206   6.179  1.6459  1.2621  1.5692
 2093SOL    HW217913   2.624   2.068   6.194  1.8719  0.8258 -0.4242
 2094SOL     OW17914   0.935   3.738   5.641  0.3357  0.1912 -0.1789
 2094SOL    HW117915   0.844   3.715   5.661  0.7717  0.5468  2.1188
 2094SOL    HW217916   0.967   3.738   5.731 -0.7930  1.0542  0.2385
 2095SOL     OW17917   1.607   1.212  12.970 -0.8315 -0.4594  0.2566
 2095SOL    HW117918   1.571   1.245  13.053 -1.7076 -1.2005  0.1726
 2095SOL    HW217919   1.597   1.285  12.909  0.6726 -1.6984 -1.4292
 2096SOL     OW17920   1.089   2.621   6.398 -0.3563 -0.3128 -0.0332
 2096SOL    HW117921   1.048   2.706   6.380  1.3873  0.7883  1.2620
 2096SOL    HW217922   1.035   2.571   6.336  1.4674  1.0208 -2.7184
 2097SOL     OW17923   4.124   4.000  10.547 -0.5597  0.2677 -0.3079
 2097SOL    HW117924   4.082   4.048  10.618  1.2964  1.1826  0.1688
 2097SOL    HW217925   4.173   3.942  10.605 -0.3618 -0.1762 -0.9231
 2098SOL     OW17926   1.998   0.357   8.668 -0.6133 -0.5764  0.2444
 2098SOL    HW117927   1.945   0.427   8.705  2.6634 -1.0669  5.8677
 2098SOL    HW217928   2.056   0.396   8.603 -2.7711 -0.9330 -1.9246
 2099SOL     OW17929   2.515   0.139   8.058  0.4333  0.0471 -0.0436
 2099SOL    HW117930   2.574   0.150   7.983 -1.2708  0.1430 -1.3751
 2099SOL    HW217931   2.432   0.118   8.015  0.9976  0.3693 -1.2795
 2100SOL     OW17932   3.463   3.211   2.827 -0.6456 -0.3392  0.5549
 2100SOL    HW117933   3.559   3.212   2.825 -0.6455 -1.3495  0.0528
 2100SOL    HW217934   3.440   3.119   2.814  0.1229 -0.7244  1.9966
 2101SOL     OW17935   4.400   0.010   2.327  0.3477  0.3457 -0.0057
 2101SOL    HW117936   4.304   0.008   2.322  0.3853  0.4687 -0.8243
 2101SOL    HW217937   4.416   4.736   2.233  0.9465  2.6811 -0.1598
 2102SOL     OW17938   2.305   2.812   4.286  0.4324 -0.7442 -0.2063
 2102SOL    HW117939   2.265   2.894   4.313 -1.3148 -1.3773 -0.9104
 2102SOL    HW217940   2.229   2.760   4.260 -1.0278  1.0847  0.4227
 2103SOL     OW17941   0.477   2.825  17.151  0.0372  0.1152 -0.4147
 2103SOL    HW117942   0.498   2.859  17.064  0.4324 -2.2544 -1.2581
 2103SOL    HW217943   0.384   2.810  17.139 -0.3244  1.8916  0.1934
 2104SOL     OW17944   2.297   1.938  11.466 -0.0461 -0.7726  0.0369
 2104SOL    HW117945   2.390   1.943  11.440 -0.4736 -0.3597 -1.4298
 2104SOL    HW217946   2.260   2.004  11.408  2.0299  1.3927  1.2005
 2105SOL     OW17947   0.104   3.068   5.586 -0.0977  0.7166  0.3680
 2105SOL    HW117948   0.173   3.050   5.650 -0.0854  1.3042  0.5180
 2105SOL    HW217949   0.035   3.017   5.628  1.6786 -3.5557 -1.9028
 2106SOL     OW17950   4.516   0.057   1.067  0.4219  0.1397 -0.6374
 2106SOL    HW117951   4.524   0.054   0.972 -0.2478 -0.7674 -0.6717
 2106SOL    HW217952   4.588   0.119   1.076  1.2313 -0.8389 -0.3851
 2107SOL     OW17953   1.800   3.313   3.471 -0.3637 -0.3116  0.1039
 2107SOL    HW117954   1.708   3.315   3.495  0.2207 -1.2396  2.4404
 2107SOL    HW217955   1.847   3.274   3.545  1.3120  0.2729 -0.6406
 2108SOL     OW17956   4.467   3.509   0.077 -0.0683 -0.0736  0.2236
 2108SOL    HW117957   4.560   3.490   0.064  0.3534  2.0093  0.2813
 2108SOL    HW217958   4.439   3.424   0.044  1.4499 -1.2319  1.8864
 2109SOL     OW17959   2.255   1.091   2.820  0.2758  0.9285  0.3792
 2109SOL    HW117960   2.172   1.083   2.773  0.0761 -1.3829  1.1223
 2109SOL    HW217961   2.242   1.158   2.888  0.2283 -0.5674  1.8619
 2110SOL     OW17962   1.390   2.370   1.363  0.4546  0.2674 -0.3806
 2110SOL    HW117963   1.368   2.282   1.333  2.2128  0.1249 -1.2486
 2110SOL    HW217964   1.483   2.377   1.339  0.6955  0.9102  0.7193
 2111SOL     OW17965   3.170   2.361   7.463  0.3446  0.0896  0.8193
 2111SOL    HW117966   3.264   2.344   7.457  0.1296 -0.6288 -0.4660
 2111SOL    HW217967   3.161   2.354   7.558 -0.4547  4.0968  1.0180
 2112SOL     OW17968   0.079   2.168   4.663 -0.1953  0.5080 -0.2651
 2112SOL    HW117969   4.732   2.123   4.681  0.0981 -0.2006 -0.7079
 2112SOL    HW217970   0.080   2.241   4.725  1.0664 -0.0220  0.3408
 2113SOL     OW17971   2.730   4.143   8.564 -0.1864 -0.3698 -0.1841
 2113SOL    HW117972   2.709   4.160   8.656  1.7677  1.1414 -0.0370
 2113SOL    HW217973   2.673   4.069   8.540  0.5378 -1.2574  0.8655
 2114SOL     OW17974   1.339   2.290   0.139  0.1686  0.4466  0.0870
 2114SOL    HW117975   1.364   2.376   0.175  1.4392 -0.2134  0.7715
 2114SOL    HW217976   1.314   2.313   0.050  0.7167  1.3803  0.1708
 2115SOL     OW17977   3.370   1.146   7.017 -0.6081  0.0579  0.0701
 2115SOL    HW117978   3.280   1.169   7.039 -0.8165 -1.4393  0.7898
 2115SOL    HW217979   3.419   1.228   7.012  1.2279 -1.1236 -1.4005
 2116SOL     OW17980   1.982   1.308   7.960 -0.5000  0.4628  0.7864
 2116SOL    HW117981   2.010   1.229   7.913 -0.3816  1.7326 -1.2787
 2116SOL    HW217982   1.907   1.336   7.908 -1.9582 -2.1905  1.4791
 2117SOL     OW17983   3.553   3.139   4.290  0.5515 -0.0753 -0.2179
 2117SOL    HW117984   3.639   3.137   4.248 -0.1592 -0.1491 -1.6554
 2117SOL    HW217985   3.510   3.063   4.251 -0.5169  0.3114  0.1829
 2118SOL     OW17986   2.234   2.572   9.227  0.0836 -0.2479 -0.0463
 2118SOL    HW117987   2.313   2.592   9.276  0.5105  1.2139 -1.3593
 2118SOL    HW217988   2.224   2.658   9.188  0.9081 -1.4753 -2.9785
 2119SOL     OW17989   3.498   3.923   6.967  0.3370  0.6356  0.5042
 2119SOL    HW117990   3.434   3.991   6.990 -0.7813  0.0849 -1.0118
 2119SOL    HW217991   3.445   3.889   6.895  0.4653  0.2661  0.5852
 2120SOL     OW17992   1.101   3.336  16.774 -0.2456 -0.4398  0.1693
 2120SOL    HW117993   1.132   3.424  16.793 -2.0950 -0.4795  3.3639
 2120SOL    HW217994   1.024   3.370  16.728 -0.4751 -3.3661 -1.5644
 2121SOL     OW17995   2.445   1.174   0.270 -0.1236  0.1921 -0.1365
 2121SOL    HW117996   2.435   1.179   0.175 -1.6000 -2.7918 -0.1176
 2121SOL    HW217997   2.512   1.107   0.283 -1.6049 -1.1888  0.2942
 2122SOL     OW17998   1.129   2.972   1.813  0.2302 -0.0225 -0.0304
 2122SOL    HW117999   1.186   2.926   1.751 -1.7661 -1.1410 -1.0496
 2122SOL    HW218000   1.066   3.006   1.749 -0.0975  0.9867  0.8203
 2123SOL     OW18001   3.172   3.062   7.584 -0.3099 -0.1192  0.6403
 2123SOL    HW118002   3.171   3.012   7.666  0.3488 -2.5582 -0.8227
 2123SOL    HW218003   3.154   3.150   7.617 -0.5913 -1.5157  4.3054
 2124SOL     OW18004   1.505   0.099   2.054 -0.0334 -0.2201 -0.0415
 2124SOL    HW118005   1.596   0.128   2.063 -0.1780 -0.0632  0.9215
 2124SOL    HW218006   1.468   0.153   1.984  1.6464  0.9390 -0.0349
 2125SOL     OW18007   1.250   1.423   6.182  0.1265 -0.6083 -0.8782
 2125SOL    HW118008   1.262   1.367   6.259  1.8105  0.8292 -0.1096
 2125SOL    HW218009   1.333   1.469   6.178  0.5034 -0.9444  2.9993
 2126SOL     OW18010   1.821   0.320  12.511  0.0267  0.1871  0.3299
 2126SOL    HW118011   1.828   0.296  12.419 -1.7216 -1.5319  0.6525
 2126SOL    HW218012   1.730   0.341  12.533  0.4744  1.7963  0.6991
 2127SOL     OW18013   3.038   0.646  13.513 -0.4762  0.2838  0.2528
 2127SOL    HW118014   3.028   0.722  13.571 -0.2884 -0.0377  0.7026
 2127SOL    HW218015   2.976   0.581  13.546 -0.3474  0.2445  0.4182
 2128SOL     OW18016   0.116   1.053   7.098  0.0495  0.7159  0.0243
 2128SOL    HW118017   0.078   1.141   7.086  1.6239  1.2961 -0.6689
 2128SOL    HW218018   0.209   1.073   7.086 -0.0006 -0.1890 -1.8622
 2129SOL     OW18019   3.524   1.430  14.557  0.3570 -0.0144  0.1372
 2129SOL    HW118020   3.485   1.384  14.482  0.9917 -0.1175 -0.1312
 2129SOL    HW218021   3.449   1.485  14.581  0.3947  1.1773 -2.4516
 2130SOL     OW18022   1.374   0.971   7.411  0.5996  0.3228  0.0690
 2130SOL    HW118023   1.393   0.902   7.347  1.0656  2.2813 -1.8822
 2130SOL    HW218024   1.386   0.920   7.491 -0.1402  1.2207  0.7439
 2131SOL     OW18025   2.353   2.595   5.806 -0.0171  0.3416  0.2391
 2131SOL    HW118026   2.263   2.576   5.781  0.2614  0.9919 -1.2359
 2131SOL    HW218027   2.327   2.668   5.862  0.9235  0.5105  0.4619
 2132SOL     OW18028   3.900   4.478   3.733  0.1659  0.0701  0.3897
 2132SOL    HW118029   3.989   4.445   3.744  0.8598  0.7402 -3.2040
 2132SOL    HW218030   3.853   4.397   3.752 -2.6068  1.6881  0.4008
 2133SOL     OW18031   4.527   0.349   3.156 -0.1611  0.0550  0.1035
 2133SOL    HW118032   4.617   0.321   3.170 -0.2189  0.5220  1.3499
 2133SOL    HW218033   4.486   0.262   3.157  1.7201 -0.8275  0.0327
 2134SOL     OW18034   2.009   3.142  17.041 -0.4180 -0.4211 -0.0240
 2134SOL    HW118035   1.948   3.150  16.968  0.0556  0.5342 -0.3057
 2134SOL    HW218036   2.087   3.189  17.013 -0.4872 -0.6660 -0.6234
 2135SOL     OW18037   2.999   3.742   7.346 -0.5563 -0.0010  0.1112
 2135SOL    HW118038   2.954   3.715   7.426 -0.0212 -0.1251  0.3704
 2135SOL    HW218039   2.927   3.741   7.283 -0.6628 -0.0033  0.2323
 2136SOL     OW18040   2.303   2.888  11.625  0.5893 -0.0366  0.2783
 2136SOL    HW118041   2.255   2.971  11.630 -1.1946 -1.1571  1.4762
 2136SOL    HW218042   2.391   2.917  11.646  0.2714  1.4065 -0.3306
 2137SOL     OW18043   1.145   2.738   3.223  0.2263  0.6603 -0.0016
 2137SOL    HW118044   1.168   2.657   3.177 -0.2440  1.5945 -1.8928
 2137SOL    HW218045   1.135   2.795   3.147 -3.3785  1.8937  1.4356
 2138SOL     OW18046   1.399   2.483   4.694 -0.2532 -0.0839 -0.1626
 2138SOL    HW118047   1.423   2.575   4.699  1.3554 -0.5669  0.8370
 2138SOL    HW218048   1.440   2.466   4.609 -2.3429 -0.5960 -1.0771
 2139SOL     OW18049   3.207   4.273   7.929 -0.1701 -0.4657 -0.2912
 2139SOL    HW118050   3.142   4.203   7.926 -1.2933  0.4796  2.4229
 2139SOL    HW218051   3.288   4.222   7.922 -0.4032 -0.4890 -2.8208
 2140SOL     OW18052   4.433   2.487   6.986  0.3696  0.2560 -0.2616
 2140SOL    HW118053   4.487   2.465   7.062  0.2176 -1.3258 -0.6153
 2140SOL    HW218054   4.488   2.437   6.926  1.4675  0.0708  0.8908
 2141SOL     OW18055   3.140   0.975   8.803 -0.3238 -0.1032  1.2055
 2141SOL    HW118056   3.073   0.907   8.794 -0.6086  0.5491 -1.4790
 2141SOL    HW218057   3.188   0.975   8.720 -0.2434 -0.5866  1.2518
 2142SOL     OW18058   1.946   2.556  16.325  0.6347  0.4887 -0.1225
 2142SOL    HW118059   1.861   2.599  16.322  1.4339  2.0505 -0.0647
 2142SOL    HW218060   1.924   2.463  16.316  0.0167  0.2456  3.5311
 2143SOL     OW18061   4.332   1.648   3.892  0.2391 -0.0417  0.3209
 2143SOL    HW118062   4.294   1.623   3.808 -0.7781  1.4740  0.3224
 2143SOL    HW218063   4.297   1.576   3.944 -3.1746  0.8769 -0.7345
 2144SOL     OW18064   4.339   4.631  16.816  0.6038 -0.1480  0.4158
 2144SOL    HW118065   4.288   4.580  16.753 -1.0316  1.4264  0.4858
 2144SOL    HW218066   4.280   4.613  16.890 -0.1147 -0.7070 -0.2925
 2145SOL     OW18067   3.718   2.218   7.351  0.3063  0.1123 -0.3372
 2145SOL    HW118068   3.787   2.282   7.333  2.0571 -0.8967  2.7218
 2145SOL    HW218069   3.765   2.140   7.384 -0.3345  0.6765  1.9023
 2146SOL     OW18070   4.104   0.486   5.629 -0.1182 -0.1348 -0.5161
 2146SOL    HW118071   4.088   0.507   5.721 -0.9540 -0.6759 -0.5436
 2146SOL    HW218072   4.113   0.574   5.593 -1.3585  0.0283 -0.4188
 2147SOL     OW18073   0.582   2.719   8.822  0.0679 -0.1506 -0.2571
 2147SOL    HW118074   0.577   2.769   8.741  1.8351  1.2652  0.5082
 2147SOL    HW218075   0.672   2.737   8.850 -0.2556  0.7390  0.2119
 2148SOL     OW18076   0.670   4.429  10.563  0.4243  0.0795 -0.2047
 2148SOL    HW118077   0.724   4.480  10.623  0.9128  0.9932 -1.4239
 2148SOL    HW218078   0.602   4.418  10.629  0.9036  1.3060  0.4956
 2149SOL     OW18079   1.946   1.142  12.356 -0.7154  0.2578  0.0994
 2149SOL    HW118080   2.021   1.140  12.296  1.7170  1.5564  3.0747
 2149SOL    HW218081   1.983   1.087  12.425  0.3873 -0.3992 -1.0083
 2150SOL     OW18082   3.576   0.952  15.604 -0.0055  0.2389 -0.5151
 2150SOL    HW118083   3.510   0.909  15.659  1.7106 -0.2423  1.1735
 2150SOL    HW218084   3.610   0.873  15.562 -0.9009  0.4086 -1.5334
 2151SOL     OW18085   1.379   3.818   3.582  0.5429 -0.3730  0.1143
 2151SOL    HW118086   1.302   3.763   3.570  0.9548 -0.6311 -1.4442
 2151SOL    HW218087   1.345   3.906   3.562 -1.5450 -0.7619  2.0379
 2152SOL     OW18088   0.129   1.765   8.017  0.4900 -0.3698 -0.1342
 2152SOL    HW118089   0.204   1.786   8.072  0.4160  0.7193 -0.4362
 2152SOL    HW218090   0.169   1.725   7.939 -0.7204 -2.8065  0.5096
 2153SOL     OW18091   2.043   3.007   4.853 -0.3003  0.0505  0.6893
 2153SOL    HW118092   1.956   3.041   4.829  0.1369 -0.2099 -1.2521
 2153SOL    HW218093   2.102   3.065   4.805  0.6784 -0.4672  1.2622
 2154SOL     OW18094   1.446   1.287   3.225  0.5324 -0.5187 -0.2705
 2154SOL    HW118095   1.403   1.322   3.303 -0.6783  2.1763 -2.1769
 2154SOL    HW218096   1.363   1.277   3.179  0.7875  0.8497 -1.0236
 2155SOL     OW18097   0.536   3.630   6.399  0.9652 -0.0555 -0.1156
 2155SOL    HW118098   0.474   3.669   6.338  1.2367 -1.3695 -1.2355
 2155SOL    HW218099   0.518   3.681   6.478  0.0665 -1.3162  0.4893
 2156SOL     OW18100   0.644   3.800   0.004  0.0927  0.2341 -0.1430
 2156SOL    HW118101   0.725   3.849  17.736  0.0305  0.5508  0.8473
 2156SOL    HW218102   0.674   3.710   0.019 -0.6902 -0.0526 -0.2445
 2157SOL     OW18103   0.962   2.985   2.149 -0.3440  0.4316 -0.0814
 2157SOL    HW118104   0.878   3.027   2.170 -0.2558  1.1434 -1.1512
 2157SOL    HW218105   0.959   3.002   2.055 -0.8291  3.0424  0.4152
 2158SOL     OW18106   0.090   3.595   7.732 -0.1546  0.3947  0.2891
 2158SOL    HW118107   0.094   3.526   7.665  2.0986  1.6047 -0.8178
 2158SOL    HW218108   0.085   3.673   7.676  0.8236  0.3108  0.0746
 2159SOL     OW18109   4.717   1.287   4.230 -0.1813 -0.7610 -0.0615
 2159SOL    HW118110   4.632   1.256   4.198 -0.1819 -0.2388 -0.5618
 2159SOL    HW218111   4.691   1.341   4.304 -0.5920  0.8841 -1.4250
 2160SOL     OW18112   1.620   4.077   1.933 -0.1769 -0.0169  0.1432
 2160SOL    HW118113   1.525   4.079   1.935 -0.2002 -0.4848 -0.9477
 2160SOL    HW218114   1.647   4.061   1.843 -1.2370 -0.1355 -0.1474
 2161SOL     OW18115   3.797   4.694   7.542 -0.1380 -0.5397 -0.5539
 2161SOL    HW118116   3.877   4.720   7.497  0.1630 -2.3967 -1.1088
 2161SOL    HW218117   3.822   4.701   7.634 -1.8252 -2.0501  0.0248
 2162SOL     OW18118   4.573   1.305   2.729 -0.3478  0.1255  0.2901
 2162SOL    HW118119   4.501   1.349   2.773 -0.0980 -0.1041  0.9249
 2162SOL    HW218120   4.544   1.214   2.731  1.9434 -0.6077  0.9006
 2163SOL     OW18121   2.207   2.827   6.670 -0.1274 -0.3297  0.5182
 2163SOL    HW118122   2.125   2.800   6.628  1.5739 -2.0054 -1.6976
 2163SOL    HW218123   2.268   2.841   6.598  0.8300 -1.2144  1.1592
 2164SOL     OW18124   2.237   3.216   5.279 -0.3530  0.0026 -0.1188
 2164SOL    HW118125   2.205   3.306   5.282 -1.1115 -0.2468 -0.6261
 2164SOL    HW218126   2.169   3.177   5.334  0.3172  1.3919  1.6871
 2165SOL     OW18127   2.574   0.695   2.970  0.0584 -0.0563  0.2522
 2165SOL    HW118128   2.506   0.628   2.966 -1.2594  1.2494  1.1969
 2165SOL    HW218129   2.602   0.687   3.061  0.1125  0.3380  0.2683
 2166SOL     OW18130   0.360   3.544   0.042  0.5908 -0.4781 -0.0565
 2166SOL    HW118131   0.388   3.504  17.702  0.7363  0.8620 -0.6610
 2166SOL    HW218132   0.360   3.466   0.098 -0.7711 -1.2383 -1.1272
 2167SOL     OW18133   1.384   3.162   0.384  0.6326 -0.2168 -0.6648
 2167SOL    HW118134   1.421   3.076   0.364 -2.4478 -1.7872  0.4466
 2167SOL    HW218135   1.410   3.205   0.302 -0.1771  0.4090 -0.5926
 2168SOL     OW18136   3.410   2.515   5.406  0.1158  0.4779  0.1319
 2168SOL    HW118137   3.358   2.439   5.433  1.4830 -0.8910 -1.0652
 2168SOL    HW218138   3.372   2.572   5.473 -0.4459  0.0709  0.1621
 2169SOL     OW18139   3.414   0.657  15.425  0.2092  0.2623 -0.2845
 2169SOL    HW118140   3.501   0.694  15.442  0.7479 -0.8980 -0.5485
 2169SOL    HW218141   3.370   0.738  15.451 -0.0022 -0.6936  2.3238
 2170SOL     OW18142   1.595   4.090  13.882 -0.1591  0.2392  0.0369
 2170SOL    HW118143   1.552   4.109  13.798  0.8212 -0.8286 -0.7104
 2170SOL    HW218144   1.682   4.057  13.857 -0.1899 -0.1982  0.5046
 2171SOL     OW18145   2.978   2.008  16.069 -0.6921 -0.7381 -0.1270
 2171SOL    HW118146   2.923   2.056  16.131  0.3860  0.0811  0.1936
 2171SOL    HW218147   2.918   1.998  15.995 -0.0741 -2.1333 -0.4508
 2172SOL     OW18148   0.119   3.066  16.307  0.5299 -0.1055  0.6326
 2172SOL    HW118149   0.107   2.971  16.298  0.0533  0.0716 -0.5665
 2172SOL    HW218150   0.171   3.077  16.227  0.6257  2.7595  1.1001
 2173SOL     OW18151   4.148   3.143   9.130  0.2111  0.2766  0.0985
 2173SOL    HW118152   4.079   3.122   9.067  0.1321  0.3420  0.1638
 2173SOL    HW218153   4.212   3.162   9.062  0.1372  0.3685  0.0546
 2174SOL     OW18154   0.949   2.630  12.239  0.2054 -0.1056  0.2450
 2174SOL    HW118155   1.004   2.707  12.222 -0.1801 -0.1643 -1.2565
 2174SOL    HW218156   0.873   2.670  12.281  0.4523  0.5369  0.0841
 2175SOL     OW18157   4.069   0.619  11.053 -0.1849 -0.2200  0.6691
 2175SOL    HW118158   4.143   0.577  11.095  0.2358 -1.3575 -1.2164
 2175SOL    HW218159   4.011   0.631  11.128 -0.0721 -1.5869  0.9572
 2176SOL     OW18160   1.708   1.757  16.526 -0.9057 -0.0291  0.4473
 2176SOL    HW118161   1.802   1.751  16.538 -1.1555 -3.9336  0.6294
 2176SOL    HW218162   1.693   1.663  16.540 -0.0653 -0.4550 -1.4190
 2177SOL     OW18163   0.004   3.877   2.631  0.0072  0.1978 -0.2086
 2177SOL    HW118164   4.724   3.947   2.568  1.1334 -0.0920 -0.8247
 2177SOL    HW218165   4.679   3.808   2.602 -0.1471 -0.2820  1.2764
 2178SOL     OW18166   4.519   1.318  16.090 -0.2082  0.4166  0.1118
 2178SOL    HW118167   4.594   1.361  16.132 -0.2625  0.7016 -0.0806
 2178SOL    HW218168   4.454   1.383  16.115 -0.0592  0.8819 -0.6760
 2179SOL     OW18169   3.689   4.196   0.713  0.0158  0.1807 -0.6995
 2179SOL    HW118170   3.627   4.133   0.676 -0.9039  1.7129 -1.7452
 2179SOL    HW218171   3.758   4.134   0.737  0.3650  0.5024 -0.8819
 2180SOL     OW18172   1.498   2.077   2.935  0.1094 -0.1054  0.2205
 2180SOL    HW118173   1.527   2.104   2.848 -1.0595  0.5826  0.0409
 2180SOL    HW218174   1.562   2.121   2.992  0.5427 -3.1773  2.0632
 2181SOL     OW18175   3.470   2.394   4.226 -0.5781  0.3542 -0.0838
 2181SOL    HW118176   3.392   2.447   4.245  0.0482  1.3506 -0.2614
 2181SOL    HW218177   3.430   2.318   4.184  0.6743 -0.3911  0.0593
 2182SOL     OW18178   4.100   2.186  13.594  0.4653 -0.2940 -0.2953
 2182SOL    HW118179   4.176   2.232  13.558 -0.1082  0.4681 -0.5472
 2182SOL    HW218180   4.054   2.251  13.647 -1.3684 -0.8484 -1.2047
 2183SOL     OW18181   3.732   3.029   3.101  0.3805  0.4781  0.8289
 2183SOL    HW118182   3.762   3.049   3.189  0.3255 -1.2549  1.2498
 2183SOL    HW218183   3.636   3.030   3.105  0.2110  0.7960 -3.4401
 2184SOL     OW18184   2.761   0.378   1.058 -0.8983 -0.6492  0.6688
 2184SOL    HW118185   2.808   0.295   1.061 -0.4559 -0.4597 -1.0831
 2184SOL    HW218186   2.703   0.363   0.983  0.1324 -2.5758  0.2827
 2185SOL     OW18187   3.455   3.446   0.479  0.2750  0.1812 -0.7656
 2185SOL    HW118188   3.521   3.401   0.532  0.3418  0.3208 -0.7298
 2185SOL    HW218189   3.410   3.370   0.443 -2.7028  0.9660  1.3480
 2186SOL     OW18190   3.642   0.432   5.941 -0.9088  0.2141 -0.3721
 2186SOL    HW118191   3.683   0.471   6.018 -1.3086 -1.6834  0.7922
 2186SOL    HW218192   3.639   0.338   5.957 -0.2218  0.4668  1.3269
 2187SOL     OW18193   0.614   0.771   8.242  0.2657 -0.2255  0.3428
 2187SOL    HW118194   0.665   0.851   8.240 -0.6358  0.2986 -1.5402
 2187SOL    HW218195   0.526   0.809   8.246 -0.4435 -1.9981  1.9744
 2188SOL     OW18196   4.644   4.674   8.258 -0.6058 -0.4477  0.5018
 2188SOL    HW118197   4.684   4.588   8.266  1.2407  0.0402 -3.4854
 2188SOL    HW218198   4.628   4.683   8.352  0.0158 -0.7286  0.6338
 2189SOL     OW18199   0.904   2.452   6.701 -0.0216 -0.0747 -0.3188
 2189SOL    HW118200   0.864   2.466   6.615 -0.0374 -0.3512 -0.3568
 2189SOL    HW218201   0.852   2.509   6.758  0.7612  0.6089 -0.2707
 2190SOL     OW18202   4.618   2.399  11.677  0.3222  0.2765  0.0137
 2190SOL    HW118203   4.552   2.331  11.667 -1.2104  1.8443 -0.3933
 2190SOL    HW218204   4.681   2.357  11.737  1.2255  2.0375  0.2854
 2191SOL     OW18205   3.373   0.592   9.104 -0.3929 -0.3216 -0.3460
 2191SOL    HW118206   3.311   0.626   9.040  0.0864  0.6786 -0.2743
 2191SOL    HW218207   3.351   0.500   9.123  0.3618 -0.4442 -0.0792
 2192SOL     OW18208   2.652   3.335   9.875  0.0757 -0.1680  0.3428
 2192SOL    HW118209   2.686   3.290   9.952  1.4516  0.9199  0.3572
 2192SOL    HW218210   2.653   3.267   9.808  0.0551  1.4138 -1.2414
 2193SOL     OW18211   0.654   3.298   8.437  0.3332  0.3315  0.3865
 2193SOL    HW118212   0.740   3.296   8.395  0.0730 -0.0103 -0.1162
 2193SOL    HW218213   0.675   3.338   8.522 -0.7041  2.3906 -0.3314
 2194SOL     OW18214   2.718   4.641   1.347  0.2114 -0.1930 -0.1957
 2194SOL    HW118215   2.778   4.707   1.382 -2.7454  2.7478 -0.6616
 2194SOL    HW218216   2.737   4.628   1.254 -1.2699  1.6865 -0.7627
 2195SOL     OW18217   0.877   2.691  16.816 -0.2975  0.7153 -0.5397
 2195SOL    HW118218   0.787   2.658  16.824  0.2949 -0.4293  1.6464
 2195SOL    HW218219   0.866   2.716  16.725 -0.2188  0.6556 -0.5653
 2196SOL     OW18220   1.181   1.010   1.949  0.5024  0.1829  0.1391
 2196SOL    HW118221   1.258   0.991   1.896  1.6716 -2.0224  2.5953
 2196SOL    HW218222   1.140   1.088   1.911  0.1396  0.0651  0.2840
 2197SOL     OW18223   0.065   3.480   4.975  0.3152  0.0681  0.0556
 2197SOL    HW118224   0.139   3.443   4.927 -0.7538  0.1699 -1.6562
 2197SOL    HW218225   0.038   3.547   4.912  1.4702  0.8374  0.3754
 2198SOL     OW18226   3.300   3.477   3.169 -0.4451 -0.3807  0.0141
 2198SOL    HW118227   3.389   3.475   3.205 -0.5852 -0.9116  0.3394
 2198SOL    HW218228   3.292   3.558   3.118  1.4911  0.9794  1.8649
 2199SOL     OW18229   1.925   1.339   2.982  0.4936  0.0062 -0.4507
 2199SOL    HW118230   1.948   1.341   3.075  0.7533  1.1264 -0.5463
 2199SOL    HW218231   1.839   1.297   2.991  1.4795 -1.2921  3.0610
 2200SOL     OW18232   4.184   4.718  13.577 -0.0496  0.6414  0.2642
 2200SOL    HW118233   4.260   0.018  13.623  0.5730 -0.1480 -0.1510
 2200SOL    HW218234   4.225   4.639  13.542 -2.1723 -0.8213  1.0737
 2201SOL     OW18235   1.699   2.307   5.096  0.2366 -0.3073  0.1025
 2201SOL    HW118236   1.734   2.248   5.029  0.7925 -0.3922  0.4697
 2201SOL    HW218237   1.734   2.392   5.067  0.6114 -0.5324 -0.1093
 2202SOL     OW18238   3.358   1.550   9.032  0.2398  0.8272 -0.2856
 2202SOL    HW118239   3.379   1.477   9.090 -1.7163  1.0400  0.7166
 2202SOL    HW218240   3.270   1.526   9.003 -0.1520  1.9367 -0.0285
 2203SOL     OW18241   3.265   3.389   8.676 -0.0637 -0.4581  0.8054
 2203SOL    HW118242   3.173   3.363   8.681 -0.9853  2.0065 -3.0573
 2203SOL    HW218243   3.288   3.360   8.588 -0.2273  0.5810  0.4151
 2204SOL     OW18244   4.047   0.744  14.329 -0.1431 -0.1529 -0.1999
 2204SOL    HW118245   4.055   0.788  14.244 -1.6809 -0.3232 -0.4245
 2204SOL    HW218246   4.136   0.765  14.358 -0.2853  0.3878 -0.1622
 2205SOL     OW18247   4.128   4.671   6.990  0.1533 -0.2125 -0.8838
 2205SOL    HW118248   4.200   4.732   7.008 -0.8001  0.7614 -0.3836
 2205SOL    HW218249   4.049   4.725   6.991 -2.0564 -3.4875  2.1095
 2206SOL     OW18250   0.213   1.916   6.031  0.5355 -0.3312  0.2133
 2206SOL    HW118251   0.143   1.968   5.990  1.5872  1.4322  0.6768
 2206SOL    HW218252   0.258   1.970   6.096  1.3124 -0.1608 -0.4702
 2207SOL     OW18253   0.419   4.482  12.047 -0.3427  0.0756  0.0083
 2207SOL    HW118254   0.481   4.409  12.050 -0.0729  0.2961 -0.2798
 2207SOL    HW218255   0.388   4.480  11.956  0.8623  2.9430 -0.4429
 2208SOL     OW18256   0.216   0.913   0.364  0.2140 -0.1434 -0.4698
 2208SOL    HW118257   0.292   0.964   0.337  0.4714  1.0283  2.4544
 2208SOL    HW218258   0.238   0.886   0.454 -0.4654  0.7913 -0.0199
 2209SOL     OW18259   3.119   3.534   2.729  0.8928 -0.0852 -0.1173
 2209SOL    HW118260   3.200   3.583   2.717 -0.3744  1.8837 -0.6588
 2209SOL    HW218261   3.129   3.439   2.718 -1.0323 -0.5250  1.8258
 2210SOL     OW18262   2.433   2.921   4.976 -0.1198  0.1661  0.5458
 2210SOL    HW118263   2.523   2.891   4.968 -0.1851 -0.0152  0.4753
 2210SOL    HW218264   2.437   3.015   4.993 -3.7070  0.2337  1.1306
 2211SOL     OW18265   4.154   2.522  10.583  0.2052 -0.8768 -0.2027
 2211SOL    HW118266   4.236   2.516  10.535 -0.0479  1.4801 -0.9636
 2211SOL    HW218267   4.104   2.572  10.518 -1.1552  0.2718  1.7268
 2212SOL     OW18268   4.321   2.298   6.719  0.4768  0.7304 -0.3625
 2212SOL    HW118269   4.406   2.336   6.739  0.9334 -0.6811  0.3462
 2212SOL    HW218270   4.338   2.204   6.724 -1.2154  0.4456  0.0219
 2213SOL     OW18271   1.889   0.632   2.487 -0.2584 -0.0370 -0.3149
 2213SOL    HW118272   1.840   0.566   2.536  1.9058 -2.0154 -0.8151
 2213SOL    HW218273   1.828   0.706   2.490  1.6532  1.5486 -0.1697
 2214SOL     OW18274   1.291   0.128   9.465 -0.2906  0.4402  0.2823
 2214SOL    HW118275   1.260   0.215   9.492 -0.5052  0.2442  0.6762
 2214SOL    HW218276   1.301   0.086   9.551  0.1497  1.4252  0.7127
 2215SOL     OW18277   1.253   0.867  14.041 -0.3832  0.1585  0.3821
 2215SOL    HW118278   1.220   0.889  13.954 -2.9631  1.1002  1.5830
 2215SOL    HW218279   1.167   0.834  14.068 -0.3273  0.6207  1.1314
 2216SOL     OW18280   1.337   1.677   7.904 -0.6649 -0.0166  0.0817
 2216SOL    HW118281   1.241   1.671   7.903 -0.7022  0.5898  0.2082
 2216SOL    HW218282   1.355   1.628   7.824 -0.2385 -0.1422  0.2552
 2217SOL     OW18283   0.123   3.435  16.479  0.1217 -0.6792  0.6311
 2217SOL    HW118284   0.156   3.507  16.532  0.8346 -2.1371  2.1522
 2217SOL    HW218285   0.042   3.404  16.519 -0.3372  0.9154  0.9394
 2218SOL     OW18286   0.175   3.344   6.838 -0.2190  0.3592 -0.0911
 2218SOL    HW118287   0.106   3.410   6.839 -1.3477 -0.8972  2.4215
 2218SOL    HW218288   0.119   3.273   6.868 -0.6208 -0.2477 -2.2543
 2219SOL     OW18289   0.629   3.251   2.433  0.1631  0.2112 -0.1146
 2219SOL    HW118290   0.644   3.319   2.499  1.3007 -0.7958  0.6613
 2219SOL    HW218291   0.684   3.180   2.465 -1.0152 -0.9734 -0.7105
 2220SOL     OW18292   0.632   2.995   1.450  0.2911  0.5787 -0.2079
 2220SOL    HW118293   0.594   2.969   1.534 -0.1492 -1.4713 -1.0602
 2220SOL    HW218294   0.611   3.085   1.425 -1.8877 -0.0482 -0.5697
 2221SOL     OW18295   0.539   2.053  16.278  0.4182 -0.5551 -0.5088
 2221SOL    HW118296   0.614   2.092  16.323 -0.3380 -0.3862  0.5977
 2221SOL    HW218297   0.575   1.977  16.232  0.2315  0.7847 -2.8553
 2222SOL     OW18298   4.053   3.821   5.036  0.0339  0.1680  0.6888
 2222SOL    HW118299   4.053   3.758   4.963 -0.5362  1.0263 -0.0554
 2222SOL    HW218300   4.091   3.761   5.100  0.2323 -1.1008 -0.6217
 2223SOL     OW18301   1.808   2.641   9.058  0.0363  0.2016  0.1466
 2223SOL    HW118302   1.858   2.715   9.024 -1.2658 -0.0655 -2.3718
 2223SOL    HW218303   1.875   2.578   9.084  0.9458  1.9080  1.9569
 2224SOL     OW18304   0.086   0.564   7.785  0.5878 -0.2871 -0.6260
 2224SOL    HW118305   0.029   0.613   7.727  0.9821  2.9495  1.6951
 2224SOL    HW218306   0.025   0.507   7.831  0.0747  1.7537  1.2572
 2225SOL     OW18307   2.313   2.914   0.093  0.1818  0.1313 -0.0607
 2225SOL    HW118308   2.358   2.954   0.168 -0.2160 -0.6198  0.5716
 2225SOL    HW218309   2.368   2.839   0.072 -4.6194 -3.1737 -0.9655
 2226SOL     OW18310   1.919   3.428   7.984  0.3746 -0.5768  0.5640
 2226SOL    HW118311   2.013   3.417   7.967  0.8787  1.0722  2.2292
 2226SOL    HW218312   1.916   3.474   8.068 -1.5571  1.0898 -0.4328
 2227SOL     OW18313   3.805   3.546   2.114  0.5765 -0.2192  0.0292
 2227SOL    HW118314   3.891   3.574   2.146  0.2288  0.5157  0.3148
 2227SOL    HW218315   3.759   3.630   2.110 -0.6903 -0.8976  0.3179
 2228SOL     OW18316   0.229   3.934  16.283 -0.0333 -0.2606  0.7671
 2228SOL    HW118317   0.244   3.888  16.366 -1.4285 -1.8871  0.1120
 2228SOL    HW218318   0.216   3.860  16.223  0.3920  0.6264 -0.4246
 2229SOL     OW18319   3.001   1.624  13.437  1.0128  0.0963  0.3012
 2229SOL    HW118320   2.920   1.595  13.394  0.3931  1.1634  0.7759
 2229SOL    HW218321   3.063   1.620  13.364  1.2399 -0.0153  0.4986
 2230SOL     OW18322   0.336   3.585   2.536 -0.4736 -0.3337 -0.3634
 2230SOL    HW118323   0.303   3.662   2.582  0.0554  0.5229 -1.4435
 2230SOL    HW218324   0.405   3.554   2.594 -0.6130  0.2595  0.1149
 2231SOL     OW18325   1.098   1.727   3.959  0.2578 -0.2724 -0.8558
 2231SOL    HW118326   1.069   1.639   3.933  0.3945  0.4129 -3.3105
 2231SOL    HW218327   1.130   1.763   3.876 -1.9039 -0.7103 -1.8684
 2232SOL     OW18328   4.210   3.389   0.999  0.7943 -0.2106  0.0761
 2232SOL    HW118329   4.188   3.437   1.080  0.9692  0.5353 -0.3175
 2232SOL    HW218330   4.162   3.439   0.933 -0.2009 -0.3207  0.7103
 2233SOL     OW18331   0.422   0.280   2.482  0.1333  0.8262 -0.8065
 2233SOL    HW118332   0.509   0.261   2.517 -0.2780  0.9477  0.3002
 2233SOL    HW218333   0.393   0.193   2.455  1.7142 -0.1432  0.6593
 2234SOL     OW18334   1.997   1.210  16.349  0.4171  0.2184 -0.5164
 2234SOL    HW118335   1.936   1.271  16.308  1.5220  0.1198 -2.3267
 2234SOL    HW218336   1.944   1.135  16.373 -1.5698  1.4302 -1.1611
 2235SOL     OW18337   4.266   2.903  15.173  0.4218 -0.1334  0.0881
 2235SOL    HW118338   4.287   2.811  15.157 -0.8526 -0.3151 -0.5500
 2235SOL    HW218339   4.199   2.888  15.240 -0.0253  3.8301  0.5464
 2236SOL     OW18340   2.456   0.046   2.487 -0.2676  1.0074  0.1585
 2236SOL    HW118341   2.421   0.123   2.442 -2.7945 -0.0459  0.3416
 2236SOL    HW218342   2.515   0.083   2.552 -1.4837  1.9767  0.7053
 2237SOL     OW18343   2.930   1.878   2.309 -0.1607 -0.3305 -0.0123
 2237SOL    HW118344   2.966   1.837   2.230 -0.7690 -0.5251 -0.1884
 2237SOL    HW218345   2.989   1.950   2.329 -0.0902 -0.4975  0.3919
 2238SOL     OW18346   3.532   3.468  12.214  0.5600 -0.4617  0.5459
 2238SOL    HW118347   3.540   3.528  12.288 -0.5397 -0.1865  0.4372
 2238SOL    HW218348   3.625   3.454  12.193  0.0845  1.3287 -2.8076
 2239SOL     OW18349   0.453   4.338   3.463 -0.0050 -0.0940  0.1637
 2239SOL    HW118350   0.428   4.331   3.371 -0.4511  2.4852  0.0826
 2239SOL    HW218351   0.438   4.250   3.499 -0.3718 -0.2072 -0.2516
 2240SOL     OW18352   0.490   4.509   6.528 -0.1205  0.0929 -0.6391
 2240SOL    HW118353   0.419   4.455   6.494  0.3000 -0.2422 -0.9706
 2240SOL    HW218354   0.564   4.450   6.542 -1.2676 -0.9796  0.9357
 2241SOL     OW18355   1.465   3.325   9.893  0.0202 -0.4599 -0.4810
 2241SOL    HW118356   1.450   3.231   9.879  1.8772 -1.0575  1.5516
 2241SOL    HW218357   1.504   3.360   9.813  1.2261 -0.0333  0.3046
 2242SOL     OW18358   0.748   2.835   6.845  0.2431  0.2694 -0.5682
 2242SOL    HW118359   0.745   2.899   6.916 -2.1326  2.4338 -2.6165
 2242SOL    HW218360   0.839   2.807   6.856 -0.7410 -2.1609  1.1621
 2243SOL     OW18361   4.175   0.556   5.274 -0.3073  0.2375 -0.0730
 2243SOL    HW118362   4.096   0.502   5.284  0.5441 -0.8649  0.7764
 2243SOL    HW218363   4.233   0.519   5.341  0.7023 -0.5954 -1.4118
 2244SOL     OW18364   2.167   3.608  15.585 -0.6144 -0.3624 -0.1579
 2244SOL    HW118365   2.075   3.580  15.584 -0.4810 -0.8052  0.1836
 2244SOL    HW218366   2.159   3.677  15.652  3.8303 -0.4998  0.5128
 2245SOL     OW18367   2.989   2.137   4.723  0.4868  0.5451 -0.2082
 2245SOL    HW118368   3.047   2.209   4.748  2.4516 -1.5494  1.2136
 2245SOL    HW218369   3.028   2.067   4.775 -1.6119  0.8594  1.7812
 2246SOL     OW18370   1.037   0.410   2.179  0.1417 -0.1590  0.2202
 2246SOL    HW118371   1.124   0.404   2.140 -0.1195 -2.4673 -0.0481
 2246SOL    HW218372   1.040   0.471   2.253  2.6575  1.7282 -1.4654
 2247SOL     OW18373   4.633   3.207  17.546  0.3412 -0.2484  0.1374
 2247SOL    HW118374   4.623   3.112  17.533 -0.9919 -0.0732 -0.0948
 2247SOL    HW218375   4.544   3.239  17.534  0.4682  0.0090 -0.1207
 2248SOL     OW18376   4.058   3.929   4.659 -0.3829  0.0254 -0.2685
 2248SOL    HW118377   4.137   3.916   4.606  0.4472 -2.4045  1.5312
 2248SOL    HW218378   3.995   3.973   4.602 -0.4568 -1.4274 -1.3049
 2249SOL     OW18379   2.919   1.347   6.282  0.1345  0.2737 -0.2668
 2249SOL    HW118380   2.962   1.426   6.249  1.8153 -0.1703  0.8429
 2249SOL    HW218381   2.951   1.342   6.372  0.8030 -0.9062 -0.5671
 2250SOL     OW18382   0.786   4.138  17.394  0.4100  0.9938  0.1030
 2250SOL    HW118383   0.827   4.099  17.317  0.0813  2.5431 -0.8478
 2250SOL    HW218384   0.817   4.227  17.410 -1.1115  1.6325 -0.5717
 2251SOL     OW18385   2.090   0.124   9.990 -0.6195  0.0612  0.6750
 2251SOL    HW118386   2.092   0.163  10.078 -1.6557  0.9240  0.3282
 2251SOL    HW218387   2.053   0.194   9.936 -1.7878 -2.8261 -2.1785
 2252SOL     OW18388   0.973   1.902   7.892  0.5745  0.4406  0.2684
 2252SOL    HW118389   0.992   1.812   7.866 -1.0376  0.1942 -0.0950
 2252SOL    HW218390   0.984   1.889   7.986 -0.2212  1.7083  0.5479
 2253SOL     OW18391   3.710   4.026   3.991  0.3648  0.0876 -0.1006
 2253SOL    HW118392   3.769   3.989   4.056  1.1829  2.9116  0.7982
 2253SOL    HW218393   3.648   4.066   4.052 -1.0404 -1.8259 -0.2904
 2254SOL     OW18394   1.652   1.891  11.609 -0.2946  0.7183  0.3820
 2254SOL    HW118395   1.702   1.926  11.682 -1.0488 -0.2287  1.3519
 2254SOL    HW218396   1.566   1.904  11.649 -1.9366 -0.0240 -2.8377
 2255SOL     OW18397   0.263   3.488  11.391 -0.2107  0.0153 -0.2645
 2255SOL    HW118398   0.173   3.469  11.364 -0.8848 -1.2695  2.8576
 2255SOL    HW218399   0.299   3.532  11.314  2.5796 -0.8523  0.5345
 2256SOL     OW18400   1.299   2.685   0.512 -0.1564  0.1649 -0.2389
 2256SOL    HW118401   1.319   2.673   0.605 -0.7639 -1.1833 -0.2790
 2256SOL    HW218402   1.315   2.596   0.479 -0.6984  0.2690 -0.7765
 2257SOL     OW18403   2.639   0.953   3.057  0.0367 -0.4305  0.2548
 2257SOL    HW118404   2.600   0.871   3.024  0.8221 -1.4072  1.7922
 2257SOL    HW218405   2.620   1.018   2.990 -1.2290 -1.1726 -0.1256
 2258SOL     OW18406   3.253   1.827   1.618 -0.2108  0.6946  0.6623
 2258SOL    HW118407   3.234   1.910   1.575  0.5951  1.3687  1.6011
 2258SOL    HW218408   3.183   1.766   1.595  0.1443  0.3988  0.3585
 2259SOL     OW18409   4.697   4.441   8.733  0.5045 -0.4624  0.2171
 2259SOL    HW118410   0.032   4.505   8.743 -0.0241 -0.0084  1.0140
 2259SOL    HW218411   4.633   4.468   8.798  0.1110  2.3271 -1.3108
 2260SOL     OW18412   1.156   1.193  11.783 -0.0539  0.4351 -0.0789
 2260SOL    HW118413   1.193   1.175  11.870  0.3544  0.7067 -0.1985
 2260SOL    HW218414   1.170   1.287  11.774  0.6109  0.5650  2.1555
 2261SOL     OW18415   3.947   0.000  16.504  0.2045  0.0087 -0.3219
 2261SOL    HW118416   3.982   4.733  16.593 -0.3538  1.1044 -0.0616
 2261SOL    HW218417   3.874   4.674  16.513 -0.2463  0.4445 -0.9750
 2262SOL     OW18418   2.054   0.180   3.324 -0.3500  0.5307  0.1634
 2262SOL    HW118419   2.039   0.105   3.265  2.1208 -1.2513  1.8430
 2262SOL    HW218420   1.968   0.215   3.347 -0.9793  1.5529 -3.7753
 2263SOL     OW18421   4.224   4.301   4.094  0.1716 -0.3325 -0.3072
 2263SOL    HW118422   4.270   4.343   4.022  2.3392  0.6134  1.6119
 2263SOL    HW218423   4.132   4.319   4.073  0.7732  1.2254 -1.5811
 2264SOL     OW18424   3.134   3.537   4.975  0.0360 -0.4307 -0.0216
 2264SOL    HW118425   3.124   3.613   4.918  1.5792  0.8579  1.4133
 2264SOL    HW218426   3.224   3.541   5.005 -0.0478 -0.8850  0.2983
 2265SOL     OW18427   1.934   1.219   1.560 -0.0659  0.0220  0.1051
 2265SOL    HW118428   1.909   1.176   1.479 -0.0759  1.4332 -0.6477
 2265SOL    HW218429   1.934   1.313   1.539  3.2609 -0.9273 -4.1747
 2266SOL     OW18430   2.063   2.217   4.455 -0.0419 -0.0321  0.0261
 2266SOL    HW118431   2.147   2.248   4.487 -0.2707  1.2851 -0.6386
 2266SOL    HW218432   2.015   2.295   4.428  1.1804  0.4430 -0.7978
 2267SOL     OW18433   1.756   1.064  14.402  0.1353 -0.1884  0.7203
 2267SOL    HW118434   1.733   1.150  14.438  0.1645 -0.1226  0.5786
 2267SOL    HW218435   1.751   1.067  14.307 -1.1382 -5.2580  0.6366
 2268SOL     OW18436   0.343   2.134   8.414  0.3562 -0.7429  0.0092
 2268SOL    HW118437   0.288   2.056   8.419 -0.2692 -0.4478 -2.1078
 2268SOL    HW218438   0.294   2.199   8.465  0.5894 -0.8805  0.4076
 2269SOL     OW18439   3.138   1.793   2.089 -0.1061  0.3081  0.5384
 2269SOL    HW118440   3.162   1.850   2.016  0.0974  0.6681  0.8887
 2269SOL    HW218441   3.201   1.722   2.078 -0.3735 -0.0152  1.0762
 2270SOL     OW18442   1.755   1.547   9.768  0.4552 -0.0805 -0.0275
 2270SOL    HW118443   1.726   1.500   9.846  1.2207  0.7547  0.7685
 2270SOL    HW218444   1.686   1.515   9.711 -0.9950 -0.2506  1.8143
 2271SOL     OW18445   1.779   0.157   9.789  0.4938 -0.3321 -0.0131
 2271SOL    HW118446   1.727   0.174   9.711  0.0936 -1.2105  0.0619
 2271SOL    HW218447   1.825   0.238   9.811  0.1228  0.1667 -1.1064
 2272SOL     OW18448   3.560   1.366  11.279 -0.4145 -0.0166  0.2647
 2272SOL    HW118449   3.505   1.346  11.203 -0.7554  0.2858  0.4303
 2272SOL    HW218450   3.618   1.431  11.239 -1.3319  1.8407  1.9527
 2273SOL     OW18451   0.018   2.841   9.888  0.3537 -0.7505  0.3989
 2273SOL    HW118452   4.727   2.930   9.910  1.2530 -0.8458  1.8856
 2273SOL    HW218453   0.113   2.851   9.876 -0.2510  0.8921 -2.9230
 2274SOL     OW18454   3.035   2.453   6.764 -0.4498 -0.1473 -0.6609
 2274SOL    HW118455   2.945   2.453   6.731 -0.5443 -1.2602 -0.3960
 2274SOL    HW218456   3.043   2.359   6.776 -0.7592 -0.2388 -1.1608
 2275SOL     OW18457   3.883   1.751  11.707  0.0313  0.3186  0.4806
 2275SOL    HW118458   3.960   1.795  11.670  0.4940 -0.8321  0.0728
 2275SOL    HW218459   3.865   1.702  11.627  0.5433  0.2020  0.4348
 2276SOL     OW18460   4.600   1.854   7.799 -0.8958  0.4788  0.7608
 2276SOL    HW118461   4.593   1.780   7.860 -0.6841  0.9882  1.4060
 2276SOL    HW218462   4.671   1.827   7.740 -0.9511  0.8965  0.5039
 2277SOL     OW18463   2.156   1.925  12.370 -0.1142  0.6833 -0.5699
 2277SOL    HW118464   2.144   2.007  12.322  1.9323  1.9706  1.0749
 2277SOL    HW218465   2.156   1.955  12.461 -1.9847 -0.5585 -0.1739
 2278SOL     OW18466   2.072   3.451  17.702 -0.4802  0.6951  0.0313
 2278SOL    HW118467   1.977   3.438  17.701 -0.3331 -0.5839  2.7622
 2278SOL    HW218468   2.087   3.489  17.616 -2.1887 -1.6523 -1.2842
 2279SOL     OW18469   3.480   2.167   8.215  0.1667  0.2217 -0.0653
 2279SOL    HW118470   3.519   2.127   8.137 -0.1283  0.3345 -0.2745
 2279SOL    HW218471   3.556   2.220   8.237 -1.6859  2.8256  0.0830
 2280SOL     OW18472   3.734   4.192   1.190 -0.5062  0.2740  0.0274
 2280SOL    HW118473   3.820   4.233   1.198 -0.5064  0.3905 -0.5685
 2280SOL    HW218474   3.698   4.236   1.113 -0.6642  0.0959 -0.0012
 2281SOL     OW18475   4.287   2.045   0.328  0.7289  0.1062  0.9523
 2281SOL    HW118476   4.243   2.130   0.333  0.9509  0.3798 -1.5385
 2281SOL    HW218477   4.250   2.010   0.247 -0.0987  2.7658  0.1630
 2282SOL     OW18478   3.115   4.527   7.913 -0.2654  0.0096 -0.0382
 2282SOL    HW118479   3.161   4.443   7.925 -1.7769 -0.7429  0.4314
 2282SOL    HW218480   3.050   4.500   7.848 -0.3142 -1.7691  0.7330
 2283SOL     OW18481   1.830   4.439   5.326  0.4862 -0.4967  0.2212
 2283SOL    HW118482   1.888   4.501   5.369 -2.4065  0.4285  2.8400
 2283SOL    HW218483   1.841   4.367   5.388 -0.7538 -1.8182 -1.0920
 2284SOL     OW18484   0.440   1.954   3.934  0.5299 -0.5218  0.4168
 2284SOL    HW118485   0.423   2.045   3.958 -1.1941 -0.6326 -0.4533
 2284SOL    HW218486   0.386   1.946   3.856  1.5348 -1.9281 -0.1433
 2285SOL     OW18487   4.397   1.824  11.039 -0.2144 -0.2021 -0.2368
 2285SOL    HW118488   4.352   1.746  11.005 -0.3031  1.2583 -3.4947
 2285SOL    HW218489   4.429   1.853  10.953 -0.3517 -1.5412 -0.7388
 2286SOL     OW18490   1.950   0.925   5.487  0.3158  0.0814 -0.2408
 2286SOL    HW118491   1.921   0.840   5.522 -0.6769  0.1717 -0.8349
 2286SOL    HW218492   1.970   0.896   5.398  1.8844 -1.0559  0.4743
 2287SOL     OW18493   0.341   2.245   3.923  0.2174  0.4933  0.1263
 2287SOL    HW118494   0.337   2.239   4.019  2.0233  0.6853  0.1977
 2287SOL    HW218495   0.257   2.291   3.919 -0.6888 -1.3847 -2.5245
 2288SOL     OW18496   2.863   2.423   5.215 -0.2494 -0.1653  0.5036
 2288SOL    HW118497   2.802   2.389   5.150 -0.7843  2.0606 -0.1328
 2288SOL    HW218498   2.828   2.402   5.301 -0.1201  0.3954  0.6909
 2289SOL     OW18499   0.202   1.833  10.908  0.3417  0.0244  0.0960
 2289SOL    HW118500   0.280   1.804  10.861  0.8837  0.3761  0.7758
 2289SOL    HW218501   0.148   1.863  10.834 -0.8572 -5.3949 -1.1686
 2290SOL     OW18502   2.953   2.337  12.268 -0.0565 -0.0401 -0.0785
 2290SOL    HW118503   3.036   2.326  12.316  1.0616  1.0084 -1.7906
 2290SOL    HW218504   2.990   2.401  12.207  1.6637 -1.2430 -0.3140
 2291SOL     OW18505   2.240   1.965   0.473 -0.0878 -0.1153  0.1912
 2291SOL    HW118506   2.214   2.000   0.558  0.4231 -0.8070  0.6326
 2291SOL    HW218507   2.168   1.993   0.416  0.3454 -2.4737 -1.5098
 2292SOL     OW18508   3.447   2.666   1.964  0.0904 -0.6257 -0.3483
 2292SOL    HW118509   3.493   2.599   1.913  0.4659  0.4188 -1.3823
 2292SOL    HW218510   3.359   2.631   1.978 -0.1927 -0.9648 -2.9876
 2293SOL     OW18511   3.638   2.651   6.255  0.3079  0.0133  0.3193
 2293SOL    HW118512   3.619   2.558   6.260  1.3596 -0.3310 -2.1588
 2293SOL    HW218513   3.619   2.688   6.341  0.2367 -0.1301  0.3650
 2294SOL     OW18514   0.548   1.099   8.730 -0.0564 -0.4193 -0.1994
 2294SOL    HW118515   0.492   1.177   8.725 -0.9818 -1.1066 -0.6279
 2294SOL    HW218516   0.582   1.097   8.819  1.7470  0.8290 -0.8597
 2295SOL     OW18517   1.316   3.368   3.662  0.0455  0.1439  0.3168
 2295SOL    HW118518   1.237   3.380   3.715 -1.2628 -2.6285 -1.0470
 2295SOL    HW218519   1.365   3.309   3.718  0.3255 -0.8375 -0.9907
 2296SOL     OW18520   2.235   0.380  12.821  0.4809 -0.5588  0.2497
 2296SOL    HW118521   2.245   0.441  12.747 -0.7889 -1.1885 -0.4465
 2296SOL    HW218522   2.139   0.379  12.820  0.4714  1.3252 -3.5869
 2297SOL     OW18523   4.255   3.345   7.100 -0.3103  0.0166 -0.1473
 2297SOL    HW118524   4.325   3.372   7.159 -2.0508 -1.3094  2.5649
 2297SOL    HW218525   4.220   3.268   7.146 -0.5865 -1.2129 -2.4049
 2298SOL     OW18526   2.399   4.729  10.995  0.3172 -0.2573 -0.3969
 2298SOL    HW118527   2.471   4.680  11.033  1.1302 -0.3273 -2.0211
 2298SOL    HW218528   2.426   0.084  10.982  0.9144 -0.3305  0.3665
 2299SOL     OW18529   4.428   3.580   8.706 -0.2247 -0.3629  0.3582
 2299SOL    HW118530   4.335   3.600   8.697  0.0575  0.5263 -0.6807
 2299SOL    HW218531   4.461   3.657   8.659  0.3577  0.1260  1.5646
 2300SOL     OW18532   1.899   2.197  15.931  0.1806 -0.3600  0.0626
 2300SOL    HW118533   1.887   2.133  15.861  0.6342  0.4978 -0.7912
 2300SOL    HW218534   1.861   2.154  16.008  0.7221 -1.9692 -0.5687
 2301SOL     OW18535   1.950   1.640  12.677  0.3593  0.0096  0.6040
 2301SOL    HW118536   1.866   1.605  12.706 -0.0062  1.4798  1.3124
 2301SOL    HW218537   1.981   1.685  12.755 -0.4100 -2.3952  2.2959
 2302SOL     OW18538   0.252   1.370   3.718  0.0612 -0.4272  0.3535
 2302SOL    HW118539   0.275   1.287   3.760 -1.4224 -0.9657  0.1008
 2302SOL    HW218540   0.169   1.344   3.676  0.3482 -0.3581 -0.2659
 2303SOL     OW18541   3.463   3.091   6.866 -0.3518 -0.2078 -0.8381
 2303SOL    HW118542   3.458   2.996   6.859  1.3606 -0.4735  1.5781
 2303SOL    HW218543   3.403   3.094   6.940  1.3962 -3.5331  0.7120
 2304SOL     OW18544   4.691   2.098   8.887  0.3241 -0.2457 -0.5419
 2304SOL    HW118545   4.700   2.033   8.818  2.2291 -0.8489  0.2734
 2304SOL    HW218546   4.623   2.148   8.842  2.0163  0.3942 -2.3978
 2305SOL     OW18547   4.660   0.689   5.625  0.3874 -0.3961  1.1430
 2305SOL    HW118548   4.628   0.652   5.707 -1.5778 -1.9772 -0.3325
 2305SOL    HW218549   4.727   0.750   5.655  0.4411 -0.1858  0.5869
 2306SOL     OW18550   3.632   3.613   4.321 -1.0306 -0.2286  0.0202
 2306SOL    HW118551   3.609   3.657   4.239 -0.2699 -0.3110 -0.2399
 2306SOL    HW218552   3.550   3.564   4.325 -1.2379 -0.0923 -2.3238
 2307SOL     OW18553   3.094   3.795  14.283  0.1740  0.4024 -0.1343
 2307SOL    HW118554   3.145   3.875  14.268  1.0711 -0.2707 -0.7087
 2307SOL    HW218555   3.021   3.811  14.224  0.8523  0.6457 -0.9173
 2308SOL     OW18556   0.653   2.549   7.069 -0.1651 -0.0021  0.3148
 2308SOL    HW118557   0.735   2.580   7.106 -0.4794  0.1902  0.8438
 2308SOL    HW218558   0.665   2.454   7.075  0.0553  0.1281  1.8120
 2309SOL     OW18559   3.024   4.593   6.816 -0.5871 -0.9171  0.3647
 2309SOL    HW118560   3.053   4.638   6.895 -3.0684  0.4803  0.4794
 2309SOL    HW218561   2.949   4.543   6.849 -0.6329 -1.6611 -0.8555
 2310SOL     OW18562   0.929   0.946  16.255  0.5343 -0.2444  0.7194
 2310SOL    HW118563   0.878   0.872  16.290 -1.3470  1.1204  0.8515
 2310SOL    HW218564   1.010   0.895  16.245 -0.2405 -1.4566  0.6405
 2311SOL     OW18565   1.895   3.765   5.160 -0.1132  0.1542  0.4222
 2311SOL    HW118566   1.973   3.722   5.195 -0.7004 -1.6281 -0.4421
 2311SOL    HW218567   1.828   3.751   5.226  0.3708 -0.0474  0.8732
 2312SOL     OW18568   0.543   2.970   5.971  0.6442 -0.1589 -0.1317
 2312SOL    HW118569   0.611   2.914   6.007 -1.2823 -0.5129  2.9737
 2312SOL    HW218570   0.527   2.934   5.884  1.9820  1.2532 -0.9455
 2313SOL     OW18571   3.387   2.356   3.842 -0.5120  0.5911  0.2780
 2313SOL    HW118572   3.316   2.393   3.895 -0.8274 -0.7604  0.7865
 2313SOL    HW218573   3.348   2.273   3.814 -1.8349  1.8789 -1.7878
 2314SOL     OW18574   3.335   2.765   2.362 -0.4851  0.3499 -0.1526
 2314SOL    HW118575   3.320   2.746   2.454 -3.4233 -2.2222 -1.1643
 2314SOL    HW218576   3.380   2.686   2.330  2.7913  1.5002  1.5579
 2315SOL     OW18577   4.330   0.754  15.970 -0.5617  0.2335  0.2455
 2315SOL    HW118578   4.269   0.828  15.978  0.9880  1.5012  0.3102
 2315SOL    HW218579   4.399   0.797  15.919 -0.9862  1.9983  1.1599
 2316SOL     OW18580   3.232   1.719   6.351  0.2136  0.3538 -0.2342
 2316SOL    HW118581   3.317   1.728   6.394 -0.9169 -1.4786  2.3710
 2316SOL    HW218582   3.179   1.798   6.362  0.6508  0.2613  2.5873
 2317SOL     OW18583   3.220   2.849  17.463 -0.1342 -0.2724  0.0637
 2317SOL    HW118584   3.223   2.937  17.502  1.9849 -0.1177 -0.4617
 2317SOL    HW218585   3.266   2.801  17.532  1.9380  0.0392 -1.1008
 2318SOL     OW18586   0.564   1.054   4.353  0.0717  0.6286 -0.0086
 2318SOL    HW118587   0.601   1.071   4.440 -1.1772  0.9267  0.4589
 2318SOL    HW218588   0.582   0.961   4.338  1.0285  0.4565  2.0988
 2319SOL     OW18589   1.156   2.017   5.010  0.1833  0.1763 -0.2997
 2319SOL    HW118590   1.233   1.995   4.958  0.3939  0.8432 -0.2675
 2319SOL    HW218591   1.084   1.980   4.959 -0.3764  0.3149  0.3805
 2320SOL     OW18592   0.348   4.135   5.076  0.4193  0.3606 -0.1803
 2320SOL    HW118593   0.284   4.065   5.079 -1.5938  2.0682 -3.1329
 2320SOL    HW218594   0.361   4.144   5.171  0.0131 -0.4035 -0.0605
 2321SOL     OW18595   2.175   0.742   5.868 -0.5441  0.0787 -0.1076
 2321SOL    HW118596   2.111   0.747   5.939 -1.9586 -0.3876 -1.3340
 2321SOL    HW218597   2.155   0.659   5.825  1.0836 -0.0691 -0.5464
 2322SOL     OW18598   0.476   2.000  17.047 -0.1956 -0.2318  0.6055
 2322SOL    HW118599   0.562   1.965  17.026 -1.6636 -2.3466 -1.9896
 2322SOL    HW218600   0.424   1.927  17.012 -0.5862  0.5969 -0.5398
 2323SOL     OW18601   4.419   1.236   6.023 -0.0132 -0.0487 -0.6600
 2323SOL    HW118602   4.471   1.160   5.996  2.1904  0.6189  1.6485
 2323SOL    HW218603   4.462   1.246   6.108  0.0031 -0.4966 -0.6121
 2324SOL     OW18604   3.667   1.901   1.884  0.3362 -0.5777 -0.0291
 2324SOL    HW118605   3.595   1.899   1.947  1.6435  0.5443  1.5301
 2324SOL    HW218606   3.734   1.837   1.909  0.7992  0.5751  1.7400
 2325SOL     OW18607   3.655   1.957   2.203 -0.1436 -0.7384  0.0206
 2325SOL    HW118608   3.719   1.975   2.134  1.7265 -2.1069  1.3990
 2325SOL    HW218609   3.709   1.988   2.276  0.6459 -1.2374 -0.3490
 2326SOL     OW18610   2.151   2.262   1.698 -0.3864 -0.3938 -0.2095
 2326SOL    HW118611   2.161   2.338   1.755  1.0358 -1.5274  1.0632
 2326SOL    HW218612   2.238   2.255   1.658 -0.5235 -0.4450 -0.4975
 2327SOL     OW18613   0.517   3.511   1.872 -0.0104  0.3136 -0.1974
 2327SOL    HW118614   0.556   3.424   1.875  2.5810  1.5494  1.4600
 2327SOL    HW218615   0.437   3.499   1.924  0.9118  2.0303  1.6237
 2328SOL     OW18616   0.116   3.995   7.820 -0.0679  0.1370  0.1465
 2328SOL    HW118617   0.149   4.057   7.885  0.7477 -1.2954  1.0966
 2328SOL    HW218618   0.185   3.930   7.810  1.0688  1.2242  0.9371
 2329SOL     OW18619   3.359   3.170   9.989  0.3725  0.0801 -0.0341
 2329SOL    HW118620   3.436   3.116   9.973  1.5505  1.0815  2.2155
 2329SOL    HW218621   3.333   3.208   9.905 -0.0149  0.8392  0.4227
 2330SOL     OW18622   4.647   2.740   7.464 -0.0322 -0.0271  0.9092
 2330SOL    HW118623   4.692   2.660   7.435  0.5748  0.0700  1.6063
 2330SOL    HW218624   4.640   2.802   7.391  2.5416 -2.6342 -1.5427
 2331SOL     OW18625   1.248   0.671  13.148 -0.0835  0.0533 -0.0454
 2331SOL    HW118626   1.207   0.731  13.209  0.1782  0.5782 -0.3814
 2331SOL    HW218627   1.186   0.599  13.134  0.9555 -0.6946 -0.9290
 2332SOL     OW18628   1.964   0.287   3.999  0.2128  0.2294 -0.3597
 2332SOL    HW118629   1.944   0.209   3.946 -1.8658  0.2809  0.3663
 2332SOL    HW218630   1.882   0.337   3.994  0.2208  0.2834  0.0486
 2333SOL     OW18631   2.023   3.899   1.624 -0.0638  0.0415 -0.1959
 2333SOL    HW118632   1.939   3.854   1.620 -0.5147  0.9085 -0.5823
 2333SOL    HW218633   2.053   3.896   1.534  1.7810  1.0590  0.3809
 2334SOL     OW18634   0.530   3.210   6.059  0.4542  0.1614  0.2459
 2334SOL    HW118635   0.490   3.197   6.145  0.5124 -1.7377 -0.0289
 2334SOL    HW218636   0.525   3.125   6.015 -0.2674 -0.1275  0.8978
 2335SOL     OW18637   4.313   2.431   8.264 -0.5226  0.1124 -0.3202
 2335SOL    HW118638   4.223   2.435   8.295  0.0189 -0.7728  1.3911
 2335SOL    HW218639   4.320   2.335   8.257  1.0372  0.0300  2.2562
 2336SOL     OW18640   3.234   4.640   1.965 -0.3135 -0.3820  0.4983
 2336SOL    HW118641   3.311   4.670   2.014 -0.3601 -0.2649  0.4988
 2336SOL    HW218642   3.228   4.686   1.882 -1.9480 -1.8731 -0.2147
 2337SOL     OW18643   4.400   1.792  15.748 -0.4327  0.1087 -0.0693
 2337SOL    HW118644   4.336   1.835  15.805 -1.6357 -1.5935 -0.1673
 2337SOL    HW218645   4.373   1.831  15.664  1.0402  2.4486  0.5303
 2338SOL     OW18646   1.689   0.758   3.353  0.2962  0.1154 -0.6262
 2338SOL    HW118647   1.709   0.674   3.393 -1.2979 -0.1803 -0.4502
 2338SOL    HW218648   1.614   0.740   3.297  1.0797  2.0698 -2.2943
 2339SOL     OW18649   2.504   1.380   5.720 -0.4751 -0.2767  0.8776
 2339SOL    HW118650   2.535   1.334   5.798  1.1814 -2.0430 -0.8179
 2339SOL    HW218651   2.473   1.303   5.673 -0.4137  0.7206 -0.8225
 2340SOL     OW18652   4.647   3.136   1.771 -0.0181 -0.2711  0.3866
 2340SOL    HW118653   4.665   3.055   1.722  0.4821  0.1551 -0.1329
 2340SOL    HW218654   4.604   3.100   1.848  1.2123  0.3459  1.3520
 2341SOL     OW18655   4.060   3.921   2.936 -0.1132 -0.5018  0.2290
 2341SOL    HW118656   4.043   3.893   3.026  1.4991  1.3097  1.1148
 2341SOL    HW218657   4.033   3.841   2.892  0.2095  0.6740 -2.1072
 2342SOL     OW18658   0.358   0.971   1.027 -0.3200 -0.0083  0.1402
 2342SOL    HW118659   0.322   0.884   1.045 -0.8949  0.0004 -0.9322
 2342SOL    HW218660   0.426   0.953   0.962 -0.0454 -0.2052  0.4836
 2343SOL     OW18661   0.902   2.597   7.698 -0.4270 -0.0613  0.7505
 2343SOL    HW118662   0.837   2.560   7.758  1.8685 -0.7684  2.7992
 2343SOL    HW218663   0.978   2.552   7.735 -1.1258 -1.4173  0.5249
 2344SOL     OW18664   0.983   2.130  11.140 -0.3362 -0.1328 -0.2099
 2344SOL    HW118665   1.050   2.165  11.199  0.7335 -2.5223 -0.0048
 2344SOL    HW218666   1.032   2.158  11.063 -1.2945  2.2115  0.0243
 2345SOL     OW18667   2.055   0.621  10.823  0.1211 -0.5089  0.1784
 2345SOL    HW118668   1.975   0.663  10.854  1.0544  1.4343 -0.0049
 2345SOL    HW218669   2.100   0.597  10.904  0.8045  2.0075  0.5525
 2346SOL     OW18670   3.852   0.842   2.060  0.3777  0.4396 -0.6633
 2346SOL    HW118671   3.765   0.838   2.099  0.4183  1.0337 -0.5193
 2346SOL    HW218672   3.907   0.809   2.132 -2.1931 -0.1733  1.0093
 2347SOL     OW18673   0.714   1.290  10.998 -0.0422  0.7728 -0.1309
 2347SOL    HW118674   0.680   1.222  11.056 -0.4436 -0.2665 -1.5850
 2347SOL    HW218675   0.672   1.361  11.047 -1.0237 -0.2974  0.5739
 2348SOL     OW18676   2.237   4.240  10.053  0.0218  0.1776 -0.2250
 2348SOL    HW118677   2.307   4.291  10.012  1.4474  0.2190  2.2507
 2348SOL    HW218678   2.165   4.302  10.068  2.0491  2.4735  0.0390
 2349SOL     OW18679   2.947   0.415   3.253 -0.1839  0.4653 -0.1973
 2349SOL    HW118680   2.925   0.323   3.268  0.0148  0.5227  0.4636
 2349SOL    HW218681   3.016   0.422   3.188  0.1609  0.1793  0.1383
 2350SOL     OW18682   4.580   1.073   5.383 -0.2807  0.1128 -0.4717
 2350SOL    HW118683   4.541   1.020   5.452  0.0480  2.8813  1.8206
 2350SOL    HW218684   4.541   1.159   5.400  1.0996  0.5094  0.6922
 2351SOL     OW18685   1.638   2.547   0.786 -0.6870 -0.0190  0.2453
 2351SOL    HW118686   1.710   2.515   0.732 -1.5614 -0.4027 -0.6976
 2351SOL    HW218687   1.633   2.487   0.861 -1.8565 -1.0303 -0.6412
 2352SOL     OW18688   2.895   0.689   5.285 -0.2541 -0.0870  0.8308
 2352SOL    HW118689   2.966   0.685   5.349  1.1541  0.0650 -0.7207
 2352SOL    HW218690   2.863   0.773   5.317 -1.1958 -0.4042  0.7057
 2353SOL     OW18691   4.444   1.309   1.713  0.3197 -0.3941 -0.9071
 2353SOL    HW118692   4.353   1.291   1.690  0.4271 -2.1850  0.1093
 2353SOL    HW218693   4.456   1.398   1.678  0.2236 -0.5887 -1.4385
 2354SOL     OW18694   0.706   3.823   0.929 -0.5105 -0.3700 -0.0547
 2354SOL    HW118695   0.697   3.824   0.834  2.3771  0.3063 -0.3105
 2354SOL    HW218696   0.800   3.808   0.937 -0.5804 -1.2032 -0.8556
 2355SOL     OW18697   1.027   0.775   5.864 -0.1068 -0.3418 -0.3993
 2355SOL    HW118698   1.089   0.705   5.843 -0.0064 -0.4907  0.4064
 2355SOL    HW218699   1.039   0.762   5.958  1.2295 -0.7238 -0.6264
 2356SOL     OW18700   2.641   2.545  12.092 -0.0658  0.0780  0.2649
 2356SOL    HW118701   2.645   2.588  12.177 -1.8916  0.1937  0.2995
 2356SOL    HW218702   2.613   2.620  12.038 -0.6457 -0.8407 -0.7077
 2357SOL     OW18703   2.696   1.085   5.263  0.0874  0.4105  0.0084
 2357SOL    HW118704   2.724   1.038   5.184  1.5786  0.7511  0.3290
 2357SOL    HW218705   2.740   1.027   5.326 -1.0536 -2.8671 -2.2197
 2358SOL     OW18706   1.462   2.320   2.134  0.5819 -0.1916  0.1804
 2358SOL    HW118707   1.539   2.307   2.188  2.0506  0.2040 -1.8036
 2358SOL    HW218708   1.501   2.340   2.049  3.9412 -0.1608  1.7391
 2359SOL     OW18709   2.940   1.704  17.330 -0.3273  0.0818  0.5383
 2359SOL    HW118710   3.006   1.769  17.355 -0.2965 -0.3576  1.6067
 2359SOL    HW218711   2.960   1.637  17.395 -2.6283  0.1061  1.2469
 2360SOL     OW18712   4.729   3.802   2.175  0.3314 -0.1193  0.1027
 2360SOL    HW118713   0.027   3.716   2.199 -2.0496 -0.8244  0.9011
 2360SOL    HW218714   4.680   3.819   2.256 -0.5548  1.0403 -0.6795
 2361SOL     OW18715   1.346   1.929   4.526 -0.7342  0.6268  0.5336
 2361SOL    HW118716   1.313   1.839   4.516 -0.1489  0.2304  2.1618
 2361SOL    HW218717   1.335   1.962   4.436  0.7906  1.2340  0.5756
 2362SOL     OW18718   1.050   1.911   5.788  0.5778  0.0186  0.0168
 2362SOL    HW118719   0.996   1.880   5.861  0.4951 -0.5252 -0.2691
 2362SOL    HW218720   1.090   1.979   5.842  5.1218 -0.6763 -2.5324
 2363SOL     OW18721   3.130   3.022  16.882 -0.0779  0.4010 -0.1030
 2363SOL    HW118722   3.125   2.930  16.909  1.1893  0.7466  1.3203
 2363SOL    HW218723   3.171   3.069  16.955  0.5855  0.6992 -0.6676
 2364SOL     OW18724   3.597   1.996   3.213  0.1845 -0.3678 -0.1202
 2364SOL    HW118725   3.630   1.979   3.124  2.5556 -1.2033  0.9231
 2364SOL    HW218726   3.643   1.938   3.274 -0.2386 -0.9421 -0.3524
 2365SOL     OW18727   3.818   1.809  13.228 -0.4220  0.2461 -0.5928
 2365SOL    HW118728   3.770   1.767  13.156 -2.0751  0.8003  0.1845
 2365SOL    HW218729   3.831   1.742  13.296 -0.2516  0.3699 -0.5047
 2366SOL     OW18730   1.573   0.486  10.498 -0.6121 -0.5198  0.0080
 2366SOL    HW118731   1.624   0.409  10.474  1.6489  1.0688 -0.1983
 2366SOL    HW218732   1.500   0.436  10.536 -0.1359 -2.1514 -1.2274
 2367SOL     OW18733   4.646   2.896   4.715 -0.8059  0.1273 -0.2422
 2367SOL    HW118734   4.594   2.817   4.703 -0.8525 -0.0153  0.8613
 2367SOL    HW218735   4.736   2.864   4.707 -0.8466 -0.0244 -0.0973
 2368SOL     OW18736   0.674   0.343   6.007 -0.3132  0.3226  0.1049
 2368SOL    HW118737   0.761   0.339   5.967 -0.8770 -0.3468 -1.0207
 2368SOL    HW218738   0.620   0.377   5.936 -0.3356  2.8786  1.3584
 2369SOL     OW18739   2.108   3.056   1.560  0.1115  0.0860  0.0853
 2369SOL    HW118740   2.152   3.081   1.641 -2.3532 -2.6385  2.2822
 2369SOL    HW218741   2.015   3.061   1.582  0.0686  0.8789 -0.2695
 2370SOL     OW18742   2.414   3.810   6.936  0.4115 -0.2249  0.0320
 2370SOL    HW118743   2.477   3.865   6.982 -0.8189  1.6245 -0.5122
 2370SOL    HW218744   2.358   3.876   6.896 -0.6576  1.4606  4.2383
 2371SOL     OW18745   3.099   4.514   0.310 -0.5220  0.1539 -0.3764
 2371SOL    HW118746   3.150   4.496   0.231 -1.1721  1.0224 -0.9915
 2371SOL    HW218747   3.082   4.428   0.346  1.8363 -0.3681 -0.4729
 2372SOL     OW18748   0.439   2.559   2.670  0.3008  0.4921  0.0152
 2372SOL    HW118749   0.412   2.611   2.746  0.9992  1.0975 -0.1506
 2372SOL    HW218750   0.507   2.506   2.711  0.1158 -0.2289 -0.6029
 2373SOL     OW18751   4.209   2.285   4.097 -0.1726 -0.2172  0.1228
 2373SOL    HW118752   4.131   2.324   4.138 -0.3111 -1.8271  1.3945
 2373SOL    HW218753   4.215   2.197   4.134  0.7706 -0.1964  0.0153
 2374SOL     OW18754   2.609   0.479   2.293 -0.2556 -0.0391  0.6233
 2374SOL    HW118755   2.655   0.397   2.312  0.0225 -0.2747 -1.1497
 2374SOL    HW218756   2.526   0.449   2.258 -1.0505  0.8182  1.7541
 2375SOL     OW18757   4.320   4.573  16.101  0.2086 -0.6666 -0.5844
 2375SOL    HW118758   4.257   4.508  16.071 -1.4518  0.0903  1.2542
 2375SOL    HW218759   4.260   4.637  16.139  1.2422  0.8863 -1.5549
 2376SOL     OW18760   4.483   4.337   2.197  0.2722  0.2567 -0.1924
 2376SOL    HW118761   4.564   4.328   2.146  1.8813  1.2644  2.1287
 2376SOL    HW218762   4.517   4.368   2.282 -0.9304 -1.3785  0.8818
 2377SOL     OW18763   1.352   2.089   7.032 -0.4284  0.3514 -0.1378
 2377SOL    HW118764   1.346   1.993   7.030 -0.5067  0.3117  1.8080
 2377SOL    HW218765   1.442   2.105   7.005 -0.2365 -0.2270  0.1481
 2378SOL     OW18766   0.537   0.894   3.017 -0.0070 -0.3414 -0.2390
 2378SOL    HW118767   0.446   0.893   2.986 -0.1373 -0.4216  0.1494
 2378SOL    HW218768   0.561   0.815   2.968  2.3458  0.7479 -0.8749
 2379SOL     OW18769   0.837   0.289   1.200  0.3509 -0.6363 -0.5008
 2379SOL    HW118770   0.829   0.269   1.107 -0.7405  0.0365 -0.5541
 2379SOL    HW218771   0.800   0.377   1.201 -0.1646 -0.8455 -0.9515
 2380SOL     OW18772   3.052   2.524   1.590  0.2355 -0.0299 -0.2571
 2380SOL    HW118773   3.131   2.526   1.644 -0.9906 -1.8138  1.5670
 2380SOL    HW218774   2.987   2.545   1.656  1.7296 -0.1842  1.2798
 2381SOL     OW18775   1.651   0.354   8.069 -0.1857  0.0192  0.2866
 2381SOL    HW118776   1.643   0.283   8.133  2.0386  0.9210  1.5405
 2381SOL    HW218777   1.683   0.301   7.996  0.7758 -2.1250  2.2385
 2382SOL     OW18778   4.153   3.384   3.431 -0.2615  0.0405 -0.3472
 2382SOL    HW118779   4.078   3.359   3.377  0.3771 -1.4600 -0.5420
 2382SOL    HW218780   4.104   3.425   3.503 -1.8050  3.3686 -3.3281
 2383SOL     OW18781   4.692   1.227   5.984  0.1593  0.6307 -0.5152
 2383SOL    HW118782   0.001   1.274   6.055  1.8898  0.3499 -1.4390
 2383SOL    HW218783   4.697   1.295   5.917  0.7389  1.9353  0.8534
 2384SOL     OW18784   0.990   0.744   6.805  0.0429  0.3721 -0.6067
 2384SOL    HW118785   0.967   0.651   6.807  1.5768  0.0390  0.9795
 2384SOL    HW218786   1.083   0.738   6.825  0.5778  1.9463 -2.6688
 2385SOL     OW18787   2.899   3.947   4.084 -0.2108 -0.7747  0.0484
 2385SOL    HW118788   2.813   3.919   4.114  0.5589 -2.2301  0.8888
 2385SOL    HW218789   2.883   3.925   3.992  0.3982  1.0653 -0.5111
 2386SOL     OW18790   2.918   0.076   9.258  0.1497 -0.3474  0.2208
 2386SOL    HW118791   2.986   0.110   9.316  0.1274 -1.3505  0.8309
 2386SOL    HW218792   2.908   4.722   9.289  0.5796 -0.3703  0.2847
 2387SOL     OW18793   2.359   1.410   6.147 -0.2044 -0.0507 -0.0586
 2387SOL    HW118794   2.306   1.341   6.188  1.5482 -0.8535  0.8338
 2387SOL    HW218795   2.301   1.429   6.073 -1.2345  0.3571  0.8391
 2388SOL     OW18796   4.215   0.990   7.153 -0.3845  0.3783 -0.1124
 2388SOL    HW118797   4.233   1.022   7.242  0.7130  1.2237 -0.6384
 2388SOL    HW218798   4.121   0.974   7.146 -0.2794 -0.6932  0.8862
 2389SOL     OW18799   4.268   3.999  17.305  0.1954 -0.3242 -0.4291
 2389SOL    HW118800   4.294   4.008  17.214  1.4382  0.7670  0.0310
 2389SOL    HW218801   4.184   4.044  17.314 -0.6473 -1.6500 -1.7883
 2390SOL     OW18802   2.900   4.222  15.995  0.0665  0.0057  0.7241
 2390SOL    HW118803   2.880   4.315  15.993 -4.1965 -0.9720 -2.6955
 2390SOL    HW218804   2.952   4.220  16.075  0.0633  3.4839  0.8048
 2391SOL     OW18805   2.750   3.708   5.001 -0.1991 -0.1176  0.1448
 2391SOL    HW118806   2.835   3.687   5.040 -0.0793  0.1648  0.0389
 2391SOL    HW218807   2.740   3.802   5.019 -0.1445 -0.1706  0.4551
 2392SOL     OW18808   2.383   1.990   9.269  0.5325 -0.2735 -0.0146
 2392SOL    HW118809   2.478   2.002   9.269  0.3013  1.6279  0.8239
 2392SOL    HW218810   2.366   2.023   9.180  1.0654  1.1189  0.3994
 2393SOL     OW18811   3.174   3.630   3.764  0.0901  0.0968  0.0833
 2393SOL    HW118812   3.261   3.619   3.726 -0.0478  0.3464 -0.3043
 2393SOL    HW218813   3.192   3.634   3.858  1.9233  0.6621 -0.2875
 2394SOL     OW18814   2.792   0.171   4.417 -0.4735  0.1651 -0.1488
 2394SOL    HW118815   2.881   0.201   4.405 -0.3485 -0.5203 -0.9863
 2394SOL    HW218816   2.826   0.101   4.473 -0.9915 -0.0693 -0.1187
 2395SOL     OW18817   2.193   3.005   2.091  0.4577  0.2001  0.0821
 2395SOL    HW118818   2.160   3.090   2.117  2.8439  0.9165  0.7094
 2395SOL    HW218819   2.223   2.982   2.179 -0.5393 -0.3538  0.2761
 2396SOL     OW18820   4.199   2.432   8.727  0.5036  0.7759  0.5117
 2396SOL    HW118821   4.169   2.388   8.807 -1.4469 -2.4300 -1.9585
 2396SOL    HW218822   4.284   2.468   8.750 -0.5877  2.4328  1.9036
 2397SOL     OW18823   1.117   3.900   8.482 -0.4168 -0.1006 -0.3632
 2397SOL    HW118824   1.041   3.874   8.430 -1.8604  2.4599  0.4437
 2397SOL    HW218825   1.161   3.819   8.458  1.6879  0.7152  0.7195
 2398SOL     OW18826   3.472   4.110   8.231  0.3831  0.7069  0.4421
 2398SOL    HW118827   3.426   4.190   8.208 -2.0253 -0.5413  0.9846
 2398SOL    HW218828   3.513   4.091   8.147 -1.1383 -1.2391  0.1514
 2399SOL     OW18829   0.830   1.615   7.060 -0.0193 -0.2112 -0.0892
 2399SOL    HW118830   0.888   1.585   6.990  0.4217 -0.5341  0.4152
 2399SOL    HW218831   0.890   1.668   7.112 -0.6659  0.6541 -0.2244
 2400SOL     OW18832   4.377   1.871   2.749  0.7964 -0.2302 -0.2718
 2400SOL    HW118833   4.390   1.822   2.667  1.4008 -1.3542  0.4874
 2400SOL    HW218834   4.424   1.945   2.712 -2.1131  1.5011 -0.4841
 2401SOL     OW18835   1.486   1.089  13.591 -0.2177 -0.4441  0.9167
 2401SOL    HW118836   1.579   1.089  13.615 -0.2295  0.3410  0.9737
 2401SOL    HW218837   1.481   1.172  13.544 -2.1922  0.2210  2.2927
 2402SOL     OW18838   3.694   2.310   3.925 -0.2250  0.5952  0.4538
 2402SOL    HW118839   3.599   2.302   3.916  0.0906 -0.6348 -1.6887
 2402SOL    HW218840   3.729   2.361   3.852  1.5078 -1.9934 -0.4825
 2403SOL     OW18841   0.426   0.919   8.555  0.4528 -0.1882 -0.0065
 2403SOL    HW118842   0.485   0.981   8.598 -0.6350  1.0189 -0.2391
 2403SOL    HW218843   0.463   0.837   8.587  0.0789 -0.5735 -0.5625
 2404SOL     OW18844   4.309   3.105   1.208  0.3133 -0.1766 -0.2326
 2404SOL    HW118845   4.378   3.161   1.171  0.2653 -2.9644 -4.5725
 2404SOL    HW218846   4.363   3.032   1.239  1.5258  0.6452 -0.4165
 2405SOL     OW18847   1.035   1.197  14.892  0.4186 -0.6125  0.1185
 2405SOL    HW118848   1.034   1.274  14.949 -0.3132 -2.3019  2.4049
 2405SOL    HW218849   0.942   1.176  14.880  0.4407 -1.5354  1.5630
 2406SOL     OW18850   2.218   1.765   8.996  0.5177 -0.0718 -0.5897
 2406SOL    HW118851   2.203   1.719   9.079  1.4020 -0.8572 -0.8791
 2406SOL    HW218852   2.311   1.785   9.002  0.4786  0.1794 -0.8551
 2407SOL     OW18853   0.434   1.082   0.612  1.4421  0.1669  0.1837
 2407SOL    HW118854   0.431   0.996   0.569 -1.3391  0.7572 -0.8031
 2407SOL    HW218855   0.448   1.054   0.702  0.8985  1.3927  0.6438
 2408SOL     OW18856   1.707   0.407   2.363 -0.2965  0.0274  0.1858
 2408SOL    HW118857   1.635   0.428   2.304 -1.1409 -0.3022  1.0921
 2408SOL    HW218858   1.690   0.456   2.444 -0.6683 -0.6128  0.4983
 2409SOL     OW18859   3.788   3.065   2.475 -0.2181  0.3774 -0.1818
 2409SOL    HW118860   3.836   2.982   2.472  1.5053  1.3935 -0.7337
 2409SOL    HW218861   3.723   3.049   2.406  0.2110  0.9696 -0.7293
 2410SOL     OW18862   2.069   2.042  14.774  0.1844 -0.0460  1.0461
 2410SOL    HW118863   2.090   1.981  14.844  1.8541 -0.2525  0.3870
 2410SOL    HW218864   2.131   2.115  14.786  0.3710  0.0891 -0.6158
 2411SOL     OW18865   4.484   1.529   8.434 -0.4113  0.2715  0.2679
 2411SOL    HW118866   4.544   1.474   8.486 -0.9221 -0.4977  0.0506
 2411SOL    HW218867   4.440   1.579   8.502  1.3135  0.3275  1.3568
 2412SOL     OW18868   2.940   2.667   9.855  0.5511 -0.5298 -0.0770
 2412SOL    HW118869   2.933   2.732   9.785 -0.8479 -1.0860 -0.4526
 2412SOL    HW218870   2.850   2.655   9.884  0.9261  0.8485  1.6073
 2413SOL     OW18871   1.733   2.558   8.290  0.1994 -0.3333 -0.3991
 2413SOL    HW118872   1.791   2.529   8.220 -0.2521  1.3245 -1.4629
 2413SOL    HW218873   1.715   2.467   8.315 -0.6143 -0.5905 -1.9333
 2414SOL     OW18874   2.971   0.653   7.447 -0.7819 -0.3783 -0.0975
 2414SOL    HW118875   2.907   0.599   7.401 -0.9556 -0.7037  0.5258
 2414SOL    HW218876   2.957   0.614   7.533 -1.0570 -0.8197 -0.3428
 2415SOL     OW18877   3.505   2.420   7.909 -0.1591 -0.6077  0.0902
 2415SOL    HW118878   3.547   2.460   7.985  0.6817  0.6845 -1.0555
 2415SOL    HW218879   3.448   2.495   7.889 -0.7401 -1.0316  0.1645
 2416SOL     OW18880   4.393   0.675   3.483 -0.0994  0.1070 -0.0163
 2416SOL    HW118881   4.460   0.630   3.432  0.5165  1.1629 -0.1455
 2416SOL    HW218882   4.345   0.725   3.417  1.1526 -0.8972 -1.6669
 2417SOL     OW18883   3.118   0.396   2.218  0.5470 -0.3888 -0.4218
 2417SOL    HW118884   3.064   0.462   2.262  0.2472 -0.6501 -0.3970
 2417SOL    HW218885   3.046   0.353   2.171  0.5646  1.2040 -1.9359
 2418SOL     OW18886   3.926   1.063  14.047  0.3595  0.0129 -0.5040
 2418SOL    HW118887   3.953   1.149  14.079 -0.5303  0.0928  0.0312
 2418SOL    HW218888   3.846   1.099  14.009  1.2943  1.0549 -1.5038
 2419SOL     OW18889   3.832   0.416   6.802  0.4392 -0.6046  0.3486
 2419SOL    HW118890   3.891   0.389   6.873 -0.4254 -1.3913  0.7710
 2419SOL    HW218891   3.840   0.511   6.795  0.5535 -0.7576 -1.5577
 2420SOL     OW18892   1.538   4.291   8.506 -0.0164  0.2393 -0.1839
 2420SOL    HW118893   1.446   4.270   8.524  0.1693 -0.3897  0.0514
 2420SOL    HW218894   1.592   4.269   8.581 -2.1555 -0.2061  1.2178
 2421SOL     OW18895   2.851   3.431   2.499 -0.4271 -0.0157  0.0866
 2421SOL    HW118896   2.867   3.485   2.577  1.6554  1.3580 -1.2933
 2421SOL    HW218897   2.813   3.354   2.540 -1.5345  0.3275 -0.3065
 2422SOL     OW18898   0.952   2.604   3.798  0.1423  0.3240 -0.2891
 2422SOL    HW118899   0.904   2.526   3.828 -1.3564  1.3277 -0.0495
 2422SOL    HW218900   1.011   2.621   3.872 -1.9645 -0.0819  1.5006
 2423SOL     OW18901   4.665   3.089   5.007 -1.1097  0.0222 -0.0038
 2423SOL    HW118902   4.686   3.012   5.060 -1.1854 -0.0311 -0.0503
 2423SOL    HW218903   4.720   3.159   5.042 -1.5189 -0.4904  1.6407
 2424SOL     OW18904   0.885   2.180  16.915 -0.2454  0.2604  0.8796
 2424SOL    HW118905   0.907   2.247  16.850  0.3377 -0.7978 -0.0284
 2424SOL    HW218906   0.974   2.158  16.942 -0.4955 -0.8166  0.8317
 2425SOL     OW18907   2.359   0.674   4.087 -0.3824  0.8859 -0.3691
 2425SOL    HW118908   2.365   0.668   4.182  1.9667 -0.3976 -0.5883
 2425SOL    HW218909   2.283   0.621   4.063  1.8132 -1.0755 -2.9569
 2426SOL     OW18910   4.731   3.790   8.389  0.3323 -0.2790 -0.0037
 2426SOL    HW118911   0.057   3.725   8.421 -0.6768  0.4301  3.3353
 2426SOL    HW218912   4.687   3.823   8.467  0.4939 -1.0212  0.3969
 2427SOL     OW18913   0.616   1.012   3.917 -0.4942 -0.2877  0.2885
 2427SOL    HW118914   0.681   1.076   3.946 -1.3518  0.7626 -0.0979
 2427SOL    HW218915   0.636   0.936   3.971 -0.6201  1.3788  2.6858
 2428SOL     OW18916   2.231   0.935   4.298 -0.4796  0.7399  0.1964
 2428SOL    HW118917   2.249   1.003   4.363 -1.2014  0.7935  0.3386
 2428SOL    HW218918   2.294   0.867   4.323  0.0577  1.2029  0.0983
 2429SOL     OW18919   3.052   2.764  16.902 -0.5666  0.3598  0.6401
 2429SOL    HW118920   2.959   2.785  16.899 -0.3406  0.9996 -2.2525
 2429SOL    HW218921   3.048   2.679  16.946  1.6373 -0.2507 -0.3202
 2430SOL     OW18922   1.987   2.058  17.083 -0.0957 -0.1531 -0.3706
 2430SOL    HW118923   2.003   2.039  16.991 -0.6131  0.2909 -0.5496
 2430SOL    HW218924   2.030   1.985  17.128  0.3444  0.5223  0.3031
 2431SOL     OW18925   1.038   1.102  13.314  0.2112  0.1982 -0.0612
 2431SOL    HW118926   0.970   1.162  13.282 -0.1939 -1.8891 -3.0640
 2431SOL    HW218927   1.046   1.114  13.409 -0.9213 -0.2664  0.0948
 2432SOL     OW18928   3.287   0.055   9.019  0.1469 -0.0199 -0.0934
 2432SOL    HW118929   3.334   0.136   9.035 -0.1872  0.0469  0.5589
 2432SOL    HW218930   3.308   0.038   8.927 -0.6986 -0.7949 -0.1426
 2433SOL     OW18931   1.781   0.532   4.262 -0.4022  0.1809 -0.0969
 2433SOL    HW118932   1.693   0.494   4.259 -0.0302 -0.7812  1.1778
 2433SOL    HW218933   1.773   0.595   4.190  3.7942  2.1523  1.2050
 2434SOL     OW18934   0.245   3.684   6.761 -0.0354 -0.9973  0.0113
 2434SOL    HW118935   0.197   3.759   6.795  1.9597 -0.6224  2.0385
 2434SOL    HW218936   0.299   3.665   6.837  1.0155  1.2266 -0.1660
 2435SOL     OW18937   1.096   0.829  11.777 -0.3376  0.0620  0.1222
 2435SOL    HW118938   1.106   0.734  11.780 -1.6590 -0.0809  0.1780
 2435SOL    HW218939   1.185   0.863  11.776  0.1956 -1.3475 -0.0504
 2436SOL     OW18940   2.355   3.695   8.620  0.1867 -0.1256 -0.2763
 2436SOL    HW118941   2.364   3.753   8.696 -0.9806 -1.0051  0.5418
 2436SOL    HW218942   2.440   3.708   8.578  0.5893 -1.3253  0.1554
 2437SOL     OW18943   1.244   1.817   8.761  0.1897 -0.0276  0.1704
 2437SOL    HW118944   1.283   1.889   8.810  2.9385 -3.0826  2.4712
 2437SOL    HW218945   1.307   1.818   8.689 -0.9226 -1.4131 -0.8166
 2438SOL     OW18946   3.409   0.346   9.756  0.1901 -0.1614  0.1433
 2438SOL    HW118947   3.410   0.356   9.661 -1.9258 -0.4723  0.0949
 2438SOL    HW218948   3.401   0.437   9.787 -1.5696 -0.4664  0.5791
 2439SOL     OW18949   4.061   1.199   1.872 -0.0464  0.5520 -0.3591
 2439SOL    HW118950   4.029   1.162   1.954 -1.5292  0.7390 -0.8519
 2439SOL    HW218951   3.990   1.255   1.842 -0.9316  0.3986  1.4363
 2440SOL     OW18952   2.979   0.528   7.704 -0.8054 -0.0520 -0.3077
 2440SOL    HW118953   2.893   0.521   7.745 -0.4030  0.6832  0.6967
 2440SOL    HW218954   3.024   0.450   7.735  0.2157  0.2962 -0.9193
 2441SOL     OW18955   3.665   2.049   8.015  0.1112 -0.4490 -0.4538
 2441SOL    HW118956   3.696   2.032   8.104  0.3789  0.0873 -0.4409
 2441SOL    HW218957   3.718   2.127   7.996  1.0391 -0.9500  0.0615
 2442SOL     OW18958   2.595   2.220  16.039  0.5093  0.1313 -0.0225
 2442SOL    HW118959   2.513   2.242  15.996  0.0225  0.8009  1.2721
 2442SOL    HW218960   2.627   2.310  16.045 -0.7288  0.5855 -0.1744
 2443SOL     OW18961   2.113   3.093  11.617 -0.3189  0.3908 -0.3425
 2443SOL    HW118962   2.063   3.060  11.692  0.9538  1.1036  0.8261
 2443SOL    HW218963   2.122   3.186  11.634  1.4228 -0.0071  1.0087
 2444SOL     OW18964   0.572   3.467   4.231 -0.2745 -0.0703  0.0739
 2444SOL    HW118965   0.622   3.387   4.249 -1.7332 -0.3658  2.8505
 2444SOL    HW218966   0.577   3.471   4.136  0.0904  0.4617  0.1139
 2445SOL     OW18967   2.652   3.748  17.441 -0.2715 -0.3656  0.2240
 2445SOL    HW118968   2.578   3.688  17.454  1.7304 -2.5939  1.1753
 2445SOL    HW218969   2.704   3.739  17.521  0.7494 -0.2806 -0.4407
 2446SOL     OW18970   3.740   0.411   0.244  0.6324 -0.4157 -0.5376
 2446SOL    HW118971   3.825   0.408   0.288  0.4715  0.8256 -0.1493
 2446SOL    HW218972   3.696   0.333   0.279  1.2338 -1.4590 -2.1267
 2447SOL     OW18973   2.870   4.547   9.319  0.2986 -0.0143 -0.1789
 2447SOL    HW118974   2.794   4.490   9.306  1.0830 -1.2362  0.5390
 2447SOL    HW218975   2.940   4.481   9.318  0.1207 -0.2381  1.2571
 2448SOL     OW18976   4.615   3.010   8.245  0.0908 -0.1472  0.5141
 2448SOL    HW118977   4.548   3.009   8.314 -0.0289  0.3993  0.4068
 2448SOL    HW218978   4.601   3.101   8.218 -1.2576 -0.3058  0.6630
 2449SOL     OW18979   1.154   3.681   7.715  0.0303 -0.1866  0.1379
 2449SOL    HW118980   1.063   3.706   7.727  0.5252  1.2870  0.8804
 2449SOL    HW218981   1.206   3.741   7.769  0.6460 -0.9860  0.4342
 2450SOL     OW18982   0.002   3.436   4.092 -0.0137  0.0280 -0.0157
 2450SOL    HW118983   4.684   3.506   4.054  1.5642  0.2173 -1.9435
 2450SOL    HW218984   4.727   3.374   4.019  0.7131 -0.2675  0.1271
 2451SOL     OW18985   1.086   3.084   2.361 -0.7325 -0.3051 -0.0969
 2451SOL    HW118986   1.047   3.057   2.277 -1.6714 -1.1016  0.5981
 2451SOL    HW218987   1.168   3.126   2.336 -0.4196 -1.3783 -0.9117
 2452SOL     OW18988   3.653   1.650   6.614 -0.2127 -0.1679  0.3144
 2452SOL    HW118989   3.596   1.717   6.652  0.4353  0.9219 -0.6321
 2452SOL    HW218990   3.624   1.572   6.662  2.0695 -1.8703 -1.0435
 2453SOL     OW18991   2.057   0.984  14.253 -0.2411  0.6984 -0.2898
 2453SOL    HW118992   2.077   0.925  14.180  0.3562  1.3094 -0.6101
 2453SOL    HW218993   2.055   1.061  14.197  1.9531  1.4088  0.6198
 2454SOL     OW18994   3.481   0.241   8.905 -0.1673 -0.3783 -0.3765
 2454SOL    HW118995   3.466   0.281   8.819 -0.4785  2.2530  0.8889
 2454SOL    HW218996   3.561   0.191   8.889 -0.3949 -1.0415  0.5469
 2455SOL     OW18997   1.858   1.320  14.902  0.3668 -0.3623  0.2411
 2455SOL    HW118998   1.911   1.368  14.964  0.5239 -0.9218  0.5373
 2455SOL    HW218999   1.817   1.256  14.960  1.2691 -0.7310  0.4583
 2456SOL     OW19000   2.105   4.732   8.269 -0.2002 -0.1116  0.4436
 2456SOL    HW119001   2.093   4.689   8.184  2.2437 -1.5490  0.8339
 2456SOL    HW219002   2.153   4.665   8.319  1.8599  0.6181 -0.5858
 2457SOL     OW19003   3.596   2.544   8.522 -0.3577 -0.4677 -0.0081
 2457SOL    HW119004   3.625   2.629   8.554 -0.6063 -0.8459  1.2481
 2457SOL    HW219005   3.546   2.561   8.442  0.3785 -0.4129 -0.4543
 2458SOL     OW19006   0.175   1.306   4.961  0.2349 -0.1519  0.1235
 2458SOL    HW119007   0.102   1.330   4.904 -0.5437  1.4608  1.7728
 2458SOL    HW219008   0.160   1.215   4.984  0.6255  0.0137  1.0213
 2459SOL     OW19009   0.347   1.601  11.782 -0.2922  0.0626  0.2729
 2459SOL    HW119010   0.337   1.553  11.700  0.3117 -2.0944  1.4703
 2459SOL    HW219011   0.252   1.612  11.790 -0.1119  0.7627  1.4208
 2460SOL     OW19012   2.059   1.057   3.468 -0.3953 -0.0578  0.2852
 2460SOL    HW119013   2.104   0.990   3.519 -0.2235 -0.2057 -0.0641
 2460SOL    HW219014   2.057   1.129   3.531 -1.0487 -0.8298  1.1500
 2461SOL     OW19015   2.168   1.385   5.299 -0.0328  0.0477 -0.3933
 2461SOL    HW119016   2.085   1.431   5.315 -0.6503 -1.6272  1.1978
 2461SOL    HW219017   2.138   1.297   5.321 -1.5823  0.3791 -1.1421
 2462SOL     OW19018   2.221   4.485   4.882  0.2364 -0.1497 -0.1889
 2462SOL    HW119019   2.221   4.565   4.830 -0.5340  0.4820  0.7717
 2462SOL    HW219020   2.156   4.521   4.943 -2.1080 -2.7933 -1.1302
 2463SOL     OW19021   1.737   0.235  10.586  0.0641 -0.2185 -0.0301
 2463SOL    HW119022   1.804   0.235  10.655  1.4571  0.6106 -1.3971
 2463SOL    HW219023   1.790   0.260  10.510  1.4772  1.2045  1.4298
 2464SOL     OW19024   1.498   0.738   3.728  0.3730  0.2532  0.4667
 2464SOL    HW119025   1.461   0.808   3.782 -0.6665  0.5728 -0.6802
 2464SOL    HW219026   1.465   0.757   3.641 -0.0975  1.1134  0.8313
 2465SOL     OW19027   0.275   3.987   6.503  0.1285  0.0737 -0.1398
 2465SOL    HW119028   0.237   4.015   6.587  2.6954  0.6005  0.8436
 2465SOL    HW219029   0.246   4.058   6.446  1.7674  3.1239  2.8251
 2466SOL     OW19030   2.997   3.379  13.956  0.3656  0.5929  0.0637
 2466SOL    HW119031   3.026   3.471  13.955  0.2049  0.6531  1.9441
 2466SOL    HW219032   3.037   3.353  13.873  0.0277  2.1782 -0.5885
 2467SOL     OW19033   3.377   2.083   2.187 -0.1882  0.4087 -0.1112
 2467SOL    HW119034   3.467   2.056   2.165 -0.9621 -0.8425 -1.7716
 2467SOL    HW219035   3.322   2.021   2.138 -2.3266  3.8498 -2.0951
 2468SOL     OW19036   3.317   3.329  16.663  0.0710  0.2471 -0.0053
 2468SOL    HW119037   3.340   3.258  16.603 -0.8549 -2.1270  2.4555
 2468SOL    HW219038   3.371   3.319  16.741  1.4341 -3.7997 -1.4769
 2469SOL     OW19039   1.718   1.831  12.259  0.4820 -0.0208  0.0587
 2469SOL    HW119040   1.789   1.819  12.196  1.0157  0.6300  0.5348
 2469SOL    HW219041   1.769   1.828  12.340 -2.4416  0.9674  1.9443
 2470SOL     OW19042   1.220   0.387   1.926 -0.0720 -0.3315  0.2841
 2470SOL    HW119043   1.316   0.390   1.923 -0.0807  0.7914  0.7753
 2470SOL    HW219044   1.199   0.428   1.842  0.3009 -1.8924 -0.5782
 2471SOL     OW19045   4.676   4.683   6.340 -0.3829 -0.4035 -0.0133
 2471SOL    HW119046   0.010   4.632   6.382 -1.4818  1.0761  3.6530
 2471SOL    HW219047   4.597   4.630   6.352 -2.0542  1.8935 -0.7342
 2472SOL     OW19048   1.707   1.667   2.272  0.0008  0.2906 -0.1262
 2472SOL    HW119049   1.800   1.656   2.291  0.0066  0.5337 -0.0162
 2472SOL    HW219050   1.687   1.740   2.330  3.8382  0.3126  1.1402
 2473SOL     OW19051   4.105   2.156   6.537  0.3302  0.2775 -0.0900
 2473SOL    HW119052   4.177   2.094   6.549 -2.0724 -2.3196  1.2769
 2473SOL    HW219053   4.074   2.125   6.452  1.4138 -0.1532 -0.3187
 2474SOL     OW19054   2.326   3.651   3.386 -0.3571 -0.1080  0.3194
 2474SOL    HW119055   2.342   3.673   3.478 -0.3748  0.0076  0.2952
 2474SOL    HW219056   2.412   3.658   3.345 -0.5600  0.0129 -0.0831
 2475SOL     OW19057   3.775   1.277   9.700 -0.1652  0.1124  0.2504
 2475SOL    HW119058   3.805   1.366   9.715 -0.4323  0.4918 -1.4578
 2475SOL    HW219059   3.859   1.232   9.702  0.3314  0.8913 -2.5927
 2476SOL     OW19060   1.279   0.767   4.438 -0.1904 -0.3473  0.1243
 2476SOL    HW119061   1.365   0.809   4.448  0.6157 -1.9974  0.1310
 2476SOL    HW219062   1.261   0.761   4.532  2.5645 -1.1653  0.6046
 2477SOL     OW19063   2.801   3.932  12.694 -0.0317  0.9590  0.0689
 2477SOL    HW119064   2.745   3.930  12.772  2.0784 -1.4001  1.5201
 2477SOL    HW219065   2.879   3.890  12.730  0.0296 -0.9577 -2.2735
 2478SOL     OW19066   3.202   3.174   5.216 -0.1712  0.0075  0.1613
 2478SOL    HW119067   3.189   3.217   5.132 -0.3194  1.1078  0.7575
 2478SOL    HW219068   3.158   3.090   5.202  0.9007 -1.0646  3.2211
 2479SOL     OW19069   1.372   0.086   5.400 -0.1267 -0.4035  0.4435
 2479SOL    HW119070   1.456   0.126   5.421 -0.9924  2.1805 -1.0956
 2479SOL    HW219071   1.387   0.057   5.310  1.8389  0.1789  0.5829
 2480SOL     OW19072   2.861   3.978   7.726 -0.4292 -0.1980  0.0631
 2480SOL    HW119073   2.889   3.991   7.635  0.1631  0.1165  0.2893
 2480SOL    HW219074   2.780   4.029   7.731  2.5531  4.5426  0.5716
 2481SOL     OW19075   2.302   0.429   6.966  0.3471 -0.0357  0.3528
 2481SOL    HW119076   2.275   0.499   6.906 -0.3417  0.8358  1.6777
 2481SOL    HW219077   2.307   0.485   7.044 -1.8521 -0.1493  0.5860
 2482SOL     OW19078   1.440   2.220   0.747  0.2083 -0.1868 -0.2485
 2482SOL    HW119079   1.434   2.124   0.741  2.4701 -0.3633  0.0898
 2482SOL    HW219080   1.466   2.237   0.837 -2.0092 -3.5343  1.0062
 2483SOL     OW19081   4.723   2.945   5.800 -0.1883 -0.0239  0.8563
 2483SOL    HW119082   4.687   2.856   5.799 -2.2686  0.8435 -0.9528
 2483SOL    HW219083   4.648   3.001   5.817 -0.2876 -0.3453  1.4814
 2484SOL     OW19084   1.987   1.872   1.960  0.0966  0.0292 -0.1436
 2484SOL    HW119085   2.005   1.954   2.006 -2.6917  0.9338 -0.6225
 2484SOL    HW219086   1.898   1.862   1.995  0.1291  1.6172  0.3998
 2485SOL     OW19087   0.976   3.785   4.713  0.0366 -0.1326 -0.1712
 2485SOL    HW119088   1.003   3.707   4.763  3.8019  0.8749 -0.6411
 2485SOL    HW219089   1.053   3.831   4.682  0.6184 -0.4783  0.7414
 2486SOL     OW19090   2.699   1.068  14.549  0.7060 -0.1080 -0.1596
 2486SOL    HW119091   2.719   0.976  14.566  0.0883 -0.0835  0.7058
 2486SOL    HW219092   2.760   1.101  14.616  0.5941  1.2556 -0.7290
 2487SOL     OW19093   2.111   3.745   6.650  0.5378  0.4232  0.0630
 2487SOL    HW119094   2.050   3.793   6.594  2.0502  1.8601 -0.3280
 2487SOL    HW219095   2.129   3.663   6.603  1.6832  1.9986 -2.2221
 2488SOL     OW19096   1.921   0.661  15.097  0.8907  0.4303  0.4257
 2488SOL    HW119097   1.839   0.617  15.118  0.7061 -0.2610 -1.7316
 2488SOL    HW219098   1.967   0.653  15.180  1.3024  0.2636  0.1817
 2489SOL     OW19099   4.695   1.933   8.617 -0.0650  0.5244 -0.8991
 2489SOL    HW119100   0.029   1.933   8.551  1.0015 -0.3936  0.2334
 2489SOL    HW219101   4.698   1.843   8.649 -1.9349  0.5380 -0.7044
 2490SOL     OW19102   3.813   0.245   9.051  0.1064  0.9324  0.5761
 2490SOL    HW119103   3.856   0.274   9.132  1.2697  2.6507 -0.6450
 2490SOL    HW219104   3.800   0.334   9.018  1.2078  0.8684 -0.0361
 2491SOL     OW19105   1.882   2.675  15.840 -0.0516 -0.2062  0.5191
 2491SOL    HW119106   1.888   2.587  15.878  0.7931 -0.8378 -1.0783
 2491SOL    HW219107   1.965   2.682  15.791 -0.7536  1.7703 -0.3659
 2492SOL     OW19108   0.139   2.290  10.884 -0.3702  0.3725 -0.1497
 2492SOL    HW119109   0.231   2.311  10.865 -0.5995  1.4575 -0.0923
 2492SOL    HW219110   0.117   2.246  10.802  1.0156  0.1526 -0.4157
 2493SOL     OW19111   3.661   1.910  11.953 -0.3472  0.3384 -0.1597
 2493SOL    HW119112   3.572   1.929  11.985 -1.1767  0.1131 -2.3137
 2493SOL    HW219113   3.659   1.815  11.943  2.7595 -0.0294  2.7950
 2494SOL     OW19114   3.411   0.573  10.701  0.2470  1.0461  0.2939
 2494SOL    HW119115   3.436   0.656  10.742 -0.3441  0.4372  1.8822
 2494SOL    HW219116   3.356   0.545  10.774  0.6227 -0.8300 -0.1607
 2495SOL     OW19117   4.711   0.392   2.041 -0.0087  0.2867  0.1300
 2495SOL    HW119118   4.657   0.357   1.970  1.0519  0.6525 -0.8560
 2495SOL    HW219119   0.004   0.472   1.996  1.3221 -0.2285  0.0730
 2496SOL     OW19120   4.417   0.271   3.510  0.0742 -0.1211 -0.1328
 2496SOL    HW119121   4.505   0.236   3.494 -0.5483 -0.8818 -1.8873
 2496SOL    HW219122   4.369   0.220   3.445 -0.2699  2.2162 -1.7149
 2497SOL     OW19123   4.244   4.634   9.987  0.3053 -0.3312  0.6644
 2497SOL    HW119124   4.326   4.607  10.027  0.7504 -1.7366 -1.1935
 2497SOL    HW219125   4.265   4.719   9.949  1.8693 -1.3135 -0.6573
 2498SOL     OW19126   2.706   0.829   4.160  0.1317  0.8547 -0.4312
 2498SOL    HW119127   2.797   0.834   4.188  0.9391  0.0461 -2.9689
 2498SOL    HW219128   2.707   0.759   4.095 -2.3477 -0.4616  0.9168
 2499SOL     OW19129   0.907   1.612   9.182  0.1181  0.1258  0.3089
 2499SOL    HW119130   0.836   1.668   9.215 -1.5390 -0.8395 -1.5946
 2499SOL    HW219131   0.872   1.523   9.173  0.1923 -0.0239  1.5470
 2500SOL     OW19132   2.814   0.185   6.903  0.5307  0.3421 -0.0239
 2500SOL    HW119133   2.719   0.194   6.899  0.4879 -0.5014 -0.8963
 2500SOL    HW219134   2.832   0.109   6.847 -1.4107 -1.8988  2.4041
 2501SOL     OW19135   3.245   3.441  13.546  0.3514 -0.0900  0.3721
 2501SOL    HW119136   3.228   3.440  13.452  1.5026  0.0116  0.1576
 2501SOL    HW219137   3.340   3.450  13.553  0.2216 -0.2693  2.3501
 2502SOL     OW19138   3.363   2.208   5.755 -0.3741  0.1046  0.0685
 2502SOL    HW119139   3.453   2.180   5.735 -1.4011 -2.5305 -0.8210
 2502SOL    HW219140   3.334   2.255   5.677 -1.9803 -0.6634  0.2088
 2503SOL     OW19141   4.202   2.649   6.569 -0.0538  0.0802  0.3430
 2503SOL    HW119142   4.237   2.564   6.545  0.6288  0.0545  1.3998
 2503SOL    HW219143   4.208   2.642   6.665  0.3982 -0.1621  0.2959
 2504SOL     OW19144   1.325   0.416   2.496 -0.2165 -0.6719 -0.3685
 2504SOL    HW119145   1.260   0.454   2.555  1.1839  0.9771  0.1429
 2504SOL    HW219146   1.375   0.377   2.567 -0.5539 -1.2091 -0.4262
 2505SOL     OW19147   3.810   0.245  10.921  0.3759 -0.2383  0.0395
 2505SOL    HW119148   3.872   0.225  10.991 -0.6979  0.8551  1.3027
 2505SOL    HW219149   3.772   0.323  10.962 -3.4274 -2.3477  0.5284
 2506SOL     OW19150   2.366   3.238   8.634  0.7110 -0.1368  0.6708
 2506SOL    HW119151   2.443   3.278   8.595  0.8666  1.0350  2.1943
 2506SOL    HW219152   2.303   3.310   8.640  0.0945 -0.5275 -1.0890
 2507SOL     OW19153   1.213   4.000  12.737 -0.1498 -0.7572 -0.4079
 2507SOL    HW119154   1.267   3.996  12.659  0.5579  5.3611 -0.1952
 2507SOL    HW219155   1.196   4.094  12.743 -0.0276 -1.0569  4.7818
 2508SOL     OW19156   0.502   2.504   0.752 -0.2527  0.4016  0.5498
 2508SOL    HW119157   0.503   2.462   0.666  3.2592 -1.4239  1.5063
 2508SOL    HW219158   0.432   2.457   0.798 -0.9754  0.1886 -0.7569
 2509SOL     OW19159   3.693   1.997   2.857 -0.2842 -0.3665 -0.3936
 2509SOL    HW119160   3.716   1.914   2.814  0.0180  0.5076 -1.9188
 2509SOL    HW219161   3.598   1.987   2.859 -0.0939 -1.6353  2.4789
 2510SOL     OW19162   1.809   0.172   0.999 -0.1972  0.4794 -0.1728
 2510SOL    HW119163   1.830   0.155   1.091 -1.1886  1.3223  0.2131
 2510SOL    HW219164   1.784   0.264   1.010  1.0276  0.8387 -0.3738
 2511SOL     OW19165   1.304   4.097   8.542 -0.5345  0.2412 -0.2060
 2511SOL    HW119166   1.249   4.150   8.485  1.6237  0.2688 -2.2488
 2511SOL    HW219167   1.271   4.008   8.528 -0.5764 -0.1483  2.3582
 2512SOL     OW19168   4.179   2.378   1.825 -0.0674  0.2099 -0.1453
 2512SOL    HW119169   4.087   2.360   1.805  0.5417 -0.4507 -2.3552
 2512SOL    HW219170   4.202   2.469   1.810 -0.3237  0.1245 -1.1139
 2513SOL     OW19171   1.625   3.343   0.342  0.0210 -0.2070  0.3403
 2513SOL    HW119172   1.580   3.271   0.297  0.9689 -0.4026 -0.2929
 2513SOL    HW219173   1.699   3.353   0.283  0.1487 -3.5294 -0.0632
 2514SOL     OW19174   2.082   0.984  13.831 -0.6522 -0.7197 -0.3765
 2514SOL    HW119175   2.148   0.959  13.767 -0.3548 -2.4336  0.6162
 2514SOL    HW219176   2.056   1.073  13.807  1.1758  0.2692  1.2552
 2515SOL     OW19177   0.661   2.560   4.814  0.1936 -0.1151 -0.1562
 2515SOL    HW119178   0.709   2.602   4.743  1.0684 -1.4716 -0.3571
 2515SOL    HW219179   0.612   2.627   4.862 -0.1578  0.6328 -1.5763
 2516SOL     OW19180   4.014   1.090   7.750  0.2551 -0.5972 -0.1869
 2516SOL    HW119181   3.962   1.089   7.669  1.4010 -1.6451 -0.8981
 2516SOL    HW219182   4.095   1.133   7.723 -0.8679  1.2956 -0.5955
 2517SOL     OW19183   1.052   4.468   5.650 -0.6838 -0.1308 -0.5968
 2517SOL    HW119184   1.095   4.553   5.652  0.6902 -0.8920  1.2307
 2517SOL    HW219185   0.970   4.490   5.605 -0.6954  1.6112  0.2762
 2518SOL     OW19186   2.698   4.113   7.432  0.2077 -0.1366  0.4922
 2518SOL    HW119187   2.793   4.124   7.426 -0.0599  0.9310 -1.4536
 2518SOL    HW219188   2.691   4.112   7.528 -0.9308  1.8939  0.4151
 2519SOL     OW19189   2.987   3.582   2.976 -0.6998  0.2867  0.0353
 2519SOL    HW119190   2.954   3.672   2.971 -0.9166  0.2020 -0.0320
 2519SOL    HW219191   3.039   3.580   2.895  0.5953  0.8287  0.8537
 2520SOL     OW19192   2.857   2.966  13.963  1.2135  0.1640 -0.4672
 2520SOL    HW119193   2.761   2.966  13.966  1.2333 -0.1014  0.0477
 2520SOL    HW219194   2.877   3.004  13.877  1.3426  2.7230  0.7011
 2521SOL     OW19195   3.764   2.429   3.685 -0.0113  0.1804 -0.0506
 2521SOL    HW119196   3.781   2.375   3.608 -1.8391  1.3593 -1.2974
 2521SOL    HW219197   3.846   2.478   3.690 -0.4910  1.0740 -0.9488
 2522SOL     OW19198   1.434   1.974   7.862  0.0407 -0.0993 -0.0624
 2522SOL    HW119199   1.421   1.880   7.873  2.5840 -0.4380  0.0873
 2522SOL    HW219200   1.345   2.006   7.877  0.2463 -0.5595  2.0688
 2523SOL     OW19201   2.133   2.472   1.912  0.0778 -0.5836  0.7327
 2523SOL    HW119202   2.104   2.539   1.850 -0.0840  1.1654  2.7350
 2523SOL    HW219203   2.174   2.533   1.973  0.9566  1.4894 -1.9255
 2524SOL     OW19204   1.832   1.083   7.430  0.5077 -0.2319 -0.2201
 2524SOL    HW119205   1.757   1.082   7.488  0.8430  0.2518  0.2242
 2524SOL    HW219206   1.782   1.089   7.349  1.1999 -0.8601 -0.7034
 2525SOL     OW19207   0.779   2.088   7.930  0.6764 -0.1263  0.1204
 2525SOL    HW119208   0.793   1.998   7.956 -1.6022 -0.0545  1.5939
 2525SOL    HW219209   0.856   2.132   7.966  0.8885  1.8602 -2.6864
 2526SOL     OW19210   2.257   2.908  17.094  0.2556 -0.5104 -0.2114
 2526SOL    HW119211   2.346   2.942  17.082  0.2372 -0.6121 -0.6565
 2526SOL    HW219212   2.251   2.829  17.040  1.4990 -0.8665  0.1671
 2527SOL     OW19213   3.817   4.404   0.577  0.3456 -0.1852  0.3589
 2527SOL    HW119214   3.741   4.362   0.618  1.1513  1.3524  3.4034
 2527SOL    HW219215   3.882   4.334   0.578 -0.7277 -1.1935 -0.4755
 2528SOL     OW19216   3.402   1.998   5.953 -0.3101  0.0691 -0.2832
 2528SOL    HW119217   3.327   1.983   6.009 -1.4643  1.1722 -1.5268
 2528SOL    HW219218   3.385   2.083   5.911 -1.7094  0.0191  0.1884
 2529SOL     OW19219   3.104   3.812   4.899 -0.2519 -0.7364  0.4088
 2529SOL    HW119220   3.043   3.884   4.915  0.8396  0.5648 -1.3344
 2529SOL    HW219221   3.152   3.847   4.823 -2.7329 -0.2797 -0.9337
 2530SOL     OW19222   1.293   1.878  15.575 -0.2880  0.1001  0.4248
 2530SOL    HW119223   1.223   1.870  15.639 -0.7572  1.5732  0.0702
 2530SOL    HW219224   1.239   1.858  15.498 -0.2169 -0.6939  0.5828
 2531SOL     OW19225   4.348   1.111  17.728 -0.3881 -0.2882 -0.0869
 2531SOL    HW119226   4.417   1.178  17.730 -1.1225  0.4209  1.4864
 2531SOL    HW219227   4.402   1.038   0.015 -1.1270 -0.2837  1.2907
 2532SOL     OW19228   3.511   1.868  12.752  0.2429 -0.0390 -0.0992
 2532SOL    HW119229   3.485   1.788  12.706 -0.4967 -0.6466  1.3809
 2532SOL    HW219230   3.437   1.878  12.811  0.6203  1.2065  0.1546
 2533SOL     OW19231   3.653   4.490   4.452 -0.0937  0.0662  0.1784
 2533SOL    HW119232   3.563   4.469   4.479  0.3232 -1.4799  0.3574
 2533SOL    HW219233   3.696   4.409   4.424  0.5646  1.0550 -1.6486
 2534SOL     OW19234   2.276   2.913   7.688  0.5710 -0.2191 -0.1261
 2534SOL    HW119235   2.365   2.942   7.712  0.2859 -0.5670  1.3240
 2534SOL    HW219236   2.249   2.971   7.616  2.0958  1.2533  0.4836
 2535SOL     OW19237   1.361   2.130   7.610 -0.2356  0.1813 -0.8820
 2535SOL    HW119238   1.294   2.080   7.656 -0.1082  1.1173  0.3098
 2535SOL    HW219239   1.439   2.102   7.659 -0.3958  0.1300 -0.6603
 2536SOL     OW19240   4.622   0.331   8.118  0.3751  0.0497  0.1410
 2536SOL    HW119241   4.592   0.243   8.143  0.8497  0.3224  1.6529
 2536SOL    HW219242   4.660   0.361   8.201  0.6018  0.5425 -0.1421
 2537SOL     OW19243   0.074   1.144   5.261 -0.2011  0.0012  0.2170
 2537SOL    HW119244   0.149   1.086   5.273  0.8329  0.9702 -1.4747
 2537SOL    HW219245   4.734   1.091   5.285 -0.7725  1.6477  2.0202
 2538SOL     OW19246   1.434   3.299   2.588 -0.0823 -0.5149 -0.0804
 2538SOL    HW119247   1.518   3.254   2.578 -0.1069 -0.4612 -0.5333
 2538SOL    HW219248   1.462   3.390   2.587  1.4613 -1.0009 -1.3425
 2539SOL     OW19249   2.689   4.476   6.995 -0.6390 -0.0957  0.8323
 2539SOL    HW119250   2.622   4.416   6.963 -1.9552  2.2298 -0.7567
 2539SOL    HW219251   2.658   4.498   7.082 -2.2550  0.4513  0.1211
 2540SOL     OW19252   2.875   0.563   8.892 -0.6347  0.4568  0.2031
 2540SOL    HW119253   2.953   0.553   8.837 -0.1837  2.4467  0.4764
 2540SOL    HW219254   2.810   0.564   8.822 -0.6420 -0.9198  0.1935
 2541SOL     OW19255   4.487   3.008   8.913  0.3521 -0.3837  0.1578
 2541SOL    HW119256   4.435   3.087   8.930 -0.5318 -0.4927 -2.0328
 2541SOL    HW219257   4.460   2.953   8.987 -0.3695 -0.2167  0.0205
 2542SOL     OW19258   1.531   2.581   9.900 -0.1233  0.3072  0.5792
 2542SOL    HW119259   1.586   2.524   9.846 -1.2526  0.5745 -0.8358
 2542SOL    HW219260   1.514   2.516   9.969  1.0476  0.9848  1.5199
 2543SOL     OW19261   0.310   2.855   2.622 -0.2901 -0.1986 -0.4443
 2543SOL    HW119262   0.316   2.809   2.706 -0.6799 -1.2034 -0.9661
 2543SOL    HW219263   0.398   2.894   2.622 -0.5748  0.4525  1.1984
 2544SOL     OW19264   4.372   2.622  12.760  0.3295 -0.2368 -0.0633
 2544SOL    HW119265   4.348   2.610  12.852 -0.5059 -1.9519 -0.5007
 2544SOL    HW219266   4.466   2.624  12.777  0.2197 -0.2161  0.5460
 2545SOL     OW19267   2.554   2.030  11.414  0.4721 -0.0188  0.2086
 2545SOL    HW119268   2.566   2.003  11.505  0.3782 -2.5157 -0.5219
 2545SOL    HW219269   2.625   2.092  11.399  1.1580 -1.1928 -1.4115
 2546SOL     OW19270   2.742   1.004   2.621 -0.5931  0.4444 -0.3691
 2546SOL    HW119271   2.669   0.945   2.605 -1.4445  1.8505 -1.7137
 2546SOL    HW219272   2.713   1.082   2.574 -2.0973  0.2228  0.1956
 2547SOL     OW19273   2.308   2.652  16.854  0.3617 -0.1121 -0.0919
 2547SOL    HW119274   2.229   2.704  16.841 -0.8133 -2.2028 -1.3985
 2547SOL    HW219275   2.305   2.579  16.791  2.6609  0.0451 -0.4113
 2548SOL     OW19276   2.629   1.318   8.882 -0.2107  0.3679 -0.1282
 2548SOL    HW119277   2.599   1.408   8.893 -2.4331 -0.4771  0.6222
 2548SOL    HW219278   2.682   1.302   8.959  0.1729  1.0689 -0.2475
 2549SOL     OW19279   4.072   0.173   5.619  0.2280  0.4010 -0.0152
 2549SOL    HW119280   4.000   0.226   5.583  1.3388  3.4172  2.2439
 2549SOL    HW219281   4.057   0.199   5.709 -1.3093  0.1810 -0.2102
 2550SOL     OW19282   3.288   3.020   0.039 -0.2455 -0.6431  0.9632
 2550SOL    HW119283   3.203   2.978   0.035 -0.3798 -0.3426  0.6716
 2550SOL    HW219284   3.279   3.074  17.703  0.7759 -1.7962  0.0586
 2551SOL     OW19285   1.894   4.695   2.020 -0.5084 -0.2957 -0.0463
 2551SOL    HW119286   1.834   4.659   1.954 -3.1484 -0.7453  2.5933
 2551SOL    HW219287   1.853   0.044   2.036  0.2561 -0.2477  1.6011
 2552SOL     OW19288   1.265   0.665   1.980 -0.1512  0.1689  1.2036
 2552SOL    HW119289   1.242   0.572   1.984  1.8043 -0.3968 -1.0215
 2552SOL    HW219290   1.177   0.701   1.991 -0.1341  0.4112  0.5702
 2553SOL     OW19291   0.759   0.751   1.957 -0.0533 -0.1576 -0.3997
 2553SOL    HW119292   0.786   0.662   1.981  1.8991  0.2508 -1.0680
 2553SOL    HW219293   0.668   0.749   1.985  0.5011  0.6870  1.5133
 2554SOL     OW19294   2.385   0.136   2.170 -0.2473 -0.2076  0.0235
 2554SOL    HW119295   2.348   0.217   2.135  1.5087  0.6259  0.1220
 2554SOL    HW219296   2.451   0.125   2.102  0.4007  0.8402  0.4758
 2555SOL     OW19297   0.680   3.234   6.680  0.0820  0.0694 -0.3679
 2555SOL    HW119298   0.655   3.269   6.595 -0.6819  1.2718  0.3504
 2555SOL    HW219299   0.644   3.301   6.738  0.5939  0.3080 -0.3296
 2556SOL     OW19300   1.732   1.590   5.859  0.1234 -0.0823  0.3301
 2556SOL    HW119301   1.723   1.640   5.940  0.3087  1.5277 -0.6519
 2556SOL    HW219302   1.640   1.593   5.834 -0.0778 -2.5271  0.7139
 2557SOL     OW19303   4.254   2.303   2.392 -0.1078 -0.3042  0.5787
 2557SOL    HW119304   4.338   2.340   2.365  0.7988 -1.6798  1.4830
 2557SOL    HW219305   4.221   2.376   2.444 -0.0107  0.7249 -0.8057
 2558SOL     OW19306   1.513   2.712   6.615 -0.1563  0.1559 -0.6355
 2558SOL    HW119307   1.425   2.674   6.610  0.0626 -0.0975 -2.7765
 2558SOL    HW219308   1.534   2.649   6.684  2.1942 -0.3623 -1.7904
 2559SOL     OW19309   1.112   3.946   5.899 -0.5746  0.1684  0.2640
 2559SOL    HW119310   1.090   3.877   5.961  1.6372 -3.4749 -3.0771
 2559SOL    HW219311   1.024   3.983   5.886 -1.2907 -1.7005 -0.1571
 2560SOL     OW19312   4.174   1.756   5.040  0.7187 -0.3953  0.4510
 2560SOL    HW119313   4.115   1.824   5.073  1.7285  1.2856 -1.1952
 2560SOL    HW219314   4.124   1.675   5.037  0.2233 -0.0829  0.2515
 2561SOL     OW19315   1.342   1.468  10.036  0.0056 -0.0273  0.2516
 2561SOL    HW119316   1.382   1.381  10.031  0.3264  0.0477  1.7755
 2561SOL    HW219317   1.251   1.443  10.053  0.6326 -2.2078  0.4078
 2562SOL     OW19318   4.079   2.884   6.454  0.1827 -0.1385 -0.1997
 2562SOL    HW119319   4.144   2.929   6.399  0.0444 -0.1795 -0.3938
 2562SOL    HW219320   4.138   2.818   6.491  1.8498  1.2617 -0.3630
 2563SOL     OW19321   1.712   3.405   2.461 -0.3599 -0.2182 -0.9911
 2563SOL    HW119322   1.766   3.451   2.526 -2.2238 -1.2959  1.3131
 2563SOL    HW219323   1.668   3.476   2.415 -2.9586 -2.3384 -1.7329
 2564SOL     OW19324   0.558   0.203   2.806  0.3837  0.1290  0.9692
 2564SOL    HW119325   0.591   0.182   2.719 -1.1010 -0.4193  0.5390
 2564SOL    HW219326   0.529   0.294   2.814 -2.8759 -0.9464  1.1320
 2565SOL     OW19327   1.545   0.282   2.663 -0.5111  0.3125 -0.4270
 2565SOL    HW119328   1.530   0.238   2.746 -0.7942 -2.2386 -1.8494
 2565SOL    HW219329   1.600   0.222   2.612 -1.5723 -0.8544 -0.2089
 2566SOL     OW19330   3.733   1.617   8.903  0.2461  0.3188  0.3055
 2566SOL    HW119331   3.748   1.711   8.889  0.5105  0.3638  0.9014
 2566SOL    HW219332   3.738   1.611   8.999 -0.5923 -1.0686  0.2645
 2567SOL     OW19333   1.101   4.528   0.633  0.4124  0.1263  0.2229
 2567SOL    HW119334   1.043   4.485   0.695  3.4305 -1.1418  2.1558
 2567SOL    HW219335   1.164   4.460   0.611  2.9062  2.0004  1.5814
 2568SOL     OW19336   1.070   2.856  12.162 -0.3046 -0.2428 -0.2890
 2568SOL    HW119337   1.065   2.950  12.141  1.7499 -0.3411 -1.2857
 2568SOL    HW219338   1.140   2.814  12.113 -0.3031 -0.4048 -0.1497
 2569SOL     OW19339   0.802   3.656   4.458  0.3129 -0.5041  0.4535
 2569SOL    HW119340   0.815   3.561   4.459 -2.6725 -0.9258  0.2045
 2569SOL    HW219341   0.889   3.685   4.484  0.4377 -1.9850  1.7334
 2570SOL     OW19342   3.749   0.856   8.842  0.6432  0.2647 -0.2590
 2570SOL    HW119343   3.676   0.841   8.902  0.3138 -2.1241 -1.2551
 2570SOL    HW219344   3.720   0.926   8.784  0.7138 -0.5486 -1.2647
 2571SOL     OW19345   2.237   3.310   3.764 -0.0785  0.0642 -0.6639
 2571SOL    HW119346   2.224   3.260   3.683  1.8468 -0.7050 -0.5105
 2571SOL    HW219347   2.202   3.254   3.833  0.2546 -0.0455 -0.5849
 2572SOL     OW19348   4.426   4.530   3.352  0.8029 -0.5710  0.3254
 2572SOL    HW119349   4.364   4.528   3.426  0.4747 -2.4081 -0.0030
 2572SOL    HW219350   4.506   4.553   3.400 -0.1202  0.4357  1.3934
 2573SOL     OW19351   3.914   1.626   7.538 -0.0601  0.3519  0.4593
 2573SOL    HW119352   3.935   1.619   7.444  2.7660  0.8734  1.0430
 2573SOL    HW219353   3.902   1.720   7.549  2.1316  0.5206  1.3468
 2574SOL     OW19354   3.691   4.499   2.822  0.6795  0.6455  0.1111
 2574SOL    HW119355   3.670   4.426   2.764  1.0217 -0.2654  1.1250
 2574SOL    HW219356   3.785   4.512   2.823  1.2782 -3.3230 -2.5869
 2575SOL     OW19357   4.269   4.024   5.753  0.1002 -0.1649  0.2824
 2575SOL    HW119358   4.284   4.058   5.665  0.4404 -3.1088 -0.8085
 2575SOL    HW219359   4.248   4.101   5.805 -0.1112 -0.6238  0.8810
 2576SOL     OW19360   3.234   1.833   2.443  1.2006  0.0740 -0.1699
 2576SOL    HW119361   3.312   1.804   2.396  1.6617  1.2954 -0.1783
 2576SOL    HW219362   3.177   1.757   2.437  0.5916  0.3095  2.5440
 2577SOL     OW19363   0.510   2.659   4.412 -0.2863 -0.5839 -0.0903
 2577SOL    HW119364   0.435   2.600   4.403 -0.7013 -0.3733  1.9496
 2577SOL    HW219365   0.507   2.702   4.327  1.7825 -0.0395  0.1111
 2578SOL     OW19366   1.243   3.387   5.557 -0.5034  0.0025  0.1916
 2578SOL    HW119367   1.321   3.374   5.503 -1.3405 -2.5737 -0.3817
 2578SOL    HW219368   1.237   3.479   5.583  1.4718  0.2765 -0.3310
 2579SOL     OW19369   1.339   2.574   1.782  0.0435 -0.4866  0.1025
 2579SOL    HW119370   1.245   2.562   1.797 -0.2960  0.3554 -1.4466
 2579SOL    HW219371   1.356   2.498   1.727 -0.3507 -3.2086  3.7012
 2580SOL     OW19372   1.120   1.747   9.067 -0.6129  0.3316  0.1560
 2580SOL    HW119373   1.070   1.794   9.000  0.0871 -0.6298 -1.0430
 2580SOL    HW219374   1.047   1.698   9.104 -0.3540  0.9695  1.4957
 2581SOL     OW19375   1.755   0.624  14.116  0.2250 -0.0585  0.4291
 2581SOL    HW119376   1.693   0.684  14.074 -0.3946  0.0684  1.5217
 2581SOL    HW219377   1.746   0.548  14.059 -0.5404  0.3109  0.0596
 2582SOL     OW19378   3.562   0.169   4.271 -0.2879  0.1048 -0.2923
 2582SOL    HW119379   3.536   0.248   4.318 -1.4453 -0.3534 -0.1741
 2582SOL    HW219380   3.637   0.147   4.327 -1.5427 -1.8052  0.6283
 2583SOL     OW19381   2.178   3.452  15.263 -0.3740 -0.2463  0.1276
 2583SOL    HW119382   2.157   3.365  15.296 -1.4893  0.4896  1.3222
 2583SOL    HW219383   2.090   3.476  15.233  0.2023  2.7719  0.9133
 2584SOL     OW19384   4.720   2.614   1.904  0.3092 -0.7013  0.6685
 2584SOL    HW119385   0.027   2.628   1.988  1.9367  3.1048 -0.8322
 2584SOL    HW219386   4.715   2.518   1.909 -3.0663 -0.5856 -0.7230
 2585SOL     OW19387   4.593   0.015  16.773  0.1304  0.5742 -0.6014
 2585SOL    HW119388   4.499   4.731  16.780  0.0998  0.5412 -1.1154
 2585SOL    HW219389   4.611   4.693  16.699  1.3061 -1.0187  0.9137
 2586SOL     OW19390   2.354   0.198   7.128 -0.1802 -0.0296  0.3655
 2586SOL    HW119391   2.288   0.213   7.060 -1.1174 -1.4417  0.9673
 2586SOL    HW219392   2.434   0.190   7.077 -0.8247  3.0950 -1.1697
 2587SOL     OW19393   3.829   1.656  13.457  0.1091 -0.5409 -0.2900
 2587SOL    HW119394   3.903   1.599  13.435  0.4382 -0.6225  1.0499
 2587SOL    HW219395   3.765   1.587  13.475  0.4746 -0.9282 -0.4667
 2588SOL     OW19396   3.941   2.421   2.143  0.5033 -0.1302 -0.2477
 2588SOL    HW119397   4.030   2.455   2.155 -0.1247  1.2496  0.3925
 2588SOL    HW219398   3.897   2.496   2.183 -1.9685 -2.2369  0.9363
 2589SOL     OW19399   1.080   0.297   8.171  0.3518 -0.3353 -0.1731
 2589SOL    HW119400   1.073   0.279   8.265 -1.4418 -2.2188 -0.6754
 2589SOL    HW219401   0.988   0.315   8.152  1.1083 -0.4583 -3.9104
 2590SOL     OW19402   1.649   4.119   2.200  0.1978  0.4545 -0.3297
 2590SOL    HW119403   1.646   4.214   2.192  0.4780  0.3540 -1.5297
 2590SOL    HW219404   1.657   4.099   2.107 -0.5543 -1.1040 -0.0652
 2591SOL     OW19405   0.036   4.139   7.309 -0.1011  0.1668 -0.4824
 2591SOL    HW119406   4.680   4.165   7.301  0.0188  0.4860 -0.8491
 2591SOL    HW219407   0.029   4.106   7.398  1.2579 -0.2340 -0.5273
 2592SOL     OW19408   1.685   4.712   0.003 -0.7571  0.5842 -0.0236
 2592SOL    HW119409   1.654   0.060  17.711 -0.1673  1.1189  0.7510
 2592SOL    HW219410   1.687   4.732   0.097  1.7468 -1.5491  0.3735
 2593SOL     OW19411   0.246   0.368   6.875 -0.2845 -0.3372 -0.1158
 2593SOL    HW119412   0.169   0.376   6.930  0.0126  1.1051  0.0961
 2593SOL    HW219413   0.227   0.442   6.817  2.0744 -0.6397 -1.2810
 2594SOL     OW19414   0.448   1.019  12.144  0.3304 -0.6666 -0.3588
 2594SOL    HW119415   0.500   0.950  12.103 -0.4050 -1.0590 -0.6255
 2594SOL    HW219416   0.402   0.968  12.210 -0.1888  1.3947  0.8710
 2595SOL     OW19417   4.483   1.276  14.210 -0.7084 -0.8101  0.4906
 2595SOL    HW119418   4.430   1.197  14.197 -0.3756 -0.4260 -3.1704
 2595SOL    HW219419   4.549   1.265  14.141 -0.6606  0.4058  0.3543
 2596SOL     OW19420   0.456   3.162  13.513  0.9981 -0.1888 -0.3919
 2596SOL    HW119421   0.397   3.088  13.532  2.2652 -0.9126  0.7189
 2596SOL    HW219422   0.422   3.231  13.570  2.2266 -0.0157  0.1092
 2597SOL     OW19423   3.502   0.982   1.383  0.3673  0.1985  0.1519
 2597SOL    HW119424   3.552   0.952   1.458  1.8036  0.2110 -0.7905
 2597SOL    HW219425   3.546   0.943   1.307  2.1700  2.8259 -0.1644
 2598SOL     OW19426   4.085   3.232   1.557 -0.9419  0.1154 -0.4605
 2598SOL    HW119427   4.036   3.253   1.637  0.6717  1.1920  0.2536
 2598SOL    HW219428   4.171   3.266   1.584 -1.1599  0.4886 -0.2265
 2599SOL     OW19429   3.982   2.378   5.224  0.4951  0.8025  0.1606
 2599SOL    HW119430   4.002   2.350   5.135 -2.2199 -0.2752 -0.1064
 2599SOL    HW219431   3.887   2.380   5.215  0.5282 -0.2167 -0.3787
 2600SOL     OW19432   3.571   0.754  10.825  0.2039 -0.0616  0.1432
 2600SOL    HW119433   3.625   0.719  10.896  0.7384 -1.1195 -0.7826
 2600SOL    HW219434   3.642   0.786  10.769 -0.8399  3.3062  0.6928
 2601SOL     OW19435   0.536   4.141  11.699  0.1343 -0.4374  0.0486
 2601SOL    HW119436   0.616   4.105  11.737 -1.3018 -2.9033  0.7621
 2601SOL    HW219437   0.466   4.077  11.712 -0.1691 -0.1602 -0.2309
 2602SOL     OW19438   1.165   2.039   7.244 -0.2766 -0.3356  0.8592
 2602SOL    HW119439   1.249   2.047   7.288  0.5828 -2.2096 -0.4262
 2602SOL    HW219440   1.185   2.085   7.163 -1.3184 -1.4844 -0.0585
 2603SOL     OW19441   0.510   1.854   9.143 -0.2291 -0.0003 -0.2057
 2603SOL    HW119442   0.432   1.889   9.185 -1.9386 -0.2454 -3.1521
 2603SOL    HW219443   0.573   1.826   9.209  1.3903 -0.0080 -1.7572
 2604SOL     OW19444   4.142   1.193   5.205  0.0827 -0.5572  0.3390
 2604SOL    HW119445   4.227   1.148   5.207  0.5687  0.2767 -1.5567
 2604SOL    HW219446   4.090   1.133   5.152 -0.7782 -0.4983  1.1283
 2605SOL     OW19447   0.575   3.000   9.373 -0.0724 -0.6010  0.2369
 2605SOL    HW119448   0.560   2.939   9.301 -1.4264  0.5406 -0.4707
 2605SOL    HW219449   0.557   2.944   9.448 -1.6659  1.3177  1.2905
 2606SOL     OW19450   2.063   1.543   3.223 -0.4697  0.0511 -0.2028
 2606SOL    HW119451   2.024   1.463   3.257 -1.1197 -0.4053 -2.0314
 2606SOL    HW219452   2.023   1.608   3.282  0.2665  1.8583 -1.6929
 2607SOL     OW19453   2.602   0.889   8.124  0.1100  0.6274  0.2659
 2607SOL    HW119454   2.607   0.906   8.218 -0.9230  2.1837  0.0401
 2607SOL    HW219455   2.600   0.980   8.096 -0.1415  0.3066 -0.7911
 2608SOL     OW19456   4.042   3.126   4.878 -0.0802  0.5018  0.7578
 2608SOL    HW119457   4.037   3.106   4.784  0.5179  1.8646  0.4348
 2608SOL    HW219458   4.012   3.217   4.873  0.6038  0.7027  0.1701
 2609SOL     OW19459   1.553   2.888  13.979  0.1467 -0.2598 -0.0631
 2609SOL    HW119460   1.573   2.868  13.887 -0.0632 -1.4490  0.1440
 2609SOL    HW219461   1.551   2.982  13.962  0.5751 -0.7516 -2.9557
 2610SOL     OW19462   1.249   2.575   5.049 -0.2073  0.5211  0.0109
 2610SOL    HW119463   1.260   2.480   5.047  0.5437  0.6111 -0.1725
 2610SOL    HW219464   1.228   2.585   5.141  1.2006 -0.2674  0.4204
 2611SOL     OW19465   4.290   3.730   6.344  0.6546 -0.1248  0.6672
 2611SOL    HW119466   4.261   3.815   6.310 -3.0005 -1.2529  0.9497
 2611SOL    HW219467   4.222   3.706   6.407 -1.3142  1.7348 -0.7487
 2612SOL     OW19468   0.650   2.976   5.427 -0.1242 -0.1460  0.0538
 2612SOL    HW119469   0.656   2.880   5.425 -2.0297 -0.2834  0.7740
 2612SOL    HW219470   0.715   2.996   5.494  1.9068 -1.6022 -1.4887
 2613SOL     OW19471   1.182   0.379  13.210  0.3201  0.9380  0.1357
 2613SOL    HW119472   1.109   0.414  13.262  1.1912 -0.8143  2.5795
 2613SOL    HW219473   1.171   0.293  13.251  1.5528  1.6946  2.0770
 2614SOL     OW19474   1.632   0.918   3.939  0.2922  0.0310 -0.0315
 2614SOL    HW119475   1.663   0.887   3.853  1.6477  0.0314  0.4735
 2614SOL    HW219476   1.538   0.931   3.923 -0.0361 -2.4751 -0.1851
 2615SOL     OW19477   2.792   4.732   2.648 -0.0327  0.4741  0.1714
 2615SOL    HW119478   2.752   4.665   2.703  1.1449 -0.7214 -0.4057
 2615SOL    HW219479   2.721   0.058   2.631 -2.2379 -2.5927 -1.6908
 2616SOL     OW19480   0.812   1.883  14.497 -0.5184 -0.1847  0.2723
 2616SOL    HW119481   0.873   1.874  14.424  0.0803 -2.2589  1.0491
 2616SOL    HW219482   0.815   1.978  14.505 -3.4820 -0.1453  0.8105
 2617SOL     OW19483   0.486   2.029   4.565 -0.8896  0.0619 -0.6663
 2617SOL    HW119484   0.402   2.062   4.534 -1.1730 -0.1877 -0.1572
 2617SOL    HW219485   0.457   1.938   4.566  1.0516 -0.5563 -0.4566
 2618SOL     OW19486   0.050   4.394   6.078 -0.4264  0.0949  0.1623
 2618SOL    HW119487   4.724   4.337   6.122 -0.1257 -0.9469 -0.7574
 2618SOL    HW219488   0.107   4.418   6.151 -1.1501 -0.0792  0.7737
 2619SOL     OW19489   2.578   4.127   9.836 -0.2863 -0.2449 -0.1737
 2619SOL    HW119490   2.512   4.067   9.870 -0.5729  0.9798  1.4123
 2619SOL    HW219491   2.528   4.208   9.830 -2.2104 -1.5028 -0.9168
 2620SOL     OW19492   1.822   3.525   2.699 -0.5205  0.0617  0.1720
 2620SOL    HW119493   1.832   3.620   2.709 -1.7159  0.3417 -1.2922
 2620SOL    HW219494   1.896   3.496   2.753  0.2646  1.4858 -0.1216
 2621SOL     OW19495   3.245   3.839   7.690 -0.4671  0.1393  0.2134
 2621SOL    HW119496   3.227   3.866   7.600  0.9270 -0.7379 -0.3246
 2621SOL    HW219497   3.184   3.771   7.717  2.0905 -1.8103  1.0736
 2622SOL     OW19498   2.099   0.519   4.080  0.3253 -0.6143  0.5118
 2622SOL    HW119499   2.088   0.427   4.056 -0.0709 -0.4444  0.0483
 2622SOL    HW219500   2.111   0.513   4.175 -1.8678 -0.4524  0.7851
 2623SOL     OW19501   3.414   0.771   8.303  0.5510  0.0658  0.1863
 2623SOL    HW119502   3.486   0.710   8.317  0.0394 -0.6764 -0.4655
 2623SOL    HW219503   3.458   0.844   8.259 -0.4283  1.0346  0.8156
 2624SOL     OW19504   0.352   2.190   2.411  0.3016  0.2634 -0.2046
 2624SOL    HW119505   0.339   2.284   2.395  3.1533  0.2187 -2.8471
 2624SOL    HW219506   0.443   2.172   2.386 -0.5857 -2.1114 -1.7337
 2625SOL     OW19507   2.166   3.452   6.865  0.0272  0.5069  0.3021
 2625SOL    HW119508   2.167   3.386   6.795 -0.1181 -0.6061  1.3389
 2625SOL    HW219509   2.236   3.416   6.919 -1.6845 -0.9586  1.5666
 2626SOL     OW19510   1.049   4.016   3.734 -0.1428  0.2460  0.2229
 2626SOL    HW119511   1.113   4.023   3.663 -0.0473 -0.8286  0.2052
 2626SOL    HW219512   1.083   4.073   3.803  1.6054 -1.0205  0.4030
 2627SOL     OW19513   0.138   2.087  12.951 -0.4915 -0.5720  0.1459
 2627SOL    HW119514   0.061   2.120  12.904 -0.1972 -0.2056 -0.0741
 2627SOL    HW219515   0.127   2.144  13.028 -1.1563 -0.1522 -0.2617
 2628SOL     OW19516   0.550   0.464  11.244 -0.3638  0.2322  0.1827
 2628SOL    HW119517   0.620   0.529  11.231 -0.6318  0.7595  1.3872
 2628SOL    HW219518   0.475   0.523  11.235 -0.8270 -0.3685  0.1065
 2629SOL     OW19519   2.989   2.036   7.415  0.1111 -0.3671  0.3378
 2629SOL    HW119520   2.896   2.055   7.431  0.9823  0.7037  3.9983
 2629SOL    HW219521   2.986   1.951   7.458 -1.4078 -0.7456 -0.4764
 2630SOL     OW19522   4.426   1.919   8.542  0.3568 -0.4805 -0.0143
 2630SOL    HW119523   4.446   1.946   8.453 -4.2645  0.3168 -0.7922
 2630SOL    HW219524   4.510   1.918   8.587  1.2506 -1.9145 -1.6865
 2631SOL     OW19525   0.896   0.081   4.342  0.3014  0.1668  0.3729
 2631SOL    HW119526   0.848   0.002   4.320  0.2953 -0.1950  1.7153
 2631SOL    HW219527   0.825   0.145   4.342 -0.1310 -0.3284  1.0016
 2632SOL     OW19528   3.635   1.569   7.605  0.3113 -0.5036  0.1288
 2632SOL    HW119529   3.615   1.626   7.679 -0.0444 -0.4652  0.0024
 2632SOL    HW219530   3.723   1.598   7.580 -0.7740  0.6813 -2.3759
 2633SOL     OW19531   0.169   3.545   7.097 -0.0477 -0.0214  0.6128
 2633SOL    HW119532   0.228   3.504   7.161 -1.2133 -1.0419  1.0303
 2633SOL    HW219533   0.237   3.561   7.031  0.9105  2.5668  2.2152
 2634SOL     OW19534   4.646   3.974   1.955  0.2220 -0.1808  0.7488
 2634SOL    HW119535   4.638   3.944   2.046  3.7061  0.8272  1.3659
 2634SOL    HW219536   0.003   3.961   1.940 -0.2687 -1.2418 -1.3637
 2635SOL     OW19537   4.118   4.180   9.734  0.1057 -0.0077  1.0211
 2635SOL    HW119538   4.142   4.156   9.824  0.7255 -0.4699  0.7356
 2635SOL    HW219539   4.026   4.154   9.739 -0.0409  0.3757  0.2652
 2636SOL     OW19540   0.771   0.037  14.837  0.5133 -0.0896  0.2032
 2636SOL    HW119541   0.855   0.079  14.817  0.6414 -0.0321  0.8742
 2636SOL    HW219542   0.717   0.115  14.829  1.3188  0.6220  1.7050
 2637SOL     OW19543   1.090   0.040   3.533  0.5945  0.7596  0.3662
 2637SOL    HW119544   1.000   0.022   3.561  0.8650 -0.4822  0.4406
 2637SOL    HW219545   1.140   0.066   3.610 -0.1287 -0.2894  1.2022
 2638SOL     OW19546   2.820   3.847   3.509  0.1038  0.3650  0.1415
 2638SOL    HW119547   2.817   3.829   3.415  0.6863  1.4656 -0.0866
 2638SOL    HW219548   2.906   3.817   3.537 -0.0464 -0.0492  0.1580
 2639SOL     OW19549   4.478   0.169   2.605  0.7645 -0.1182 -0.0986
 2639SOL    HW119550   4.560   0.130   2.635 -0.1392  0.4039  3.0919
 2639SOL    HW219551   4.485   0.153   2.511 -0.4341  0.8639 -0.3615
 2640SOL     OW19552   3.335   0.829   0.398 -0.1952 -0.5192  0.8187
 2640SOL    HW119553   3.424   0.863   0.399 -0.4627  0.2689 -1.1780
 2640SOL    HW219554   3.291   0.911   0.374  0.9783 -0.4086 -0.9535
 2641SOL     OW19555   3.143   0.116   1.237  0.0480  0.0635  0.2849
 2641SOL    HW119556   3.215   0.178   1.249  0.1547 -0.1841  0.9178
 2641SOL    HW219557   3.152   0.070   1.153  1.2000  0.7053  0.0489
 2642SOL     OW19558   4.694   2.581  13.736  0.6903  0.3444  0.5509
 2642SOL    HW119559   0.038   2.625  13.706  1.1169 -1.8041 -1.5026
 2642SOL    HW219560   4.723   2.544  13.820  1.4297 -1.1548 -0.3592
 2643SOL     OW19561   1.306   1.931   0.429 -0.2339 -0.2487 -0.4372
 2643SOL    HW119562   1.361   1.858   0.400 -0.5975  0.1933 -2.1956
 2643SOL    HW219563   1.240   1.890   0.485 -1.5856  0.4980 -1.5009
 2644SOL     OW19564   4.471   2.283  17.010  0.1143  0.1193  0.8159
 2644SOL    HW119565   4.438   2.200  17.042 -0.7360  1.5189  3.5263
 2644SOL    HW219566   4.541   2.299  17.073 -0.5798 -1.2879  1.9233
 2645SOL     OW19567   1.342   2.585  17.136 -0.1304  0.0025 -0.2361
 2645SOL    HW119568   1.307   2.670  17.109 -2.1696 -0.8695 -0.3186
 2645SOL    HW219569   1.304   2.579  17.224 -0.8937  0.6623 -0.5233
 2646SOL     OW19570   0.837   2.355  15.448 -0.0974  0.0071 -0.4787
 2646SOL    HW119571   0.833   2.276  15.394  0.5986 -1.4407  1.5988
 2646SOL    HW219572   0.750   2.389  15.425 -1.0471 -2.8789 -1.1904
 2647SOL     OW19573   4.402   0.286   1.908 -0.1022  0.3076  0.0706
 2647SOL    HW119574   4.337   0.326   1.965  0.2492  0.4742  0.3497
 2647SOL    HW219575   4.352   0.207   1.886  0.0127  0.4670 -0.7845
 2648SOL     OW19576   1.022   4.108   2.373 -0.0370 -0.3366  0.2384
 2648SOL    HW119577   0.941   4.131   2.328 -0.8044  1.3394  2.4591
 2648SOL    HW219578   1.058   4.189   2.407  3.5720 -1.2527 -1.3394
 2649SOL     OW19579   1.002   4.686  16.470 -0.0364  0.3753 -0.2639
 2649SOL    HW119580   1.093   4.663  16.486 -0.1446 -1.7252 -2.7245
 2649SOL    HW219581   0.986   4.634  16.391  1.6903  0.1960 -0.4917
 2650SOL     OW19582   3.819   4.267   5.369  0.3536 -0.8494 -0.2770
 2650SOL    HW119583   3.913   4.283   5.365  0.4786 -1.3809  0.5276
 2650SOL    HW219584   3.789   4.313   5.448  0.1855 -0.1826 -0.7268
 2651SOL     OW19585   2.087   0.487  12.369 -0.3210  0.6451 -0.7445
 2651SOL    HW119586   2.140   0.512  12.294  0.5337  1.0409 -0.0199
 2651SOL    HW219587   2.002   0.474  12.328  0.1668 -0.9412 -1.2611
 2652SOL     OW19588   2.662   1.211  11.033 -0.1356  0.5003  0.0440
 2652SOL    HW119589   2.718   1.196  10.957  0.2112 -1.7635  0.7646
 2652SOL    HW219590   2.710   1.276  11.084  1.0139  0.9607 -1.6240
 2653SOL     OW19591   3.615   3.336   6.942  0.2772  0.2319 -0.2171
 2653SOL    HW119592   3.570   3.251   6.941 -0.4719  0.6078  1.7559
 2653SOL    HW219593   3.655   3.333   6.855 -0.7442  0.2329 -0.6828
 2654SOL     OW19594   0.287   3.359  17.300  0.1254  0.1947  0.2546
 2654SOL    HW119595   0.257   3.426  17.239  3.6889  3.7035  2.3613
 2654SOL    HW219596   0.204   3.352  17.348 -0.0814  2.6937  0.2632
 2655SOL     OW19597   4.550   4.610   8.999 -0.0268 -0.0847 -0.1927
 2655SOL    HW119598   4.609   4.535   9.009  0.4489  0.1002 -1.4909
 2655SOL    HW219599   4.476   4.573   8.951 -1.0502 -1.4763  2.4827
 2656SOL     OW19600   0.223   2.085   5.720 -0.1906 -0.4807 -0.2322
 2656SOL    HW119601   0.174   2.010   5.752  1.2914 -0.5731  1.8267
 2656SOL    HW219602   0.170   2.155   5.760  0.9776 -1.0521  2.3217
 2657SOL     OW19603   3.287   3.103   5.930  0.5488  0.2410  0.2293
 2657SOL    HW119604   3.338   3.058   5.998 -0.2581  0.0545  0.7066
 2657SOL    HW219605   3.354   3.136   5.870  0.5953 -0.2905 -0.0106
 2658SOL     OW19606   4.360   1.390   3.056 -0.0879 -0.1937 -0.5258
 2658SOL    HW119607   4.333   1.441   2.980  0.0670  1.3081  0.4292
 2658SOL    HW219608   4.353   1.459   3.122 -0.5107 -0.2838 -0.4789
 2659SOL     OW19609   4.260   1.644   7.725 -0.4017 -0.0949  0.8811
 2659SOL    HW119610   4.259   1.693   7.808  1.6881  0.2281  0.7259
 2659SOL    HW219611   4.231   1.558   7.754  0.8801 -0.8073  0.0350
 2660SOL     OW19612   0.359   4.071   8.605  0.2604  0.0170  0.3100
 2660SOL    HW119613   0.268   4.059   8.631  0.8782 -1.0076  2.0204
 2660SOL    HW219614   0.367   4.165   8.621  1.4236  0.0517 -0.4925
 2661SOL     OW19615   1.871   2.916   3.715  0.3937 -0.2820  0.2112
 2661SOL    HW119616   1.815   2.994   3.714  0.3097 -0.3577 -0.9368
 2661SOL    HW219617   1.917   2.934   3.797 -0.0361 -0.1363  0.4169
 2662SOL     OW19618   2.316   2.183  17.338  0.2996  0.2036 -0.2011
 2662SOL    HW119619   2.393   2.194  17.394 -1.2161 -2.7544  2.4453
 2662SOL    HW219620   2.343   2.218  17.253 -3.1354 -0.7689 -1.6821
 2663SOL     OW19621   2.691   3.969   5.054  0.2027 -0.9341 -0.4783
 2663SOL    HW119622   2.654   3.987   5.141  2.5308 -0.1292  0.3441
 2663SOL    HW219623   2.611   3.985   5.003  0.8701 -0.3280 -1.3223
 2664SOL     OW19624   0.800   1.283   2.233  0.0804 -1.1674  0.3893
 2664SOL    HW119625   0.790   1.276   2.328 -1.5941 -2.7320  0.0866
 2664SOL    HW219626   0.893   1.261   2.224  0.2457 -1.3499  2.5986
 2665SOL     OW19627   1.880   2.250   3.691 -0.1774  0.2251 -0.7364
 2665SOL    HW119628   1.815   2.203   3.639  0.0778 -1.5363  0.5255
 2665SOL    HW219629   1.943   2.287   3.630  1.5951 -1.8832 -0.1734
 2666SOL     OW19630   3.165   2.853   3.045  0.2771 -0.4567  0.1148
 2666SOL    HW119631   3.151   2.797   3.121 -0.3893 -0.4134  0.0183
 2666SOL    HW219632   3.082   2.900   3.042  1.4930  1.7871  1.5605
 2667SOL     OW19633   0.458   3.764   1.757 -0.2199  0.0891 -0.2565
 2667SOL    HW119634   0.476   3.839   1.814  2.4964 -1.2947  0.6847
 2667SOL    HW219635   0.474   3.692   1.817 -2.1332 -0.1110  0.0059
 2668SOL     OW19636   2.159   0.947   0.692  0.1998  0.3030 -0.0536
 2668SOL    HW119637   2.106   0.947   0.772 -1.2028  1.7223 -0.9752
 2668SOL    HW219638   2.155   1.041   0.674 -2.3305  0.4730  1.3024
 2669SOL     OW19639   3.597   1.446   6.221  0.0063  0.0554 -0.3410
 2669SOL    HW119640   3.675   1.498   6.202 -1.4310  2.3503 -0.0822
 2669SOL    HW219641   3.628   1.356   6.225  0.0759  0.1624  1.4988
 2670SOL     OW19642   3.510   1.465   8.824  0.3630  0.2045  0.1110
 2670SOL    HW119643   3.454   1.500   8.893 -0.0888 -2.8953  1.2745
 2670SOL    HW219644   3.578   1.533   8.829 -0.5324  0.9090  2.2668
 2671SOL     OW19645   2.303   3.956   8.393 -0.6190  0.6031  0.4600
 2671SOL    HW119646   2.224   3.902   8.396 -0.4015  0.2181 -0.9725
 2671SOL    HW219647   2.301   3.995   8.481  0.5366 -1.9162  1.6056
 2672SOL     OW19648   2.086   4.407   8.628  0.4631  0.4596 -0.2945
 2672SOL    HW119649   2.137   4.409   8.709 -1.0139  0.7785  0.6368
 2672SOL    HW219650   2.038   4.326   8.642  2.5193 -0.5302  1.0121
 2673SOL     OW19651   3.509   1.841   7.902  0.3279  0.1068 -0.3201
 2673SOL    HW119652   3.557   1.915   7.938  0.3587  0.1111 -0.3701
 2673SOL    HW219653   3.532   1.835   7.809  1.1812 -1.8298  0.0094
 2674SOL     OW19654   1.489   0.616   3.209  0.3057  0.3689 -0.2716
 2674SOL    HW119655   1.443   0.595   3.127  0.1406 -1.9198  0.4029
 2674SOL    HW219656   1.462   0.540   3.261  0.0141  2.3626  2.5091
 2675SOL     OW19657   4.610   0.487   7.137  0.4284  0.9409 -0.2164
 2675SOL    HW119658   4.660   0.445   7.207  2.7898 -0.2141 -2.6387
 2675SOL    HW219659   4.582   0.554   7.200 -0.6429 -0.1519  0.4971
 2676SOL     OW19660   0.832   3.773  13.462 -0.5229 -0.1838 -0.1687
 2676SOL    HW119661   0.834   3.705  13.530  2.1142  0.0439 -0.0316
 2676SOL    HW219662   0.745   3.812  13.474  1.3066  3.9304 -0.4264
 2677SOL     OW19663   1.258   0.755  12.399 -0.0088 -0.1249  0.4401
 2677SOL    HW119664   1.241   0.848  12.390 -1.8520 -0.5188 -0.0297
 2677SOL    HW219665   1.339   0.742  12.350  0.4270 -1.2511  1.4495
 2678SOL     OW19666   1.505   1.530   2.199 -0.5467  0.3175  0.3598
 2678SOL    HW119667   1.578   1.580   2.233 -0.2178  0.2623 -0.2586
 2678SOL    HW219668   1.554   1.449   2.187  0.5804  0.7540  2.0895
 2679SOL     OW19669   4.128   3.472  13.927 -0.1072 -0.2962 -1.3206
 2679SOL    HW119670   4.072   3.520  13.989  1.3639  0.4141 -0.5386
 2679SOL    HW219671   4.211   3.516  13.945 -1.6770  2.6570 -1.1848
 2680SOL     OW19672   4.338   0.416   7.397 -0.2515  0.0196  0.2408
 2680SOL    HW119673   4.421   0.426   7.445 -0.3158  0.8197  0.1813
 2680SOL    HW219674   4.362   0.329   7.365  1.2301  0.7892 -0.7116
 2681SOL     OW19675   0.452   2.715   8.507 -0.1120 -0.7868 -0.3064
 2681SOL    HW119676   0.399   2.720   8.428  0.2630 -0.0862 -0.5156
 2681SOL    HW219677   0.538   2.698   8.468 -0.5924 -1.1263 -1.1997
 2682SOL     OW19678   4.430   1.367   5.190 -0.4153  0.3073  0.1012
 2682SOL    HW119679   4.524   1.376   5.208 -0.4021  0.5701 -0.1014
 2682SOL    HW219680   4.387   1.418   5.258 -2.3587 -1.3842  0.1206
 2683SOL     OW19681   0.168   3.670   4.128 -0.2480  0.2565 -0.0787
 2683SOL    HW119682   0.132   3.586   4.098 -1.0259  0.9251 -1.0316
 2683SOL    HW219683   0.244   3.638   4.175 -0.9780 -1.6420 -0.1795
 2684SOL     OW19684   3.603   3.482   5.844  0.5362 -0.3304  0.4424
 2684SOL    HW119685   3.573   3.441   5.763  0.0623  0.8977 -0.0148
 2684SOL    HW219686   3.696   3.487   5.824  0.2528 -1.4349 -1.1518
 2685SOL     OW19687   3.724   3.121   1.719 -0.4077  0.1127 -0.0762
 2685SOL    HW119688   3.658   3.179   1.682  0.2659 -0.3848 -2.0351
 2685SOL    HW219689   3.691   3.032   1.706  2.8171 -1.1024  0.1043
 2686SOL     OW19690   2.151   2.292  16.031  0.6756 -0.4210  0.0475
 2686SOL    HW119691   2.148   2.254  16.118 -0.4058 -1.2289 -0.3452
 2686SOL    HW219692   2.075   2.249  15.992 -0.6832  0.9029  1.2732
 2687SOL     OW19693   0.305   3.065   0.659  0.7246  0.2821 -0.0553
 2687SOL    HW119694   0.246   3.038   0.588 -2.0972 -0.5181  2.6133
 2687SOL    HW219695   0.241   3.061   0.730 -1.0204  0.4141 -1.6234
 2688SOL     OW19696   4.169   0.490   7.987  0.4946  0.5638  0.2679
 2688SOL    HW119697   4.102   0.489   8.055  0.8999  1.5274  0.6805
 2688SOL    HW219698   4.138   0.558   7.927  1.0174 -0.1618 -0.8244
 2689SOL     OW19699   0.069   1.681  11.756 -0.0568 -0.1189  0.1168
 2689SOL    HW119700   0.002   1.642  11.812  0.1685 -2.6783 -1.3942
 2689SOL    HW219701   0.023   1.763  11.738  0.9998  0.7755  1.4726
 2690SOL     OW19702   2.106   4.399   6.482 -0.2635 -0.2951  0.4757
 2690SOL    HW119703   2.167   4.406   6.556  0.5685 -0.5497 -0.1921
 2690SOL    HW219704   2.146   4.322   6.443  2.0206  0.7558  0.7294
 2691SOL     OW19705   4.393   4.177   3.724 -0.0313  0.0664 -0.8211
 2691SOL    HW119706   4.414   4.155   3.633 -0.9846 -1.0799 -0.7533
 2691SOL    HW219707   4.425   4.265   3.744 -2.2713  0.5356  0.7001
 2692SOL     OW19708   2.619   4.174   5.226  0.4762  0.0897 -0.3400
 2692SOL    HW119709   2.604   4.244   5.163 -0.4051 -0.1077 -0.3406
 2692SOL    HW219710   2.673   4.210   5.297 -1.5936  2.8892 -0.1798
 2693SOL     OW19711   1.418   1.884  16.376 -0.0311 -0.0844  0.1459
 2693SOL    HW119712   1.423   1.970  16.335 -0.2450  0.3211  0.9870
 2693SOL    HW219713   1.335   1.854  16.339  0.8143  0.0621 -1.8605
 2694SOL     OW19714   3.280   3.432   4.695 -0.0863 -0.0521  0.2105
 2694SOL    HW119715   3.266   3.356   4.752  0.7166 -0.7983 -0.5790
 2694SOL    HW219716   3.187   3.452   4.682 -0.0231  1.2403  1.8484
 2695SOL     OW19717   4.191   2.166  15.715 -0.1033  0.1678 -0.0900
 2695SOL    HW119718   4.139   2.215  15.778  1.9491  0.1567  1.6231
 2695SOL    HW219719   4.258   2.229  15.685  1.0521  0.0193  2.1769
 2696SOL     OW19720   2.699   2.273   3.563  0.3638 -0.9850 -0.1737
 2696SOL    HW119721   2.788   2.248   3.585  0.9133 -0.2150 -1.5912
 2696SOL    HW219722   2.649   2.191   3.558  0.4612 -1.1517  1.3702
 2697SOL     OW19723   4.009   2.983   4.240  0.1711  0.3133  0.2079
 2697SOL    HW119724   4.006   2.956   4.332  0.8866  1.1853  0.4826
 2697SOL    HW219725   4.105   2.975   4.238  0.0448 -0.6938 -2.3932
 2698SOL     OW19726   0.902   3.796   3.571 -0.7079 -0.5706 -0.1392
 2698SOL    HW119727   0.879   3.888   3.581  0.8118  0.0731 -2.5766
 2698SOL    HW219728   0.963   3.803   3.498 -0.1716 -1.4281  0.2158
 2699SOL     OW19729   3.992   1.064   8.166  0.2998  0.5035  0.2677
 2699SOL    HW119730   3.933   1.075   8.240 -2.0990  1.7499 -1.8609
 2699SOL    HW219731   3.949   1.114   8.097 -0.9336 -1.3029 -0.2741
 2700SOL     OW19732   4.164   1.965   6.948 -0.5817 -0.4785  0.1268
 2700SOL    HW119733   4.164   1.921   7.034 -0.0913  1.2788  1.0368
 2700SOL    HW219734   4.256   1.989   6.937 -0.3109 -2.3559 -1.6741
 2701SOL     OW19735   2.778   0.763   2.796  0.0154  0.3498 -0.6308
 2701SOL    HW119736   2.717   0.741   2.867 -1.1831 -0.8630 -2.0306
 2701SOL    HW219737   2.752   0.853   2.776 -1.7411  0.6477  2.9264
 2702SOL     OW19738   2.759   1.660   9.153 -0.1915 -0.4781  0.0030
 2702SOL    HW119739   2.751   1.597   9.081 -2.4233 -1.7331  1.3318
 2702SOL    HW219740   2.675   1.704   9.141 -0.2220 -0.2752  0.9171
 2703SOL     OW19741   4.549   0.008   7.003 -0.3760 -0.2440  0.1049
 2703SOL    HW119742   4.598   0.073   6.952  0.2535  0.1389  1.2017
 2703SOL    HW219743   4.460   0.042   7.007  0.0669  1.0861 -1.3488
 2704SOL     OW19744   4.663   3.158  10.713  0.4243 -0.2528 -0.4855
 2704SOL    HW119745   4.732   3.218  10.684 -0.9328  1.9803  0.9501
 2704SOL    HW219746   4.586   3.178  10.659  0.5546  1.5280 -0.0208
 2705SOL     OW19747   0.456   2.943  17.441  0.3784  0.9744  0.0128
 2705SOL    HW119748   0.470   2.886  17.366 -2.5597 -0.2245  0.4001
 2705SOL    HW219749   0.372   2.908  17.471  0.5766  1.4060  1.0824
 2706SOL     OW19750   2.388   3.988   3.328  0.0068 -0.0055  0.1438
 2706SOL    HW119751   2.324   3.976   3.398 -0.3574 -0.7762 -0.3218
 2706SOL    HW219752   2.350   3.935   3.258 -1.7362  0.5685  0.6550
 2707SOL     OW19753   2.145   3.905   3.867  0.2026  0.0624 -0.2230
 2707SOL    HW119754   2.108   3.841   3.928 -0.7977  0.6668 -0.1995
 2707SOL    HW219755   2.138   3.864   3.781 -1.1289  0.7935 -0.4537
 2708SOL     OW19756   1.761   1.846  15.968 -0.0323 -0.5030  0.0409
 2708SOL    HW119757   1.699   1.826  16.039 -0.5284  0.8381 -0.0082
 2708SOL    HW219758   1.753   1.770  15.911  2.4172 -0.0085 -0.9689
 2709SOL     OW19759   1.621   0.769   4.592 -0.0930 -0.6606 -0.3327
 2709SOL    HW119760   1.610   0.801   4.502 -0.5834  3.4066  1.1558
 2709SOL    HW219761   1.660   0.682   4.582  0.0149 -0.7243  0.6413
 2710SOL     OW19762   2.237   2.199   8.009  0.4638  0.2449 -0.0978
 2710SOL    HW119763   2.180   2.257   7.958 -1.5002 -0.4283  1.3440
 2710SOL    HW219764   2.275   2.265   8.066 -1.0534  1.0170  0.0272
 2711SOL     OW19765   0.132   3.601  17.608 -0.2073 -0.3570 -0.3706
 2711SOL    HW119766   0.093   3.686  17.631  0.5249 -0.7983  2.4928
 2711SOL    HW219767   0.215   3.607  17.656 -0.2785 -1.7891 -0.0956
 2712SOL     OW19768   0.975   4.533   8.208  0.2262 -0.1903 -0.3279
 2712SOL    HW119769   1.064   4.568   8.216 -0.4714  1.3166  0.9571
 2712SOL    HW219770   0.937   4.593   8.144  0.4747 -0.5293 -0.7887
 2713SOL     OW19771   1.193   0.181  14.559  0.4531 -0.4360 -0.0830
 2713SOL    HW119772   1.214   0.160  14.468  2.2149 -2.0566  0.6835
 2713SOL    HW219773   1.230   0.269  14.566 -0.2867 -0.3221  2.5399
 2714SOL     OW19774   0.617   2.408   2.818 -0.1850 -0.5534 -0.1194
 2714SOL    HW119775   0.595   2.342   2.884 -1.7134  0.0632 -0.0112
 2714SOL    HW219776   0.691   2.456   2.855  0.6105 -0.5739 -1.6887
 2715SOL     OW19777   4.325   4.423   9.172 -0.3064  0.2670  0.1890
 2715SOL    HW119778   4.332   4.406   9.078  0.0637 -0.4575  0.3434
 2715SOL    HW219779   4.337   4.336   9.212  1.3242  0.9235  1.1216
 2716SOL     OW19780   3.924   0.167   6.366 -0.0787  0.2851  0.3753
 2716SOL    HW119781   3.986   0.121   6.423  1.0365  1.5130  0.1624
 2716SOL    HW219782   3.941   0.256   6.396  2.0104 -0.3900  1.1736
 2717SOL     OW19783   1.638   0.364   4.810  0.4932 -0.6994 -0.3420
 2717SOL    HW119784   1.551   0.327   4.821  0.7453 -1.3066 -0.4263
 2717SOL    HW219785   1.692   0.323   4.878 -0.0432 -0.4562  0.2395
 2718SOL     OW19786   2.527   2.795  11.162  0.3661  0.2423  0.2538
 2718SOL    HW119787   2.451   2.781  11.106  0.5352  1.6214 -0.3285
 2718SOL    HW219788   2.496   2.777  11.250 -0.4515 -3.7851 -0.8507
 2719SOL     OW19789   4.519   3.443   5.259  0.1444 -0.3105  0.4846
 2719SOL    HW119790   4.428   3.441   5.231 -0.7887 -0.3882  3.5042
 2719SOL    HW219791   4.526   3.538   5.268 -1.9372 -0.2353  1.1501
 2720SOL     OW19792   0.266   4.374   6.982 -0.2518 -0.3361  0.4446
 2720SOL    HW119793   0.292   4.315   7.053 -0.2056  0.4661  1.1053
 2720SOL    HW219794   0.190   4.412   7.026  1.1558 -0.2006  2.7824
 2721SOL     OW19795   4.034   2.688  15.762 -0.0957 -0.0408  0.2292
 2721SOL    HW119796   4.022   2.670  15.669  1.9955  0.9289 -0.2229
 2721SOL    HW219797   4.123   2.722  15.772 -0.3708  0.7459 -0.0411
 2722SOL     OW19798   3.527   1.305   2.749 -0.3427  0.1804  0.3215
 2722SOL    HW119799   3.464   1.377   2.740 -1.1616 -0.4165  1.3299
 2722SOL    HW219800   3.470   1.243   2.793  2.6655 -1.0840  2.3863
 2723SOL     OW19801   1.343   0.917  13.472  0.3993  0.2703  0.3342
 2723SOL    HW119802   1.403   0.967  13.526  0.0210 -0.3607  1.3398
 2723SOL    HW219803   1.411   0.883  13.415 -0.0075 -0.9919  0.5964
 2724SOL     OW19804   2.883   4.146   5.736  0.0036 -0.3414 -0.0633
 2724SOL    HW119805   2.935   4.200   5.797  0.1217  0.3649 -0.7860
 2724SOL    HW219806   2.863   4.072   5.794  0.7958 -1.2346 -0.9397
 2725SOL     OW19807   0.290   3.282   7.727 -0.4459  0.1228  0.3412
 2725SOL    HW119808   0.366   3.269   7.670 -1.7956 -1.9036 -1.0373
 2725SOL    HW219809   0.220   3.255   7.667 -1.6849  2.2699  0.8047
 2726SOL     OW19810   4.467   1.263   4.093  0.3674 -0.2354 -0.5046
 2726SOL    HW119811   4.424   1.188   4.134 -0.4894  0.5576  0.0544
 2726SOL    HW219812   4.468   1.232   4.002 -0.2537  2.0673 -1.3100
 2727SOL     OW19813   3.656   2.227   5.214  0.4774  0.0186  0.0614
 2727SOL    HW119814   3.654   2.300   5.152  1.6074 -0.5852 -0.6817
 2727SOL    HW219815   3.692   2.277   5.287  0.2070  0.2263  0.0515
 2728SOL     OW19816   4.447   3.887   1.160 -0.1447 -0.1587 -0.3605
 2728SOL    HW119817   4.427   3.967   1.208 -0.5896  0.2796 -1.2911
 2728SOL    HW219818   4.511   3.845   1.218 -0.4061  1.0812  0.8366
 2729SOL     OW19819   4.428   3.068   3.113 -0.0672 -0.1632  0.7035
 2729SOL    HW119820   4.510   3.033   3.078  0.9366  1.9873  0.9581
 2729SOL    HW219821   4.458   3.058   3.203  0.6350 -0.0979  0.4768
 2730SOL     OW19822   2.216   1.088   1.943 -0.0779  0.4543  0.1203
 2730SOL    HW119823   2.122   1.071   1.949  0.1964 -0.8417  0.6588
 2730SOL    HW219824   2.240   1.116   2.031 -0.4780  1.1511  0.0079
 2731SOL     OW19825   0.934   2.966   9.386 -0.4722 -0.6959  0.1126
 2731SOL    HW119826   0.968   2.920   9.309 -0.0615 -0.8161  0.3640
 2731SOL    HW219827   0.929   2.890   9.444  0.8505 -0.5261  0.4449
 2732SOL     OW19828   3.552   0.083   7.233 -0.2656 -0.2387  0.5375
 2732SOL    HW119829   3.478   0.112   7.286 -2.0188  1.7532 -3.0057
 2732SOL    HW219830   3.605   0.163   7.239 -0.0383 -0.2801 -0.9553
 2733SOL     OW19831   0.292   4.692  15.036 -0.5644 -0.0743  0.5964
 2733SOL    HW119832   0.248   4.616  14.998  2.0468 -1.3177  0.0502
 2733SOL    HW219833   0.347   4.648  15.101  0.4281  1.5462  0.8659
 2734SOL     OW19834   0.629   2.687  10.380 -0.2041 -1.1404 -0.1523
 2734SOL    HW119835   0.707   2.699  10.326 -0.5282 -1.2738 -0.6498
 2734SOL    HW219836   0.624   2.771  10.426 -3.2403 -1.3399 -0.0820
 2735SOL     OW19837   2.442   2.323   3.807 -0.3259 -0.4079 -0.1153
 2735SOL    HW119838   2.476   2.412   3.805 -1.0532 -0.1423 -0.8943
 2735SOL    HW219839   2.349   2.329   3.828  0.1501  0.2010  1.7521
 2736SOL     OW19840   2.573   2.604   0.685  0.5909  0.6137 -0.7759
 2736SOL    HW119841   2.639   2.598   0.616  0.2021 -0.0479 -1.0856
 2736SOL    HW219842   2.558   2.699   0.686  0.1548  0.5423 -0.4363
 2737SOL     OW19843   4.154   0.558   0.730  0.3760 -0.4712 -0.3810
 2737SOL    HW119844   4.111   0.635   0.694 -0.2209 -1.6761 -2.2219
 2737SOL    HW219845   4.230   0.608   0.760  0.6810 -0.5684 -0.9999
 2738SOL     OW19846   0.079   3.181   6.446  0.4015 -0.2112  0.1970
 2738SOL    HW119847   4.735   3.214   6.488 -0.0376 -0.2359 -0.6261
 2738SOL    HW219848   0.141   3.163   6.517 -0.3695 -0.2717  0.8600
 2739SOL     OW19849   1.344   3.647  17.551  0.0308  0.6083 -0.4511
 2739SOL    HW119850   1.294   3.635  17.631 -0.1176  1.5748 -0.3982
 2739SOL    HW219851   1.300   3.583  17.496 -0.0208  0.2339  0.0315
 2740SOL     OW19852   4.524   3.515  16.143  0.1313 -0.5174  0.4574
 2740SOL    HW119853   4.563   3.602  16.154 -0.3349 -0.3629  0.8811
 2740SOL    HW219854   4.598   3.456  16.158 -1.1933 -2.1776  0.4375
 2741SOL     OW19855   2.090   3.170   4.424  0.2648 -0.0649  0.7773
 2741SOL    HW119856   2.163   3.231   4.413  1.5071 -1.7946 -0.5693
 2741SOL    HW219857   2.107   3.138   4.513  0.6068  1.2406  1.1949
 2742SOL     OW19858   3.331   4.483   4.420 -0.5759 -0.1046 -0.0966
 2742SOL    HW119859   3.241   4.500   4.391 -0.7271 -2.8670 -1.2705
 2742SOL    HW219860   3.381   4.475   4.339 -0.9733 -1.4803 -0.2076
 2743SOL     OW19861   2.004   3.591   8.820 -0.4749 -0.2567  0.6494
 2743SOL    HW119862   2.065   3.634   8.880 -1.5503 -0.2086  1.6933
 2743SOL    HW219863   1.930   3.652   8.821  0.4589  0.9260 -2.4709
 2744SOL     OW19864   1.874   3.004   7.722 -0.2001 -0.0218 -0.0994
 2744SOL    HW119865   1.912   2.925   7.683 -0.1807 -0.2157  0.3095
 2744SOL    HW219866   1.866   2.985   7.815 -2.1746 -0.9796 -0.4722
 2745SOL     OW19867   2.854   1.866   4.109 -0.1977  0.5451 -0.3740
 2745SOL    HW119868   2.799   1.797   4.072  0.3701  0.4449 -1.0401
 2745SOL    HW219869   2.857   1.845   4.202 -0.4963 -1.4744 -0.8262
 2746SOL     OW19870   2.948   2.420   5.792 -0.2039 -0.4823 -0.2008
 2746SOL    HW119871   2.864   2.451   5.826 -1.1803 -2.9934 -0.3357
 2746SOL    HW219872   3.007   2.434   5.866  1.2625 -2.9694 -0.8681
 2747SOL     OW19873   0.672   0.144   8.203  0.3859 -0.3593 -0.7317
 2747SOL    HW119874   0.658   0.199   8.125 -1.4471  0.4065  0.1592
 2747SOL    HW219875   0.684   0.214   8.267  0.3545 -1.3697  0.3718
 2748SOL     OW19876   0.636   2.274   7.016 -0.4033  0.5950 -0.3244
 2748SOL    HW119877   0.557   2.318   6.984 -1.2260  0.6954  1.7726
 2748SOL    HW219878   0.601   2.233   7.096  0.5991 -0.9471 -0.6975
 2749SOL     OW19879   4.179   3.310   9.534 -0.2408  0.4843 -0.5055
 2749SOL    HW119880   4.091   3.310   9.496 -0.2374 -1.8589 -0.4827
 2749SOL    HW219881   4.167   3.311   9.629 -0.3727  2.2654 -0.5465
 2750SOL     OW19882   4.391   2.949   7.553 -0.0024 -0.2270  0.5392
 2750SOL    HW119883   4.479   2.936   7.520  0.7414  0.4396  2.2644
 2750SOL    HW219884   4.415   3.037   7.582  0.0312 -0.3370  0.8458
 2751SOL     OW19885   2.568   2.544  16.769  0.8470 -0.3415  0.7328
 2751SOL    HW119886   2.496   2.607  16.764  0.1811 -1.0896  0.8465
 2751SOL    HW219887   2.539   2.471  16.715  1.6245 -0.7138  0.8165
 2752SOL     OW19888   0.849   2.495   3.565 -0.1154  0.4347 -0.4920
 2752SOL    HW119889   0.869   2.410   3.603 -1.4447 -0.3860 -1.6076
 2752SOL    HW219890   0.898   2.555   3.621 -0.6117 -1.3902  1.8797
 2753SOL     OW19891   3.885   0.213   5.847 -0.4879  0.1658 -0.2422
 2753SOL    HW119892   3.807   0.175   5.886  0.8859 -0.4348  1.9854
 2753SOL    HW219893   3.937   0.216   5.928 -0.0415  1.0902 -0.5592
 2754SOL     OW19894   3.910   1.336   4.807 -0.9064  0.1169  0.1971
 2754SOL    HW119895   4.003   1.322   4.793 -0.6067  4.1633 -1.8002
 2754SOL    HW219896   3.867   1.257   4.775  0.0784 -0.2987 -0.0914
 2755SOL     OW19897   3.463   0.612   5.799 -0.4110  0.3151 -0.5042
 2755SOL    HW119898   3.528   0.666   5.754  0.0510 -0.6161 -0.9584
 2755SOL    HW219899   3.520   0.555   5.850 -1.7971 -0.8097 -0.2018
 2756SOL     OW19900   2.694   0.555   8.683  0.4336  0.7378 -0.0839
 2756SOL    HW119901   2.603   0.569   8.708  0.3712  0.3592 -0.1019
 2756SOL    HW219902   2.696   0.614   8.608  0.5449  1.5777  0.5852
 2757SOL     OW19903   2.958   3.893   9.312 -0.0324  0.2925 -0.5371
 2757SOL    HW119904   3.049   3.922   9.318  0.2886 -0.9529  0.5232
 2757SOL    HW219905   2.927   3.918   9.399  1.7592  4.2574 -1.0513
 2758SOL     OW19906   3.650   3.614   0.674  0.3900 -0.2636 -0.2860
 2758SOL    HW119907   3.617   3.527   0.694 -3.5244  1.2125 -0.3204
 2758SOL    HW219908   3.576   3.661   0.637  0.8578  0.4494 -0.3181
 2759SOL     OW19909   4.711   2.347   3.471 -0.1104 -0.1210 -0.1082
 2759SOL    HW119910   0.004   2.433   3.501 -2.7916  0.8574 -0.2842
 2759SOL    HW219911   4.676   2.370   3.385  1.1892  0.8922 -0.3637
 2760SOL     OW19912   4.582   0.656   5.367  0.2939 -0.1823  0.1308
 2760SOL    HW119913   4.600   0.685   5.456 -0.1256 -0.0923  0.1878
 2760SOL    HW219914   4.658   0.674   5.312  0.1953  3.4645  1.1375
 2761SOL     OW19915   2.524   2.706   3.244 -0.4358  0.4376  0.0576
 2761SOL    HW119916   2.608   2.722   3.201 -1.3743  1.8874 -1.2057
 2761SOL    HW219917   2.471   2.784   3.231 -1.7846 -0.3600  0.7333
 2762SOL     OW19918   1.774   0.426   1.079  0.2745 -0.2841 -0.2697
 2762SOL    HW119919   1.846   0.479   1.113  0.4473 -0.4603 -0.3608
 2762SOL    HW219920   1.701   0.454   1.134  1.5011 -1.0070  1.7394
 2763SOL     OW19921   2.689   2.428   2.865 -0.3552  0.0711  0.3599
 2763SOL    HW119922   2.766   2.484   2.860  0.4640 -1.1390 -0.3927
 2763SOL    HW219923   2.721   2.358   2.809  1.2132  1.1986 -0.1689
 2764SOL     OW19924   0.344   2.479  14.999 -0.0711  0.1998 -0.3736
 2764SOL    HW119925   0.400   2.417  15.045  0.5085  2.0832  1.4557
 2764SOL    HW219926   0.259   2.435  14.999 -1.3286  2.6419 -0.0927
 2765SOL     OW19927   4.006   2.647   8.966 -0.0319  0.6214 -0.1671
 2765SOL    HW119928   3.979   2.703   9.039 -0.3087  1.3890 -0.8557
 2765SOL    HW219929   4.052   2.578   9.013 -0.6899  0.7442  0.6437
 2766SOL     OW19930   0.828   4.621   7.711 -0.1049 -0.0908 -0.0814
 2766SOL    HW119931   0.745   4.609   7.758 -0.8995 -2.1526 -2.0143
 2766SOL    HW219932   0.822   4.712   7.683 -1.1846 -0.9627 -2.7559
 2767SOL     OW19933   3.974   4.367   8.614 -0.3111 -0.4471  0.3365
 2767SOL    HW119934   3.982   4.308   8.688 -1.8236 -0.9033  0.1440
 2767SOL    HW219935   4.058   4.347   8.572 -0.3088  0.2703 -0.0024
 2768SOL     OW19936   3.781   4.019   9.336 -0.1508 -0.3889 -0.3129
 2768SOL    HW119937   3.703   3.976   9.372 -0.0743 -0.9968 -0.8773
 2768SOL    HW219938   3.848   3.952   9.352  1.3547  0.6601 -2.1223
 2769SOL     OW19939   4.207   4.232   0.789 -0.1845  0.0192 -0.0817
 2769SOL    HW119940   4.292   4.244   0.830 -0.6055 -1.3901  1.2036
 2769SOL    HW219941   4.160   4.229   0.872  0.7208  1.6412  0.4814
 2770SOL     OW19942   0.649   4.731  10.503 -0.9290 -0.6614  0.0401
 2770SOL    HW119943   0.555   4.733  10.520 -0.6897  0.3145  1.2547
 2770SOL    HW219944   0.687   4.675  10.570 -0.6379 -0.6011 -0.0717
 2771SOL     OW19945   0.573   4.535   5.160 -0.0328 -0.0418 -0.4881
 2771SOL    HW119946   0.539   4.621   5.184  1.3645  0.0993  0.9765
 2771SOL    HW219947   0.509   4.479   5.206 -1.5370  2.2463  0.2023
 2772SOL     OW19948   2.707   3.668   9.187 -0.5707 -0.2338  0.0589
 2772SOL    HW119949   2.672   3.605   9.124  0.8299  0.0740 -1.0305
 2772SOL    HW219950   2.757   3.612   9.246  0.0567 -0.7434 -0.9541
 2773SOL     OW19951   1.199   0.331   2.839 -0.2071 -0.2040 -0.5704
 2773SOL    HW119952   1.239   0.248   2.812  0.2778  0.3135 -1.4411
 2773SOL    HW219953   1.211   0.316   2.932 -0.3775 -2.1519 -0.8451
 2774SOL     OW19954   1.930   1.773  12.102 -0.1383 -0.1924 -0.3992
 2774SOL    HW119955   2.009   1.746  12.148  0.2234  0.8658 -0.4025
 2774SOL    HW219956   1.935   1.730  12.016 -2.5666 -0.6695 -0.2895
 2775SOL     OW19957   2.594   1.636   4.356  0.3029  0.0176  0.4565
 2775SOL    HW119958   2.592   1.541   4.342 -0.5921  0.0978 -0.0010
 2775SOL    HW219959   2.556   1.662   4.272  0.7091 -0.7706  0.0259
 2776SOL     OW19960   2.548   0.223  16.540 -0.1096  0.0872 -0.1647
 2776SOL    HW119961   2.486   0.243  16.469 -1.2427 -0.2517  0.7160
 2776SOL    HW219962   2.484   0.195  16.605  1.1770 -0.7220  0.7476
 2777SOL     OW19963   1.919   2.746   5.991  0.1436 -0.0129 -0.1926
 2777SOL    HW119964   1.851   2.812   6.009  1.7033  2.1410 -2.1585
 2777SOL    HW219965   1.909   2.738   5.896  3.8991  0.6148 -0.6466
 2778SOL     OW19966   0.607   4.272   7.146 -0.4180  0.2082 -0.1779
 2778SOL    HW119967   0.515   4.244   7.142 -0.3136 -0.0090 -0.9447
 2778SOL    HW219968   0.611   4.337   7.216  1.5984  0.8312 -0.8819
 2779SOL     OW19969   0.770   2.594   5.248 -0.4931 -0.0221  0.5037
 2779SOL    HW119970   0.754   2.503   5.274 -1.1603  0.0983  0.4979
 2779SOL    HW219971   0.844   2.621   5.303 -0.6321 -1.4111  1.3978
 2780SOL     OW19972   1.469   3.145   6.565 -0.2182  0.3082 -0.1884
 2780SOL    HW119973   1.505   3.081   6.626 -2.3294 -1.9095 -1.2579
 2780SOL    HW219974   1.396   3.177   6.617  1.9999  2.1411  1.8032
 2781SOL     OW19975   0.899   0.361   4.167 -0.6569  0.6550 -0.2473
 2781SOL    HW119976   0.815   0.322   4.189 -0.8547  0.8966 -0.5817
 2781SOL    HW219977   0.881   0.380   4.075  1.1214 -1.0923 -0.9670
 2782SOL     OW19978   3.508   0.814   2.921 -0.8341 -0.3039 -0.5895
 2782SOL    HW119979   3.504   0.800   2.827 -0.3904  0.9503 -0.7970
 2782SOL    HW219980   3.415   0.825   2.938 -0.6843  1.6943 -1.0820
 2783SOL     OW19981   3.355   1.553   8.509  0.2320 -0.3267 -0.1848
 2783SOL    HW119982   3.428   1.564   8.570  0.8164 -1.3927 -0.6890
 2783SOL    HW219983   3.409   1.550   8.430 -0.3868 -0.7435 -0.5902
 2784SOL     OW19984   3.179   4.111   0.585  0.1736  0.0112 -0.0812
 2784SOL    HW119985   3.153   4.058   0.510 -1.3622  0.7177 -0.0545
 2784SOL    HW219986   3.209   4.050   0.653 -0.3025  0.6846  0.7354
 2785SOL     OW19987   3.864   3.945   4.900 -0.2007  0.8187  0.3327
 2785SOL    HW119988   3.866   3.886   4.824 -2.0083 -0.6685  1.4529
 2785SOL    HW219989   3.911   3.898   4.968  0.7947 -0.3216 -1.1555
 2786SOL     OW19990   1.087   2.663   8.043  0.3161  0.1846 -0.1094
 2786SOL    HW119991   1.073   2.744   7.993 -1.9058  0.6890  1.3291
 2786SOL    HW219992   1.182   2.668   8.036  0.2354  0.4359 -1.0011
 2787SOL     OW19993   3.591   3.571   8.461 -0.4713 -0.1860 -0.6562
 2787SOL    HW119994   3.519   3.600   8.405 -1.2722  1.1525  1.0399
 2787SOL    HW219995   3.648   3.530   8.397 -1.6179  0.3041 -1.9708
 2788SOL     OW19996   0.186   4.172  17.693 -0.1137 -0.3580 -0.7423
 2788SOL    HW119997   0.238   4.176  17.612  2.2121 -1.9512  0.6946
 2788SOL    HW219998   0.095   4.171  17.662 -0.9025 -2.2054  1.6465
 2789SOL     OW19999   3.250   3.009  11.215  0.0980  0.0649  0.2239
 2789SOL    HW120000   3.161   2.979  11.199 -0.0846  1.5362 -1.5416
 2789SOL    HW220001   3.257   3.073  11.144  0.0504  0.1576  0.3013
 2790SOL     OW20002   3.550   2.872  16.061  0.1890 -0.1407 -0.5438
 2790SOL    HW120003   3.531   2.806  15.994 -1.4007  0.0481 -0.2730
 2790SOL    HW220004   3.574   2.929  15.989 -1.8225  1.0551 -0.2752
 2791SOL     OW20005   2.882   2.641   2.846  0.5462  0.3095  0.2569
 2791SOL    HW120006   2.839   2.715   2.802 -0.2701  0.7623  1.8259
 2791SOL    HW220007   2.959   2.635   2.790  0.0769 -1.3288 -0.2074
 2792SOL     OW20008   2.570   1.346   6.954  0.3612 -0.0436 -0.0085
 2792SOL    HW120009   2.600   1.388   6.873  1.9539  1.3638  1.3286
 2792SOL    HW220010   2.545   1.262   6.914 -2.1765  0.7230 -0.0098
 2793SOL     OW20011   4.579   4.218   5.582 -0.0360  0.0118 -0.0443
 2793SOL    HW120012   4.646   4.259   5.528  0.2827  0.4169  0.6591
 2793SOL    HW220013   4.501   4.244   5.532 -0.5153 -1.2408  0.0453
 2794SOL     OW20014   2.847   0.663   6.530  0.3082 -0.3833 -0.1624
 2794SOL    HW120015   2.887   0.580   6.557 -1.4515 -1.5592 -1.1640
 2794SOL    HW220016   2.863   0.667   6.436 -0.0136 -0.0543 -0.2007
 2795SOL     OW20017   4.545   1.992   5.637 -0.2943  0.2651  0.1058
 2795SOL    HW120018   4.605   1.972   5.566 -2.5747 -0.8930 -1.4944
 2795SOL    HW220019   4.466   1.939   5.623 -0.1284 -0.2327  1.0186
 2796SOL     OW20020   4.041   2.387   6.685 -0.3976 -1.2540  0.3894
 2796SOL    HW120021   4.041   2.301   6.642 -0.8370 -0.2974 -1.5537
 2796SOL    HW220022   4.134   2.384   6.707 -0.0631  2.6857 -0.5031
 2797SOL     OW20023   4.103   1.022  12.818  0.2021 -0.0566 -0.3009
 2797SOL    HW120024   4.153   1.072  12.882  0.3063 -0.8333  0.2234
 2797SOL    HW220025   4.121   0.928  12.829  0.2034 -0.0711 -0.4329
 2798SOL     OW20026   0.648   3.946  13.717 -0.2311  0.6143  0.7928
 2798SOL    HW120027   0.592   3.914  13.788  0.5685  1.1836  1.6962
 2798SOL    HW220028   0.620   3.893  13.643  0.6794  0.9631  0.1996
 2799SOL     OW20029   2.716   0.497  12.569  0.2828  0.4721  0.1630
 2799SOL    HW120030   2.803   0.508  12.529 -0.1509 -3.2335 -1.7565
 2799SOL    HW220031   2.733   0.435  12.640  1.6648  1.1099  0.3956
 2800SOL     OW20032   0.408   0.232   3.374 -0.5442 -0.4065 -0.2361
 2800SOL    HW120033   0.439   0.226   3.283  0.5375  0.3919  0.0860
 2800SOL    HW220034   0.347   0.158   3.372 -0.0502 -0.8015 -0.8421
 2801SOL     OW20035   2.707   1.190   7.177 -0.3393 -0.0249  0.2918
 2801SOL    HW120036   2.653   1.210   7.100  0.0366 -2.2527 -0.5627
 2801SOL    HW220037   2.708   1.274   7.223 -1.6361  0.8880 -1.3383
 2802SOL     OW20038   0.826   3.167   5.971  0.8417  0.0743  0.5336
 2802SOL    HW120039   0.782   3.249   5.952 -0.7276 -0.4873  1.6699
 2802SOL    HW220040   0.867   3.184   6.056 -0.0223 -0.1510  0.9920
 2803SOL     OW20041   4.713   2.118   9.281  0.1436  0.4069 -0.1717
 2803SOL    HW120042   4.685   2.206   9.305 -0.8910 -0.0982  0.5312
 2803SOL    HW220043   4.631   2.081   9.246 -0.0244 -0.0038  0.6428
 2804SOL     OW20044   0.820   3.008   3.372 -0.2091 -0.4010  0.3368
 2804SOL    HW120045   0.778   2.997   3.457 -0.0914  0.3171  0.4918
 2804SOL    HW220046   0.765   3.070   3.325  1.4681  1.2683  0.5573
 2805SOL     OW20047   1.174   3.784   5.317  0.4106  0.5047  0.1386
 2805SOL    HW120048   1.109   3.813   5.252 -1.6394 -1.2066  1.4139
 2805SOL    HW220049   1.175   3.870   5.360  1.4877 -0.5069  2.1152
 2806SOL     OW20050   1.506   1.095   5.163  0.4240 -0.2560  0.1392
 2806SOL    HW120051   1.433   1.153   5.146  2.6388  2.3527 -0.4375
 2806SOL    HW220052   1.472   1.060   5.246  0.2317 -0.4604 -0.0267
 2807SOL     OW20053   0.071   2.990  13.681 -0.2271  0.1058  0.3158
 2807SOL    HW120054   4.723   2.964  13.719  0.8528  0.6770  3.0987
 2807SOL    HW220055   0.119   3.008  13.761  0.3047  2.6777 -0.5820
 2808SOL     OW20056   0.364   1.439  10.056  0.4561  1.0286  0.6274
 2808SOL    HW120057   0.292   1.421   9.995 -0.4145  1.7337  1.4558
 2808SOL    HW220058   0.410   1.513  10.015  1.4988  0.7411  1.2984
 2809SOL     OW20059   0.668   0.992   6.750  0.1990 -0.0840 -0.2570
 2809SOL    HW120060   0.611   0.929   6.708  0.6915 -1.2865  0.8852
 2809SOL    HW220061   0.668   0.951   6.837  1.8714 -0.1287 -0.2736
 2810SOL     OW20062   3.282   4.301   3.480  0.0758  0.3324 -0.3004
 2810SOL    HW120063   3.356   4.273   3.426 -0.8039 -2.2793 -0.1829
 2810SOL    HW220064   3.326   4.370   3.529  1.3854  0.9418 -2.3402
 2811SOL     OW20065   0.855   3.566   8.445  0.5923  0.2929  0.1625
 2811SOL    HW120066   0.849   3.545   8.538  0.1904  2.0456  0.5284
 2811SOL    HW220067   0.777   3.621   8.439  0.3944  0.0241  0.2213
 2812SOL     OW20068   2.174   0.793   6.241 -0.4765  0.4123  0.5322
 2812SOL    HW120069   2.164   0.703   6.208 -0.1909  0.5090  0.1837
 2812SOL    HW220070   2.265   0.810   6.215 -0.3898 -1.2850 -0.2825
 2813SOL     OW20071   1.919   4.177   6.494 -0.5850 -0.0206 -0.5078
 2813SOL    HW120072   1.996   4.153   6.443 -0.3272 -0.5674  0.1404
 2813SOL    HW220073   1.874   4.093   6.501 -0.8981  0.1991  0.1643
 2814SOL     OW20074   2.531   4.092   2.962 -0.1836 -0.0132  0.3303
 2814SOL    HW120075   2.621   4.082   2.994 -0.3520 -1.1917  0.4305
 2814SOL    HW220076   2.488   4.117   3.044 -0.8370  1.5462 -0.4928
 2815SOL     OW20077   4.398   3.706   8.401 -0.0790  0.5295  0.1386
 2815SOL    HW120078   4.456   3.782   8.414  1.7997 -0.8620 -0.0235
 2815SOL    HW220079   4.453   3.637   8.439  0.1095  1.0624  0.8289
 2816SOL     OW20080   2.130   3.229  16.553 -0.1443 -0.3205  0.3126
 2816SOL    HW120081   2.210   3.210  16.602 -0.1578 -1.6242 -0.1814
 2816SOL    HW220082   2.113   3.317  16.587 -2.0246 -0.4924 -0.1693
 2817SOL     OW20083   4.241   1.376  12.628 -0.2637 -0.2371 -0.3540
 2817SOL    HW120084   4.336   1.390  12.638 -0.3236 -0.2845  0.2450
 2817SOL    HW220085   4.232   1.394  12.534  0.5666  0.3911 -0.3245
 2818SOL     OW20086   1.784   1.968   2.082  0.3517 -0.4805  0.5889
 2818SOL    HW120087   1.767   2.046   2.030 -0.2076 -0.3330  1.0008
 2818SOL    HW220088   1.695   1.936   2.097 -0.3068  1.3909  0.5657
 2819SOL     OW20089   1.578   1.567   5.444  0.6254 -0.1752 -0.4023
 2819SOL    HW120090   1.551   1.507   5.374  0.5398 -2.3743  1.5074
 2819SOL    HW220091   1.648   1.522   5.491  1.6986  1.2614 -0.6067
 2820SOL     OW20092   2.180   2.565  16.042 -0.1172  0.1704  0.1061
 2820SOL    HW120093   2.182   2.470  16.045 -1.0948  0.1196 -1.2418
 2820SOL    HW220094   2.088   2.584  16.026 -0.2458 -1.7787 -1.3557
 2821SOL     OW20095   4.176   0.083   9.071  0.0397  0.0481  0.2314
 2821SOL    HW120096   4.233   0.142   9.022 -0.2037 -0.7517 -1.0047
 2821SOL    HW220097   4.240   0.038   9.126 -1.2942 -1.3808  0.6289
 2822SOL     OW20098   0.339   0.690   7.825  0.3131  0.4509  0.3332
 2822SOL    HW120099   0.247   0.682   7.801 -0.3861  1.8128  2.5936
 2822SOL    HW220100   0.343   0.639   7.905  0.5422 -1.0308 -0.6168
 2823SOL     OW20101   3.198   0.832   9.390 -0.9250  0.1057 -0.4028
 2823SOL    HW120102   3.284   0.792   9.379 -1.3163 -0.4298 -1.5468
 2823SOL    HW220103   3.235   0.918   9.368  1.3809 -0.6483  0.5751
 2824SOL     OW20104   4.614   2.233  15.592  0.3329 -0.3231  0.3951
 2824SOL    HW120105   4.616   2.138  15.606 -2.7377 -0.2753  1.0895
 2824SOL    HW220106   4.704   2.265  15.601  0.3875 -0.4801  0.4180
 2825SOL     OW20107   0.305   1.683   2.547  0.1861  0.2481 -1.0233
 2825SOL    HW120108   0.356   1.740   2.605 -0.6128  1.2883 -1.3523
 2825SOL    HW220109   0.221   1.726   2.557  0.6093  1.1433 -1.3559
 2826SOL     OW20110   4.550   4.044   4.076 -0.8530 -0.0503  0.1882
 2826SOL    HW120111   4.533   4.008   3.989 -0.7065  1.6870 -0.5607
 2826SOL    HW220112   4.643   4.068   4.078 -1.0689  0.6597  1.5908
 2827SOL     OW20113   3.658   1.823   3.842  0.0881 -0.0904 -0.0510
 2827SOL    HW120114   3.584   1.810   3.902  0.1757 -0.1632  0.0411
 2827SOL    HW220115   3.615   1.848   3.760  0.8612 -0.5846 -0.6080
 2828SOL     OW20116   0.426   1.789   4.833 -0.2619 -0.2526  0.3826
 2828SOL    HW120117   0.443   1.781   4.739 -1.3223 -2.3146  0.3556
 2828SOL    HW220118   0.467   1.872   4.859 -0.5570 -0.6634  2.1207
 2829SOL     OW20119   3.200   0.172   8.715  0.3669 -0.2070 -0.4490
 2829SOL    HW120120   3.281   0.223   8.713  0.7535 -0.7094  2.9412
 2829SOL    HW220121   3.199   0.143   8.623 -3.1666 -0.3418 -0.3799
 2830SOL     OW20122   4.041   3.673  10.749  0.3402  0.2331  0.1934
 2830SOL    HW120123   4.020   3.656  10.840  3.9151 -0.3191  0.9470
 2830SOL    HW220124   4.133   3.701  10.754  0.4950 -0.0669 -0.8135
 2831SOL     OW20125   4.023   2.696   9.433 -0.0887  0.3723  0.2613
 2831SOL    HW120126   4.079   2.766   9.398  0.2066 -0.7549 -1.5122
 2831SOL    HW220127   3.942   2.747   9.442 -0.5746  0.1433 -2.8849
 2832SOL     OW20128   3.502   3.739  15.144 -0.0436 -0.3010  0.2453
 2832SOL    HW120129   3.537   3.676  15.082 -0.6864 -0.1636 -0.2556
 2832SOL    HW220130   3.456   3.682  15.205  0.8324 -1.3721 -0.1084
 2833SOL     OW20131   3.418   2.975   3.087 -0.3510  0.3385  0.0364
 2833SOL    HW120132   3.450   2.890   3.057  0.1011  1.3541 -2.3707
 2833SOL    HW220133   3.327   2.947   3.077 -0.0224 -0.5662 -0.4448
 2834SOL     OW20134   0.076   0.648   3.564  0.6595  0.3464  0.5283
 2834SOL    HW120135   0.100   0.683   3.478 -4.1816  0.4364 -0.7889
 2834SOL    HW220136   0.017   0.581   3.531  0.5088  0.6796  0.1108
 2835SOL     OW20137   0.585   1.437   5.496 -0.0374  0.3345 -0.2452
 2835SOL    HW120138   0.677   1.454   5.480 -0.6981  3.5194 -0.6231
 2835SOL    HW220139   0.573   1.359   5.442  2.2748  1.0532 -1.7900
 2836SOL     OW20140   4.290   0.880   4.103 -0.2801  0.5977 -0.0014
 2836SOL    HW120141   4.264   0.924   4.023  0.9502  0.1536 -0.6486
 2836SOL    HW220142   4.314   0.957   4.155 -1.1938  1.4948 -0.9121
 2837SOL     OW20143   0.316   2.810   5.485  0.0744  0.2352 -0.0951
 2837SOL    HW120144   0.335   2.851   5.401 -0.5923 -1.7924 -1.2119
 2837SOL    HW220145   0.385   2.745   5.497 -0.4694 -0.4755 -0.8484
 2838SOL     OW20146   0.953   2.908  15.145 -0.0136  0.4728 -0.1612
 2838SOL    HW120147   0.969   2.981  15.204  0.1211 -1.7080  2.4780
 2838SOL    HW220148   1.041   2.870  15.141 -1.0091 -1.7621 -0.6275
 2839SOL     OW20149   1.271   4.465  17.740  0.5580  0.0355  0.5278
 2839SOL    HW120150   1.254   4.533   0.063 -0.7004  1.4518 -1.2666
 2839SOL    HW220151   1.366   4.450   0.001  0.4903 -0.3090  0.8537
 2840SOL     OW20152   2.850   2.561   2.508  0.4612  0.5181  0.1319
 2840SOL    HW120153   2.939   2.594   2.507 -0.2851  2.5323  0.9958
 2840SOL    HW220154   2.873   2.485   2.454  1.0752  1.5363 -1.0461
 2841SOL     OW20155   0.555   3.718   4.611  0.0781 -0.1754 -0.0551
 2841SOL    HW120156   0.633   3.697   4.560  1.3874  2.4748  0.8618
 2841SOL    HW220157   0.579   3.710   4.704 -1.0170  2.0436  0.4051
 2842SOL     OW20158   0.123   0.607   7.395  0.5326  0.5047 -0.7800
 2842SOL    HW120159   0.109   0.661   7.317  0.4197 -0.7265 -1.6030
 2842SOL    HW220160   0.037   0.621   7.436  0.7392 -0.1978 -0.1221
 2843SOL     OW20161   3.048   1.931   6.343 -0.2494 -0.5989 -0.3584
 2843SOL    HW120162   2.979   1.896   6.287 -0.6002  0.2683 -0.4714
 2843SOL    HW220163   2.998   1.990   6.399  1.4239  2.2039 -1.7853
 2844SOL     OW20164   0.277   3.036   9.985  0.1830 -0.3688 -0.2914
 2844SOL    HW120165   0.280   2.967   9.918  0.7498  0.9477 -1.6160
 2844SOL    HW220166   0.340   3.006  10.051  0.0459  0.1051  0.0550
 2845SOL     OW20167   1.931   0.373  12.768 -0.7373 -0.3943 -0.3332
 2845SOL    HW120168   1.896   0.358  12.680 -0.1545  0.6950 -0.7381
 2845SOL    HW220169   1.910   0.297  12.822  4.4275  0.8518  3.4029
 2846SOL     OW20170   3.546   2.935  15.287  0.4514  0.4411  0.4359
 2846SOL    HW120171   3.622   2.897  15.242 -0.4740 -0.7730 -0.1035
 2846SOL    HW220172   3.490   2.936  15.209  1.4417  0.2038 -0.2903
 2847SOL     OW20173   2.259   0.922  13.641 -0.1091 -0.1282  0.2248
 2847SOL    HW120174   2.301   0.854  13.589  2.4884  1.6686 -0.0249
 2847SOL    HW220175   2.235   0.984  13.573  0.9575  0.1397  0.0876
 2848SOL     OW20176   0.540   1.628   8.413 -0.6910 -0.0408 -0.4050
 2848SOL    HW120177   0.579   1.561   8.469 -1.7270 -0.1898  0.1336
 2848SOL    HW220178   0.584   1.615   8.328 -0.7213 -0.1863 -0.3986
 2849SOL     OW20179   2.991   4.007   5.385 -0.0273  0.1277  0.1182
 2849SOL    HW120180   3.052   3.992   5.313 -0.3907 -3.4544  0.5601
 2849SOL    HW220181   2.971   3.914   5.402  1.7731 -0.2870 -0.0978
 2850SOL     OW20182   1.527   4.366   2.513  0.3457 -0.4587 -0.2414
 2850SOL    HW120183   1.580   4.420   2.455 -0.7391  1.1670  0.2884
 2850SOL    HW220184   1.460   4.357   2.445 -0.2343  0.9459  0.1540
 2851SOL     OW20185   2.009   0.800   4.034  0.3741  0.2638  0.0211
 2851SOL    HW120186   1.991   0.837   3.948 -0.1807 -1.1040 -0.4558
 2851SOL    HW220187   2.061   0.719   4.036  0.0540  0.0582  0.1144
 2852SOL     OW20188   1.913   3.860   3.443 -0.3682 -0.1867 -0.4256
 2852SOL    HW120189   1.920   3.882   3.350  1.3199  0.1410 -0.2092
 2852SOL    HW220190   1.818   3.854   3.457 -0.0205 -0.0104  2.0273
 2853SOL     OW20191   1.021   4.124  15.970 -0.1612  0.2619  0.2500
 2853SOL    HW120192   0.937   4.169  15.976 -0.9489 -1.0073 -1.2725
 2853SOL    HW220193   1.083   4.154  16.036 -1.2519 -1.4094  2.0350
 2854SOL     OW20194   4.634   4.411   5.164  0.1915  0.4063  0.7903
 2854SOL    HW120195   4.545   4.385   5.139  0.5487 -0.2717  0.2288
 2854SOL    HW220196   4.603   4.451   5.245  1.3427  0.8027  1.0349
 2855SOL     OW20197   3.613   4.558  17.096  0.4853  0.0092  0.2419
 2855SOL    HW120198   3.648   4.590  17.013 -1.7538  0.3605 -0.5696
 2855SOL    HW220199   3.669   4.594  17.164 -0.4085 -0.7344  1.3667
 2856SOL     OW20200   1.503   2.044   5.102 -0.1205  0.0605  0.2224
 2856SOL    HW120201   1.455   2.008   5.028  1.8421 -2.0015 -0.0477
 2856SOL    HW220202   1.575   2.102   5.076 -1.1707  0.5190 -1.6536
 2857SOL     OW20203   1.826   4.168   3.018 -0.5484  0.4728 -0.0332
 2857SOL    HW120204   1.830   4.219   2.937  0.5106 -1.2286 -1.0490
 2857SOL    HW220205   1.755   4.221   3.055 -1.3911 -1.8790  1.7514
 2858SOL     OW20206   1.572   3.522   1.941 -0.0282 -0.0772 -0.7601
 2858SOL    HW120207   1.488   3.559   1.968  0.1135  0.0666 -0.5108
 2858SOL    HW220208   1.633   3.594   1.959  0.9242 -0.9096 -0.6342
 2859SOL     OW20209   0.552   2.355   3.786 -0.6499  0.4705  0.7402
 2859SOL    HW120210   0.478   2.300   3.812  1.1293 -1.6770  1.3322
 2859SOL    HW220211   0.616   2.284   3.788 -1.5908 -0.3601  1.2823
 2860SOL     OW20212   2.770   1.472   6.516  0.2450 -0.5479  0.1164
 2860SOL    HW120213   2.791   1.540   6.452  2.6182 -1.6149 -0.2116
 2860SOL    HW220214   2.771   1.394   6.461 -0.4826 -0.9866  0.7129
 2861SOL     OW20215   3.461   4.386   5.430 -0.0948  0.4474 -0.2190
 2861SOL    HW120216   3.374   4.371   5.394 -0.9720 -0.7806  2.4146
 2861SOL    HW220217   3.508   4.330   5.368  0.2987  1.0924 -0.4962
 2862SOL     OW20218   0.098   1.090   3.787  0.1587  0.6188  0.3542
 2862SOL    HW120219   0.104   1.171   3.837 -0.5713  1.3895 -0.8033
 2862SOL    HW220220   0.037   1.035   3.837 -0.6549  1.1102 -0.0965
 2863SOL     OW20221   1.496   2.526   8.159  0.3989 -0.8043 -0.0706
 2863SOL    HW120222   1.443   2.599   8.189 -0.9926 -1.8341 -0.0242
 2863SOL    HW220223   1.582   2.549   8.195 -0.4837  2.1034  0.1006
 2864SOL     OW20224   3.310   0.054   5.317  0.1189  0.1073 -0.1617
 2864SOL    HW120225   3.317   0.119   5.247  0.5844 -0.3602 -0.5425
 2864SOL    HW220226   3.327   4.714   5.262  0.4710 -1.2460  1.8240
 2865SOL     OW20227   2.645   0.699   8.429 -0.2360  0.0276  0.2622
 2865SOL    HW120228   2.592   0.779   8.423  0.3939  0.6536  2.9394
 2865SOL    HW220229   2.609   0.641   8.363  1.0188 -1.1010  0.5712
 2866SOL     OW20230   2.664   0.584  14.518  0.4590 -0.1668 -0.5367
 2866SOL    HW120231   2.696   0.536  14.594  0.6947 -0.3522 -0.7502
 2866SOL    HW220232   2.705   0.666  14.547 -1.2640  0.0479  1.3065
 2867SOL     OW20233   2.268   3.987   4.234  0.4107 -0.0084 -0.7272
 2867SOL    HW120234   2.189   3.939   4.260  0.3112  1.1207  1.0505
 2867SOL    HW220235   2.283   4.025   4.320 -0.1012  1.9838 -1.5140
 2868SOL     OW20236   1.038   3.398   5.353 -0.8261 -0.0988 -0.6506
 2868SOL    HW120237   1.025   3.492   5.339 -3.1597 -0.3242  0.0864
 2868SOL    HW220238   1.080   3.392   5.439  0.2794 -1.7751 -1.3026
 2869SOL     OW20239   1.406   0.080   8.112 -0.2061 -0.0103  0.1151
 2869SOL    HW120240   1.356   0.162   8.104  0.6153  0.7348  2.6100
 2869SOL    HW220241   1.483   0.099   8.165 -0.7776 -1.3150  1.3988
 2870SOL     OW20242   0.875   2.119   7.031 -0.2984  0.1526 -0.1949
 2870SOL    HW120243   0.911   2.179   7.096  0.3225  1.5067 -1.7990
 2870SOL    HW220244   0.789   2.159   7.021  0.2094  1.5613  1.1395
 2871SOL     OW20245   0.390   2.536   2.225  0.0767  0.1696  0.1127
 2871SOL    HW120246   0.436   2.605   2.273  2.5238 -0.2528 -1.6606
 2871SOL    HW220247   0.460   2.472   2.210 -1.4480 -1.2968 -0.7518
 2872SOL     OW20248   4.007   0.039   4.613 -0.2623 -0.3539  0.9059
 2872SOL    HW120249   4.014   0.096   4.689  2.8695 -0.1727  0.4938
 2872SOL    HW220250   4.052   4.702   4.655  1.8767  0.7480  0.4972
 2873SOL     OW20251   1.995   0.764   7.934  0.4234  0.2616 -0.3810
 2873SOL    HW120252   1.922   0.705   7.956  1.6488 -0.5920  1.4110
 2873SOL    HW220253   1.980   0.770   7.839  1.9197  0.1343 -0.6136
 2874SOL     OW20254   0.242   2.690   1.810  0.7261  0.1772 -0.6326
 2874SOL    HW120255   0.248   2.625   1.739  1.7460 -0.0398 -0.3544
 2874SOL    HW220256   0.224   2.628   1.880 -1.7418  1.0174 -0.5162
 2875SOL     OW20257   4.596   1.439   6.442  0.1138  0.0497  0.0800
 2875SOL    HW120258   4.687   1.440   6.472 -0.0774  1.3094  0.6464
 2875SOL    HW220259   4.559   1.374   6.501 -2.7301 -0.0402 -1.8329
 2876SOL     OW20260   1.844   0.317   4.507 -0.1179  0.1706 -0.3389
 2876SOL    HW120261   1.816   0.292   4.419  3.2374 -0.7239 -1.1495
 2876SOL    HW220262   1.783   0.390   4.517 -0.5144 -0.0894 -0.8252
 2877SOL     OW20263   1.902   2.277  12.249  0.1829  0.6706 -0.0400
 2877SOL    HW120264   1.979   2.223  12.264  1.3466  1.8309 -1.9649
 2877SOL    HW220265   1.864   2.219  12.183  0.5000 -0.6711  0.9667
 2878SOL     OW20266   3.278   0.191   4.008 -0.3465 -0.8441  0.1076
 2878SOL    HW120267   3.238   0.112   3.973 -0.8993 -1.1323  1.3773
 2878SOL    HW220268   3.364   0.199   3.966 -0.9434  1.5546 -0.6302
 2879SOL     OW20269   3.731   1.882   7.258 -0.4297 -0.0135 -0.5011
 2879SOL    HW120270   3.731   1.796   7.216 -0.7879  0.3361 -1.2065
 2879SOL    HW220271   3.783   1.865   7.337  0.2685 -1.1098 -1.1948
 2880SOL     OW20272   1.703   4.011   7.860 -0.8566  0.2872  0.3558
 2880SOL    HW120273   1.611   4.022   7.836 -0.6777  1.6077  0.2554
 2880SOL    HW220274   1.732   3.957   7.787 -1.4358  1.3655 -0.6737
 2881SOL     OW20275   2.511   4.246   4.041  0.1848 -0.1426  0.1478
 2881SOL    HW120276   2.514   4.150   4.035 -1.2007 -0.2789  1.6515
 2881SOL    HW220277   2.553   4.275   3.960  1.0839  0.8818  0.9905
 2882SOL     OW20278   4.719   0.267   4.858 -0.2799 -0.3140  0.1761
 2882SOL    HW120279   4.676   0.314   4.929 -2.0090  1.3169 -1.9592
 2882SOL    HW220280   0.074   0.278   4.884 -0.4304 -0.4613  0.7760
 2883SOL     OW20281   1.777   4.446   7.583 -0.5823  0.3150 -0.1187
 2883SOL    HW120282   1.695   4.464   7.628 -0.4271 -0.3501  0.4319
 2883SOL    HW220283   1.753   4.371   7.530 -1.9162  3.4065 -3.9435
 2884SOL     OW20284   0.291   4.614  16.069 -0.1546 -0.6308  0.1339
 2884SOL    HW120285   0.310   4.589  16.160  1.9997  0.0990 -0.1063
 2884SOL    HW220286   0.201   4.645  16.078  0.3646  0.9040  0.0809
 2885SOL     OW20287   4.472   1.385  15.376  0.2009  0.3540 -0.2706
 2885SOL    HW120288   4.407   1.353  15.440  1.4991 -0.1677  0.7895
 2885SOL    HW220289   4.423   1.389  15.294 -2.6140  3.6068  1.5597
 2886SOL     OW20290   3.142   0.845  16.968 -0.6387  0.0609 -0.2183
 2886SOL    HW120291   3.192   0.855  17.049 -2.8811  1.3149  1.0400
 2886SOL    HW220292   3.200   0.783  16.924 -1.0449  0.4095 -1.2333
 2887SOL     OW20293   3.973   0.487   8.172  0.3811 -0.8541 -0.2306
 2887SOL    HW120294   3.920   0.409   8.160  0.7618 -1.0896 -0.3827
 2887SOL    HW220295   3.913   0.560   8.155  1.2367  0.4178  2.2189
 2888SOL     OW20296   0.857   1.391  17.547 -0.7417 -0.0366  0.4518
 2888SOL    HW120297   0.806   1.391  17.466  0.1533  1.7531 -0.1340
 2888SOL    HW220298   0.898   1.478  17.540 -2.9545  0.8620 -1.3877
 2889SOL     OW20299   0.354   2.445  13.930  0.8437 -0.7668  0.4277
 2889SOL    HW120300   0.398   2.420  13.849  2.0301 -0.3598  0.9478
 2889SOL    HW220301   0.329   2.358  13.963 -0.6546 -0.1000  1.0386
 2890SOL     OW20302   4.176   1.580   4.266  0.0566 -0.1023 -0.9977
 2890SOL    HW120303   4.268   1.585   4.243 -0.1302 -0.2789 -1.7833
 2890SOL    HW220304   4.145   1.545   4.182 -2.0414  0.7794 -0.6078
 2891SOL     OW20305   1.945   4.431   9.379  0.0624  0.7818 -0.1724
 2891SOL    HW120306   1.867   4.446   9.432  0.9254 -2.5874  1.9689
 2891SOL    HW220307   1.976   4.522   9.379  1.7507  0.1980  1.8831
 2892SOL     OW20308   0.809   2.562  17.662  0.3702  0.3995 -0.2201
 2892SOL    HW120309   0.790   2.615  17.740 -0.8298 -0.5017  0.1079
 2892SOL    HW220310   0.903   2.561  17.680  0.2758  1.0111  0.3338
 2893SOL     OW20311   0.506   3.261  16.255  0.3962 -0.2982  0.0016
 2893SOL    HW120312   0.590   3.270  16.210 -0.9982 -1.2614 -2.7768
 2893SOL    HW220313   0.450   3.211  16.196  1.9981 -1.9895 -0.0922
 2894SOL     OW20314   4.326   4.733   5.852  0.1749  0.4869 -0.1569
 2894SOL    HW120315   4.419   4.721   5.873 -0.1259  0.2817  1.0793
 2894SOL    HW220316   4.334   0.045   5.770 -0.5952  0.5221 -0.2064
 2895SOL     OW20317   2.404   0.450   4.360 -0.0462  0.1796 -0.1564
 2895SOL    HW120318   2.447   0.400   4.429 -1.2612  2.1928  2.0277
 2895SOL    HW220319   2.430   0.407   4.278  1.9136 -2.2132  1.7415
 2896SOL     OW20320   0.544   0.875   2.623  0.1538 -0.1764  0.1747
 2896SOL    HW120321   0.489   0.821   2.566 -0.8058  0.6507  0.3152
 2896SOL    HW220322   0.528   0.963   2.588  0.0064 -0.1278  0.3583
 2897SOL     OW20323   4.048   1.905   2.903  0.5651 -0.1662  0.3107
 2897SOL    HW120324   3.988   1.951   2.845  2.2688 -2.1941 -3.0437
 2897SOL    HW220325   4.058   1.957   2.982  0.5020 -0.1451  0.3048
 2898SOL     OW20326   3.462   3.752  17.551 -0.0488 -0.1009 -0.7901
 2898SOL    HW120327   3.489   3.766  17.642 -0.5801  0.7518 -0.7674
 2898SOL    HW220328   3.372   3.784  17.550 -0.3962 -0.9724  1.3372
 2899SOL     OW20329   3.719   3.124   4.539  0.4898  0.0344 -0.0907
 2899SOL    HW120330   3.683   3.136   4.451 -1.1057  1.2430  0.7341
 2899SOL    HW220331   3.767   3.044   4.520 -1.5643 -1.5829  1.5218
 2900SOL     OW20332   4.336   0.076   5.592 -0.8845 -0.2117  0.0341
 2900SOL    HW120333   4.382   0.152   5.557 -0.5103 -0.9966 -1.2006
 2900SOL    HW220334   4.247   0.110   5.602 -0.0178  2.0788 -0.0151
 2901SOL     OW20335   2.816   3.784   3.839  1.0061 -0.5172 -0.2000
 2901SOL    HW120336   2.868   3.723   3.787  1.5449  2.4152 -3.1024
 2901SOL    HW220337   2.771   3.827   3.765  1.9194 -0.1158 -0.5252
 2902SOL     OW20338   2.488   1.151   5.600 -0.1975  0.5731  0.0244
 2902SOL    HW120339   2.421   1.092   5.565  1.3126 -1.8516  1.2306
 2902SOL    HW220340   2.548   1.080   5.620 -0.5420 -0.0547 -1.1556
 2903SOL     OW20341   1.448   3.130   7.967  0.2977 -0.1848 -0.0356
 2903SOL    HW120342   1.464   3.059   8.029 -0.0974 -1.2035 -1.1187
 2903SOL    HW220343   1.398   3.183   8.029  0.1820 -1.3934  0.8945
 2904SOL     OW20344   4.415   1.087   5.158 -0.6329  0.5210 -0.4443
 2904SOL    HW120345   4.458   1.069   5.242 -1.1157 -0.4994 -0.4038
 2904SOL    HW220346   4.421   1.181   5.147  2.0733  0.6056  1.6680
 2905SOL     OW20347   0.314   1.000   4.475 -0.4811  0.2579 -0.4522
 2905SOL    HW120348   0.263   1.012   4.396 -1.1072  1.6561  0.1628
 2905SOL    HW220349   0.394   1.045   4.449 -0.1563 -0.2860 -0.3799
 2906SOL     OW20350   4.585   0.685   9.136 -0.0851 -0.2561  0.0830
 2906SOL    HW120351   4.660   0.668   9.193 -0.0026  1.1485  0.3856
 2906SOL    HW220352   4.525   0.615   9.163  0.1291  0.0831  1.4101
 2907SOL     OW20353   0.387   3.660  12.668  0.6853 -0.4095  0.0907
 2907SOL    HW120354   0.396   3.604  12.746 -0.6873  0.0948  0.6103
 2907SOL    HW220355   0.471   3.704  12.683  0.2286  0.7614 -0.8233
 2908SOL     OW20356   0.185   2.773  13.342 -0.0648 -0.2514 -0.2604
 2908SOL    HW120357   0.218   2.755  13.254  1.2813 -0.8647  0.3776
 2908SOL    HW220358   0.099   2.730  13.348  0.6643 -1.2745  3.0723
 2909SOL     OW20359   4.266   0.986   7.990 -0.0610 -0.3640  0.1434
 2909SOL    HW120360   4.290   0.962   8.079  2.1828  0.7466 -0.1451
 2909SOL    HW220361   4.184   0.939   7.975 -0.4985  0.7167 -0.8680
 2910SOL     OW20362   3.089   1.137   3.772 -0.0767 -0.3965  0.3738
 2910SOL    HW120363   3.007   1.142   3.821 -0.5628  1.0663 -0.5712
 2910SOL    HW220364   3.143   1.083   3.830 -0.7872 -0.4457  0.9878
 2911SOL     OW20365   0.240   3.853   8.023  0.0824 -0.0834 -0.7424
 2911SOL    HW120366   0.298   3.802   7.967  0.8295 -0.7227  0.6069
 2911SOL    HW220367   0.236   3.795   8.099 -0.5201  0.1186 -0.6171
 2912SOL     OW20368   2.377   4.414   5.220  0.1092  0.2295  0.6787
 2912SOL    HW120369   2.403   4.455   5.137  0.7879  2.1742  1.8444
 2912SOL    HW220370   2.450   4.445   5.274 -0.7166  2.9052  0.2618
 2913SOL     OW20371   1.694   4.540  13.744 -0.1885  0.3623 -0.6331
 2913SOL    HW120372   1.761   4.473  13.755  0.2681  1.2857  2.2927
 2913SOL    HW220373   1.620   4.490  13.709 -0.9204  1.4214 -0.6105
 2914SOL     OW20374   2.448   2.110   3.297 -0.5556  0.2102  0.1274
 2914SOL    HW120375   2.469   2.082   3.208 -0.8154 -2.2008  0.8440
 2914SOL    HW220376   2.450   2.205   3.285 -0.2446  0.0285 -1.2923
 2915SOL     OW20377   4.298   0.639  11.515 -0.2748  0.4077  0.7570
 2915SOL    HW120378   4.349   0.666  11.439 -1.4004  0.3312 -0.0226
 2915SOL    HW220379   4.235   0.710  11.525  0.0141  0.9443 -1.2986
 2916SOL     OW20380   1.632   1.880   6.968 -0.3669 -0.4317 -0.0553
 2916SOL    HW120381   1.712   1.889   6.917 -0.3643 -0.8227 -0.1171
 2916SOL    HW220382   1.628   1.789   6.999 -0.6060 -0.6976 -0.8756
 2917SOL     OW20383   1.355   1.541   7.257  0.1932  0.1550 -0.1450
 2917SOL    HW120384   1.358   1.602   7.330  0.3369  0.7900 -0.6861
 2917SOL    HW220385   1.279   1.490   7.283  1.0353 -1.0455 -0.0163
 2918SOL     OW20386   1.167   0.029  17.113 -0.6678  0.7934 -0.5152
 2918SOL    HW120387   1.088   0.023  17.060 -0.4238  2.0910 -1.0195
 2918SOL    HW220388   1.219   4.694  17.076  1.4849  2.5328 -0.8818
 2919SOL     OW20389   2.514   0.370   3.805 -0.4250 -0.3048  0.3517
 2919SOL    HW120390   2.458   0.432   3.758  1.1212  1.1386  0.4100
 2919SOL    HW220391   2.478   0.367   3.893  0.5538 -1.8065  0.6983
 2920SOL     OW20392   0.491   4.561   6.806 -0.5170  0.2817  0.4265
 2920SOL    HW120393   0.444   4.540   6.725 -1.1071 -1.1527  1.1513
 2920SOL    HW220394   0.561   4.615   6.770  0.7763 -1.3721  0.5093
 2921SOL     OW20395   4.366   0.883   4.465 -0.4870  0.7896 -0.0589
 2921SOL    HW120396   4.402   0.819   4.526 -0.7097  0.9177  0.2049
 2921SOL    HW220397   4.317   0.836   4.397 -0.2139  0.3969  0.0182
 2922SOL     OW20398   4.622   3.648   0.864 -0.8569  1.0802  0.0167
 2922SOL    HW120399   4.664   3.681   0.943  0.2599  0.4630 -0.3234
 2922SOL    HW220400   4.557   3.588   0.900  1.6137 -1.6864 -0.2065
 2923SOL     OW20401   4.423   2.884   2.541  0.0795 -0.0239  0.0598
 2923SOL    HW120402   4.347   2.869   2.597  0.5721  2.9891  1.5669
 2923SOL    HW220403   4.378   2.925   2.467  0.3789  0.2921  0.0518
 2924SOL     OW20404   1.452   1.819  12.398  0.0143  0.1791  0.4012
 2924SOL    HW120405   1.543   1.850  12.398  0.7986 -2.0740 -1.1449
 2924SOL    HW220406   1.401   1.898  12.417  0.0676  1.1018 -3.2418
 2925SOL     OW20407   2.459   0.613  16.382  0.1430 -0.2525  0.4227
 2925SOL    HW120408   2.489   0.609  16.473  0.2178 -1.8305  0.3315
 2925SOL    HW220409   2.372   0.573  16.385  0.2806 -0.6474 -0.7161
 2926SOL     OW20410   3.285   4.179   4.272  0.1380  0.3696 -0.3856
 2926SOL    HW120411   3.195   4.155   4.249  0.3225  0.2834 -1.0257
 2926SOL    HW220412   3.276   4.274   4.270  1.7768  0.5732  2.0768
 2927SOL     OW20413   3.437   1.057  11.280  0.0940 -0.1771 -0.4408
 2927SOL    HW120414   3.457   1.115  11.206 -0.2691 -1.0152 -1.2003
 2927SOL    HW220415   3.364   1.102  11.323 -1.5533 -1.0338 -2.3770
 2928SOL     OW20416   0.521   2.988   3.954 -0.1039  0.5065 -0.2806
 2928SOL    HW120417   0.556   3.044   3.884  0.3077 -0.8667 -1.1767
 2928SOL    HW220418   0.591   2.967   4.016 -2.1137 -1.3992  1.3158
 2929SOL     OW20419   2.962   0.675   1.660 -0.5981 -0.2461  0.4413
 2929SOL    HW120420   2.995   0.761   1.687 -2.4130 -0.0169  1.9488
 2929SOL    HW220421   2.938   0.689   1.569  1.0114  3.4607  0.6058
 2930SOL     OW20422   3.578   1.509   3.784 -0.4735  0.1817  0.1704
 2930SOL    HW120423   3.489   1.511   3.821 -0.6686  0.7726 -0.3428
 2930SOL    HW220424   3.632   1.488   3.860  0.5507  2.0677 -0.0381
 2931SOL     OW20425   3.112   1.015   6.428  0.2269  0.2314 -0.1831
 2931SOL    HW120426   3.070   1.057   6.503 -0.1917 -0.4429 -0.0423
 2931SOL    HW220427   3.144   1.092   6.382 -2.9840  0.5456 -1.8903
 2932SOL     OW20428   3.357   2.094  12.224 -0.1218 -0.3749  0.9490
 2932SOL    HW120429   3.435   2.060  12.267  0.7312 -0.8685 -0.9738
 2932SOL    HW220430   3.355   2.029  12.154  1.9213 -0.1707  0.7083
 2933SOL     OW20431   0.519   2.572  11.318  0.0208 -0.0985 -0.4632
 2933SOL    HW120432   0.468   2.492  11.320 -2.6418  1.6755  2.4392
 2933SOL    HW220433   0.509   2.599  11.409 -0.3356 -3.0705  0.3580
 2934SOL     OW20434   1.560   1.492  10.923 -0.3423 -0.5997 -0.4097
 2934SOL    HW120435   1.637   1.533  10.961  0.3762 -1.9535 -0.3928
 2934SOL    HW220436   1.506   1.568  10.902 -2.3982 -1.1351  2.9258
 2935SOL     OW20437   4.134   2.643  11.226  0.3785 -0.0499 -0.4661
 2935SOL    HW120438   4.128   2.643  11.322  0.1192 -0.0781 -0.4835
 2935SOL    HW220439   4.077   2.717  11.203  1.5565  1.0805  0.2320
 2936SOL     OW20440   4.338   4.691   9.247 -0.4436  0.3933  0.2788
 2936SOL    HW120441   4.399   4.683   9.320 -2.0596  0.8881  1.6885
 2936SOL    HW220442   4.332   4.599   9.220  3.2943 -0.3394  1.8772
 2937SOL     OW20443   0.065   0.818  10.761 -0.0990  0.0531  0.2552
 2937SOL    HW120444   0.047   0.748  10.824  3.3696 -1.4250 -0.4207
 2937SOL    HW220445   0.123   0.871  10.815 -0.2203  0.1800  0.2613
 2938SOL     OW20446   0.314   2.593  13.482  0.4880 -0.7728  0.1532
 2938SOL    HW120447   0.308   2.630  13.570  0.9138 -2.6746  0.9829
 2938SOL    HW220448   0.291   2.673  13.435  0.9465 -1.7521 -1.7022
 2939SOL     OW20449   0.384   2.688   1.148 -0.6999  0.7000 -0.0300
 2939SOL    HW120450   0.417   2.669   1.060  0.0562 -0.3890  0.4975
 2939SOL    HW220451   0.385   2.784   1.143  1.1758  0.6770 -0.0224
 2940SOL     OW20452   3.185   3.318   4.282 -0.6111  0.6862  0.4335
 2940SOL    HW120453   3.205   3.311   4.375  1.5510  1.6404  0.0549
 2940SOL    HW220454   3.163   3.225   4.271 -1.1314  1.0498 -1.7498
 2941SOL     OW20455   1.476   3.950   7.120  1.1393  0.0465  0.3568
 2941SOL    HW120456   1.408   3.901   7.166  0.3080  0.4767 -0.4012
 2941SOL    HW220457   1.418   3.971   7.047  0.6164 -1.5987  0.3042
 2942SOL     OW20458   3.364   0.154   5.579  0.3767 -0.0510  0.2491
 2942SOL    HW120459   3.410   0.223   5.531 -0.5149  0.6018  0.3359
 2942SOL    HW220460   3.355   0.085   5.514  0.7318 -0.0535  0.2011
 2943SOL     OW20461   0.573   0.232  16.227  0.2581  0.1260 -0.8645
 2943SOL    HW120462   0.608   0.279  16.302  0.4632 -0.4968 -0.5662
 2943SOL    HW220463   0.538   0.305  16.177 -0.3641 -0.3234 -1.0827
 2944SOL     OW20464   1.170   1.559   7.526 -0.4289  0.1748  0.5041
 2944SOL    HW120465   1.097   1.499   7.542  0.2995 -0.7556  0.3250
 2944SOL    HW220466   1.131   1.631   7.475 -0.4160 -0.5216 -0.4955
 2945SOL     OW20467   0.609   4.193  15.487 -0.0126 -0.4876  0.1565
 2945SOL    HW120468   0.553   4.260  15.448  0.5713  0.7804  1.4785
 2945SOL    HW220469   0.657   4.185  15.404 -0.6315  0.3549 -0.2855
 2946SOL     OW20470   3.481   1.792   9.037  0.0770  0.8353  0.2144
 2946SOL    HW120471   3.452   1.823   8.951  1.6997  0.4736 -0.4725
 2946SOL    HW220472   3.435   1.709   9.043  0.0501  0.9107  0.9934
 2947SOL     OW20473   2.084   4.464   4.418 -0.2097  0.2333  0.5226
 2947SOL    HW120474   2.180   4.466   4.416 -0.2644  1.9968 -1.7415
 2947SOL    HW220475   2.065   4.382   4.462  0.1818  0.3661  0.9407
 2948SOL     OW20476   1.199   0.141   5.096 -0.1558  0.0622 -0.0384
 2948SOL    HW120477   1.280   0.092   5.102 -0.9259 -1.1721  0.1580
 2948SOL    HW220478   1.186   0.134   5.001  2.3818  1.1271 -0.4669
 2949SOL     OW20479   3.536   1.398   1.255 -0.1894  0.1146 -0.1061
 2949SOL    HW120480   3.587   1.418   1.334 -0.6098 -1.3861  0.5537
 2949SOL    HW220481   3.551   1.482   1.212 -1.0234 -0.3407 -1.2809
 2950SOL     OW20482   3.897   2.374   1.479 -0.1343 -0.3691 -0.5036
 2950SOL    HW120483   3.887   2.464   1.447  0.4757  0.5694  1.9684
 2950SOL    HW220484   3.944   2.333   1.407 -0.2705 -3.0096  0.9508
 2951SOL     OW20485   3.982   2.777  13.440 -0.0527  0.0596  0.0739
 2951SOL    HW120486   4.031   2.805  13.362  1.8015  0.2301  1.3125
 2951SOL    HW220487   3.982   2.681  13.436 -0.2870  0.0287  0.9594
 2952SOL     OW20488   1.664   1.580  11.744  0.0755 -0.0008 -0.3756
 2952SOL    HW120489   1.592   1.599  11.684 -0.1387 -0.5503 -0.2914
 2952SOL    HW220490   1.618   1.516  11.798 -0.2863  0.1502 -0.5079
 2953SOL     OW20491   3.869   3.525   4.428 -0.3309  0.0120 -0.0752
 2953SOL    HW120492   3.918   3.605   4.410  2.4349 -1.4203  1.1004
 2953SOL    HW220493   3.783   3.551   4.393 -0.1449 -1.3215 -1.4903
 2954SOL     OW20494   0.084   3.722   1.175 -0.0312 -0.2773 -0.2539
 2954SOL    HW120495   0.152   3.706   1.240 -0.0021  1.6226  0.1803
 2954SOL    HW220496   0.111   3.810   1.149  0.4077  0.6955  3.4393
 2955SOL     OW20497   3.665   4.283   1.600  0.1241 -0.5239  0.4332
 2955SOL    HW120498   3.575   4.250   1.589  0.0898  0.1017 -1.3089
 2955SOL    HW220499   3.665   4.305   1.693  0.4963  1.0105  0.0638
 2956SOL     OW20500   2.697   4.682   2.123  0.1686 -0.0285  0.3359
 2956SOL    HW120501   2.733   4.691   2.034 -1.0581 -2.8090 -0.4278
 2956SOL    HW220502   2.652   4.598   2.117  0.9250 -0.5264  1.5976
 2957SOL     OW20503   4.035   3.636   5.889  0.3181  0.6969 -0.2076
 2957SOL    HW120504   4.128   3.658   5.886  0.6035 -0.6802 -1.6709
 2957SOL    HW220505   4.010   3.711   5.942 -1.2129  0.6289 -0.8375
 2958SOL     OW20506   3.010   2.706   2.031 -0.7046  0.1072 -0.0818
 2958SOL    HW120507   3.046   2.760   2.101 -0.9797 -1.5815  1.3590
 2958SOL    HW220508   3.073   2.635   2.031 -0.8530 -0.0186 -2.4226
 2959SOL     OW20509   0.018   3.804   7.584 -0.2546 -0.3626 -0.0084
 2959SOL    HW120510   0.021   3.869   7.655  1.2147 -0.3556 -0.0813
 2959SOL    HW220511   0.047   3.868   7.520 -0.0301  1.2701  1.7447
 2960SOL     OW20512   4.094   4.190   2.890  0.1103  0.1874 -0.2000
 2960SOL    HW120513   4.098   4.098   2.916  1.2217  0.4009  0.3750
 2960SOL    HW220514   4.005   4.197   2.855  0.0491  0.0411 -0.0735
 2961SOL     OW20515   0.814   2.773   8.186 -0.5119  0.0509  0.0788
 2961SOL    HW120516   0.763   2.699   8.220 -1.2425  0.3189 -0.4337
 2961SOL    HW220517   0.756   2.849   8.177 -0.2098  0.2111 -0.4889
 2962SOL     OW20518   1.419   1.958   5.556 -0.6517 -0.4104 -0.2897
 2962SOL    HW120519   1.500   1.913   5.534 -0.2894 -0.2397  0.6802
 2962SOL    HW220520   1.403   2.007   5.476 -1.1281  0.1015  0.1131
 2963SOL     OW20521   1.331   2.120  11.529 -0.6018  0.2086  0.1296
 2963SOL    HW120522   1.406   2.180  11.525 -2.0913  1.9866 -0.9035
 2963SOL    HW220523   1.304   2.139  11.619 -1.1646 -0.9886  0.2080
 2964SOL     OW20524   1.448   1.236   9.933  0.2299 -0.2476  0.2024
 2964SOL    HW120525   1.478   1.210   9.846 -0.1264  3.3620 -0.9670
 2964SOL    HW220526   1.400   1.156   9.956 -2.1070  1.1422  0.2035
 2965SOL     OW20527   0.704   0.083  17.220  0.5796 -0.0595  0.1991
 2965SOL    HW120528   0.730   0.052  17.133  1.7989  0.6989  0.2925
 2965SOL    HW220529   0.614   0.114  17.209  0.9335  0.7795 -0.3055
 2966SOL     OW20530   2.589   1.600   2.346  0.0159  0.1741 -0.3332
 2966SOL    HW120531   2.519   1.626   2.405 -1.0867  0.0364 -1.5871
 2966SOL    HW220532   2.582   1.667   2.278 -2.1851  0.3655  0.1065
 2967SOL     OW20533   4.646   1.749  15.856 -0.0581 -0.2026 -0.5258
 2967SOL    HW120534   4.672   1.670  15.808  1.2609  0.0271 -0.2017
 2967SOL    HW220535   4.553   1.757  15.838 -0.3854 -0.5116  1.0509
 2968SOL     OW20536   1.287   1.407  12.129 -0.2405  0.1060  0.0749
 2968SOL    HW120537   1.238   1.469  12.074 -2.5820 -0.4681  1.5405
 2968SOL    HW220538   1.322   1.467  12.194  0.6802  1.6135 -1.8011
 2969SOL     OW20539   3.733   2.787   7.520  0.4987  0.2942 -0.1603
 2969SOL    HW120540   3.684   2.786   7.437 -0.9163 -1.1331  0.7064
 2969SOL    HW220541   3.818   2.754   7.492  1.0767  1.6703 -0.0460
 2970SOL     OW20542   3.728   0.463  11.042 -0.8331  0.4069  0.2266
 2970SOL    HW120543   3.646   0.453  11.089  0.0287  1.8973  2.0907
 2970SOL    HW220544   3.739   0.558  11.030  1.3395 -0.1365 -1.9763
 2971SOL     OW20545   3.810   2.587   8.795  0.6413  0.6624  0.5683
 2971SOL    HW120546   3.883   2.606   8.854  0.5224 -1.4379  1.4022
 2971SOL    HW220547   3.745   2.574   8.864 -0.1062  0.6335 -0.1473
 2972SOL     OW20548   0.783   1.400   1.467  0.2956  0.2148 -0.2833
 2972SOL    HW120549   0.754   1.430   1.381 -0.1501 -0.3297 -0.3254
 2972SOL    HW220550   0.799   1.487   1.506  0.0212  0.8775 -1.6689
 2973SOL     OW20551   3.233   0.470  14.932 -0.1311 -0.1105 -0.1214
 2973SOL    HW120552   3.289   0.395  14.912 -1.2081 -1.0886  0.5425
 2973SOL    HW220553   3.258   0.492  15.022 -0.3519  1.5456 -0.4776
 2974SOL     OW20554   2.050   0.323   2.053 -0.0245  0.1327 -0.1059
 2974SOL    HW120555   2.096   0.308   1.970  0.6276 -3.3280  0.9004
 2974SOL    HW220556   1.966   0.356   2.023 -0.1956  0.2292  0.4755
 2975SOL     OW20557   4.387   2.210  11.515 -0.4689  0.2564 -0.0453
 2975SOL    HW120558   4.326   2.232  11.445 -0.5311  0.9734  0.2320
 2975SOL    HW220559   4.321   2.216  11.584  0.9316 -0.7348  1.4107
 2976SOL     OW20560   1.364   4.431   4.250  0.1778 -0.2607  0.0881
 2976SOL    HW120561   1.334   4.349   4.287  1.4690 -0.0136  1.6960
 2976SOL    HW220562   1.284   4.477   4.225 -1.3417 -2.4797  0.9223
 2977SOL     OW20563   4.690   2.890   8.768  0.0197 -0.8537  0.3994
 2977SOL    HW120564   0.014   2.896   8.843 -2.1055  2.6907  1.7992
 2977SOL    HW220565   4.610   2.912   8.817 -0.3325  0.5379 -0.7992
 2978SOL     OW20566   3.613   2.474  16.828  0.4436  0.0734 -0.1230
 2978SOL    HW120567   3.674   2.415  16.784 -0.6914 -1.4397  0.3146
 2978SOL    HW220568   3.630   2.455  16.921  0.4542 -1.3050 -0.4017
 2979SOL     OW20569   1.743   0.735  12.622  0.3288  0.4880 -0.2137
 2979SOL    HW120570   1.752   0.692  12.707  0.6975 -1.0097 -1.0154
 2979SOL    HW220571   1.828   0.735  12.579  2.1808 -1.3578  3.4882
 2980SOL     OW20572   2.676   1.005   3.745 -0.4489 -0.5349  0.0395
 2980SOL    HW120573   2.704   0.939   3.808 -3.6054 -1.2573  0.7158
 2980SOL    HW220574   2.704   0.954   3.668  1.6000 -0.4236  0.7267
 2981SOL     OW20575   1.090   3.751  15.027  0.2584  0.6037  0.4771
 2981SOL    HW120576   1.003   3.787  15.038  0.3405  0.8977  0.1524
 2981SOL    HW220577   1.124   3.798  14.951  1.4639 -1.0614 -0.0188
 2982SOL     OW20578   4.337   2.685   5.999  0.0395 -0.5045  0.5256
 2982SOL    HW120579   4.307   2.597   6.025  1.6940 -0.9629  0.8899
 2982SOL    HW220580   4.248   2.721   6.005  0.0935  0.0749 -1.9256
 2983SOL     OW20581   2.460   2.468  10.167 -0.5504 -0.1454 -0.1919
 2983SOL    HW120582   2.550   2.490  10.189 -1.6668  0.6025  3.6880
 2983SOL    HW220583   2.470   2.386  10.119 -1.1229 -0.9639  1.1004
 2984SOL     OW20584   4.142   3.209   3.953  0.6631 -0.3119 -0.3687
 2984SOL    HW120585   4.223   3.160   3.966  0.3303 -0.0550  2.7088
 2984SOL    HW220586   4.175   3.285   3.906 -1.0897  1.7956  1.7561
 2985SOL     OW20587   0.681   2.624   7.909  0.4763  0.1137 -0.2171
 2985SOL    HW120588   0.744   2.578   7.964 -1.6638 -1.5871  0.8600
 2985SOL    HW220589   0.660   2.702   7.962 -3.1152 -0.8991 -0.1006
 2986SOL     OW20590   4.460   0.943  16.330 -0.0924  0.4050  0.3189
 2986SOL    HW120591   4.397   0.993  16.382 -0.5394  0.2592 -0.0879
 2986SOL    HW220592   4.451   0.985  16.245  1.6352  0.5606  0.2110
 2987SOL     OW20593   2.663   2.160  11.100 -0.1585  0.5169  0.2727
 2987SOL    HW120594   2.707   2.202  11.174  2.1536 -2.3070  0.5071
 2987SOL    HW220595   2.707   2.209  11.031 -0.6872  1.2998  0.4835
 2988SOL     OW20596   0.424   3.555   1.566  0.2736 -0.1754  0.1979
 2988SOL    HW120597   0.433   3.625   1.630 -0.9346 -0.8445  1.1136
 2988SOL    HW220598   0.492   3.575   1.502  0.3519  0.1940  0.3996
 2989SOL     OW20599   3.558   2.197   9.583  0.0352  0.1265 -0.3846
 2989SOL    HW120600   3.550   2.256   9.657  1.2724 -0.4471  0.1915
 2989SOL    HW220601   3.556   2.111   9.625  0.0485  0.3797  0.1304
 2990SOL     OW20602   0.294   4.336   4.679 -0.2459  0.1807 -0.0136
 2990SOL    HW120603   0.246   4.325   4.761 -2.7266 -1.2622 -1.6775
 2990SOL    HW220604   0.384   4.354   4.705 -0.4038  0.9718 -0.0141
 2991SOL     OW20605   1.817   2.283   6.471 -0.0024  0.2528 -0.3322
 2991SOL    HW120606   1.850   2.234   6.395  0.6204 -0.3812  0.3454
 2991SOL    HW220607   1.735   2.240   6.494  0.6891 -2.1602 -2.2856
 2992SOL     OW20608   3.285   3.708   3.037  0.2440  0.2730  0.0134
 2992SOL    HW120609   3.210   3.763   3.011  1.4545  1.6079 -0.6489
 2992SOL    HW220610   3.331   3.677   2.960  2.2239  1.5689  0.6717
 2993SOL     OW20611   2.108   0.968   3.206  0.1966  0.1462  0.5309
 2993SOL    HW120612   2.019   0.956   3.172  0.1248 -0.9361  1.0888
 2993SOL    HW220613   2.085   0.997   3.294  0.9179  0.5233  0.6009
 2994SOL     OW20614   2.020   2.947   3.449 -0.0175 -0.5976 -0.7259
 2994SOL    HW120615   1.968   2.931   3.527 -1.0381 -2.9707 -1.8815
 2994SOL    HW220616   2.107   2.915   3.472 -1.0155 -2.3117  0.6455
 2995SOL     OW20617   2.696   3.310   1.785  0.2145  0.2492 -0.1886
 2995SOL    HW120618   2.613   3.316   1.832 -0.0725 -0.2495 -0.6334
 2995SOL    HW220619   2.714   3.401   1.760 -0.0072  0.6782  1.2064
 2996SOL     OW20620   1.610   3.723   7.020  0.2012  0.2309 -0.0802
 2996SOL    HW120621   1.574   3.809   7.041  0.8782  0.4759  0.0745
 2996SOL    HW220622   1.586   3.718   6.927  0.5303 -0.5776 -0.1214
 2997SOL     OW20623   4.208   2.851  11.960  0.2260  0.8272 -0.0496
 2997SOL    HW120624   4.146   2.867  11.890 -0.7612  0.8703  0.8439
 2997SOL    HW220625   4.169   2.906  12.028 -0.2988 -1.5131  1.5226
 2998SOL     OW20626   0.794   2.191   8.491  0.0124 -0.1575  0.1460
 2998SOL    HW120627   0.716   2.144   8.521  1.4998 -1.8846  1.3170
 2998SOL    HW220628   0.796   2.253   8.565  1.0512 -1.1664  0.9761
 2999SOL     OW20629   3.501   2.869   8.774 -0.0055  0.1929 -0.1729
 2999SOL    HW120630   3.557   2.941   8.802  1.7163 -1.7581  1.4398
 2999SOL    HW220631   3.457   2.852   8.857  0.4906 -1.7480 -0.2883
 3000SOL     OW20632   4.463   1.094   2.147  0.0161 -0.1961 -0.0676
 3000SOL    HW120633   4.502   1.169   2.104 -0.6782 -0.2435 -0.7814
 3000SOL    HW220634   4.524   1.091   2.221  2.4221  0.2120 -2.0473
 3001SOL     OW20635   0.361   2.283   4.194  0.4515  0.0954 -0.0674
 3001SOL    HW120636   0.383   2.370   4.228  0.3296  0.2908 -0.4958
 3001SOL    HW220637   0.429   2.229   4.236 -0.0855  0.1979  0.9242
 3002SOL     OW20638   0.777   4.216   8.402  0.4066  0.3102  0.4745
 3002SOL    HW120639   0.840   4.212   8.330 -1.0241 -1.5881 -0.6748
 3002SOL    HW220640   0.753   4.307   8.386 -0.8475 -0.0331  0.4209
 3003SOL     OW20641   3.079   1.986   4.362 -0.0569 -0.2719  0.0262
 3003SOL    HW120642   2.984   1.991   4.366  0.0949 -0.5563  4.1024
 3003SOL    HW220643   3.096   1.919   4.428  2.2339 -0.8224 -1.1133
 3004SOL     OW20644   4.079   2.442  13.970  0.7099 -0.2803  0.1519
 3004SOL    HW120645   4.153   2.503  13.966  2.3015 -2.1660  0.7722
 3004SOL    HW220646   4.100   2.383  14.042  3.3120 -0.5025 -0.7969
 3005SOL     OW20647   0.551   1.726  12.942  0.0510  0.2140 -0.6242
 3005SOL    HW120648   0.484   1.686  12.996  0.7515 -0.8363 -0.5265
 3005SOL    HW220649   0.510   1.750  12.859 -3.5752 -3.4023  0.1520
 3006SOL     OW20650   0.343   4.653   3.731 -0.4561  0.1232  0.3249
 3006SOL    HW120651   0.349   0.013   3.731  0.4918  0.0602 -1.2735
 3006SOL    HW220652   0.346   4.636   3.825  0.2463  2.1068  0.6800
 3007SOL     OW20653   2.845   2.561   7.732  0.4267 -0.3850  0.1121
 3007SOL    HW120654   2.759   2.593   7.705  0.9640  0.6721 -0.3187
 3007SOL    HW220655   2.832   2.559   7.827  2.2938  1.6888  0.3888
 3008SOL     OW20656   1.905   1.458  13.578 -0.1056  0.6301  0.1414
 3008SOL    HW120657   1.945   1.495  13.657  1.1753 -0.5776  0.0587
 3008SOL    HW220658   1.982   1.433  13.526 -1.3991 -0.5679 -1.1750
 3009SOL     OW20659   1.345   3.619   4.389 -0.5453 -0.3489  0.3398
 3009SOL    HW120660   1.334   3.584   4.477  1.7913  0.3812  0.9414
 3009SOL    HW220661   1.373   3.548   4.330 -0.9543 -0.2689  0.0514
 3010SOL     OW20662   0.323   3.715   2.089 -0.5122  0.5105  0.4235
 3010SOL    HW120663   0.393   3.690   2.148  0.3906  2.6421  0.2581
 3010SOL    HW220664   0.250   3.662   2.121 -0.3366 -0.8568 -1.4634
 3011SOL     OW20665   0.785   1.635   5.092 -0.1791  0.2223  0.2150
 3011SOL    HW120666   0.732   1.573   5.141 -2.5596  1.1258 -1.1862
 3011SOL    HW220667   0.729   1.645   5.015  1.4206  1.1704 -0.8385
 3012SOL     OW20668   4.082   1.849  13.219 -0.4830  0.2719 -0.6305
 3012SOL    HW120669   3.988   1.846  13.199 -0.6752  1.4335  0.0743
 3012SOL    HW220670   4.116   1.850  13.129  3.7007 -0.9835  0.9449
 3013SOL     OW20671   0.040   0.071  17.142 -0.1269  0.0681 -0.0923
 3013SOL    HW120672   0.066   0.063  17.051 -1.6256  0.5280 -0.5590
 3013SOL    HW220673   0.089   0.005  17.191  1.8093 -0.3984 -2.6851
 3014SOL     OW20674   2.324   2.981  16.783  0.1380  0.1085 -0.0736
 3014SOL    HW120675   2.260   2.957  16.850 -1.8805  3.0346 -0.9299
 3014SOL    HW220676   2.305   2.917  16.714 -0.7874 -0.5730  0.8146
 3015SOL     OW20677   4.394   2.988   8.437 -0.4406  0.1655 -0.1829
 3015SOL    HW120678   4.395   2.892   8.436 -1.5332  0.1515  0.3235
 3015SOL    HW220679   4.309   3.005   8.478  0.2023  2.4647  0.2268
 3016SOL     OW20680   1.511   0.546   7.920  0.2675  0.4261  0.4154
 3016SOL    HW120681   1.426   0.505   7.904  1.2174 -1.0517 -0.7869
 3016SOL    HW220682   1.546   0.481   7.981 -1.9810 -0.5253  0.6988
 3017SOL     OW20683   2.620   3.960   2.341 -0.3621  0.6253  0.2642
 3017SOL    HW120684   2.682   3.957   2.269 -0.3459  1.5841  0.2387
 3017SOL    HW220685   2.675   3.924   2.411  0.8448  0.7954 -0.6108
 3018SOL     OW20686   4.242   2.385   5.588  0.4254 -0.0699  0.6748
 3018SOL    HW120687   4.255   2.296   5.556  1.4492  0.0801  0.6654
 3018SOL    HW220688   4.316   2.401   5.648  2.1987 -2.4249 -0.9043
 3019SOL     OW20689   3.291   2.402  14.982 -0.5148 -0.5694  0.7016
 3019SOL    HW120690   3.254   2.456  15.052  0.3317 -0.3957  1.0161
 3019SOL    HW220691   3.377   2.382  15.019  0.3929  0.8134 -0.6406
 3020SOL     OW20692   3.077   3.143   8.235  0.1331  0.6245 -0.1626
 3020SOL    HW120693   3.140   3.133   8.163  2.3351 -0.7119  1.9704
 3020SOL    HW220694   3.100   3.066   8.287  0.8730  1.1436  0.2636
 3021SOL     OW20695   4.000   1.262  12.746 -0.1269  0.3076  0.1186
 3021SOL    HW120696   4.079   1.296  12.703  0.3183  0.9075  1.3998
 3021SOL    HW220697   4.024   1.170  12.757  0.9912  0.4514 -1.1468
 3022SOL     OW20698   1.160   0.769   3.509 -0.5367 -0.2169 -0.8137
 3022SOL    HW120699   1.172   0.681   3.545  1.1134 -0.1387 -1.1826
 3022SOL    HW220700   1.082   0.762   3.454 -0.2478 -1.3278 -1.0953
 3023SOL     OW20701   3.728   2.974   5.969  0.4189 -0.7564 -0.3765
 3023SOL    HW120702   3.690   3.011   6.049  0.2545  0.1208 -0.8601
 3023SOL    HW220703   3.655   2.946   5.915 -0.1926 -2.2372  1.2253
 3024SOL     OW20704   4.726   0.166   1.352  0.4655  0.1210  0.6966
 3024SOL    HW120705   0.071   0.190   1.397  2.5352 -2.5977 -1.5986
 3024SOL    HW220706   0.016   0.195   1.265 -2.5799  0.2828 -0.1701
 3025SOL     OW20707   0.275   2.382   0.924  0.2617 -0.2475  0.0134
 3025SOL    HW120708   0.218   2.448   0.964 -0.1309 -0.7124  0.2212
 3025SOL    HW220709   0.211   2.342   0.866 -1.2661 -0.2585  1.6834
 3026SOL     OW20710   1.106   1.401  15.097  0.0213 -0.0038  0.8855
 3026SOL    HW120711   1.036   1.464  15.080  0.9565  0.3271 -1.7666
 3026SOL    HW220712   1.154   1.444  15.167  0.2985  1.7417 -0.3584
 3027SOL     OW20713   2.807   3.212   5.198  0.2592 -0.9341 -0.4917
 3027SOL    HW120714   2.840   3.123   5.209  1.8456 -0.2001  0.6417
 3027SOL    HW220715   2.877   3.245   5.143  0.1193  3.3220  1.9225
 3028SOL     OW20716   3.842   0.994  11.276  0.0130 -0.3695  0.0670
 3028SOL    HW120717   3.921   0.981  11.330 -0.8426 -1.5920  1.0248
 3028SOL    HW220718   3.784   1.043  11.334  2.1451  0.1048  1.8399
 3029SOL     OW20719   1.656   0.999   6.877 -0.1516  0.0195  0.2364
 3029SOL    HW120720   1.706   0.980   6.799  1.7102 -0.4375  1.5559
 3029SOL    HW220721   1.653   1.095   6.876  1.2638  0.0380 -0.9404
 3030SOL     OW20722   3.993   4.730  12.230 -0.5302 -0.3957  0.1700
 3030SOL    HW120723   3.967   0.080  12.197 -0.0454 -0.5605 -0.6451
 3030SOL    HW220724   4.088   0.000  12.223 -0.5181 -0.5589  0.1797
 3031SOL     OW20725   4.269   2.124  13.354  0.0031 -0.1325  0.9521
 3031SOL    HW120726   4.327   2.069  13.301 -0.8649 -0.5764  0.4662
 3031SOL    HW220727   4.327   2.177  13.410 -1.8350  0.4252  2.3230
 3032SOL     OW20728   2.890   2.772   5.084  0.3424  0.2344 -0.4504
 3032SOL    HW120729   2.854   2.687   5.108 -0.0268 -0.1688 -2.3929
 3032SOL    HW220730   2.980   2.746   5.065  1.0347  0.8719  2.0264
 3033SOL     OW20731   2.175   3.554   2.153  0.3552  0.3569 -0.0621
 3033SOL    HW120732   2.180   3.505   2.235 -2.5627  0.6303  0.2852
 3033SOL    HW220733   2.229   3.631   2.172  1.2728 -0.7725  1.8519
 3034SOL     OW20734   2.083   3.743  15.263 -0.8493 -0.3371  0.2673
 3034SOL    HW120735   2.023   3.815  15.281 -0.3415 -0.4032  2.1705
 3034SOL    HW220736   2.027   3.700  15.198 -0.3506 -0.0852 -0.3280
 3035SOL     OW20737   2.493   3.432   3.169  0.0669 -0.4731 -0.6331
 3035SOL    HW120738   2.511   3.511   3.220 -1.3646 -0.4574 -0.1675
 3035SOL    HW220739   2.473   3.369   3.237 -1.0412 -1.0751 -1.5052
 3036SOL     OW20740   1.693   1.702   6.103 -0.5399 -0.5235 -0.0705
 3036SOL    HW120741   1.745   1.735   6.177  0.1214 -2.4265  0.3236
 3036SOL    HW220742   1.614   1.755   6.099  0.7969  1.5927  1.1719
 3037SOL     OW20743   3.478   4.250   7.388  0.5428  0.2144  0.0138
 3037SOL    HW120744   3.546   4.283   7.446 -0.2800  1.9888 -0.0097
 3037SOL    HW220745   3.528   4.260   7.307 -0.6737  0.6267 -0.6935
 3038SOL     OW20746   3.773   2.125   4.713 -0.5765  0.0732  0.0606
 3038SOL    HW120747   3.707   2.099   4.777 -0.6185  2.1857  0.8638
 3038SOL    HW220748   3.819   2.201   4.749 -0.1759 -0.2660  0.2691
 3039SOL     OW20749   0.306   4.198   9.576 -0.1363  0.2334  0.3644
 3039SOL    HW120750   0.363   4.221   9.502  0.9713 -0.4292  1.0071
 3039SOL    HW220751   0.333   4.108   9.592  0.9794  0.3863 -0.6696
 3040SOL     OW20752   0.821   0.739  12.705  0.1504 -0.2342 -0.5724
 3040SOL    HW120753   0.781   0.792  12.636 -2.4833 -0.5327  0.7027
 3040SOL    HW220754   0.771   0.756  12.785 -0.8232 -0.8899 -1.0413
 3041SOL     OW20755   3.744   2.174   9.132  0.6309  0.1806  0.3415
 3041SOL    HW120756   3.735   2.129   9.048  0.2469  0.7555  0.0752
 3041SOL    HW220757   3.662   2.224   9.135 -1.6774 -3.5987  0.0656
 3042SOL     OW20758   2.758   1.450   7.956 -0.1837  0.1196 -0.6854
 3042SOL    HW120759   2.817   1.481   7.887  0.7525  0.1602  0.1360
 3042SOL    HW220760   2.809   1.486   8.028 -0.0061 -2.0044  0.2381
 3043SOL     OW20761   3.813   1.506   8.356 -0.0203  0.0562  0.0696
 3043SOL    HW120762   3.886   1.552   8.315 -0.1788  0.5338  0.3326
 3043SOL    HW220763   3.858   1.435   8.402  0.6598 -0.0486 -0.7583
 3044SOL     OW20764   3.226   0.781   2.444  0.1584  0.3085 -0.5414
 3044SOL    HW120765   3.218   0.740   2.530 -2.0871  1.6395 -0.1007
 3044SOL    HW220766   3.137   0.815   2.433 -0.3716 -1.1505 -0.7855
 3045SOL     OW20767   1.611   2.379   2.937 -0.2097  0.3466 -0.6720
 3045SOL    HW120768   1.662   2.361   2.858 -0.3635 -0.8047 -0.5102
 3045SOL    HW220769   1.526   2.410   2.905 -1.3547 -1.8016  0.2377
 3046SOL     OW20770   2.653   3.015   6.873  0.0891 -0.5754 -0.2328
 3046SOL    HW120771   2.617   3.096   6.838  2.1772  1.5451  2.5103
 3046SOL    HW220772   2.739   3.045   6.904  0.5385 -2.1792  0.0707
 3047SOL     OW20773   0.663   2.769   2.771  0.0226 -0.2904 -0.4923
 3047SOL    HW120774   0.670   2.717   2.852  2.6629  0.5543 -0.1885
 3047SOL    HW220775   0.658   2.864   2.783  2.7117 -0.2166 -0.0060
 3048SOL     OW20776   3.694   4.585   7.271 -0.1547  0.1738  0.4654
 3048SOL    HW120777   3.652   4.671   7.260  2.9548  1.5218 -0.6152
 3048SOL    HW220778   3.738   4.600   7.355  2.3522 -1.3237 -0.6012
 3049SOL     OW20779   2.714   2.087   8.240 -0.3206 -0.0577 -0.5430
 3049SOL    HW120780   2.764   2.012   8.272 -0.3686  0.6040  1.0978
 3049SOL    HW220781   2.749   2.158   8.293 -2.0225  0.1878  0.2479
 3050SOL     OW20782   3.943   3.985   3.579  0.1094 -0.1847  0.4106
 3050SOL    HW120783   4.010   3.963   3.515 -0.5244 -1.5137  0.2033
 3050SOL    HW220784   3.895   4.030   3.509  2.5295  0.0223 -1.1291
 3051SOL     OW20785   1.283   2.757  17.522 -0.2762 -0.0972  0.0246
 3051SOL    HW120786   1.372   2.773  17.554 -1.0390  0.7887  1.7155
 3051SOL    HW220787   1.247   2.832  17.569  0.3628  0.6123 -0.6153
 3052SOL     OW20788   3.455   4.147   3.877  0.2999  0.6273 -0.0142
 3052SOL    HW120789   3.405   4.072   3.846 -0.2095 -0.1420  2.6807
 3052SOL    HW220790   3.540   4.109   3.898 -0.8159 -0.4562  2.5028
 3053SOL     OW20791   4.189   4.104   9.455  0.4369 -0.1679  0.2085
 3053SOL    HW120792   4.105   4.148   9.439  0.0351  0.0147  2.8305
 3053SOL    HW220793   4.174   4.105   9.549 -0.5982 -1.3780  0.0618
 3054SOL     OW20794   4.041   3.869   2.360  0.1855 -0.4320  0.0682
 3054SOL    HW120795   3.954   3.876   2.399 -0.6532  1.0122 -2.0253
 3054SOL    HW220796   4.045   3.954   2.315  0.8378  1.3579  3.5633
 3055SOL     OW20797   2.911   2.435   6.228 -0.6139  0.2528 -0.5231
 3055SOL    HW120798   2.923   2.375   6.302  0.2176 -1.1987 -1.8352
 3055SOL    HW220799   2.817   2.426   6.216 -0.4243 -1.7213 -0.6353
 3056SOL     OW20800   3.447   1.753  15.655 -0.2178  0.1378 -0.1878
 3056SOL    HW120801   3.357   1.723  15.639 -0.0396 -0.1216 -0.6703
 3056SOL    HW220802   3.493   1.714  15.581 -1.4079  0.0147 -0.8680
 3057SOL     OW20803   3.999   3.723   2.704  0.1338 -0.6132 -0.1798
 3057SOL    HW120804   3.924   3.664   2.699  0.8402 -1.6014  1.1137
 3057SOL    HW220805   3.979   3.790   2.638  1.8160  0.9711  0.9253
 3058SOL     OW20806   2.608   4.102   9.518  0.2365 -0.1088  0.7622
 3058SOL    HW120807   2.631   4.013   9.490 -1.1128  0.1688 -1.2099
 3058SOL    HW220808   2.520   4.104   9.480 -0.0582  3.7222  1.6794
 3059SOL     OW20809   3.877   3.962   1.833 -0.2731 -0.2386  0.6166
 3059SOL    HW120810   3.923   3.963   1.749 -0.4741 -1.5151  0.4977
 3059SOL    HW220811   3.830   3.880   1.847 -0.2955 -0.4416 -0.6756
 3060SOL     OW20812   2.358   2.315   6.385  0.3179  0.3763 -0.0979
 3060SOL    HW120813   2.278   2.281   6.427  0.6805  1.7557  1.6904
 3060SOL    HW220814   2.414   2.237   6.382 -1.0485 -0.5350 -1.7471
 3061SOL     OW20815   1.570   0.372   6.110  0.1069 -0.3299  0.1118
 3061SOL    HW120816   1.548   0.383   6.202 -0.8162  0.2490 -0.1743
 3061SOL    HW220817   1.627   0.295   6.111  1.0295  0.3564  0.2927
 3062SOL     OW20818   4.307   3.112  14.822 -0.1256  0.2821  0.9527
 3062SOL    HW120819   4.390   3.158  14.812  0.8541 -1.6741  0.1567
 3062SOL    HW220820   4.284   3.129  14.914 -1.8109 -1.6953  0.8933
 3063SOL     OW20821   0.473   0.526   5.291  0.0873  0.0185  0.1868
 3063SOL    HW120822   0.541   0.460   5.305  0.9313  1.0866  1.0532
 3063SOL    HW220823   0.483   0.572   5.374  0.7079  0.3018 -0.0455
 3064SOL     OW20824   4.593   1.406   2.483  0.1908  0.3243 -0.0378
 3064SOL    HW120825   4.679   1.375   2.454 -0.0082 -0.8399  0.6360
 3064SOL    HW220826   4.574   1.358   2.563  1.1333 -0.1564 -0.1003
 3065SOL     OW20827   1.854   1.917   5.018  0.1941 -0.1077  0.3123
 3065SOL    HW120828   1.836   1.985   4.953 -0.8111 -0.3804  0.3136
 3065SOL    HW220829   1.950   1.925   5.012  0.4441 -1.6369  2.6045
 3066SOL     OW20830   2.644   2.374  15.200  0.4266  0.2766  0.3025
 3066SOL    HW120831   2.680   2.285  15.194  0.1732  0.3406 -1.9831
 3066SOL    HW220832   2.717   2.430  15.172 -0.1899  1.1439  0.4586
 3067SOL     OW20833   1.497   1.082   2.220 -0.5988 -0.2650 -0.0268
 3067SOL    HW120834   1.545   1.149   2.172 -0.6433  0.0274  0.3372
 3067SOL    HW220835   1.486   1.135   2.299 -0.2395 -0.9189  0.4637
 3068SOL     OW20836   4.536   0.848  14.224  0.1677  0.1059  0.1679
 3068SOL    HW120837   4.628   0.854  14.250 -0.4993  0.9301  2.2706
 3068SOL    HW220838   4.483   0.800  14.287  1.0744  1.0779  1.6627
 3069SOL     OW20839   2.092   1.231   6.138  0.1485 -0.3754 -0.4128
 3069SOL    HW120840   2.166   1.174   6.163 -0.1835 -0.2537  0.8669
 3069SOL    HW220841   2.034   1.164   6.103 -1.7108 -0.4382  2.7803
 3070SOL     OW20842   3.759   0.839   0.509 -0.3834 -0.3167  0.0995
 3070SOL    HW120843   3.761   0.803   0.598  1.2353 -0.1103  0.1428
 3070SOL    HW220844   3.721   0.769   0.457  2.2941  0.2740 -2.6452
 3071SOL     OW20845   1.670   1.723   3.586  0.8483 -0.2364  0.3002
 3071SOL    HW120846   1.628   1.663   3.648  1.9293 -0.8551  0.4278
 3071SOL    HW220847   1.599   1.743   3.524 -0.4559 -1.7226  1.2913
 3072SOL     OW20848   4.367   4.611   3.073 -0.0587  0.1195  0.5191
 3072SOL    HW120849   4.290   4.666   3.058 -1.2274 -2.1109 -1.7314
 3072SOL    HW220850   4.344   4.579   3.160  0.1548 -0.2010  0.4593
 3073SOL     OW20851   3.477   1.299  11.510  0.1642  0.4167 -0.3288
 3073SOL    HW120852   3.388   1.273  11.486  0.1045  0.1481  0.1833
 3073SOL    HW220853   3.502   1.318  11.419 -1.6020 -0.0581 -0.9073
 3074SOL     OW20854   3.421   3.178   2.453  0.0391  0.3808 -0.3908
 3074SOL    HW120855   3.341   3.176   2.400 -0.8950  0.5069  1.0124
 3074SOL    HW220856   3.454   3.088   2.453  1.1881  0.8073 -0.1611
 3075SOL     OW20857   1.821   0.409  16.417 -0.3049 -0.5813 -0.0429
 3075SOL    HW120858   1.755   0.368  16.474 -0.9944  1.4672  0.6264
 3075SOL    HW220859   1.875   0.448  16.486 -0.6670  0.0831 -0.1326
 3076SOL     OW20860   1.509   1.472   6.488  0.4776  0.1022 -0.0365
 3076SOL    HW120861   1.473   1.529   6.421 -2.3912  0.2578  1.6529
 3076SOL    HW220862   1.570   1.528   6.536 -1.2872  2.4046 -0.4856
 3077SOL     OW20863   2.661   0.938   5.669 -0.2818  0.3920 -0.4976
 3077SOL    HW120864   2.588   0.897   5.715  0.8060  0.5912  1.3912
 3077SOL    HW220865   2.719   0.966   5.740 -1.1209  0.5512  0.1141
 3078SOL     OW20866   4.154   1.950  17.204  0.0644  0.0018  0.0052
 3078SOL    HW120867   4.215   1.996  17.147  0.7442 -0.2390  0.5315
 3078SOL    HW220868   4.179   1.993  17.286  1.4392 -0.0509 -0.3894
 3079SOL     OW20869   1.609   2.132   0.236 -0.0278  0.6807  0.0540
 3079SOL    HW120870   1.625   2.037   0.238 -0.1083  0.6915  0.9341
 3079SOL    HW220871   1.521   2.131   0.197 -0.7813  0.6772  1.7690
 3080SOL     OW20872   2.736   0.584   0.235  0.2894  0.0006  0.4590
 3080SOL    HW120873   2.799   0.605   0.303  1.2073  1.0362 -0.7071
 3080SOL    HW220874   2.780   0.612   0.154 -1.2201 -0.1959 -0.4400
 3081SOL     OW20875   3.907   0.451   8.899  0.5236 -0.2892  0.5834
 3081SOL    HW120876   3.936   0.501   8.824 -0.8842  1.4279  1.1907
 3081SOL    HW220877   3.981   0.402   8.935  0.1771  0.2929  2.1116
 3082SOL     OW20878   0.532   3.502   9.793 -0.1833  0.1122  0.0973
 3082SOL    HW120879   0.476   3.540   9.727  0.1475  0.7911  0.2119
 3082SOL    HW220880   0.614   3.499   9.743 -0.8546 -2.9868 -0.8421
 3083SOL     OW20881   0.364   1.425  15.141  0.0412 -0.4357 -0.4933
 3083SOL    HW120882   0.407   1.382  15.067 -0.7309 -0.2340 -1.0491
 3083SOL    HW220883   0.342   1.352  15.199 -0.4287  0.7726  0.8490
 3084SOL     OW20884   3.624   4.450   3.990  0.0779 -0.3385  0.0080
 3084SOL    HW120885   3.637   4.533   3.945 -0.6875  1.0803  2.3876
 3084SOL    HW220886   3.655   4.386   3.926 -1.3832 -0.8386 -0.2115
 3085SOL     OW20887   0.569   2.140   9.357 -0.2611  0.1542 -0.0569
 3085SOL    HW120888   0.503   2.072   9.342  0.6885 -0.5431 -1.0336
 3085SOL    HW220889   0.611   2.148   9.271  2.1483  0.3628  1.1562
 3086SOL     OW20890   1.265   4.166   4.333 -0.4158  0.0872 -0.0718
 3086SOL    HW120891   1.197   4.100   4.320 -0.1626 -0.4454  1.2758
 3086SOL    HW220892   1.325   4.118   4.276  0.3559 -0.7996  1.5003
 3087SOL     OW20893   0.196   4.614   8.686  0.1060  0.0173 -0.0473
 3087SOL    HW120894   0.170   4.667   8.761 -0.2923 -2.0450  1.2811
 3087SOL    HW220895   0.275   4.659   8.659  0.7722 -2.1130 -1.6696
 3088SOL     OW20896   0.604   3.637   1.382 -0.6069 -0.1594  0.2611
 3088SOL    HW120897   0.639   3.582   1.312 -0.9406  0.9893 -0.8002
 3088SOL    HW220898   0.632   3.718   1.341  0.6041 -1.7727 -2.0733
 3089SOL     OW20899   4.400   0.387  11.482  0.3497  0.0321 -0.1828
 3089SOL    HW120900   4.340   0.460  11.473  1.1786  0.6846 -0.4342
 3089SOL    HW220901   4.478   0.430  11.518 -0.5602  0.8699  0.7820
 3090SOL     OW20902   2.989   0.441   6.634  0.7289 -0.3633  0.2127
 3090SOL    HW120903   2.959   0.351   6.622 -0.4431  0.1041 -0.3506
 3090SOL    HW220904   3.057   0.445   6.566 -1.1071 -0.0482 -1.5976
 3091SOL     OW20905   4.462   1.116   3.841  0.0577  0.1387 -0.3348
 3091SOL    HW120906   4.531   1.079   3.787  0.1023  1.6233 -1.2805
 3091SOL    HW220907   4.493   1.206   3.833  0.5283  0.1270  1.2887
 3092SOL     OW20908   3.793   0.195  17.008  0.0364  0.4615 -0.0335
 3092SOL    HW120909   3.806   0.219  17.100 -0.1203  1.4064 -0.2575
 3092SOL    HW220910   3.864   0.240  16.962 -1.8840  0.6117 -2.8878
 3093SOL     OW20911   2.574   2.962  11.623  0.7139  0.0317 -0.3622
 3093SOL    HW120912   2.635   2.992  11.556  1.5152 -0.1304  0.2998
 3093SOL    HW220913   2.625   2.975  11.702 -0.0157  0.5572  0.0256
 3094SOL     OW20914   0.161   0.995   4.262 -0.1857  0.1542  0.3861
 3094SOL    HW120915   0.142   0.904   4.281  0.5292 -0.3604 -1.4006
 3094SOL    HW220916   0.082   1.043   4.287 -1.4545 -1.1201 -1.2088
 3095SOL     OW20917   4.179   1.382   9.044 -0.3034 -0.5053  0.5213
 3095SOL    HW120918   4.193   1.300   8.996  0.0034  0.3117 -0.7923
 3095SOL    HW220919   4.161   1.451   8.980 -0.1001 -0.6970  0.2544
 3096SOL     OW20920   3.190   3.365  11.984  0.0200  0.0864 -0.3469
 3096SOL    HW120921   3.240   3.338  11.907  0.9810  2.3054 -0.4947
 3096SOL    HW220922   3.209   3.459  11.992  0.3570  0.1981 -2.5866
 3097SOL     OW20923   2.011   4.122   3.463  0.0563 -0.3155  0.1290
 3097SOL    HW120924   2.010   4.139   3.557 -3.3263 -1.6078  0.3263
 3097SOL    HW220925   1.961   4.040   3.458  0.7315 -0.6304 -1.3844
 3098SOL     OW20926   3.790   2.333   2.458  0.0479 -0.2028 -0.6263
 3098SOL    HW120927   3.868   2.286   2.428 -0.3279 -0.8407 -0.6164
 3098SOL    HW220928   3.711   2.295   2.421 -0.8242 -0.4005  1.4496
 3099SOL     OW20929   1.443   4.017   2.361 -0.3215 -0.2199  0.1598
 3099SOL    HW120930   1.509   4.050   2.299 -0.3330  1.2336  0.9199
 3099SOL    HW220931   1.364   4.039   2.311  0.5457  3.9377  0.5622
 3100SOL     OW20932   3.859   0.015  10.774 -0.5784 -0.7279  0.2059
 3100SOL    HW120933   3.784   4.707  10.734 -1.1759  0.0092  0.5417
 3100SOL    HW220934   3.829   0.072  10.844 -1.4974  0.2017 -0.9506
 3101SOL     OW20935   0.550   0.898  14.585 -0.4531 -0.3294  0.2824
 3101SOL    HW120936   0.459   0.891  14.556 -0.4821 -1.6439  0.6573
 3101SOL    HW220937   0.580   0.956  14.515 -2.6118  0.7201  0.2136
 3102SOL     OW20938   4.469   1.517   4.233 -0.3519  0.0463  0.6286
 3102SOL    HW120939   4.470   1.441   4.175 -0.0035  1.1319 -0.7726
 3102SOL    HW220940   4.554   1.516   4.277  0.8897  0.0136 -1.7808
 3103SOL     OW20941   3.646   0.643   8.317 -0.2710  0.5690 -0.1369
 3103SOL    HW120942   3.720   0.655   8.376 -0.4583  1.4043 -0.0725
 3103SOL    HW220943   3.696   0.628   8.236 -1.1780 -1.3835 -0.3278
 3104SOL     OW20944   1.623   3.141  13.884 -0.5584 -0.1958 -0.0923
 3104SOL    HW120945   1.663   3.227  13.896  0.4336 -0.9741  2.1737
 3104SOL    HW220946   1.587   3.148  13.795 -3.4021  1.9829  1.2352
 3105SOL     OW20947   2.396   2.722   0.435  0.2636 -0.0596 -0.1587
 3105SOL    HW120948   2.325   2.701   0.375  2.8082 -0.2787 -3.1023
 3105SOL    HW220949   2.360   2.717   0.524 -0.9241 -0.4187 -0.6700
 3106SOL     OW20950   0.919   1.582  15.080  0.8182 -0.7162 -0.1590
 3106SOL    HW120951   0.867   1.594  15.159  0.1442  0.3947 -0.7815
 3106SOL    HW220952   0.849   1.578  15.015  0.2899 -2.7136  0.5167
 3107SOL     OW20953   3.470   0.041  12.817  0.2923 -0.3386 -0.2235
 3107SOL    HW120954   3.498   0.091  12.740 -1.8035  0.4642 -0.4665
 3107SOL    HW220955   3.443   0.115  12.871  0.2938 -0.6835  0.2417
 3108SOL     OW20956   0.780   1.582   3.531  0.3691 -0.2207 -0.1379
 3108SOL    HW120957   0.788   1.502   3.584  0.6850  0.7322  1.2469
 3108SOL    HW220958   0.862   1.631   3.543 -0.4634  1.7982 -2.6922
 3109SOL     OW20959   4.324   3.695   6.995  0.2057  0.2084  0.0679
 3109SOL    HW120960   4.255   3.649   7.042  2.0226 -1.9523  0.6245
 3109SOL    HW220961   4.384   3.719   7.066 -0.3964  0.2315  0.5621
 3110SOL     OW20962   2.532   2.878  15.945 -0.3659  0.4558  0.4978
 3110SOL    HW120963   2.502   2.795  15.907 -1.5108  1.9235 -1.8135
 3110SOL    HW220964   2.598   2.839  16.002 -0.5549 -2.5232 -1.2803
 3111SOL     OW20965   1.727   4.265   4.162 -0.2100  0.6244 -0.0000
 3111SOL    HW120966   1.784   4.334   4.198  1.7970 -2.0028  1.8528
 3111SOL    HW220967   1.795   4.198   4.152  0.2496  1.0423  0.3431
 3112SOL     OW20968   0.737   4.216   8.027 -0.1963  0.7702 -0.2976
 3112SOL    HW120969   0.664   4.276   8.039 -0.7336 -0.5595  3.1310
 3112SOL    HW220970   0.691   4.133   8.014 -0.9750  1.3370 -1.1174
 3113SOL     OW20971   4.653   3.371  11.552  0.1682  0.2271 -0.3127
 3113SOL    HW120972   4.714   3.300  11.571  0.5006  0.8391  0.9389
 3113SOL    HW220973   4.614   3.385  11.639  0.7656 -1.2035  0.1880
 3114SOL     OW20974   1.927   1.255   7.132  0.2246 -0.2944  0.2927
 3114SOL    HW120975   1.951   1.346   7.148 -0.0094 -0.4711  1.5819
 3114SOL    HW220976   1.904   1.265   7.040 -0.4109 -1.4082  0.3360
 3115SOL     OW20977   3.629   0.614   4.764  0.0452  0.1567 -0.3177
 3115SOL    HW120978   3.698   0.580   4.706  0.8755  0.5004  0.4657
 3115SOL    HW220979   3.635   0.707   4.745 -0.9536  0.0222 -1.2517
 3116SOL     OW20980   3.642   0.096   6.316 -0.5282  0.0122  0.0434
 3116SOL    HW120981   3.661   0.011   6.278  2.8422  0.2691  1.1170
 3116SOL    HW220982   3.721   0.145   6.291 -0.2156 -1.2762 -1.4767
 3117SOL     OW20983   1.114   0.148   5.976 -0.4418  0.1979  0.0404
 3117SOL    HW120984   1.184   0.086   5.956 -1.0959 -0.1367 -1.1853
 3117SOL    HW220985   1.145   0.180   6.061 -1.1439  2.7062 -0.6444
 3118SOL     OW20986   4.365   3.191   3.685  0.1654  0.3088 -0.3081
 3118SOL    HW120987   4.358   3.282   3.656  1.2093  0.5891  0.3170
 3118SOL    HW220988   4.274   3.163   3.673  0.5537 -1.1253  0.1162
 3119SOL     OW20989   2.815   3.307  12.110 -0.6122  0.3277 -0.0371
 3119SOL    HW120990   2.739   3.352  12.147 -0.2711  0.1197  0.9319
 3119SOL    HW220991   2.892   3.351  12.147  0.2496 -0.7451 -0.5619
 3120SOL     OW20992   4.543   2.789   6.533 -0.0688  0.1154  0.3198
 3120SOL    HW120993   4.591   2.849   6.474 -0.5448  3.1098  2.9729
 3120SOL    HW220994   4.498   2.866   6.569 -0.4233 -0.0177  0.1529
 3121SOL     OW20995   2.788   1.152   6.527 -0.2438 -0.3524 -0.0496
 3121SOL    HW120996   2.878   1.149   6.560 -0.6809 -0.5805  1.1197
 3121SOL    HW220997   2.790   1.087   6.458  0.7524 -1.3352  0.8881
 3122SOL     OW20998   0.003   2.565   1.499 -0.0986  0.3494 -0.0654
 3122SOL    HW120999   0.044   2.609   1.424 -0.3222  0.2028 -0.2736
 3122SOL    HW221000   0.081   2.564   1.554 -0.2279  0.3189  0.1197
 3123SOL     OW21001   3.060   2.041   4.056 -0.6375 -0.5778  0.0610
 3123SOL    HW121002   2.992   1.976   4.075 -0.0969 -1.5553 -1.3487
 3123SOL    HW221003   3.103   2.050   4.141 -0.6131 -2.2757  0.2362
 3124SOL     OW21004   4.486   1.958   2.136 -0.3347 -0.0610  0.0998
 3124SOL    HW121005   4.429   1.980   2.209  0.2196  2.1296 -0.1278
 3124SOL    HW221006   4.573   1.945   2.174  1.3456  1.8002 -3.0606
 3125SOL     OW21007   2.727   0.076   0.383 -0.2837  0.1226  0.1560
 3125SOL    HW121008   2.745   4.735   0.436 -0.6858 -0.2284 -0.2147
 3125SOL    HW221009   2.814   0.097   0.349  1.1718 -2.5718  2.2215
 3126SOL     OW21010   2.976   1.749   3.145 -0.3016  0.6024 -0.2248
 3126SOL    HW121011   2.923   1.769   3.223  1.0288  3.0704  0.0642
 3126SOL    HW221012   3.033   1.826   3.154 -0.7200  0.8466  0.3489
 3127SOL     OW21013   1.472   1.664   8.135 -0.0547 -0.3131  0.1749
 3127SOL    HW121014   1.437   1.671   8.045  0.4389 -0.1480 -0.0025
 3127SOL    HW221015   1.464   1.756   8.160 -0.1419 -0.2860  0.0511
 3128SOL     OW21016   0.169   3.591   5.237 -0.1116 -0.8011 -0.3001
 3128SOL    HW121017   0.219   3.511   5.254 -1.6855 -1.1360  2.8560
 3128SOL    HW221018   0.121   3.581   5.155  1.4062  0.2457 -1.3146
 3129SOL     OW21019   3.458   1.308   8.361 -0.1967  0.0553 -0.0098
 3129SOL    HW121020   3.431   1.369   8.293 -0.6259 -1.8348 -1.5390
 3129SOL    HW221021   3.530   1.266   8.315 -0.6068 -0.3653 -0.2770
 3130SOL     OW21022   2.526   0.557   6.590  0.2296  0.1404 -0.3157
 3130SOL    HW121023   2.549   0.464   6.583 -0.7294 -0.1707  0.6314
 3130SOL    HW221024   2.555   0.564   6.681 -2.8202 -1.6772  0.8196
 3131SOL     OW21025   4.519   1.536   2.116  0.2721 -0.5550 -0.0082
 3131SOL    HW121026   4.443   1.543   2.174  1.2279 -0.6591  1.2498
 3131SOL    HW221027   4.509   1.608   2.053 -1.8204 -0.4632  0.4186
 3132SOL     OW21028   1.855   2.231  14.218 -0.1089 -0.7221  0.1466
 3132SOL    HW121029   1.831   2.321  14.239 -0.2681 -0.2580 -2.0113
 3132SOL    HW221030   1.840   2.242  14.124  0.5520  2.1305  0.3520
 3133SOL     OW21031   2.058   1.721   8.779  0.0066 -0.7132 -0.0004
 3133SOL    HW121032   1.972   1.722   8.822  0.7411 -0.5398  1.4551
 3133SOL    HW221033   2.114   1.744   8.854 -1.3685 -0.2858  0.9026
 3134SOL     OW21034   2.194   3.215   2.787 -0.5385 -0.5453 -0.1957
 3134SOL    HW121035   2.247   3.291   2.812 -1.8141 -0.2294  1.5267
 3134SOL    HW221036   2.264   3.154   2.810  1.2173  1.5868  0.1127
 3135SOL     OW21037   4.584   3.077   6.149  0.0287 -0.2846 -0.0036
 3135SOL    HW121038   4.651   3.142   6.130 -0.1172 -0.7209 -1.9521
 3135SOL    HW221039   4.508   3.132   6.169  0.0737 -0.4201  0.5551
 3136SOL     OW21040   4.455   3.708   5.313 -0.3204  0.0303  0.1968
 3136SOL    HW121041   4.455   3.708   5.409  0.4417 -0.0377  0.1953
 3136SOL    HW221042   4.479   3.800   5.310 -0.0555 -0.0480 -0.1701
 3137SOL     OW21043   0.843   2.974   5.780  0.1949 -0.0156  0.2631
 3137SOL    HW121044   0.832   3.028   5.858 -0.1436  1.6810 -0.9695
 3137SOL    HW221045   0.927   3.000   5.745  0.3380 -1.4409 -0.4480
 3138SOL     OW21046   0.881   1.991   5.536 -0.1953  0.3364  0.3412
 3138SOL    HW121047   0.801   1.954   5.573  0.6666 -0.8203  1.0657
 3138SOL    HW221048   0.949   1.947   5.588  1.2243 -1.3999 -3.0167
 3139SOL     OW21049   4.573   1.509  14.318  0.0524 -0.1167  0.1122
 3139SOL    HW121050   4.542   1.424  14.289 -1.7651 -0.3406  2.7561
 3139SOL    HW221051   4.639   1.490  14.384 -2.4295 -1.0198  2.3109
 3140SOL     OW21052   0.679   1.694   8.964  0.0798  0.1815  0.6898
 3140SOL    HW121053   0.649   1.607   8.989  3.0582 -1.0208  0.1220
 3140SOL    HW221054   0.626   1.745   9.025 -1.6290 -0.7186 -0.0534
 3141SOL     OW21055   1.218   4.419   9.345 -0.5852 -0.2044  0.9589
 3141SOL    HW121056   1.305   4.431   9.307 -0.5569  0.1130  1.1215
 3141SOL    HW221057   1.181   4.507   9.348 -2.3194 -0.9149  0.0706
 3142SOL     OW21058   3.447   1.767   2.297 -0.1676  0.4606 -0.2815
 3142SOL    HW121059   3.460   1.693   2.236  1.4322 -0.1578  0.8043
 3142SOL    HW221060   3.519   1.819   2.261  1.3077 -0.4923  1.2926
 3143SOL     OW21061   2.289   2.036   3.483  0.2596 -0.2491  0.2449
 3143SOL    HW121062   2.209   2.083   3.461  0.4282 -0.0550  0.0413
 3143SOL    HW221063   2.347   2.059   3.410  0.5192 -2.1953 -0.1635
 3144SOL     OW21064   3.417   3.809   2.102 -0.1740 -0.9098 -0.5232
 3144SOL    HW121065   3.332   3.774   2.129 -0.5272  2.2843  2.4861
 3144SOL    HW221066   3.406   3.904   2.105  0.0986 -0.9680  1.8792
 3145SOL     OW21067   0.551   2.421   0.310  0.4325 -0.1880 -0.2133
 3145SOL    HW121068   0.639   2.412   0.344  0.4283 -0.0806 -0.1733
 3145SOL    HW221069   0.558   2.425   0.215 -1.4608  1.7297 -0.2892
 3146SOL     OW21070   2.188   0.520  14.120 -0.3688 -0.4365  0.1100
 3146SOL    HW121071   2.279   0.547  14.133 -0.2021 -1.4695  1.1724
 3146SOL    HW221072   2.188   0.466  14.041  2.4927  0.4788 -0.5037
 3147SOL     OW21073   4.076   0.150  12.846  0.3758  0.5527  0.3184
 3147SOL    HW121074   4.005   0.086  12.852  2.0091 -1.0826  2.0156
 3147SOL    HW221075   4.014   0.222  12.839  1.0938  1.1681  0.2715
 3148SOL     OW21076   3.855   0.109   7.104 -0.0848 -0.2367  0.2844
 3148SOL    HW121077   3.780   0.164   7.082 -0.5665 -0.8074  0.5174
 3148SOL    HW221078   3.839   0.037   7.044 -1.2630 -0.1113  0.4538
 3149SOL     OW21079   1.352   3.430  15.015 -0.4284 -0.2442  0.2533
 3149SOL    HW121080   1.303   3.350  15.000  0.3682 -0.7507  0.3513
 3149SOL    HW221081   1.298   3.493  14.968 -0.8733 -0.3501  0.6235
 3150SOL     OW21082   0.773   4.570   5.792  0.1565  0.7065  0.7724
 3150SOL    HW121083   0.791   4.622   5.870 -0.7676 -0.9100  2.0793
 3150SOL    HW221084   0.840   4.606   5.735  0.4903 -0.9636  0.1025
 3151SOL     OW21085   1.831   1.994  16.605  0.5947 -0.3465 -0.3838
 3151SOL    HW121086   1.762   1.928  16.608 -0.9238  1.3386  2.5750
 3151SOL    HW221087   1.834   2.014  16.699  1.7248  2.1914 -0.9429
 3152SOL     OW21088   2.052   3.662   5.989 -0.0843  0.3490  0.0518
 3152SOL    HW121089   2.139   3.697   6.005 -0.4370  1.9013 -1.3999
 3152SOL    HW221090   2.004   3.695   6.065  1.0207  0.6396  0.6186
 3153SOL     OW21091   1.998   1.095   7.732  0.1087  0.2759  0.3110
 3153SOL    HW121092   1.958   1.015   7.699 -2.0382  1.7349 -0.5702
 3153SOL    HW221093   2.024   1.137   7.650 -0.2398 -0.4188 -0.1585
 3154SOL     OW21094   4.443   1.940   9.275  0.7586  0.2317 -0.0186
 3154SOL    HW121095   4.427   1.949   9.181  2.3821  2.0471 -0.1181
 3154SOL    HW221096   4.409   1.851   9.285  2.4658 -0.2234  1.6965
 3155SOL     OW21097   1.308   3.029   3.032  0.3810  0.2006 -0.0312
 3155SOL    HW121098   1.290   3.110   3.080  2.7723  0.0784  1.0650
 3155SOL    HW221099   1.401   3.032   3.011  0.8118 -2.2708  1.3969
 3156SOL     OW21100   3.853   2.677   2.756  0.6787  0.3424 -0.1711
 3156SOL    HW121101   3.943   2.709   2.751  0.2430  1.7407  0.6891
 3156SOL    HW221102   3.829   2.712   2.842  1.4487  2.5842 -0.8576
 3157SOL     OW21103   2.708   3.347  16.278 -0.5610 -0.5051 -0.0341
 3157SOL    HW121104   2.719   3.287  16.352 -0.9464  2.6242  2.5293
 3157SOL    HW221105   2.746   3.297  16.205 -2.0785 -0.2987 -0.9734
 3158SOL     OW21106   2.038   3.368   8.418  0.5346 -0.1825  0.3652
 3158SOL    HW121107   2.111   3.366   8.481  1.4230  1.2556 -0.6121
 3158SOL    HW221108   1.972   3.330   8.476 -1.4683  0.7985 -1.2785
 3159SOL     OW21109   0.806   4.136   1.939  0.3093  0.2831  0.7775
 3159SOL    HW121110   0.820   4.043   1.959  0.1830  0.1036  0.0187
 3159SOL    HW221111   0.813   4.175   2.026 -1.7152  0.5388  0.8415
 3160SOL     OW21112   1.088   3.162   6.643  0.1076  0.2017  0.5226
 3160SOL    HW121113   1.027   3.187   6.712 -0.0892 -0.5222  0.6185
 3160SOL    HW221114   1.055   3.210   6.567 -0.6351 -0.6108  0.3324
 3161SOL     OW21115   3.284   2.196   2.903 -0.6091 -0.4802 -0.3135
 3161SOL    HW121116   3.228   2.126   2.935  0.7901 -1.2704  0.3982
 3161SOL    HW221117   3.365   2.145   2.901 -0.3457 -0.0509 -0.5517
 3162SOL     OW21118   4.068   0.799  11.766  0.3860  0.3800  0.2396
 3162SOL    HW121119   4.069   0.739  11.840  0.7551 -1.1483 -1.0021
 3162SOL    HW221120   4.141   0.854  11.795  0.3904  0.9378 -0.8162
 3163SOL     OW21121   1.044   0.535  13.966  0.4913 -0.3785 -0.3360
 3163SOL    HW121122   1.113   0.477  13.999  1.4368  1.5794  1.1142
 3163SOL    HW221123   1.078   0.538  13.877 -0.9085 -0.3399 -0.8735
 3164SOL     OW21124   1.518   2.466  13.959  0.1886  0.4403  0.2977
 3164SOL    HW121125   1.425   2.444  13.966  0.4853 -1.1334 -0.8065
 3164SOL    HW221126   1.546   2.456  13.868  0.5325 -1.3071  0.5897
 3165SOL     OW21127   3.964   3.305   8.103  0.7556  0.6144  0.0375
 3165SOL    HW121128   4.035   3.331   8.045  1.1168  0.1757  0.2854
 3165SOL    HW221129   3.907   3.381   8.115 -1.0262 -0.5435 -1.0624
 3166SOL     OW21130   1.145   2.377   6.796  0.0420  0.8033  0.1658
 3166SOL    HW121131   1.059   2.414   6.778  0.4096  1.1115 -0.9647
 3166SOL    HW221132   1.197   2.422   6.730 -2.5039  1.6275 -1.2746
 3167SOL     OW21133   2.336   4.575   9.729  0.8671 -0.6895 -0.2398
 3167SOL    HW121134   2.250   4.593   9.767  0.4103 -1.4032 -0.9193
 3167SOL    HW221135   2.308   4.631   9.657 -2.4473  0.9007  2.2817
 3168SOL     OW21136   3.031   0.836  12.477  0.2540 -0.1046  0.1921
 3168SOL    HW121137   2.986   0.843  12.393  1.7452 -0.6710 -0.6498
 3168SOL    HW221138   3.076   0.751  12.475 -0.7906 -0.7047  1.1905
 3169SOL     OW21139   3.682   2.120  13.206  0.1473  0.5610  0.0567
 3169SOL    HW121140   3.641   2.038  13.234 -0.3930  0.0228 -2.3119
 3169SOL    HW221141   3.724   2.106  13.121 -0.7578 -1.3472 -0.0736
 3170SOL     OW21142   1.174   3.253   6.954 -0.0218  0.4270  0.3889
 3170SOL    HW121143   1.224   3.308   6.893  1.7101 -0.3874  1.0525
 3170SOL    HW221144   1.093   3.253   6.904  0.5584 -2.1724 -0.5628
 3171SOL     OW21145   0.817   3.263  17.533 -0.4363  0.3924 -0.0696
 3171SOL    HW121146   0.887   3.266  17.468  2.4053 -1.8703  2.8468
 3171SOL    HW221147   0.748   3.218  17.485  2.9387 -1.1811 -3.4112
 3172SOL     OW21148   0.630   2.166   5.246  0.4518  0.2210 -0.6751
 3172SOL    HW121149   0.659   2.219   5.172 -0.3239 -1.6636 -2.3022
 3172SOL    HW221150   0.650   2.073   5.241  2.2654  0.5707  0.0946
 3173SOL     OW21151   1.813   4.307   2.799  0.2107 -0.1716 -0.7811
 3173SOL    HW121152   1.896   4.278   2.761  1.7927 -0.5512  2.9479
 3173SOL    HW221153   1.751   4.260   2.743 -1.3967 -1.7649  2.3584
 3174SOL     OW21154   2.909   4.043   9.596 -0.0258  0.2064  0.1831
 3174SOL    HW121155   2.829   4.007   9.636  0.3930 -0.9375 -0.0183
 3174SOL    HW221156   2.887   4.135   9.580  0.6044  0.5806  1.4484
 3175SOL     OW21157   1.165   2.914   6.637  0.4184  0.0687  0.5067
 3175SOL    HW121158   1.131   3.003   6.648 -1.6431 -0.8342  1.4038
 3175SOL    HW221159   1.259   2.931   6.646  0.1785  1.2925  0.6746
 3176SOL     OW21160   1.941   4.699   7.703 -0.0136 -0.0973  0.1715
 3176SOL    HW121161   1.908   4.718   7.615  0.7067 -0.7881 -0.2538
 3176SOL    HW221162   1.869   4.658   7.749  1.0787 -1.2740  0.8117
 3177SOL     OW21163   4.244   2.910   1.007  0.2943 -0.3156  0.0727
 3177SOL    HW121164   4.300   2.872   1.075  0.0204 -0.9926 -0.0821
 3177SOL    HW221165   4.206   2.986   1.051  2.0623 -0.7285  2.3482
 3178SOL     OW21166   0.713   2.336   7.651  0.0912  0.4497  0.5368
 3178SOL    HW121167   0.780   2.357   7.586 -1.0807 -0.7648 -1.0518
 3178SOL    HW221168   0.748   2.258   7.695  1.2535  1.4711  1.4470
 3179SOL     OW21169   1.241   2.343   8.331  0.1005  1.0713 -0.3518
 3179SOL    HW121170   1.257   2.394   8.410  0.9079 -1.0882  0.8781
 3179SOL    HW221171   1.197   2.267   8.367  2.6554 -0.1421  0.2445
 3180SOL     OW21172   1.789   1.095  11.294 -0.0427 -0.1335 -0.2735
 3180SOL    HW121173   1.731   1.170  11.279 -0.3304  0.2747  2.6940
 3180SOL    HW221174   1.787   1.043  11.214  1.0158  0.1014 -0.4519
 3181SOL     OW21175   0.012   2.788   8.170  0.0635  0.0730 -0.0740
 3181SOL    HW121176   4.727   2.718   8.232  0.0467  2.5849  2.7730
 3181SOL    HW221177   4.683   2.854   8.194 -0.7419 -0.9459  0.5581
 3182SOL     OW21178   4.520   1.323   1.287  0.6184 -0.1378 -0.2350
 3182SOL    HW121179   4.569   1.376   1.224  0.1906  1.6959  0.9687
 3182SOL    HW221180   4.557   1.364   1.365  0.6295 -0.2234 -0.1957
 3183SOL     OW21181   4.165   4.709   6.063  0.6429  0.5654  0.2818
 3183SOL    HW121182   4.147   4.626   6.107  2.9002  0.2798  0.6815
 3183SOL    HW221183   4.211   4.699   5.979 -1.0917  0.0942 -0.6097
 3184SOL     OW21184   0.179   0.770   0.800  0.0957  0.3006  0.5472
 3184SOL    HW121185   0.097   0.737   0.765  0.4659 -0.4040  0.3544
 3184SOL    HW221186   0.167   0.764   0.895  0.6387 -0.3612  0.5738
 3185SOL     OW21187   4.660   0.727   2.593  0.0098 -0.2491  0.0944
 3185SOL    HW121188   4.679   0.636   2.570 -0.2676  0.5339 -3.1989
 3185SOL    HW221189   4.576   0.715   2.639  0.6617 -1.5228  0.9630
 3186SOL     OW21190   1.380   0.222   1.550 -0.1942  0.0140  0.6812
 3186SOL    HW121191   1.435   0.202   1.626 -0.0805 -1.5479  0.2063
 3186SOL    HW221192   1.399   0.140   1.503 -2.4821 -0.4214  0.5055
 3187SOL     OW21193   2.294   4.415  17.238 -0.4633  0.6338  0.3291
 3187SOL    HW121194   2.315   4.340  17.182 -1.4175  0.0993  0.6953
 3187SOL    HW221195   2.219   4.382  17.288 -0.6335  0.3526 -0.1042
 3188SOL     OW21196   0.192   3.318   2.881 -0.0282  0.5126 -0.2102
 3188SOL    HW121197   0.173   3.408   2.853  2.2737  1.4963  1.3633
 3188SOL    HW221198   0.287   3.323   2.889  0.0398 -0.6653 -0.3838
 3189SOL     OW21199   2.211   0.241   2.835  0.0002 -0.7765  0.3183
 3189SOL    HW121200   2.280   0.296   2.798  0.7675 -0.6040  1.9972
 3189SOL    HW221201   2.264   0.168   2.865  1.3188 -0.2455 -0.7171
 3190SOL     OW21202   2.032   3.970  17.206  0.0135  0.4990 -0.1027
 3190SOL    HW121203   2.104   4.032  17.202  0.0547  0.5028  0.8539
 3190SOL    HW221204   1.955   4.025  17.221  0.9493  1.6148  0.6079
 3191SOL     OW21205   3.555   4.298   1.871  0.1501  0.1924  0.0242
 3191SOL    HW121206   3.591   4.275   1.956  1.2138 -1.1005 -0.7778
 3191SOL    HW221207   3.541   4.393   1.876  0.3018  0.3760 -2.6300
 3192SOL     OW21208   4.702   4.158   3.278 -0.4130 -0.3540 -0.0872
 3192SOL    HW121209   0.003   4.243   3.253 -1.7845  0.8648  2.1142
 3192SOL    HW221210   4.723   4.117   3.194 -0.5998 -0.0591 -0.2784
 3193SOL     OW21211   2.462   2.195   2.762  0.4306 -0.5975  0.6154
 3193SOL    HW121212   2.549   2.199   2.723 -0.0307  1.3382 -0.2036
 3193SOL    HW221213   2.414   2.250   2.700  1.3599 -0.4390  0.0315
 3194SOL     OW21214   2.144   0.614  12.987 -0.0684 -0.0429 -0.0090
 3194SOL    HW121215   2.144   0.607  12.891 -0.2676 -2.7731  0.1916
 3194SOL    HW221216   2.175   0.705  12.991  2.2175 -0.9462  2.4438
 3195SOL     OW21217   3.885   2.177   2.916 -0.0210  0.1553 -0.3611
 3195SOL    HW121218   3.891   2.170   3.011 -0.5850  1.6668 -0.2102
 3195SOL    HW221219   3.829   2.105   2.890  1.3751 -1.4783  1.1840
 3196SOL     OW21220   4.180   2.066   2.651 -0.1592  0.1192 -0.2107
 3196SOL    HW121221   4.218   2.007   2.716  1.0045  0.2803 -0.7373
 3196SOL    HW221222   4.186   2.147   2.702  2.2050 -0.3841  0.3019
 3197SOL     OW21223   2.980   1.973  14.639 -0.1000 -0.3363 -0.3298
 3197SOL    HW121224   3.050   2.009  14.585  0.0766  1.7875  1.2869
 3197SOL    HW221225   2.909   2.033  14.614  0.8809  1.5134  1.3331
 3198SOL     OW21226   0.691   3.689   2.900 -0.5067  0.1038  0.0992
 3198SOL    HW121227   0.784   3.705   2.883 -0.1922  0.3682  2.1508
 3198SOL    HW221228   0.689   3.605   2.945  1.1700  1.0183  1.8662
 3199SOL     OW21229   4.255   3.468   1.444  0.0668  0.1802 -0.9236
 3199SOL    HW121230   4.253   3.451   1.539  1.5570  3.6903 -0.2409
 3199SOL    HW221231   4.319   3.540   1.438  2.5924 -2.1197 -1.4938
 3200SOL     OW21232   2.408   1.186   7.990 -0.2527  0.1147  0.0208
 3200SOL    HW121233   2.334   1.244   8.007  0.2374  1.4460 -2.3506
 3200SOL    HW221234   2.368   1.104   7.961  2.3184 -0.4867 -1.8378
 3201SOL     OW21235   3.246   0.289  12.527 -0.1906  0.2913  0.1725
 3201SOL    HW121236   3.325   0.238  12.546 -0.2441 -0.0282 -0.4584
 3201SOL    HW221237   3.179   0.220  12.530 -0.9403  1.0661  1.1461
 3202SOL     OW21238   3.113   3.497   8.042  0.4395  0.0155 -0.1361
 3202SOL    HW121239   3.073   3.524   7.960  3.7014  2.0757 -1.0538
 3202SOL    HW221240   3.041   3.498   8.105  1.2422 -3.1855  0.8448
 3203SOL     OW21241   2.729   3.084   7.166  0.2206  0.1389 -0.1658
 3203SOL    HW121242   2.823   3.102   7.167  0.5708 -1.6375 -2.8109
 3203SOL    HW221243   2.694   3.143   7.099  0.6313  3.0994  2.2126
 3204SOL     OW21244   0.502   0.495   1.855 -0.4947  0.3557 -0.2162
 3204SOL    HW121245   0.537   0.545   1.929  0.1374 -1.1340  0.4910
 3204SOL    HW221246   0.420   0.476   1.900  0.2976 -1.1949  0.6022
 3205SOL     OW21247   1.791   0.217   3.364  0.1517  0.3530 -0.7427
 3205SOL    HW121248   1.753   0.130   3.378  0.3441  0.2160 -1.0802
 3205SOL    HW221249   1.719   0.247   3.307 -0.7445  0.6168  0.5313
 3206SOL     OW21250   1.735   4.332  15.609  0.0886 -0.2240  0.2100
 3206SOL    HW121251   1.793   4.406  15.592  0.4887 -0.3484  1.0057
 3206SOL    HW221252   1.650   4.363  15.581  0.6672  0.9925 -0.1899
 3207SOL     OW21253   0.343   3.813   7.698  0.2952  0.9098 -0.2421
 3207SOL    HW121254   0.387   3.759   7.633  1.2894  1.4634 -0.0340
 3207SOL    HW221255   0.412   3.871   7.732 -0.6973  0.4894  2.4353
 3208SOL     OW21256   3.890   4.061   0.857 -0.2967 -0.1957  0.1419
 3208SOL    HW121257   3.929   4.128   0.913 -1.0847 -0.5202  1.0762
 3208SOL    HW221258   3.969   4.013   0.832 -0.9658 -0.3512 -1.6654
 3209SOL     OW21259   0.751   4.594  15.426 -0.2447 -0.2076  0.4690
 3209SOL    HW121260   0.734   4.684  15.452 -1.0581  0.4307 -2.2540
 3209SOL    HW221261   0.796   4.605  15.342  1.2225 -0.2963  1.2408
 3210SOL     OW21262   4.135   1.469   4.592  0.0538 -0.5324  0.0172
 3210SOL    HW121263   4.185   1.441   4.669 -0.9639  2.1195  1.6219
 3210SOL    HW221264   4.189   1.542   4.562 -1.8832 -0.8191 -4.2516
 3211SOL     OW21265   4.270   3.320   7.487 -0.4104 -0.0392 -0.2072
 3211SOL    HW121266   4.327   3.342   7.414 -1.7662  1.5735 -0.7657
 3211SOL    HW221267   4.331   3.346   7.556 -1.1628  1.3778 -0.0975
 3212SOL     OW21268   2.077   3.327   1.697  0.6714  0.1031  0.3862
 3212SOL    HW121269   2.046   3.347   1.786  1.5691  0.6660  0.5770
 3212SOL    HW221270   2.007   3.275   1.658  0.5855  0.1977  0.4163
 3213SOL     OW21271   1.454   1.722   0.331 -0.0410 -0.7003 -0.0435
 3213SOL    HW121272   1.505   1.777   0.271 -0.7372 -0.9106 -0.8323
 3213SOL    HW221273   1.501   1.640   0.317  1.2136  0.3672 -2.0558
 3214SOL     OW21274   1.829   2.060   8.838  0.0640 -0.1987 -0.3894
 3214SOL    HW121275   1.916   2.037   8.870  0.3145 -0.1018 -1.0030
 3214SOL    HW221276   1.783   2.095   8.915  0.1391 -0.7254 -0.1085
 3215SOL     OW21277   2.513   2.796  12.557  0.0119  0.4151  0.1508
 3215SOL    HW121278   2.449   2.741  12.601 -0.4731  1.0442  0.2398
 3215SOL    HW221279   2.499   2.885  12.590  1.8619  1.6237 -2.2175
 3216SOL     OW21280   4.255   1.645  17.106  0.6102  0.4150 -0.2063
 3216SOL    HW121281   4.216   1.723  17.147  2.3679  1.2559 -0.1130
 3216SOL    HW221282   4.245   1.581  17.176  1.9912  0.6904  0.2443
 3217SOL     OW21283   3.918   2.363   1.749 -0.2148  0.9528 -0.3293
 3217SOL    HW121284   3.918   2.363   1.653 -3.6146  0.3663 -0.3296
 3217SOL    HW221285   3.882   2.278   1.773 -0.1966  0.5637 -1.6701
 3218SOL     OW21286   1.078   1.910   4.391 -0.2217 -0.3069  0.1903
 3218SOL    HW121287   1.044   1.822   4.408  0.8724 -0.7585  0.0771
 3218SOL    HW221288   1.020   1.963   4.444  1.3276 -0.6284  2.2208
 3219SOL     OW21289   1.378   0.043  13.184  0.0407 -0.6166  0.7660
 3219SOL    HW121290   1.298   0.080  13.221  0.7626  1.7608 -0.0633
 3219SOL    HW221291   1.435   0.106  13.228  0.2805 -0.7433  0.6340
 3220SOL     OW21292   3.052   1.463   3.950 -0.4317  0.1469  0.7812
 3220SOL    HW121293   2.971   1.414   3.959  0.6626 -1.6396  0.8775
 3220SOL    HW221294   3.057   1.524   4.024  0.3506 -0.1200  0.9473
 3221SOL     OW21295   1.404   1.965  16.646  0.3020 -0.3544 -0.3462
 3221SOL    HW121296   1.398   1.912  16.567 -2.9204 -1.8315  0.8579
 3221SOL    HW221297   1.460   1.909  16.701  0.4768  0.8683  0.7198
 3222SOL     OW21298   0.203   2.258  14.038  0.1492  0.4839 -0.5207
 3222SOL    HW121299   0.141   2.195  14.003  0.9597 -0.4039 -0.3435
 3222SOL    HW221300   0.229   2.216  14.120  2.1197 -1.7030 -2.2737
 3223SOL     OW21301   1.338   2.729   6.288  0.5782  0.0264 -0.2632
 3223SOL    HW121302   1.380   2.650   6.252 -1.5223 -1.5902  0.8303
 3223SOL    HW221303   1.271   2.687   6.342  0.7944  0.7068  0.5327
 3224SOL     OW21304   0.238   0.394   4.780 -0.0402  0.0431  0.3083
 3224SOL    HW121305   0.322   0.426   4.814  2.2710 -2.8947 -2.6147
 3224SOL    HW221306   0.186   0.472   4.800  0.2162  0.3269 -0.1308
 3225SOL     OW21307   1.950   0.873   5.223 -0.3255  0.0552  0.2505
 3225SOL    HW121308   2.001   0.803   5.182 -0.4044  0.3343 -0.3254
 3225SOL    HW221309   1.944   0.926   5.143  0.9384  0.9697  0.7771
 3226SOL     OW21310   0.168   0.194  15.446  0.9395 -0.0379 -0.2259
 3226SOL    HW121311   0.091   0.172  15.393 -0.3450 -0.5682  1.8628
 3226SOL    HW221312   0.199   0.271  15.398  1.6958 -1.0385 -1.3401
 3227SOL     OW21313   1.133   4.207   8.822  0.1199  0.1418  0.4981
 3227SOL    HW121314   1.212   4.251   8.791  0.7538 -0.0262  1.8878
 3227SOL    HW221315   1.080   4.223   8.743  0.6343 -0.0044  0.1274
 3228SOL     OW21316   3.237   3.694   2.387 -0.0279  0.1368  0.9100
 3228SOL    HW121317   3.296   3.624   2.361 -0.4499 -0.4132  1.4138
 3228SOL    HW221318   3.155   3.644   2.387 -0.8659  1.4765 -0.3290
 3229SOL     OW21319   3.926   0.252   4.422  0.3069 -0.7192 -0.4743
 3229SOL    HW121320   4.013   0.292   4.425 -0.7350  1.3989  1.3725
 3229SOL    HW221321   3.953   0.189   4.489  0.4708  0.0845  0.2153
 3230SOL     OW21322   0.806   3.659   1.925  0.0145  0.0329 -0.1981
 3230SOL    HW121323   0.872   3.596   1.897  0.4829  1.4267 -2.2600
 3230SOL    HW221324   0.750   3.590   1.961 -0.4113  0.3644 -0.2205
 3231SOL     OW21325   2.293   3.637   7.116  0.2811  0.3252  0.0195
 3231SOL    HW121326   2.209   3.637   7.070  0.0176 -0.8429  0.4964
 3231SOL    HW221327   2.338   3.713   7.078  2.2328 -0.6079  0.5050
 3232SOL     OW21328   3.482   3.834   4.637  0.5069  0.2896 -0.2133
 3232SOL    HW121329   3.390   3.836   4.665  0.6488 -2.4696  0.4910
 3232SOL    HW221330   3.473   3.746   4.600  5.1279 -0.4121  0.4101
 3233SOL     OW21331   3.364   2.706   2.636  0.1146  0.5871  0.0255
 3233SOL    HW121332   3.430   2.649   2.673 -1.0682 -1.5941 -1.2008
 3233SOL    HW221333   3.397   2.796   2.629 -0.5284  0.7743 -0.6170
 3234SOL     OW21334   2.924   0.202   9.000  0.2841  0.4225  0.4404
 3234SOL    HW121335   2.959   0.269   9.059  2.0336  1.0242 -1.2652
 3234SOL    HW221336   2.895   0.137   9.064 -1.0912  1.4276  0.8214
 3235SOL     OW21337   2.157   3.763   1.068 -0.2968  0.1307  0.3249
 3235SOL    HW121338   2.162   3.689   1.007 -1.0852  0.0077  0.4155
 3235SOL    HW221339   2.247   3.796   1.065  0.0646 -0.7503  1.3410
 3236SOL     OW21340   2.563   3.505  17.733 -0.2356 -0.0787 -0.0151
 3236SOL    HW121341   2.535   3.590   0.022 -1.0322 -0.3066 -0.1121
 3236SOL    HW221342   2.602   3.462   0.067  2.1016 -1.0960 -1.7620
 3237SOL     OW21343   0.989   2.545   4.065 -0.1621  0.3158 -0.6408
 3237SOL    HW121344   0.951   2.511   4.146 -1.4818 -2.8602 -2.6039
 3237SOL    HW221345   1.080   2.552   4.092  0.2040 -0.6490 -1.6525
 3238SOL     OW21346   1.713   1.712  10.536 -0.0838 -0.7458  0.3540
 3238SOL    HW121347   1.637   1.728  10.479  0.4773  1.7206  0.3175
 3238SOL    HW221348   1.675   1.727  10.623 -3.2000 -0.3063 -1.0806
 3239SOL     OW21349   4.346   2.145   3.591  0.0192 -0.3769  0.7077
 3239SOL    HW121350   4.373   2.236   3.605  1.1323 -0.6052  0.0061
 3239SOL    HW221351   4.424   2.114   3.544  0.4582  3.0532 -0.8172
 3240SOL     OW21352   4.622   3.777  16.780  0.1834 -0.3531  0.1171
 3240SOL    HW121353   4.645   3.868  16.800 -0.7374 -0.0749 -0.0534
 3240SOL    HW221354   4.553   3.802  16.718  0.1935 -3.5414 -1.1483
 3241SOL     OW21355   0.066   4.107   4.149 -0.5017  0.0693 -0.3159
 3241SOL    HW121356   0.126   4.058   4.093  0.4790  1.2404 -0.2919
 3241SOL    HW221357   0.080   4.065   4.234  0.0961 -0.6226 -0.7519
 3242SOL     OW21358   2.600   2.929   5.955 -0.2118 -0.5352  0.0748
 3242SOL    HW121359   2.620   2.978   5.875 -1.8395 -0.1468 -0.0834
 3242SOL    HW221360   2.658   2.977   6.014 -0.6986 -1.2731  1.1494
 3243SOL     OW21361   3.108   0.319   9.716  0.3061 -0.3433 -0.2354
 3243SOL    HW121362   3.170   0.389   9.694  1.9976 -1.3816  1.2419
 3243SOL    HW221363   3.098   0.336   9.810  1.5117 -1.3522  0.0744
 3244SOL     OW21364   2.651   0.900   7.522 -0.1859  0.4751  0.4916
 3244SOL    HW121365   2.711   0.859   7.585 -0.6390  0.0495  0.6412
 3244SOL    HW221366   2.608   0.962   7.581 -0.9422  0.4525 -0.0413
 3245SOL     OW21367   3.470   0.121   1.828  0.6652  0.0303 -0.3888
 3245SOL    HW121368   3.494   0.077   1.910  0.2427  0.8296  0.1587
 3245SOL    HW221369   3.505   0.210   1.837 -1.4383  0.8505 -0.4413
 3246SOL     OW21370   0.344   2.304  13.471  0.3196  0.5665  0.0004
 3246SOL    HW121371   0.273   2.294  13.408  0.2746  0.2076  0.1059
 3246SOL    HW221372   0.363   2.397  13.481  1.8213  0.2864 -0.1975
 3247SOL     OW21373   2.049   4.690   3.119 -0.2321  0.4639  0.5524
 3247SOL    HW121374   2.036   4.717   3.028 -1.3977 -1.8114  0.0586
 3247SOL    HW221375   2.125   4.632   3.118 -0.6596 -0.1219  1.9498
 3248SOL     OW21376   3.064   1.012   7.809  0.2987 -0.0878  0.2243
 3248SOL    HW121377   3.047   0.921   7.785  0.0766 -0.6904  2.7006
 3248SOL    HW221378   3.051   1.021   7.903 -1.1188  2.1081 -0.1676
 3249SOL     OW21379   4.226   3.578   0.471  0.8995 -0.0610  0.0466
 3249SOL    HW121380   4.303   3.628   0.444  1.5612 -0.8496  0.4899
 3249SOL    HW221381   4.198   3.548   0.385  0.8169  0.3879 -0.0818
 3250SOL     OW21382   4.193   4.073   9.980  0.3781  0.1282  0.1824
 3250SOL    HW121383   4.281   4.054  10.012  0.2690  0.7839  0.8836
 3250SOL    HW221384   4.151   3.994  10.013 -0.1791 -0.4988 -2.0535
 3251SOL     OW21385   1.329   1.965   1.964  0.3341  0.5832  0.2137
 3251SOL    HW121386   1.416   1.936   1.990 -0.6806 -2.1838  0.4778
 3251SOL    HW221387   1.291   2.015   2.036 -0.2617 -0.0866  0.3621
 3252SOL     OW21388   0.673   3.543  16.296 -0.1276  0.5368 -0.4108
 3252SOL    HW121389   0.665   3.465  16.242 -3.8315 -0.1798  1.1949
 3252SOL    HW221390   0.762   3.568  16.271  0.0320 -0.8754 -1.2640
 3253SOL     OW21391   4.015   1.745  17.322 -0.3098  0.0915  0.7005
 3253SOL    HW121392   4.032   1.832  17.284  0.0166 -0.1477  0.3030
 3253SOL    HW221393   4.045   1.751  17.413  0.3240  0.4138  0.4699
 3254SOL     OW21394   1.117   1.025  12.403 -0.6160 -0.3149  0.1057
 3254SOL    HW121395   1.072   1.017  12.319 -0.0056  1.7949 -0.4331
 3254SOL    HW221396   1.121   1.121  12.407 -2.4922 -0.2709  0.7918
 3255SOL     OW21397   0.689   0.589   7.419 -0.5647  0.3187  0.5989
 3255SOL    HW121398   0.597   0.604   7.438 -1.1017  0.4850 -2.1401
 3255SOL    HW221399   0.693   0.598   7.324  0.8790 -1.6432  0.4564
 3256SOL     OW21400   1.393   2.708   4.245 -0.2151 -0.3410 -0.0008
 3256SOL    HW121401   1.396   2.711   4.341  0.6892 -0.6549 -0.0178
 3256SOL    HW221402   1.326   2.773   4.224  0.2212 -0.0464 -0.4933
 3257SOL     OW21403   2.646   2.497  16.038  0.0744  0.1065  0.2946
 3257SOL    HW121404   2.577   2.558  16.009  0.9811  1.5492  1.1507
 3257SOL    HW221405   2.725   2.532  15.996 -1.1776  0.0952 -2.0826
 3258SOL     OW21406   2.390   4.730   6.312  0.1840 -0.1519  0.4473
 3258SOL    HW121407   2.342   4.729   6.395  1.5032 -1.6816  1.1903
 3258SOL    HW221408   2.326   4.693   6.252  0.7167  1.4054 -1.0777
 3259SOL     OW21409   2.281   3.137   3.110 -0.7922  0.1219 -0.2523
 3259SOL    HW121410   2.229   3.207   3.149 -1.9071 -0.3333 -0.9385
 3259SOL    HW221411   2.303   3.164   3.021 -0.7519  0.9855  0.0205
 3260SOL     OW21412   3.235   3.751   1.845  0.2429 -0.7863 -0.3902
 3260SOL    HW121413   3.312   3.805   1.865 -0.9608  0.9790 -0.5644
 3260SOL    HW221414   3.161   3.801   1.879 -0.2507 -1.4645 -0.4892
 3261SOL     OW21415   1.984   0.728   4.662  0.2501 -0.2847  0.0299
 3261SOL    HW121416   1.961   0.722   4.569 -2.6301  1.0968  0.6680
 3261SOL    HW221417   1.903   0.693   4.699  0.1535 -0.6015 -0.4774
 3262SOL     OW21418   2.329   4.491   4.328 -0.1118  0.7268  0.2771
 3262SOL    HW121419   2.424   4.501   4.320 -0.0773 -2.1950 -2.8259
 3262SOL    HW221420   2.304   4.519   4.240  0.5365  0.8957  0.1436
 3263SOL     OW21421   1.420   0.030   9.708 -0.2669 -0.2954  0.4041
 3263SOL    HW121422   1.496   0.070   9.665 -0.0511 -0.6251  0.4794
 3263SOL    HW221423   1.466   4.685   9.731  0.2876 -0.2879 -0.6340
 3264SOL     OW21424   1.743   3.114   8.257  0.3971 -0.3708 -0.7142
 3264SOL    HW121425   1.769   3.109   8.165 -3.1490 -2.7412 -1.5506
 3264SOL    HW221426   1.689   3.193   8.257  0.8907 -0.0197  1.6182
 3265SOL     OW21427   1.595   4.610  11.798 -0.0265  0.4491  0.4488
 3265SOL    HW121428   1.538   4.679  11.764 -1.6441 -0.2841  1.6476
 3265SOL    HW221429   1.674   4.657  11.825  0.0859  0.4345  0.1353
 3266SOL     OW21430   0.539   3.601   7.224  0.1454  0.5148 -0.2392
 3266SOL    HW121431   0.611   3.545   7.253 -0.2398  0.9110  1.5184
 3266SOL    HW221432   0.592   3.672   7.189 -0.5688  0.9102 -0.5054
 3267SOL     OW21433   2.276   0.056   7.958 -0.5882  0.0216 -0.4027
 3267SOL    HW121434   2.191   0.039   7.999  0.3404  0.0370  1.5277
 3267SOL    HW221435   2.228   0.075   7.877 -2.1788  0.2076  0.5952
 3268SOL     OW21436   2.038   2.846   6.313 -0.0420 -0.6060  0.1070
 3268SOL    HW121437   2.008   2.769   6.362 -1.4633  0.3925  0.8028
 3268SOL    HW221438   2.096   2.797   6.255 -1.0969  1.0902 -2.3874
 3269SOL     OW21439   2.642   4.131   7.730 -0.0239 -0.1544 -0.2448
 3269SOL    HW121440   2.555   4.102   7.756 -1.2149  1.8488 -2.0511
 3269SOL    HW221441   2.642   4.226   7.737  1.1042 -0.2396  0.9697
 3270SOL     OW21442   2.737   0.311  12.764 -0.8467 -0.1788 -0.0253
 3270SOL    HW121443   2.806   0.255  12.797  0.3888  2.2004  1.3822
 3270SOL    HW221444   2.677   0.327  12.837  0.6420  1.6252  0.8023
 3271SOL     OW21445   4.632   4.244   6.434  0.4122 -0.2207 -0.3003
 3271SOL    HW121446   4.618   4.158   6.474  0.4597 -0.6867 -1.2662
 3271SOL    HW221447   4.632   4.231   6.339 -3.1879 -0.1880 -0.2761
 3272SOL     OW21448   4.359   1.681   8.639  0.6330  0.1519 -0.1185
 3272SOL    HW121449   4.384   1.768   8.609 -1.5547  0.1021 -2.0720
 3272SOL    HW221450   4.316   1.703   8.722  2.5410  4.0388 -0.1978
 3273SOL     OW21451   4.664   1.949  15.622 -0.3815 -0.0401 -0.2941
 3273SOL    HW121452   4.607   1.887  15.577 -0.7923  0.3237 -0.2870
 3273SOL    HW221453   4.681   1.913  15.708  1.2942 -1.2976 -1.1705
 3274SOL     OW21454   0.043   2.363  14.464  0.1173 -0.3062 -0.3727
 3274SOL    HW121455   0.031   2.399  14.552  0.2444  0.5027 -0.6829
 3274SOL    HW221456   0.106   2.292  14.479  0.9610  0.4517 -0.3058
 3275SOL     OW21457   1.241   3.064   2.045 -0.6616  0.0459  0.0855
 3275SOL    HW121458   1.201   3.020   1.970 -1.2867  1.7619 -0.5749
 3275SOL    HW221459   1.288   2.995   2.092 -0.0116 -0.1405 -0.8546
 3276SOL     OW21460   3.357   4.569  15.344  0.0364 -0.4615  0.6960
 3276SOL    HW121461   3.422   4.634  15.317  0.2573 -0.7831  0.4585
 3276SOL    HW221462   3.401   4.493  15.307 -0.2625  0.1086 -0.8342
 3277SOL     OW21463   0.919   4.418   7.135  0.1794  0.1253 -0.4294
 3277SOL    HW121464   0.841   4.458   7.098 -0.7652 -1.7963 -0.5057
 3277SOL    HW221465   0.885   4.382   7.217 -0.5336 -0.2653 -0.9053
 3278SOL     OW21466   2.466   4.602   7.866 -0.6702  0.1107 -0.1093
 3278SOL    HW121467   2.402   4.587   7.796 -1.3344  1.9630  0.1206
 3278SOL    HW221468   2.416   4.654   7.928 -0.2712 -0.1201  0.4071
 3279SOL     OW21469   3.739   0.945   3.497 -0.8094  0.0629  0.1586
 3279SOL    HW121470   3.652   0.969   3.527 -1.2732 -2.4391  0.8328
 3279SOL    HW221471   3.778   1.032   3.484  2.8684 -1.6894 -0.6189
 3280SOL     OW21472   2.734   4.176   0.642 -0.0131  0.4632  0.0100
 3280SOL    HW121473   2.772   4.137   0.721 -1.7875 -1.2234  0.0254
 3280SOL    HW221474   2.753   4.269   0.658  0.4159  1.0483 -3.8781
 3281SOL     OW21475   1.359   0.679   0.059 -0.5796 -0.1517 -0.5961
 3281SOL    HW121476   1.377   0.763   0.103 -1.9719 -0.7881  1.1756
 3281SOL    HW221477   1.419   0.681  17.727  2.4256  2.2294  1.8533
 3282SOL     OW21478   2.772   3.293   6.942  0.1681 -0.7680 -0.0924
 3282SOL    HW121479   2.793   3.350   6.868 -1.4550  0.3784  0.3419
 3282SOL    HW221480   2.775   3.354   7.016  1.3277 -1.3896  0.3901
 3283SOL     OW21481   2.024   0.395   6.862  0.3473 -0.5906  0.1093
 3283SOL    HW121482   2.119   0.407   6.856  0.5212 -1.4113  1.2219
 3283SOL    HW221483   2.003   0.426   6.950  2.0592  0.1383  0.2542
 3284SOL     OW21484   3.973   0.000   7.324 -0.1214 -0.3224 -0.0310
 3284SOL    HW121485   4.013   0.084   7.346 -0.6190 -0.1758  0.3319
 3284SOL    HW221486   3.927   0.019   7.242  2.3567 -0.4532 -1.4470
 3285SOL     OW21487   1.392   2.503   3.800 -0.3900 -0.7559  0.5004
 3285SOL    HW121488   1.411   2.411   3.818  0.2927 -0.4914  1.1475
 3285SOL    HW221489   1.329   2.497   3.728 -0.9312  3.2087  0.6491
 3286SOL     OW21490   2.857   2.991   7.614 -0.2510  0.8324 -0.0585
 3286SOL    HW121491   2.937   3.043   7.623  0.1899 -0.0887  1.4213
 3286SOL    HW221492   2.895   2.905   7.596 -2.7004  0.6961 -4.6099
 3287SOL     OW21493   0.850   0.945   6.318 -0.1551 -0.5481  0.6966
 3287SOL    HW121494   0.862   0.965   6.411 -0.2615  3.0576 -0.0555
 3287SOL    HW221495   0.815   0.856   6.318 -1.3516 -0.0890  0.3726
 3288SOL     OW21496   0.016   0.558  16.830 -0.1956 -0.1425 -0.5023
 3288SOL    HW121497   4.678   0.585  16.775  1.8002  1.5525 -2.3683
 3288SOL    HW221498   0.086   0.621  16.810  0.3288 -0.3925  0.5852
 3289SOL     OW21499   0.824   1.226   0.019  0.2707 -0.1479 -0.2181
 3289SOL    HW121500   0.823   1.265  17.674  0.1796 -0.2439 -0.2595
 3289SOL    HW221501   0.916   1.244   0.041  0.4022  0.1351 -1.0376
 3290SOL     OW21502   4.728   3.927   8.158 -0.1331 -0.1451  0.6280
 3290SOL    HW121503   0.065   3.882   8.115  0.1645  0.6478  0.3141
 3290SOL    HW221504   4.726   3.890   8.247  1.4577 -1.2966  0.1882
 3291SOL     OW21505   1.574   1.837   6.456  0.3482 -0.2211 -0.8286
 3291SOL    HW121506   1.660   1.827   6.415  0.0174  1.6384 -1.9830
 3291SOL    HW221507   1.596   1.891   6.532 -3.8440 -0.6633  0.6942
 3292SOL     OW21508   2.470   0.967   4.138 -0.0264  0.2707 -0.1256
 3292SOL    HW121509   2.415   0.916   4.197  0.5415  0.8130  0.8932
 3292SOL    HW221510   2.558   0.934   4.156 -0.2335  0.1264  0.6355
 3293SOL     OW21511   0.560   2.164   7.276  0.0602  0.1051  0.0710
 3293SOL    HW121512   0.520   2.241   7.317  0.0295  0.3442 -0.4164
 3293SOL    HW221513   0.635   2.163   7.336 -0.5999  2.6656  0.9670
 3294SOL     OW21514   3.818   1.477   2.052  0.3574  0.4346  0.0727
 3294SOL    HW121515   3.849   1.414   1.987 -1.3375 -2.7398  2.3666
 3294SOL    HW221516   3.735   1.447   2.088  0.1907 -1.9071 -2.2582
 3295SOL     OW21517   2.503   2.194   0.673  0.3865 -0.0311  0.6938
 3295SOL    HW121518   2.499   2.229   0.762  1.3429  1.4177  0.1704
 3295SOL    HW221519   2.579   2.232   0.628  0.0488 -1.0173 -0.7146
 3296SOL     OW21520   2.975   3.769   1.616  0.1050 -0.1482  0.0263
 3296SOL    HW121521   3.047   3.788   1.676 -0.3572  1.7809 -0.0211
 3296SOL    HW221522   2.928   3.850   1.597 -1.0204 -0.6662  0.6272
 3297SOL     OW21523   3.498   1.134   1.959 -0.5664  0.2134 -0.4951
 3297SOL    HW121524   3.432   1.191   2.000 -2.4056 -2.5985  0.4903
 3297SOL    HW221525   3.531   1.091   2.038  0.2214  1.0494 -0.3715
 3298SOL     OW21526   3.539   0.634   5.314  0.6219  0.0254  0.4724
 3298SOL    HW121527   3.560   0.551   5.358 -0.6459 -0.9193 -0.6922
 3298SOL    HW221528   3.446   0.627   5.289  0.2925  1.9264  1.1675
 3299SOL     OW21529   4.216   0.133   8.524 -0.5502  0.0467  0.6484
 3299SOL    HW121530   4.250   0.217   8.492  0.5002 -1.2824 -1.7426
 3299SOL    HW221531   4.125   0.157   8.541 -1.3488 -1.4954 -1.4538
 3300SOL     OW21532   0.084   1.356  12.880  0.0136  0.0049 -0.3335
 3300SOL    HW121533   0.069   1.410  12.802  0.4289 -0.8849 -1.0245
 3300SOL    HW221534   0.002   1.311  12.897 -0.9419  2.0025  0.3744
 3301SOL     OW21535   3.115   0.243   9.387  0.0404  0.3171 -0.2335
 3301SOL    HW121536   3.078   0.297   9.457 -2.4521 -0.3679 -1.0030
 3301SOL    HW221537   3.170   0.179   9.431 -0.6283 -0.4557 -0.5224
 3302SOL     OW21538   1.301   1.573   6.957 -0.0749 -0.3022 -0.4096
 3302SOL    HW121539   1.247   1.504   6.996 -1.5337  1.1215  0.1079
 3302SOL    HW221540   1.308   1.539   6.868 -1.5422 -0.8834 -0.3143
 3303SOL     OW21541   2.389   3.060  13.020  0.4638  0.6484  0.3450
 3303SOL    HW121542   2.321   3.083  13.084  0.1608 -1.8802  0.9116
 3303SOL    HW221543   2.421   2.982  13.066 -0.8779 -0.3995 -0.5176
 3304SOL     OW21544   1.595   0.709   8.942 -0.4196 -0.4119 -0.7004
 3304SOL    HW121545   1.569   0.696   9.033  0.7804 -0.3995 -0.3706
 3304SOL    HW221546   1.671   0.651   8.939 -1.0735 -1.2103 -2.0206
 3305SOL     OW21547   1.407   4.732   6.201  0.4805  0.3063  0.2552
 3305SOL    HW121548   1.498   0.021   6.215  1.1177 -2.9129  2.0342
 3305SOL    HW221549   1.356   0.077   6.196 -1.1525 -0.5819  2.0902
 3306SOL     OW21550   1.117   4.390   6.563  0.1728 -0.1700 -0.2394
 3306SOL    HW121551   1.057   4.423   6.631  0.2424  0.1745 -0.3463
 3306SOL    HW221552   1.206   4.409   6.592  0.0979  0.5169 -0.4591
 3307SOL     OW21553   4.251   0.585   4.380  0.2777  0.5243  1.0084
 3307SOL    HW121554   4.248   0.526   4.305 -3.1190  2.6239 -0.5273
 3307SOL    HW221555   4.325   0.561   4.436 -0.6571 -2.5591  0.9208
 3308SOL     OW21556   0.238   4.549   1.535 -0.8240 -0.4443 -0.2385
 3308SOL    HW121557   0.146   4.572   1.522 -0.5504 -0.2467 -1.7209
 3308SOL    HW221558   0.272   4.580   1.452  0.6614  2.1615  1.3412
 3309SOL     OW21559   3.858   1.772   5.998  0.1637  0.2459 -0.8173
 3309SOL    HW121560   3.841   1.727   5.915 -2.0978  1.0998 -0.7996
 3309SOL    HW221561   3.783   1.831   5.998 -1.1483 -1.4142 -2.8382
 3310SOL     OW21562   2.567   1.353   2.683  0.6858 -0.3231 -0.5061
 3310SOL    HW121563   2.540   1.371   2.593  0.9534  0.0767 -0.5025
 3310SOL    HW221564   2.488   1.374   2.734  0.9499  1.1707 -0.7344
 3311SOL     OW21565   1.579   0.759  15.814  0.3185 -0.0288  0.1828
 3311SOL    HW121566   1.484   0.752  15.816  0.4460 -2.0139 -0.3426
 3311SOL    HW221567   1.594   0.771  15.908  0.2044  1.0738  0.0561
 3312SOL     OW21568   1.330   1.594  17.242  0.1765  0.7783  0.1707
 3312SOL    HW121569   1.320   1.568  17.334  1.0335  1.4094  0.4363
 3312SOL    HW221570   1.365   1.509  17.215 -1.4635 -0.4431  1.8624
 3313SOL     OW21571   3.077   1.665   5.962  0.6708 -0.0296 -0.3750
 3313SOL    HW121572   3.083   1.717   5.882  1.1309  0.2144 -0.1842
 3313SOL    HW221573   2.997   1.704   5.996 -0.4929 -1.1589 -1.8034
 3314SOL     OW21574   2.839   3.888   6.180 -0.0528 -0.3234  0.7054
 3314SOL    HW121575   2.760   3.839   6.204  0.3313 -1.8738 -1.2686
 3314SOL    HW221576   2.907   3.836   6.223  0.1126 -0.5108  0.2112
 3315SOL     OW21577   2.753   1.790   8.847  0.0054  0.0052 -0.4157
 3315SOL    HW121578   2.840   1.755   8.868  0.3425  1.3357  0.4121
 3315SOL    HW221579   2.781   1.865   8.795  1.1930 -0.4422 -0.4424
 3316SOL     OW21580   2.464   2.035   6.755  0.3189  0.4314  0.5278
 3316SOL    HW121581   2.548   2.065   6.790  1.0115 -2.6938  1.5495
 3316SOL    HW221582   2.438   2.122   6.725 -1.5953  0.0866  1.1961
 3317SOL     OW21583   2.876   0.943   3.564  0.0968 -0.0454  0.2755
 3317SOL    HW121584   2.818   0.873   3.532 -0.3571  1.8623 -3.1218
 3317SOL    HW221585   2.867   1.005   3.492 -1.5885  0.9197  1.3318
 3318SOL     OW21586   0.768   2.632  17.394 -0.0106 -0.2701 -0.3511
 3318SOL    HW121587   0.811   2.574  17.457 -1.7261  0.8596  1.8625
 3318SOL    HW221588   0.840   2.664  17.341 -0.6679 -0.0074 -1.0907
 3319SOL     OW21589   1.884   4.223   2.019 -0.0986 -0.6072  0.3461
 3319SOL    HW121590   1.827   4.297   2.044 -0.4120 -0.6756 -0.1748
 3319SOL    HW221591   1.900   4.178   2.102  1.3125  0.0220  0.4252
 3320SOL     OW21592   1.713   2.545   7.075  0.1871 -0.3865 -0.0882
 3320SOL    HW121593   1.735   2.565   7.166 -1.2441 -0.1169  0.1858
 3320SOL    HW221594   1.737   2.632   7.043  3.1656 -1.1622 -0.0217
 3321SOL     OW21595   1.009   1.680  10.413 -0.0983 -0.0948  0.0446
 3321SOL    HW121596   0.942   1.699  10.348 -2.1576 -0.7813  1.9823
 3321SOL    HW221597   1.054   1.614  10.359  0.1658 -1.0526  1.4306
 3322SOL     OW21598   4.395   1.748   5.387  0.1607  0.2073 -0.2608
 3322SOL    HW121599   4.478   1.715   5.421 -0.7715 -1.3784  0.4423
 3322SOL    HW221600   4.392   1.840   5.416  2.8358 -0.2066  1.3120
 3323SOL     OW21601   0.570   2.013   4.920  0.2200  0.1420  0.4461
 3323SOL    HW121602   0.513   2.088   4.937  0.8628  1.0955 -1.4913
 3323SOL    HW221603   0.632   2.028   4.848  0.4506 -3.0384  0.0081
 3324SOL     OW21604   3.349   0.816   2.198  0.0948 -0.4233 -0.3638
 3324SOL    HW121605   3.357   0.722   2.207  0.1945 -0.2737  1.0874
 3324SOL    HW221606   3.317   0.836   2.286 -1.0585 -5.4510  0.3650
 3325SOL     OW21607   1.154   0.316   9.579 -0.0468  0.0397 -0.3966
 3325SOL    HW121608   1.140   0.322   9.673  1.7137  1.0300 -0.2085
 3325SOL    HW221609   1.175   0.407   9.559 -0.1812  0.3900  1.0319
 3326SOL     OW21610   3.423   4.458   6.540  0.2868  0.0283 -0.2685
 3326SOL    HW121611   3.444   4.544   6.502  0.8032  0.5091  1.1218
 3326SOL    HW221612   3.374   4.495   6.614  1.7832  2.2660 -0.3862
 3327SOL     OW21613   1.556   0.858   8.381 -0.0801  0.6156 -0.1385
 3327SOL    HW121614   1.637   0.867   8.331 -0.0530 -1.4359 -0.4894
 3327SOL    HW221615   1.572   0.916   8.455 -2.9352  2.2013 -0.7664
 3328SOL     OW21616   3.950   0.742   6.852  0.0448 -0.2504  0.0276
 3328SOL    HW121617   3.908   0.717   6.934  0.4773  1.2791  0.7187
 3328SOL    HW221618   3.881   0.797   6.816  0.2552  0.0829  0.1329
 3329SOL     OW21619   2.736   0.332   8.292  0.4277  0.0643 -0.0622
 3329SOL    HW121620   2.716   0.241   8.271  2.2090 -0.0293 -1.2926
 3329SOL    HW221621   2.740   0.325   8.388  1.6419 -3.1975 -0.3385
 3330SOL     OW21622   1.194   4.151   8.155  0.7440 -0.4890  0.1608
 3330SOL    HW121623   1.215   4.214   8.086 -0.3034  0.1048  0.3872
 3330SOL    HW221624   1.104   4.178   8.172  0.9038  0.1137  0.0318
 3331SOL     OW21625   4.017   2.848   2.100  0.6534  0.2150  0.2635
 3331SOL    HW121626   3.968   2.836   2.019 -0.4185 -2.9452  1.3709
 3331SOL    HW221627   4.065   2.929   2.083  0.8069  0.5547  2.3066
 3332SOL     OW21628   1.866   3.715   1.784  0.4876  0.4793 -0.8212
 3332SOL    HW121629   1.788   3.769   1.797 -0.3579 -0.6341 -1.2712
 3332SOL    HW221630   1.851   3.628   1.821 -1.4753  1.2639  0.2053
 3333SOL     OW21631   1.191   4.287   3.408  0.1345  0.2682 -0.5201
 3333SOL    HW121632   1.236   4.371   3.409  0.8268 -0.1310  1.5605
 3333SOL    HW221633   1.102   4.317   3.393 -0.4919 -1.1001  0.4742
 3334SOL     OW21634   3.747   3.246   9.089 -0.2506 -0.4414 -0.2040
 3334SOL    HW121635   3.814   3.191   9.131  0.4635  1.6813  1.4626
 3334SOL    HW221636   3.732   3.201   9.006  0.6596  0.5313 -0.9012
 3335SOL     OW21637   1.285   0.763   1.611 -0.4169 -0.1756  0.2114
 3335SOL    HW121638   1.208   0.814   1.636  1.6278  2.5376  0.9540
 3335SOL    HW221639   1.237   0.714   1.544 -1.4743 -0.5085  1.2295
 3336SOL     OW21640   3.478   1.307  12.714 -0.2315  0.1461 -0.5295
 3336SOL    HW121641   3.496   1.382  12.658 -0.2184  2.3280  2.4254
 3336SOL    HW221642   3.546   1.247  12.682  1.6966  1.5177  0.9533
 3337SOL     OW21643   1.799   3.185   6.731  0.5988  0.4234 -0.3647
 3337SOL    HW121644   1.754   3.107   6.763  2.4161 -1.0161 -1.3649
 3337SOL    HW221645   1.821   3.153   6.644  0.7031 -1.3611  0.3202
 3338SOL     OW21646   1.644   0.008   2.573  0.4150  0.0258  0.0479
 3338SOL    HW121647   1.730   0.014   2.531  0.6703  2.1847  0.8876
 3338SOL    HW221648   1.672   4.695   2.650 -2.7661 -0.9689  0.5753
 3339SOL     OW21649   1.976   0.298   4.780 -0.0072  0.5852 -0.2008
 3339SOL    HW121650   1.915   0.322   4.710  0.7883 -0.4784 -1.2528
 3339SOL    HW221651   2.057   0.308   4.730  0.0729 -3.5871 -0.9473
 3340SOL     OW21652   3.571   2.054  11.311  0.0569  0.1146 -0.2346
 3340SOL    HW121653   3.575   2.042  11.216 -1.8955  1.1636 -0.4535
 3340SOL    HW221654   3.637   1.989  11.335 -2.1753 -2.1921 -0.3616
 3341SOL     OW21655   3.231   1.059   3.524 -0.4221  0.2631 -0.2682
 3341SOL    HW121656   3.141   1.055   3.492  0.3948 -0.8718 -2.4509
 3341SOL    HW221657   3.201   1.085   3.610 -1.8935 -1.7351 -0.1922
 3342SOL     OW21658   2.777   3.969   5.922  0.4784 -0.2292 -0.2466
 3342SOL    HW121659   2.792   3.888   5.872 -0.0148  0.7285 -1.9197
 3342SOL    HW221660   2.776   3.940   6.013  0.7567 -0.7709 -0.4102
 3343SOL     OW21661   1.764   2.336   7.832  0.2489  0.4542 -0.6757
 3343SOL    HW121662   1.837   2.274   7.822  0.3257  0.1096  2.1639
 3343SOL    HW221663   1.713   2.298   7.903  2.1707  0.3769  0.6595
 3344SOL     OW21664   2.700   1.155   6.787 -0.2240 -0.7612  0.3827
 3344SOL    HW121665   2.773   1.189   6.838  0.1626  0.4923 -1.0052
 3344SOL    HW221666   2.732   1.152   6.697 -3.9281 -3.4410 -0.8492
 3345SOL     OW21667   1.328   4.028   5.654 -0.0410 -0.5143  0.4020
 3345SOL    HW121668   1.262   3.994   5.714 -0.5478  0.2588  0.2833
 3345SOL    HW221669   1.306   4.121   5.643  0.0842 -0.1325  3.4875
 3346SOL     OW21670   3.984   3.916  14.113  0.4765  0.3896  0.1459
 3346SOL    HW121671   4.015   3.945  14.200 -1.8257  0.9789  0.7789
 3346SOL    HW221672   3.972   4.004  14.077  0.9763  0.4135  0.0351
 3347SOL     OW21673   3.309   0.224   6.513 -0.5638 -0.7841 -0.0578
 3347SOL    HW121674   3.328   0.281   6.588 -0.2677 -2.1091  0.8865
 3347SOL    HW221675   3.227   0.267   6.488  0.9232  1.0883 -1.7411
 3348SOL     OW21676   3.344   2.720   3.711  0.9380  0.1141 -0.4004
 3348SOL    HW121677   3.261   2.689   3.677 -0.4377  1.1549  2.0189
 3348SOL    HW221678   3.402   2.654   3.674  0.7561 -0.8841  1.1185
 3349SOL     OW21679   0.345   0.821   0.583 -0.3851  0.1743  0.1963
 3349SOL    HW121680   0.296   0.810   0.664 -1.4114  1.0976 -0.2968
 3349SOL    HW221681   0.377   0.732   0.566 -1.5902 -0.2718  0.2107
 3350SOL     OW21682   1.793   2.059  16.144 -0.3254 -0.0100 -0.1989
 3350SOL    HW121683   1.707   2.063  16.187  0.0386  0.7189  0.4562
 3350SOL    HW221684   1.822   1.982  16.194  1.6245  0.1929 -1.0238
 3351SOL     OW21685   3.498   0.414   2.812 -0.2092  0.4766 -0.2618
 3351SOL    HW121686   3.425   0.385   2.756 -1.2403 -0.9799  1.8585
 3351SOL    HW221687   3.471   0.505   2.823  1.1802  0.9374 -0.6869
 3352SOL     OW21688   0.359   0.106   8.934 -0.5278  0.1033  0.2799
 3352SOL    HW121689   0.433   0.112   8.995 -0.6086  2.6620  0.1183
 3352SOL    HW221690   0.386   0.039   8.871  0.3803  0.7509 -0.0214
 3353SOL     OW21691   2.440   2.176   8.354  0.3523  0.1398  0.4447
 3353SOL    HW121692   2.499   2.149   8.284 -0.1171 -0.2954  0.2196
 3353SOL    HW221693   2.442   2.097   8.409  0.5787  0.2290  0.5647
 3354SOL     OW21694   0.787   2.373   4.190  0.2460  0.0314 -0.1645
 3354SOL    HW121695   0.775   2.284   4.156 -0.7443 -0.2506  0.9185
 3354SOL    HW221696   0.716   2.422   4.149  1.3860 -1.3142 -3.7657
 3355SOL     OW21697   1.799   0.183  12.029 -0.3568  0.4678  0.2988
 3355SOL    HW121698   1.850   0.119  11.979  0.5504  1.5919 -0.1832
 3355SOL    HW221699   1.717   0.185  11.979 -1.3877  0.4160  1.9956
 3356SOL     OW21700   2.216   2.454   1.333 -0.4771 -0.3328 -0.0764
 3356SOL    HW121701   2.254   2.489   1.414 -2.2005 -2.2112  1.5412
 3356SOL    HW221702   2.135   2.419   1.371  1.3951 -2.3239  2.0431
 3357SOL     OW21703   1.397   3.223  10.942  0.2565 -0.0206 -0.0871
 3357SOL    HW121704   1.317   3.239  10.992 -0.4627 -0.0270 -1.2337
 3357SOL    HW221705   1.428   3.133  10.960 -2.6782 -1.1172 -0.5817
 3358SOL     OW21706   1.085   0.944  12.650  0.2812 -0.2606  0.4945
 3358SOL    HW121707   1.029   1.016  12.678 -0.5535 -0.6687 -0.1032
 3358SOL    HW221708   1.105   0.981  12.564  0.1523  0.1693  0.6532
 3359SOL     OW21709   2.829   1.770   2.041 -0.2463 -0.4454  0.0435
 3359SOL    HW121710   2.860   1.861   2.043  1.0620 -0.7990 -3.1834
 3359SOL    HW221711   2.734   1.773   2.050 -0.1105  1.3833  0.8808
 3360SOL     OW21712   1.248   1.126   3.143 -0.1242 -0.1568  0.1570
 3360SOL    HW121713   1.278   1.037   3.159 -0.6914 -0.5736 -1.1027
 3360SOL    HW221714   1.183   1.140   3.213 -0.3194  1.1217 -0.2762
 3361SOL     OW21715   0.487   0.170   4.987 -0.3623 -0.0373  0.6186
 3361SOL    HW121716   0.434   0.135   5.059 -0.9822 -0.6347 -0.1384
 3361SOL    HW221717   0.446   0.124   4.914  0.2770 -1.5006  1.1948
 3362SOL     OW21718   1.790   0.601   4.788 -0.0974 -0.6588 -0.2060
 3362SOL    HW121719   1.752   0.514   4.774 -1.0203 -0.3438  0.3359
 3362SOL    HW221720   1.755   0.641   4.867  1.2495 -0.3273  0.2074
 3363SOL     OW21721   4.179   3.355   2.082  0.3076  0.2417  0.3318
 3363SOL    HW121722   4.088   3.386   2.085  0.6509  1.0146  3.8719
 3363SOL    HW221723   4.226   3.427   2.040 -0.1724  0.4286  0.1173
 3364SOL     OW21724   0.252   3.809  16.886  0.4729 -0.6934 -0.0177
 3364SOL    HW121725   0.333   3.841  16.925 -0.6083  0.7264  1.0525
 3364SOL    HW221726   0.237   3.737  16.947 -0.6050 -1.7083 -1.4694
 3365SOL     OW21727   1.514   0.552   5.460  0.4525  0.0947  0.2337
 3365SOL    HW121728   1.456   0.590   5.526  0.6345 -0.8417  0.9276
 3365SOL    HW221729   1.451   0.485   5.434  1.6614 -0.6203 -0.8118
 3366SOL     OW21730   0.232   2.064   7.203  0.1632 -0.4085 -0.2339
 3366SOL    HW121731   0.303   2.121   7.232  0.9353 -1.6624  0.3409
 3366SOL    HW221732   0.264   2.031   7.119 -0.5562  0.8226 -0.9922
 3367SOL     OW21733   3.953   4.036   6.569 -0.3465 -0.2733 -0.1493
 3367SOL    HW121734   4.006   4.107   6.606  1.5927 -1.7691 -0.0663
 3367SOL    HW221735   3.899   4.003   6.641  2.1037  0.2191  1.8965
 3368SOL     OW21736   1.794   3.743   8.941  0.1098  0.1851 -0.2453
 3368SOL    HW121737   1.801   3.693   9.023  2.3165  2.4317  0.9159
 3368SOL    HW221738   1.796   3.835   8.965 -1.5953 -0.0217  0.7171
 3369SOL     OW21739   4.696   1.674   7.288 -0.1283 -0.0067 -0.3998
 3369SOL    HW121740   0.042   1.679   7.238 -0.2022  2.3677 -0.2799
 3369SOL    HW221741   4.645   1.728   7.228  0.0252  1.6898  1.0126
 3370SOL     OW21742   0.818   2.093  16.056 -0.6658  0.4652  0.1437
 3370SOL    HW121743   0.908   2.064  16.042 -1.2100 -1.0822 -0.1623
 3370SOL    HW221744   0.766   2.013  16.066  0.5678 -0.1690  1.4904
 3371SOL     OW21745   2.071   0.086   8.688 -0.3638  0.3603  0.3676
 3371SOL    HW121746   2.161   0.074   8.655 -0.2378 -0.0186  0.8541
 3371SOL    HW221747   2.052   0.180   8.686 -1.9858 -0.0292 -2.3817
 3372SOL     OW21748   0.442   3.236   2.692 -0.7149 -0.5385  0.1523
 3372SOL    HW121749   0.464   3.326   2.670 -1.8259 -0.7113 -1.6639
 3372SOL    HW221750   0.358   3.224   2.648 -0.5224  2.6680 -1.0654
 3373SOL     OW21751   0.740   1.859   8.099  0.3887  0.0440  0.2767
 3373SOL    HW121752   0.681   1.878   8.173  0.6834  0.8208  0.3113
 3373SOL    HW221753   0.678   1.817   8.039 -0.6721  0.8648  0.7804
 3374SOL     OW21754   3.876   2.164  11.282  0.1134  0.0739  0.6425
 3374SOL    HW121755   3.963   2.130  11.303  0.4687  0.2577 -0.5217
 3374SOL    HW221756   3.823   2.089  11.309  2.4175 -1.8376 -0.1685
 3375SOL     OW21757   2.319   0.600   3.344 -0.2082 -0.2118 -0.3133
 3375SOL    HW121758   2.377   0.524   3.339  1.3374  0.9911 -0.5375
 3375SOL    HW221759   2.246   0.571   3.290 -0.6903 -0.6173  0.5570
 3376SOL     OW21760   1.766   2.962   4.514 -0.5695 -0.2022 -0.2754
 3376SOL    HW121761   1.733   2.915   4.438 -0.6429  2.1655 -1.7042
 3376SOL    HW221762   1.854   2.926   4.523 -2.1973 -3.6285  1.9157
 3377SOL     OW21763   3.970   3.208   2.796 -0.1252  0.3108 -0.6475
 3377SOL    HW121764   3.977   3.272   2.725 -0.5317 -0.5212 -1.4408
 3377SOL    HW221765   4.055   3.213   2.840 -0.6900  1.1263  0.3529
 3378SOL     OW21766   1.407   0.666  11.850  0.2592 -0.1141  0.4285
 3378SOL    HW121767   1.483   0.630  11.803  0.1286  1.1424 -0.7552
 3378SOL    HW221768   1.410   0.617  11.932  1.5852 -0.2718  0.2975
 3379SOL     OW21769   3.121   3.838   8.323 -0.7943 -0.2656 -0.4851
 3379SOL    HW121770   3.195   3.893   8.346 -0.0825 -1.5590  0.3198
 3379SOL    HW221771   3.041   3.883   8.351  1.8240  1.4433  4.2118
 3380SOL     OW21772   1.162   0.941   7.222 -0.2097  0.4170  0.2163
 3380SOL    HW121773   1.210   1.021   7.243 -0.2738  0.4157  0.3697
 3380SOL    HW221774   1.125   0.915   7.307  0.4237  1.1766  0.7245
 3381SOL     OW21775   3.462   2.818  15.553  0.2156  0.0161 -0.3613
 3381SOL    HW121776   3.467   2.889  15.488 -2.1867 -0.0385 -0.6168
 3381SOL    HW221777   3.511   2.748  15.509  0.7767 -0.1049  0.4716
 3382SOL     OW21778   2.256   2.778   5.350  0.1628 -0.2387 -0.1740
 3382SOL    HW121779   2.275   2.721   5.276  0.5067 -1.9208  1.2121
 3382SOL    HW221780   2.175   2.826   5.330 -1.0760 -2.2085  0.1656
 3383SOL     OW21781   1.420   0.648   6.121  0.5083  0.2494 -0.0868
 3383SOL    HW121782   1.334   0.672   6.155  1.0129  1.2003  0.4920
 3383SOL    HW221783   1.420   0.555   6.142 -0.7180  0.1083 -0.7011
 3384SOL     OW21784   3.691   0.666   7.336 -0.0272  0.1363 -0.1610
 3384SOL    HW121785   3.632   0.722   7.286 -2.1426  0.3919  2.6562
 3384SOL    HW221786   3.679   0.687   7.428  0.2139 -4.2740  0.8723
 3385SOL     OW21787   0.610   1.908   7.748 -0.0129 -0.4715  0.5796
 3385SOL    HW121788   0.651   1.974   7.804  1.1536 -1.2740  0.6671
 3385SOL    HW221789   0.520   1.937   7.761  0.1650  0.9559 -1.3479
 3386SOL     OW21790   2.790   0.890  11.533  0.7791 -0.1334 -0.2334
 3386SOL    HW121791   2.746   0.817  11.576 -0.3410  0.1257 -0.9343
 3386SOL    HW221792   2.728   0.918  11.465 -1.2457 -1.1001  1.2179
 3387SOL     OW21793   4.724   1.415   4.758 -0.4577 -0.2919 -0.1290
 3387SOL    HW121794   4.666   1.456   4.822 -0.5576 -0.2489 -0.2452
 3387SOL    HW221795   0.054   1.483   4.746 -0.6419 -0.1455 -0.3434
 3388SOL     OW21796   1.546   3.498   9.647  0.0458  0.1666  0.7077
 3388SOL    HW121797   1.570   3.564   9.712 -1.3313  0.0986  1.3010
 3388SOL    HW221798   1.613   3.432   9.659  0.7549  0.2776 -2.6354
 3389SOL     OW21799   2.936   4.034   4.928 -0.4855  0.3546 -0.1036
 3389SOL    HW121800   2.892   4.072   4.852  0.3091  0.7080 -0.3977
 3389SOL    HW221801   2.862   4.005   4.981  0.1708  0.3679  0.8134
 3390SOL     OW21802   2.399   1.551   8.405 -0.0323 -0.2870  0.7252
 3390SOL    HW121803   2.334   1.602   8.454  0.0978  0.1356  0.4543
 3390SOL    HW221804   2.342   1.490   8.358 -2.2086  0.8093  1.9197
 3391SOL     OW21805   2.961   0.920   7.410 -0.0842 -0.1843  0.1200
 3391SOL    HW121806   2.922   0.964   7.486  1.2114 -0.7210  1.0858
 3391SOL    HW221807   2.932   0.830   7.424 -0.9608  0.3022  1.4940
 3392SOL     OW21808   4.515   0.504   6.626  0.4840  0.1792  0.6906
 3392SOL    HW121809   4.583   0.461   6.573  0.8224  0.4369  0.9164
 3392SOL    HW221810   4.508   0.442   6.698  2.8028 -1.0068 -0.0990
 3393SOL     OW21811   1.466   3.050   8.432 -0.3783 -0.1019  0.4466
 3393SOL    HW121812   1.553   3.016   8.449 -0.4458  0.2056  1.4040
 3393SOL    HW221813   1.460   3.110   8.507  0.8998  0.9238 -0.2817
 3394SOL     OW21814   2.657   0.768   1.241  0.7507  0.4595  0.0163
 3394SOL    HW121815   2.571   0.809   1.232 -1.2498 -3.4177  1.3660
 3394SOL    HW221816   2.687   0.796   1.155  0.2655  1.3191  0.1249
 3395SOL     OW21817   3.932   1.778   3.900  0.2722 -0.0577 -0.3654
 3395SOL    HW121818   3.943   1.872   3.884  1.0517 -0.7329 -3.7859
 3395SOL    HW221819   3.842   1.774   3.870  0.6024  0.6933 -1.4546
 3396SOL     OW21820   0.075   1.190   7.993  0.3082  0.4668 -0.4432
 3396SOL    HW121821   0.057   1.281   7.969 -0.0386  1.0089  1.8939
 3396SOL    HW221822   4.724   1.154   8.011  0.2899  0.4593 -0.5455
 3397SOL     OW21823   2.664   3.088   1.634 -0.2960  0.7106  0.0625
 3397SOL    HW121824   2.683   3.174   1.672  4.9621 -0.1578 -0.6166
 3397SOL    HW221825   2.698   3.030   1.702 -0.1632 -1.1606 -1.5867
 3398SOL     OW21826   1.745   4.379   7.151 -0.0588  0.2987  0.1824
 3398SOL    HW121827   1.837   4.353   7.148 -0.4819 -0.9295 -2.0046
 3398SOL    HW221828   1.713   4.369   7.061 -2.1214  0.8611  0.8361
 3399SOL     OW21829   3.363   3.860   4.368 -0.4626 -0.5831  0.3349
 3399SOL    HW121830   3.360   3.891   4.459  2.5356 -0.4288  0.4013
 3399SOL    HW221831   3.359   3.768   4.392  0.9105 -1.2801 -2.0923
 3400SOL     OW21832   4.574   2.616   8.343 -0.3736 -0.3672  0.3255
 3400SOL    HW121833   4.525   2.699   8.346 -1.4319 -1.0995  2.7226
 3400SOL    HW221834   4.501   2.571   8.300 -0.9408 -1.0870  2.0493
 3401SOL     OW21835   3.676   2.193   3.523 -0.2678 -0.5739 -0.0839
 3401SOL    HW121836   3.688   2.106   3.561 -1.2554 -1.3383 -1.5039
 3401SOL    HW221837   3.582   2.191   3.544 -0.3335 -2.2924 -0.5083
 3402SOL     OW21838   3.948   3.080  15.400  0.4716 -0.2829  0.0245
 3402SOL    HW121839   4.007   3.141  15.355  0.8527  0.5087  1.5631
 3402SOL    HW221840   4.006   3.004  15.398  1.7552  0.6891  0.4993
 3403SOL     OW21841   3.901   4.167   6.299  0.2490  0.5766 -0.4173
 3403SOL    HW121842   3.850   4.097   6.339 -0.9959  1.5957 -0.2229
 3403SOL    HW221843   3.969   4.194   6.361 -1.2992 -0.4702  1.7452
 3404SOL     OW21844   0.850   4.260   2.224 -0.3375  0.7949 -0.3705
 3404SOL    HW121845   0.757   4.267   2.201 -0.0519 -1.3835 -2.1109
 3404SOL    HW221846   0.893   4.329   2.173 -1.1683 -0.3739 -2.6540
 3405SOL     OW21847   0.316   3.942   0.821  0.0978  0.5190 -0.7595
 3405SOL    HW121848   0.394   3.973   0.775  0.4869  0.5807 -0.0617
 3405SOL    HW221849   0.277   3.885   0.755  0.0458 -0.8499  0.4475
 3406SOL     OW21850   0.005   4.100   7.585  0.0337  0.0581  0.1610
 3406SOL    HW121851   0.052   4.068   7.663 -0.0134  0.6833  0.4416
 3406SOL    HW221852   0.062   4.176   7.571  2.8914 -1.9605  0.6996
 3407SOL     OW21853   0.039   0.929   6.702 -0.2041 -0.7045  0.2563
 3407SOL    HW121854   4.696   0.879   6.679  0.5533 -2.6946  1.9302
 3407SOL    HW221855   0.011   0.966   6.785  1.2404  0.2890  0.2908
 3408SOL     OW21856   0.509   3.981   1.899 -0.0161  0.1343  0.4156
 3408SOL    HW121857   0.490   4.058   1.952 -0.3503 -0.3044  0.9446
 3408SOL    HW221858   0.518   4.014   1.810 -1.9370  1.7794  0.8411
 3409SOL     OW21859   2.390   2.834  14.240 -0.5204  0.0563 -0.1851
 3409SOL    HW121860   2.335   2.912  14.241 -0.8159 -0.1321 -2.4568
 3409SOL    HW221861   2.464   2.867  14.290  0.2023 -0.4191 -0.9438
 3410SOL     OW21862   1.323   0.239   8.459  0.0269  0.2111  0.0472
 3410SOL    HW121863   1.348   0.299   8.529  0.6170  0.0127  0.0097
 3410SOL    HW221864   1.383   0.164   8.469  0.4605  0.9181  2.6003
 3411SOL     OW21865   1.380   0.364   7.113 -0.1192 -0.8416 -0.3433
 3411SOL    HW121866   1.286   0.349   7.103 -0.4487  1.3721 -0.6936
 3411SOL    HW221867   1.385   0.457   7.139  0.4486 -0.6612 -1.1115
 3412SOL     OW21868   1.104   1.085   6.996 -0.2272  0.8904 -0.0723
 3412SOL    HW121869   1.029   1.029   6.975 -0.2670  0.1011  2.1769
 3412SOL    HW221870   1.155   1.025   7.051  2.2587  1.3001 -1.9048
 3413SOL     OW21871   3.593   1.143   3.994 -0.2192  0.1031  0.1978
 3413SOL    HW121872   3.672   1.090   4.003 -1.8885 -2.1246  1.8238
 3413SOL    HW221873   3.637   1.214   3.948 -0.6628 -0.9846 -1.9077
 3414SOL     OW21874   2.903   1.683   5.360  0.1331  0.4386  0.6194
 3414SOL    HW121875   2.906   1.771   5.399 -0.1033  0.9527 -0.5122
 3414SOL    HW221876   2.815   1.663   5.389  0.1750  1.6881  1.5884
 3415SOL     OW21877   3.427   0.927  17.384  0.1752  0.4606 -0.4694
 3415SOL    HW121878   3.503   0.976  17.351  2.1821 -2.6972 -0.5843
 3415SOL    HW221879   3.371   0.935  17.307 -1.9068  2.0026  1.2343
 3416SOL     OW21880   2.169   1.784   5.384  0.2785  0.1570  0.5287
 3416SOL    HW121881   2.129   1.870   5.395  1.7398  0.6089  2.3099
 3416SOL    HW221882   2.112   1.723   5.430  0.7279 -0.1722  0.6557
 3417SOL     OW21883   2.996   0.875   0.211 -0.2682  0.2218  0.0757
 3417SOL    HW121884   3.065   0.878   0.145  0.5625  1.0086  0.9752
 3417SOL    HW221885   2.935   0.814   0.170  0.4479 -0.9569  0.7829
 3418SOL     OW21886   1.670   3.785   1.959  0.7630  0.4947 -0.5002
 3418SOL    HW121887   1.721   3.767   2.038  0.5505 -0.6358 -0.6233
 3418SOL    HW221888   1.654   3.878   1.970 -0.3187 -0.0842  2.6125
 3419SOL     OW21889   0.511   3.223   5.427 -0.9048  0.1189  0.0478
 3419SOL    HW121890   0.598   3.264   5.421 -0.4980 -1.1887 -2.9131
 3419SOL    HW221891   0.532   3.133   5.450 -1.3755  0.0844  0.3439
 3420SOL     OW21892   2.522   3.288   2.657  0.2321 -0.0970  0.1594
 3420SOL    HW121893   2.447   3.349   2.659  1.6867  1.7453 -1.3105
 3420SOL    HW221894   2.518   3.265   2.564 -1.6977 -0.2422  0.2737
 3421SOL     OW21895   1.885   1.703  11.840 -0.0151 -0.4980 -0.3267
 3421SOL    HW121896   1.813   1.662  11.791  0.1582 -1.2670  0.0631
 3421SOL    HW221897   1.839   1.786  11.858  0.2069 -0.0066 -1.9827
 3422SOL     OW21898   1.547   2.747  17.635  0.1826 -0.6369 -0.3899
 3422SOL    HW121899   1.525   2.686  17.706  0.3894 -0.4966 -0.2047
 3422SOL    HW221900   1.640   2.749  17.654  0.4501 -2.5693 -1.4610
 3423SOL     OW21901   3.530   4.364   7.899  0.0337 -0.3032 -0.0085
 3423SOL    HW121902   3.503   4.275   7.876  2.1333 -0.4059 -1.9931
 3423SOL    HW221903   3.625   4.359   7.910  0.3106 -0.1655 -2.5311
 3424SOL     OW21904   2.846   2.555  16.765 -0.4755 -0.5609 -0.4163
 3424SOL    HW121905   2.752   2.572  16.758 -0.2041  1.6735  1.3069
 3424SOL    HW221906   2.846   2.518  16.853  0.5617  0.3818 -0.0238
 3425SOL     OW21907   3.766   3.422   7.606 -0.3603  0.4711  0.4982
 3425SOL    HW121908   3.840   3.438   7.666  2.0350  1.3066 -2.6521
 3425SOL    HW221909   3.822   3.379   7.541 -0.0136  0.8596  0.5342
 3426SOL     OW21910   2.260   3.186  11.388  0.1851  0.6291  0.2983
 3426SOL    HW121911   2.242   3.151  11.301  1.7403 -2.7418  1.3223
 3426SOL    HW221912   2.188   3.144  11.436  1.5573 -2.8456 -0.6502
 3427SOL     OW21913   1.902   3.253   9.036  0.2917 -0.6384 -0.0161
 3427SOL    HW121914   1.831   3.317   9.046 -0.8176 -1.4786 -2.6681
 3427SOL    HW221915   1.865   3.178   9.083 -0.9566 -0.1301 -0.1932
 3428SOL     OW21916   3.514   3.005   0.616 -0.3051  0.0652  0.3856
 3428SOL    HW121917   3.563   3.032   0.694 -0.2646  2.9315 -0.6176
 3428SOL    HW221918   3.577   3.028   0.546 -0.6154  2.3625  0.8572
 3429SOL     OW21919   2.783   0.762   7.708  0.6348  0.3587 -0.2257
 3429SOL    HW121920   2.744   0.680   7.738 -1.2015  0.9783 -0.9707
 3429SOL    HW221921   2.875   0.739   7.726 -0.6878 -3.9544  1.0381
 3430SOL     OW21922   3.757   3.444   5.011 -0.0600 -0.0382  0.4212
 3430SOL    HW121923   3.714   3.381   5.069 -1.4340  0.0730 -0.4693
 3430SOL    HW221924   3.693   3.446   4.939 -0.2730 -0.6612  0.5889
 3431SOL     OW21925   0.216   2.606   3.770 -0.1023  0.2830 -0.1308
 3431SOL    HW121926   0.231   2.696   3.799 -0.4343 -0.1770  1.4711
 3431SOL    HW221927   0.293   2.601   3.714  0.5911  2.2405  0.6552
 3432SOL     OW21928   1.247   1.589   0.234 -0.0987 -0.2623 -0.1923
 3432SOL    HW121929   1.324   1.640   0.257  2.7116 -2.9910 -3.6726
 3432SOL    HW221930   1.175   1.651   0.251  0.2598  0.2162 -0.4202
 3433SOL     OW21931   2.646   3.570   2.096  0.2531 -0.0623  0.1506
 3433SOL    HW121932   2.620   3.478   2.087 -1.6394  0.5275 -0.3344
 3433SOL    HW221933   2.565   3.616   2.117  1.9583  3.3148 -0.6217
 3434SOL     OW21934   3.645   4.636  16.428 -0.1530  0.1602  0.3068
 3434SOL    HW121935   3.615   4.570  16.366  1.3757  0.3644 -0.6563
 3434SOL    HW221936   3.667   4.707  16.368  0.8667 -0.9919 -0.6788
 3435SOL     OW21937   2.731   1.627   5.816  0.4912  0.3887 -0.5408
 3435SOL    HW121938   2.731   1.561   5.747  2.1689 -1.2697  1.0261
 3435SOL    HW221939   2.694   1.705   5.776 -0.6696 -0.4310 -1.0625
 3436SOL     OW21940   4.292   0.179   4.777  0.0211  0.1839  0.0718
 3436SOL    HW121941   4.339   0.243   4.831  1.4204 -0.5586 -0.2544
 3436SOL    HW221942   4.202   0.210   4.789  0.6878  3.1590 -2.5635
 3437SOL     OW21943   2.679   2.214   5.113  0.8261  0.3239  0.0915
 3437SOL    HW121944   2.629   2.197   5.192 -1.2943  1.0304 -1.0859
 3437SOL    HW221945   2.703   2.125   5.089  0.3782 -0.2809  1.9332
 3438SOL     OW21946   2.038   3.168   5.454  0.1321  0.6743 -0.0631
 3438SOL    HW121947   1.970   3.105   5.478 -0.4305  1.0987 -0.5531
 3438SOL    HW221948   2.043   3.217   5.536 -0.3241  1.5066 -0.5332
 3439SOL     OW21949   3.902   1.402   1.442  0.2472 -1.0773 -0.4064
 3439SOL    HW121950   3.962   1.413   1.369 -0.7030 -1.3958 -1.2462
 3439SOL    HW221951   3.828   1.462   1.428  0.3920 -1.4889 -2.9521
 3440SOL     OW21952   2.427   3.386  16.436 -0.0158 -0.2775 -0.3160
 3440SOL    HW121953   2.411   3.319  16.502  2.0913 -0.0570  0.4144
 3440SOL    HW221954   2.482   3.336  16.375  0.7215  0.0590  0.0656
 3441SOL     OW21955   3.561   3.649  12.442 -0.0704 -0.4188 -0.1550
 3441SOL    HW121956   3.500   3.689  12.504 -0.5474 -0.5129 -0.5628
 3441SOL    HW221957   3.615   3.721  12.410 -0.2174  0.9588  2.7437
 3442SOL     OW21958   1.954   0.663   6.047  0.3325 -0.5652  0.5280
 3442SOL    HW121959   1.864   0.688   6.067  0.9861  1.9373  0.3002
 3442SOL    HW221960   1.978   0.609   6.123 -1.3786 -1.0882  0.6911
 3443SOL     OW21961   2.773   1.509   2.557 -0.3267  0.8150 -0.1794
 3443SOL    HW121962   2.732   1.554   2.483 -0.8116  1.1543  0.3001
 3443SOL    HW221963   2.694   1.467   2.591  1.8498 -0.7027  3.0252
 3444SOL     OW21964   4.506   2.214   8.742 -0.1222  0.0463 -0.5595
 3444SOL    HW121965   4.533   2.203   8.651  1.2265  0.2699 -0.1783
 3444SOL    HW221966   4.459   2.298   8.741 -1.1478 -0.5419 -1.0198
 3445SOL     OW21967   4.247   4.593   1.681 -0.0386 -0.2077  0.1304
 3445SOL    HW121968   4.159   4.555   1.685  0.5443 -1.4756  0.8046
 3445SOL    HW221969   4.290   4.550   1.755  0.9013 -0.9350 -0.8572
 3446SOL     OW21970   3.349   3.608   5.898  0.3191 -0.3566  0.5904
 3446SOL    HW121971   3.367   3.651   5.981 -0.8338  0.4144  0.4391
 3446SOL    HW221972   3.439   3.583   5.881  0.6829  1.4402 -0.0617
 3447SOL     OW21973   1.399   0.994   7.006  0.1936 -0.6677  0.7164
 3447SOL    HW121974   1.393   1.089   6.995  1.2883 -0.8142 -1.1143
 3447SOL    HW221975   1.475   0.976   6.951  0.7582  0.0779  1.2658
 3448SOL     OW21976   2.158   3.877   6.322 -0.6340 -0.3548 -0.1697
 3448SOL    HW121977   2.232   3.909   6.375 -1.8813  1.7653  0.2769
 3448SOL    HW221978   2.142   3.952   6.265 -0.7338 -1.7129 -1.9339
 3449SOL     OW21979   0.371   0.155   4.755  0.4308 -0.1997  0.2544
 3449SOL    HW121980   0.321   0.234   4.775  1.7559  0.9633 -1.0756
 3449SOL    HW221981   0.307   0.102   4.707 -0.7886  1.9546 -0.5019
 3450SOL     OW21982   3.805   2.369   6.076  0.5278  0.3857  0.4086
 3450SOL    HW121983   3.830   2.451   6.118  1.9506  0.8941 -1.3896
 3450SOL    HW221984   3.723   2.353   6.121  0.6248 -0.2998  0.3365
 3451SOL     OW21985   3.598   2.882  11.648 -0.0333 -0.1861  0.1838
 3451SOL    HW121986   3.509   2.911  11.668 -0.2238 -0.0266 -0.8885
 3451SOL    HW221987   3.611   2.809  11.708 -0.0804  0.9086  1.5145
 3452SOL     OW21988   4.728   4.248   2.806  0.0335 -0.0503  0.3749
 3452SOL    HW121989   4.729   4.303   2.728  2.9549  0.5703  0.8330
 3452SOL    HW221990   4.634   4.242   2.817 -0.3197  1.9185 -1.6120
 3453SOL     OW21991   2.795   1.168   6.131 -0.4420 -0.6990 -0.1323
 3453SOL    HW121992   2.772   1.132   6.216 -0.2012  0.6043  0.4790
 3453SOL    HW221993   2.837   1.249   6.159  0.3581 -1.5382  1.0856
 3454SOL     OW21994   4.028   0.216   4.852  0.4790  0.4550 -0.1260
 3454SOL    HW121995   4.028   0.164   4.932  0.6096  0.1492 -0.3267
 3454SOL    HW221996   3.970   0.286   4.883 -1.6162 -0.8548 -1.0544
 3455SOL     OW21997   4.040   4.071   3.813  0.1490 -0.0479  0.1475
 3455SOL    HW121998   4.101   4.034   3.877  0.4612  1.4922  0.7643
 3455SOL    HW221999   4.038   4.016   3.735 -0.5885 -1.6996  1.3554
 3456SOL     OW22000   3.715   4.693   8.317 -0.0800 -0.1580  0.2007
 3456SOL    HW122001   3.766   0.014   8.259 -0.1810 -0.0835  0.1840
 3456SOL    HW222002   3.771   4.677   8.393 -0.4643  0.4476  0.6154
 3457SOL     OW22003   0.065   1.241   0.867 -0.5533  0.0309 -0.0757
 3457SOL    HW122004   0.075   1.318   0.811  0.9502 -0.5924 -0.6722
 3457SOL    HW222005   0.157   1.245   0.896 -0.2133 -0.1737 -1.1526
 3458SOL     OW22006   2.838   1.631   6.320  0.0103 -0.2395 -0.2171
 3458SOL    HW122007   2.786   1.594   6.249 -0.8082 -0.0595  0.2837
 3458SOL    HW222008   2.816   1.724   6.326 -0.2792 -0.4387  1.9675
 3459SOL     OW22009   4.555   3.143   7.658  0.1445  0.0013 -0.3029
 3459SOL    HW122010   4.642   3.120   7.690 -0.2729 -0.5500  0.4518
 3459SOL    HW222011   4.565   3.236   7.637 -2.4560  0.8996  2.4382
 3460SOL     OW22012   4.018   1.260   3.965 -0.5358  0.0333  0.2381
 3460SOL    HW122013   4.060   1.192   3.911 -2.9290  1.5663 -3.5112
 3460SOL    HW222014   3.996   1.203   4.039 -1.1376  0.2341  0.2139
 3461SOL     OW22015   3.950   1.296   8.474 -0.4235  0.0376 -0.5875
 3461SOL    HW122016   3.975   1.276   8.564 -2.1110  0.7508  0.0432
 3461SOL    HW222017   4.027   1.347   8.450  0.5275 -1.4396 -0.6773
 3462SOL     OW22018   3.380   1.289  11.103  0.0392  0.0655 -0.3295
 3462SOL    HW122019   3.389   1.270  11.010  0.7900 -1.5940  0.0840
 3462SOL    HW222020   3.286   1.304  11.101  0.1812  1.0819  0.3843
 3463SOL     OW22021   2.045   1.058   2.635  0.2902  0.1159 -0.4400
 3463SOL    HW122022   1.982   0.994   2.669 -0.1095  0.4128 -0.6184
 3463SOL    HW222023   1.987   1.112   2.581  0.2491  0.5256  0.0232
 3464SOL     OW22024   4.586   0.187   8.962 -0.0086  0.0739 -0.0857
 3464SOL    HW122025   4.680   0.171   8.963  0.1385  0.8523 -2.1640
 3464SOL    HW222026   4.568   0.121   9.029  1.9223 -1.1353 -0.7855
 3465SOL     OW22027   1.471   3.609   7.744 -0.1910 -0.1103  0.0179
 3465SOL    HW122028   1.443   3.683   7.797  2.0240  2.8360 -2.9048
 3465SOL    HW222029   1.541   3.653   7.696  0.5769 -2.1183 -0.7166
 3466SOL     OW22030   0.042   4.639   3.762  0.4078  0.6691  0.2954
 3466SOL    HW122031   0.027   4.547   3.740  1.1519  0.7446 -0.5295
 3466SOL    HW222032   0.087   4.637   3.847  0.5012 -0.7858  0.2118
 3467SOL     OW22033   1.907   3.539   7.516  0.0840 -0.2612 -0.1646
 3467SOL    HW122034   1.871   3.455   7.545 -3.2146  0.7817 -1.2609
 3467SOL    HW222035   1.999   3.521   7.537  0.0128 -0.4489 -0.0177
 3468SOL     OW22036   3.610   2.609   5.690  0.2155  0.0570  0.1349
 3468SOL    HW122037   3.628   2.518   5.713 -0.4698  0.2570  1.4794
 3468SOL    HW222038   3.694   2.646   5.717 -0.0769  0.4690  0.5017
 3469SOL     OW22039   2.502   3.626  16.568  0.3827 -0.2032  0.7214
 3469SOL    HW122040   2.453   3.564  16.514  2.1387 -1.8637  1.0585
 3469SOL    HW222041   2.505   3.579  16.651 -0.2049 -1.2111  0.1812
 3470SOL     OW22042   0.079   0.892  14.296 -0.7027  0.4396 -0.0324
 3470SOL    HW122043   0.165   0.873  14.258 -0.3637  0.0287  0.9348
 3470SOL    HW222044   0.060   0.983  14.275  1.2731  0.8008 -0.2233
 3471SOL     OW22045   3.205   3.217   2.260 -0.2875 -0.1299 -0.1252
 3471SOL    HW122046   3.213   3.153   2.189 -2.1634 -0.3528 -0.1375
 3471SOL    HW222047   3.123   3.262   2.241 -0.1869  1.7691  3.8004
 3472SOL     OW22048   2.544   2.090  15.710  0.1092  0.6625 -0.3082
 3472SOL    HW122049   2.511   2.174  15.678 -1.9782 -0.4624 -1.1066
 3472SOL    HW222050   2.470   2.056  15.761  1.4925 -1.4296  0.3027
 3473SOL     OW22051   4.038   3.438   5.016  0.4861 -0.7819 -0.2740
 3473SOL    HW122052   3.942   3.443   5.011  0.5066  0.6259  0.5695
 3473SOL    HW222053   4.061   3.517   4.967  1.3790  0.2693  1.8292
 3474SOL     OW22054   2.891   0.180   6.499 -0.3040 -0.2005  0.6977
 3474SOL    HW122055   2.934   0.188   6.414  1.2296  1.9918  1.6826
 3474SOL    HW222056   2.949   0.111   6.532 -1.1176 -0.9856  0.4935
 3475SOL     OW22057   0.193   1.417   5.925  0.9622  0.0610  0.2763
 3475SOL    HW122058   0.131   1.430   5.853  0.8255  0.0377  0.3900
 3475SOL    HW222059   0.139   1.433   6.003  1.8546  0.0139  0.9068
 3476SOL     OW22060   1.954   4.525  15.821 -0.1446 -0.3476  0.3302
 3476SOL    HW122061   1.879   4.583  15.830  0.5195  0.4955  0.4967
 3476SOL    HW222062   1.960   4.536  15.726 -0.9676  0.8439  0.4135
 3477SOL     OW22063   1.416   0.618   8.456  0.8545 -0.0347  0.1038
 3477SOL    HW122064   1.333   0.635   8.411  1.7713  2.0231 -0.8388
 3477SOL    HW222065   1.463   0.700   8.439  0.3240  0.0360 -1.0620
 3478SOL     OW22066   0.690   4.101   2.819 -0.5513  0.1393  0.7177
 3478SOL    HW122067   0.750   4.028   2.804 -0.9965  0.1006 -0.9234
 3478SOL    HW222068   0.704   4.104   2.913  0.6711  1.0412  0.5079
 3479SOL     OW22069   0.314   1.144  14.455  0.3941 -0.1888  0.0588
 3479SOL    HW122070   0.279   1.104  14.375  0.0820 -0.7603  0.4806
 3479SOL    HW222071   0.406   1.159  14.432  0.3130 -0.8559 -0.7162
 3480SOL     OW22072   3.294   1.960   5.353  0.0397  0.2595  0.2148
 3480SOL    HW122073   3.335   2.037   5.312  0.2048 -0.1558 -0.3960
 3480SOL    HW222074   3.372   1.917   5.387  0.8551  3.3281  2.2458
 3481SOL     OW22075   3.295   2.618   7.833 -0.4736  0.4011  0.1149
 3481SOL    HW122076   3.230   2.551   7.810 -0.1227  0.9185 -2.3959
 3481SOL    HW222077   3.301   2.658   7.747  2.2824  0.4659  0.3489
 3482SOL     OW22078   2.423   1.930   8.472 -0.6800  0.0852  0.0466
 3482SOL    HW122079   2.369   1.955   8.548 -0.4417  1.0259 -0.0909
 3482SOL    HW222080   2.462   1.848   8.500 -0.2272 -0.1081 -1.1697
 3483SOL     OW22081   1.825   0.569   5.295  0.6834  0.1833  0.2196
 3483SOL    HW122082   1.762   0.637   5.272  1.4036  0.9457  0.5237
 3483SOL    HW222083   1.904   0.623   5.292  0.5180  0.4820  1.4519
 3484SOL     OW22084   1.391   0.695  16.195 -0.5542 -0.0204 -0.6420
 3484SOL    HW122085   1.358   0.606  16.187  2.0838 -0.8277 -2.2089
 3484SOL    HW222086   1.467   0.697  16.137  0.0291 -1.9370  0.0586
 3485SOL     OW22087   3.852   1.110   2.892  0.5791  0.4266 -0.1790
 3485SOL    HW122088   3.797   1.126   2.969 -1.2641 -2.1487 -0.9310
 3485SOL    HW222089   3.843   1.192   2.844  3.3583  1.4582  1.0623
 3486SOL     OW22090   1.728   1.490  16.520 -0.0934  0.1762 -0.0665
 3486SOL    HW122091   1.753   1.422  16.457 -0.8671  0.7368 -0.9772
 3486SOL    HW222092   1.754   1.438  16.596 -0.0079 -0.2321 -0.3771
 3487SOL     OW22093   0.496   2.804   0.143  0.3723  0.2622 -0.2054
 3487SOL    HW122094   0.442   2.845   0.210 -1.1212  1.4010 -2.1026
 3487SOL    HW222095   0.566   2.773   0.202  0.3649 -1.8281 -1.2720
 3488SOL     OW22096   1.546   1.345   7.302 -0.2871  0.8492 -0.2033
 3488SOL    HW122097   1.486   1.411   7.266 -0.5736 -0.7278 -2.6095
 3488SOL    HW222098   1.617   1.395   7.342 -0.6481 -1.4399  3.3116
 3489SOL     OW22099   2.410   0.956  14.621 -0.6028 -0.0263  0.4067
 3489SOL    HW122100   2.383   0.867  14.645  0.5310 -0.2953  0.7057
 3489SOL    HW222101   2.433   0.979  14.712  3.4448 -1.3641 -0.2570
 3490SOL     OW22102   3.552   4.428   8.371  0.5458 -0.0803 -0.1780
 3490SOL    HW122103   3.574   4.382   8.452 -0.9929  0.3369  0.4751
 3490SOL    HW222104   3.543   4.351   8.316  1.5651  0.2378 -0.7893
 3491SOL     OW22105   0.625   4.021   8.576 -0.0128  0.7182 -0.3740
 3491SOL    HW122106   0.644   4.093   8.515 -0.4211  0.0110 -1.3349
 3491SOL    HW222107   0.533   4.030   8.602 -0.5892 -1.8121 -1.5523
 3492SOL     OW22108   4.295   1.159   9.476  0.0961 -0.2099  0.1698
 3492SOL    HW122109   4.268   1.071   9.452 -0.3401  0.2329 -1.0075
 3492SOL    HW222110   4.229   1.211   9.430  1.0022 -0.9018 -1.9254
 3493SOL     OW22111   3.910   0.295   1.149  0.1939  0.3649  0.1169
 3493SOL    HW122112   3.842   0.358   1.170  0.3801  0.6471 -0.1217
 3493SOL    HW222113   3.965   0.343   1.087 -0.3000 -0.6960 -1.1299
 3494SOL     OW22114   1.882   0.213   2.418 -0.4111  0.3102  0.0721
 3494SOL    HW122115   1.911   0.247   2.502 -1.9044 -2.4851  1.7036
 3494SOL    HW222116   1.817   0.282   2.401  0.4584  1.6899  2.3670
 3495SOL     OW22117   0.459   2.028  17.310  0.3456 -0.0312  0.3391
 3495SOL    HW122118   0.387   2.087  17.329  0.1241  0.2196 -1.2574
 3495SOL    HW222119   0.463   2.044  17.216 -1.3185 -0.7105  0.1594
 3496SOL     OW22120   0.034   1.374   9.612  0.0827 -0.3402  0.1396
 3496SOL    HW122121   0.006   1.447   9.667  1.6926  0.4859 -0.1140
 3496SOL    HW222122   4.692   1.318   9.612  0.2859 -0.6295 -0.2773
 3497SOL     OW22123   0.320   0.866  12.328  0.4105 -0.5792  0.0769
 3497SOL    HW122124   0.292   0.777  12.306  1.6605 -1.6134  2.6761
 3497SOL    HW222125   0.234   0.904  12.348  0.5785  0.1132 -0.5152
 3498SOL     OW22126   1.866   0.740   0.983  0.5783 -0.4123 -0.5804
 3498SOL    HW122127   1.785   0.728   0.933 -0.8357  1.5335  1.2618
 3498SOL    HW222128   1.930   0.684   0.938  0.8066  0.6287 -1.5470
 3499SOL     OW22129   1.065   4.596  10.539 -0.3575  0.5574 -0.1890
 3499SOL    HW122130   1.154   4.560  10.549 -1.1144 -1.0862  0.7805
 3499SOL    HW222131   1.051   4.583  10.446 -2.4609  3.4423 -0.2602
 3500SOL     OW22132   1.705   3.688   5.381 -0.0270 -0.4735  0.3895
 3500SOL    HW122133   1.615   3.715   5.366 -0.9606 -3.6700  0.0897
 3500SOL    HW222134   1.744   3.770   5.410  0.2689  0.6231 -3.1327
 3501SOL     OW22135   1.470   3.738   8.463  0.2812  0.1780  0.0209
 3501SOL    HW122136   1.557   3.706   8.438  0.7889 -0.3127  2.3714
 3501SOL    HW222137   1.484   3.832   8.453 -1.5906  0.7392  2.5407
 3502SOL     OW22138   2.168   3.415   2.365  0.0620  0.1976 -0.0074
 3502SOL    HW122139   2.230   3.344   2.348  1.1639  0.2735  3.7297
 3502SOL    HW222140   2.129   3.374   2.442 -2.9318  1.1428 -1.0173
 3503SOL     OW22141   3.155   0.992  14.031  0.5064  0.1796  0.5635
 3503SOL    HW122142   3.168   0.915  13.976 -2.0994 -0.5663  1.0225
 3503SOL    HW222143   3.063   0.981  14.054  0.3656 -0.3407 -0.2252
 3504SOL     OW22144   2.144   0.502   5.735 -0.0222  0.2479 -0.8884
 3504SOL    HW122145   2.202   0.425   5.732  1.6975  1.3885  2.2819
 3504SOL    HW222146   2.141   0.507   5.640  0.0844 -2.4990 -1.0431
 3505SOL     OW22147   3.922   1.241   2.289  0.5353 -0.0404 -0.2079
 3505SOL    HW122148   3.847   1.280   2.243 -1.9164  0.2746  4.1076
 3505SOL    HW222149   3.945   1.176   2.222  0.9807 -0.8113  0.7070
 3506SOL     OW22150   1.719   3.399   4.254  0.2899  0.2374  0.2930
 3506SOL    HW122151   1.799   3.420   4.205  1.6617  0.1209  2.4983
 3506SOL    HW222152   1.757   3.341   4.319 -1.5891 -0.3007  0.9114
 3507SOL     OW22153   4.587   1.847   8.921  0.0916 -0.0182 -0.1282
 3507SOL    HW122154   4.651   1.918   8.932 -1.0408  1.1327 -0.9017
 3507SOL    HW222155   4.654   1.787   8.889  0.6358 -0.5489  2.0721
 3508SOL     OW22156   1.877   3.679   3.030 -0.4876 -0.0670 -0.1972
 3508SOL    HW122157   1.936   3.617   2.987  0.9082  0.6786  0.6570
 3508SOL    HW222158   1.858   3.633   3.112 -1.2005 -0.0567 -0.3553
 3509SOL     OW22159   0.392   0.714   2.824  0.1268 -0.3473  0.3325
 3509SOL    HW122160   0.400   0.735   2.730 -1.9005  1.0365  0.4518
 3509SOL    HW222161   0.298   0.732   2.821  0.0734 -0.3468  2.3225
 3510SOL     OW22162   1.373   2.134   2.353  0.4532  0.0731 -0.4859
 3510SOL    HW122163   1.307   2.183   2.304 -2.1072 -1.1059  1.7069
 3510SOL    HW222164   1.457   2.175   2.334  1.2355 -0.2500  2.1868
 3511SOL     OW22165   3.853   0.132   2.706  0.0962 -0.6423 -0.1201
 3511SOL    HW122166   3.922   0.177   2.659  1.3360 -1.3146  1.0546
 3511SOL    HW222167   3.795   0.208   2.715 -0.3680 -0.8436 -1.5257
 3512SOL     OW22168   3.368   2.674   4.401 -0.6052 -0.1729  0.0601
 3512SOL    HW122169   3.345   2.646   4.312 -0.9505  2.3887 -0.6497
 3512SOL    HW222170   3.298   2.738   4.413 -0.6973  0.2696 -2.9051
 3513SOL     OW22171   3.281   3.466  10.851  0.2464 -0.3849 -0.0928
 3513SOL    HW122172   3.359   3.420  10.881  1.3096  1.9796  0.8243
 3513SOL    HW222173   3.298   3.446  10.759  0.3828 -1.4057  0.1536
 3514SOL     OW22174   3.872   3.078   9.240 -0.3079  0.0944  0.1593
 3514SOL    HW122175   3.947   3.069   9.299 -0.8624 -1.1711  0.6743
 3514SOL    HW222176   3.807   3.097   9.307 -3.1180  0.2763 -2.5889
 3515SOL     OW22177   3.345   2.714  17.652  0.0604 -0.1762 -0.2213
 3515SOL    HW122178   3.341   2.733   0.003 -0.5648  0.7722 -0.4457
 3515SOL    HW222179   3.440   2.722  17.638 -0.2266  2.2871 -0.6617
 3516SOL     OW22180   1.798   4.533   3.975 -0.0858 -0.1562 -0.5324
 3516SOL    HW122181   1.842   4.472   3.917  0.0048 -2.2308  1.7170
 3516SOL    HW222182   1.840   4.503   4.056  0.6385  0.5504 -0.6456
 3517SOL     OW22183   2.277   3.634  14.038 -0.0876  0.1087  0.4113
 3517SOL    HW122184   2.211   3.566  14.050 -1.2757  0.6147 -3.2642
 3517SOL    HW222185   2.355   3.579  14.044  0.5384  1.1706  2.0681
 3518SOL     OW22186   0.501   3.554  17.189 -0.1209 -0.3940 -0.0262
 3518SOL    HW122187   0.512   3.628  17.249  1.2342 -1.4258  1.0008
 3518SOL    HW222188   0.586   3.541  17.148 -0.6427 -3.6829 -0.0739
 3519SOL     OW22189   0.255   3.162   3.770 -0.8613 -0.0870  0.1941
 3519SOL    HW122190   0.246   3.151   3.675  1.3140  0.2842 -0.0694
 3519SOL    HW222191   0.190   3.230   3.789 -1.6733 -0.2523 -1.9860
 3520SOL     OW22192   0.101   2.592   0.989 -0.1317  0.0009  0.4534
 3520SOL    HW122193   0.166   2.642   0.939  0.0237 -1.8335 -1.1529
 3520SOL    HW222194   0.024   2.620   0.941  1.6151  0.6815 -1.9382
 3521SOL     OW22195   3.108   2.390   4.638 -0.0942  0.2914 -0.5494
 3521SOL    HW122196   3.086   2.391   4.545 -0.9259  1.5843 -0.3424
 3521SOL    HW222197   3.052   2.459   4.674 -0.2234 -0.5063  0.8170
 3522SOL     OW22198   3.622   3.335   0.715  0.0136 -0.2971 -0.2902
 3522SOL    HW122199   3.534   3.318   0.749 -0.5197 -0.2360 -1.6107
 3522SOL    HW222200   3.669   3.253   0.731  0.9672 -0.2761 -2.8586
 3523SOL     OW22201   0.504   4.726   9.773 -0.1513  0.3118  0.2868
 3523SOL    HW122202   0.561   0.028   9.839  0.0261  0.6987 -0.0929
 3523SOL    HW222203   0.545   4.644   9.745  0.4802  0.2670  1.3573
 3524SOL     OW22204   3.272   1.885  12.870 -0.2402  0.0327 -0.2115
 3524SOL    HW122205   3.204   1.919  12.928  1.4232  0.9129  1.2376
 3524SOL    HW222206   3.282   1.797  12.907 -0.0125 -0.3012 -1.0578
 3525SOL     OW22207   0.909   0.306   2.496  0.2722  0.0030 -0.2475
 3525SOL    HW122208   0.879   0.300   2.406  0.2367  0.7554 -0.2830
 3525SOL    HW222209   0.927   0.400   2.491  1.1659 -0.3054 -2.9549
 3526SOL     OW22210   2.612   4.136   4.447 -0.4355  0.3628  0.4222
 3526SOL    HW122211   2.559   4.067   4.405 -1.7385  1.4707  0.2680
 3526SOL    HW222212   2.697   4.092   4.444 -1.1424 -0.9876 -0.4131
 3527SOL     OW22213   1.699   3.287   9.655  0.3320  0.2366  0.5027
 3527SOL    HW122214   1.708   3.220   9.588 -0.5328  0.1901  0.4341
 3527SOL    HW222215   1.756   3.243   9.719 -0.5943 -0.5000  0.8232
 3528SOL     OW22216   1.232   2.774   8.910 -0.2394  0.1742  0.1763
 3528SOL    HW122217   1.301   2.818   8.860 -1.3205  1.3936 -0.2517
 3528SOL    HW222218   1.156   2.812   8.864  0.5918  0.0192 -1.3247
 3529SOL     OW22219   1.479   1.761  10.935  0.2794  0.2900  0.4798
 3529SOL    HW122220   1.485   1.812  11.016 -0.6988 -0.4359  0.9939
 3529SOL    HW222221   1.536   1.805  10.871 -3.0327  2.7436 -0.7730
 3530SOL     OW22222   1.297   2.266   3.070 -0.2440 -0.1948 -0.7008
 3530SOL    HW122223   1.294   2.187   3.125 -1.0861  0.8682  0.7776
 3530SOL    HW222224   1.354   2.242   2.997  0.7969  2.3224 -0.7208
 3531SOL     OW22225   1.072   1.556  11.066  0.0356 -0.1327  0.1004
 3531SOL    HW122226   1.119   1.630  11.105 -0.7327  1.1116 -1.2837
 3531SOL    HW222227   0.982   1.578  11.091  0.0416 -0.7422  0.6300
 3532SOL     OW22228   4.293   1.481  16.117  0.0677 -0.0077  0.3905
 3532SOL    HW122229   4.244   1.400  16.106  2.1359 -1.1753 -0.2787
 3532SOL    HW222230   4.223   1.543  16.136 -0.5073 -0.4596 -0.2703
 3533SOL     OW22231   0.916   1.374   8.787  0.1656 -0.0883  0.6394
 3533SOL    HW122232   0.990   1.407   8.837  0.6495 -0.1342 -0.0511
 3533SOL    HW222233   0.951   1.298   8.741 -0.8327  1.8861 -3.3769
 3534SOL     OW22234   0.180   4.445   6.350 -0.1767  0.6877  0.1566
 3534SOL    HW122235   0.187   4.478   6.439  1.5216 -1.1126  0.6918
 3534SOL    HW222236   0.216   4.525   6.313 -0.6816  0.8694  0.0609
 3535SOL     OW22237   2.363   1.922   6.327 -0.0103  0.6279  0.4330
 3535SOL    HW122238   2.412   1.875   6.394  2.1132  1.6590 -0.4159
 3535SOL    HW222239   2.433   1.976   6.291  1.0998  0.3299  2.1699
 3536SOL     OW22240   0.593   4.497  16.004  0.7176 -0.4408  0.0018
 3536SOL    HW122241   0.589   4.417  16.056  0.8757 -0.9567 -0.7861
 3536SOL    HW222242   0.573   4.562  16.072 -0.9809  0.3969 -1.2930
 3537SOL     OW22243   0.731   0.038   2.975  0.5722  0.1513  0.3876
 3537SOL    HW122244   0.707   0.109   2.917 -0.7922 -0.1567  0.5811
 3537SOL    HW222245   0.720   0.076   3.062  0.3350  0.2985  0.2899
 3538SOL     OW22246   3.698   1.518   7.148  0.0420 -0.1165 -0.5776
 3538SOL    HW122247   3.769   1.540   7.208 -1.1698  0.8535  0.4990
 3538SOL    HW222248   3.704   1.423   7.146  0.0639 -0.1312  0.2059
 3539SOL     OW22249   0.887   2.106   5.054 -0.0343 -0.2562  0.4249
 3539SOL    HW122250   0.965   2.160   5.062  1.6019 -2.6712  0.7918
 3539SOL    HW222251   0.901   2.039   4.987  0.6276  0.1509  0.1538
 3540SOL     OW22252   0.147   1.191   8.495  0.4362  0.0172  0.2611
 3540SOL    HW122253   0.079   1.205   8.429 -1.0830 -0.6858  1.6711
 3540SOL    HW222254   0.228   1.193   8.444 -0.1695  2.7674 -0.5923
 3541SOL     OW22255   4.364   1.258  15.811 -0.3197  0.2551  0.1666
 3541SOL    HW122256   4.316   1.286  15.888  1.5420  0.3748  1.2877
 3541SOL    HW222257   4.382   1.342  15.769  2.3383  0.2466  1.3016
 3542SOL     OW22258   3.241   4.109   6.625  0.0421 -0.6373  1.2214
 3542SOL    HW122259   3.314   4.049   6.617 -1.2931 -2.0274 -0.3855
 3542SOL    HW222260   3.215   4.130   6.535  1.9687 -0.5608  0.6948
 3543SOL     OW22261   1.999   1.176  15.181 -0.3269 -0.1956 -0.2908
 3543SOL    HW122262   1.979   1.113  15.251  2.7944 -0.1782  0.6170
 3543SOL    HW222263   1.911   1.211  15.170 -0.5146 -1.1531 -1.8067
 3544SOL     OW22264   3.556   2.506   8.147 -0.2775 -0.5204  0.8208
 3544SOL    HW122265   3.485   2.555   8.189 -1.0440 -0.1590 -0.8866
 3544SOL    HW222266   3.593   2.461   8.222  1.4743  1.0453  0.9027
 3545SOL     OW22267   0.279   0.293   4.019  0.5337 -0.3344 -0.2378
 3545SOL    HW122268   0.335   0.235   4.070  0.9938  0.3082 -0.0131
 3545SOL    HW222269   0.213   0.325   4.080  1.7588 -0.6368  1.2511
 3546SOL     OW22270   3.128   2.891   2.189 -0.0583  0.6577  0.3291
 3546SOL    HW122271   3.177   2.854   2.262  3.0301  1.2918 -1.4324
 3546SOL    HW222272   3.189   2.943   2.137 -0.3931  0.9960  0.2754
 3547SOL     OW22273   1.384   1.685   9.370  0.1410 -1.3428  0.1639
 3547SOL    HW122274   1.351   1.772   9.347 -0.6043 -1.6700 -0.0081
 3547SOL    HW222275   1.399   1.718   9.459  1.6983  3.6768 -1.9267
 3548SOL     OW22276   2.836   0.926   5.444  0.5523 -0.5896 -0.1781
 3548SOL    HW122277   2.791   0.890   5.520 -1.4022 -1.8967 -1.9789
 3548SOL    HW222278   2.877   0.998   5.493  0.6031 -1.4184  0.9889
 3549SOL     OW22279   3.422   2.448   0.538 -0.1699 -0.1273 -0.0482
 3549SOL    HW122280   3.340   2.491   0.516 -0.3812  0.0197  1.0270
 3549SOL    HW222281   3.460   2.532   0.565  1.6192 -0.8667 -0.2766
 3550SOL     OW22282   4.523   1.804   7.041  0.8425 -0.5315  0.1945
 3550SOL    HW122283   4.468   1.733   7.007  0.4072  0.3239 -0.8732
 3550SOL    HW222284   4.460   1.860   7.086  1.5093  0.1765  0.2350
 3551SOL     OW22285   1.202   0.683  15.339 -0.5700 -0.6864  0.0333
 3551SOL    HW122286   1.252   0.602  15.333 -0.1548 -0.4667  0.5441
 3551SOL    HW222287   1.244   0.739  15.273 -0.1774 -0.3933  0.5293
 3552SOL     OW22288   1.591   0.386   9.989  0.3310 -0.2677  0.0883
 3552SOL    HW122289   1.650   0.412   9.919  3.1888 -1.4988  2.0726
 3552SOL    HW222290   1.524   0.337   9.941  1.5912 -1.7400 -0.1671
 3553SOL     OW22291   2.674   1.534  11.959  0.1884 -0.2253  1.0088
 3553SOL    HW122292   2.759   1.493  11.973  1.7451  2.1551 -1.6457
 3553SOL    HW222293   2.630   1.458  11.919 -0.1441  0.3758  0.2251
 3554SOL     OW22294   3.027   0.468   4.252 -0.0803 -0.4992 -0.7651
 3554SOL    HW122295   3.051   0.393   4.307  1.2326  0.9334  0.6108
 3554SOL    HW222296   3.041   0.434   4.164  0.8254 -1.9360 -0.0593
 3555SOL     OW22297   2.339   3.442   2.935 -0.1850 -0.1378 -0.0487
 3555SOL    HW122298   2.325   3.535   2.954  1.0793 -0.2382  1.3742
 3555SOL    HW222299   2.396   3.426   3.011  2.1881  2.9940 -1.1712
 3556SOL     OW22300   3.104   2.252   5.176  0.5198 -0.8512 -0.3665
 3556SOL    HW122301   3.016   2.290   5.179 -0.0164 -2.2991  1.9737
 3556SOL    HW222302   3.093   2.169   5.222  1.7012 -0.6085  0.3437
 3557SOL     OW22303   3.279   0.490   8.185 -0.2422 -0.7893 -0.3508
 3557SOL    HW122304   3.280   0.579   8.219  0.1387 -0.9392  0.0464
 3557SOL    HW222305   3.219   0.507   8.113 -1.1415 -3.3728 -0.2146
 3558SOL     OW22306   3.030   0.720   9.547  0.0707  0.0140 -0.0203
 3558SOL    HW122307   3.075   0.773   9.481 -2.5795 -0.0815 -1.9100
 3558SOL    HW222308   3.095   0.727   9.617 -1.0501  0.1075  1.0132
 3559SOL     OW22309   1.175   2.960  17.644  0.6214  0.1056  0.3223
 3559SOL    HW122310   1.079   2.957  17.653  0.4727 -2.7020 -2.3422
 3559SOL    HW222311   1.182   3.051  17.616  0.8024 -0.0526 -0.1385
 3560SOL     OW22312   2.305   4.434   5.517 -0.0371  0.1147 -0.3061
 3560SOL    HW122313   2.377   4.461   5.459 -1.1217  1.2591 -1.1264
 3560SOL    HW222314   2.292   4.342   5.494 -0.6459 -0.2710  1.6089
 3561SOL     OW22315   0.939   0.647   2.958 -0.0732 -0.0127 -0.2234
 3561SOL    HW122316   0.879   0.669   3.030 -1.1975  0.1256 -1.2068
 3561SOL    HW222317   0.893   0.672   2.878  1.4612  1.8017 -0.5429
 3562SOL     OW22318   3.982   0.163  11.173 -0.0402 -0.0987  0.5026
 3562SOL    HW122319   4.030   0.098  11.224  1.1202 -0.0637 -0.5385
 3562SOL    HW222320   3.988   0.243  11.226  0.1780 -0.0636  0.4282
 3563SOL     OW22321   3.730   2.276   2.061 -0.2961 -0.1791 -0.2716
 3563SOL    HW122322   3.745   2.186   2.089  0.5520  0.1494  0.3394
 3563SOL    HW222323   3.791   2.334   2.107  0.0991 -0.7853 -0.0301
 3564SOL     OW22324   3.028   2.730  10.146  0.3038  0.2859  0.2481
 3564SOL    HW122325   3.000   2.743  10.056  0.9388  0.3827  0.0619
 3564SOL    HW222326   3.053   2.639  10.162  1.1476  0.7712  1.7450
 3565SOL     OW22327   3.121   3.717   6.828  0.2620 -0.1120 -0.0927
 3565SOL    HW122328   3.081   3.789   6.877  3.0748  1.1646  0.3939
 3565SOL    HW222329   3.142   3.651   6.893  0.4710  0.8976  0.8685
 3566SOL     OW22330   4.620   4.530   7.368  0.2412  0.5933  0.1374
 3566SOL    HW122331   4.682   4.502   7.301  1.2594 -2.5779  2.4089
 3566SOL    HW222332   4.648   4.622   7.368  0.6719  0.4605  0.1155
 3567SOL     OW22333   0.691   3.812   0.626  0.2463  0.3176 -0.4580
 3567SOL    HW122334   0.705   3.721   0.652 -2.3422  0.6238  1.9332
 3567SOL    HW222335   0.617   3.789   0.570  0.5246  0.7118 -0.9905
 3568SOL     OW22336   3.303   2.921   4.533 -0.1588  0.2199  0.0311
 3568SOL    HW122337   3.313   3.014   4.511 -1.2075  0.8180  2.0766
 3568SOL    HW222338   3.384   2.913   4.581  0.5989  0.5649 -1.1795
 3569SOL     OW22339   3.705   3.631   7.455 -0.0562  0.0811  0.2848
 3569SOL    HW122340   3.762   3.708   7.452 -0.6544  0.4668 -1.5770
 3569SOL    HW222341   3.745   3.578   7.523 -1.0277  1.9895  2.3481
 3570SOL     OW22342   3.389   2.498   3.398 -0.0753  0.4351  0.2999
 3570SOL    HW122343   3.428   2.483   3.484  0.5747 -0.7846 -0.2183
 3570SOL    HW222344   3.314   2.439   3.397  0.5409 -0.3540  0.4305
 3571SOL     OW22345   1.566   4.580   9.843 -0.1880  0.1009 -0.0727
 3571SOL    HW122346   1.615   4.580   9.926  0.2316  0.4884 -0.3225
 3571SOL    HW222347   1.539   4.489   9.833  0.3918 -0.2421  1.3868
 3572SOL     OW22348   1.783   2.964  14.411 -0.3041 -0.1495 -0.0604
 3572SOL    HW122349   1.829   3.044  14.438 -0.8840  0.2963 -0.3970
 3572SOL    HW222350   1.730   3.002  14.341  0.4400  0.3289 -0.3584
 3573SOL     OW22351   0.961   0.770  16.011 -0.0008 -0.1465  0.6878
 3573SOL    HW122352   1.018   0.710  16.059  1.1141 -0.0302 -0.4788
 3573SOL    HW222353   1.012   0.850  16.025 -1.9297  0.9913  1.2831
 3574SOL     OW22354   3.040   1.422  10.517 -0.5603  0.1645 -0.4305
 3574SOL    HW122355   3.020   1.404  10.609 -0.9025 -2.9712 -1.0934
 3574SOL    HW222356   3.133   1.400  10.509 -0.5945 -0.0470 -0.2404
 3575SOL     OW22357   0.163   4.267   4.458  0.3341 -0.3108 -0.8341
 3575SOL    HW122358   0.215   4.277   4.538 -0.5423  0.5221 -0.3656
 3575SOL    HW222359   0.138   4.175   4.457  1.6814 -0.7189  2.6589
 3576SOL     OW22360   1.626   0.460   6.943 -0.1218 -0.0488  0.2271
 3576SOL    HW122361   1.614   0.403   7.019  0.1617 -0.7830 -0.2758
 3576SOL    HW222362   1.693   0.522   6.971  0.8298 -1.2856  0.7154
 3577SOL     OW22363   3.852   3.501  13.365 -0.3564 -0.4605 -0.1079
 3577SOL    HW122364   3.795   3.464  13.297 -1.3900  0.2312  0.3736
 3577SOL    HW222365   3.854   3.589  13.328  0.0400 -1.2659 -2.0093
 3578SOL     OW22366   0.056   3.716   1.567 -0.1562 -0.1303 -0.0885
 3578SOL    HW122367   0.100   3.799   1.585 -4.2882  1.8543  0.9114
 3578SOL    HW222368   0.113   3.690   1.495 -1.5742 -0.0964 -1.2092
 3579SOL     OW22369   2.612   2.671   1.374 -0.0231 -0.4986 -0.1677
 3579SOL    HW122370   2.537   2.661   1.432  0.8444 -2.3725  0.6371
 3579SOL    HW222371   2.671   2.727   1.425 -0.6431 -0.5612  0.6201
 3580SOL     OW22372   3.208   2.097  10.086  0.5148  0.7219  0.1127
 3580SOL    HW122373   3.133   2.147  10.118 -2.2139 -3.2947  0.0291
 3580SOL    HW222374   3.184   2.082   9.994 -0.5625 -1.1246  0.6947
 3581SOL     OW22375   1.703   2.945  10.791  0.3500 -0.0113  0.7180
 3581SOL    HW122376   1.648   2.935  10.869  0.5151 -2.9048  0.4669
 3581SOL    HW222377   1.741   3.031  10.808  1.4378 -0.7412  1.9392
 3582SOL     OW22378   0.944   1.125   4.256  0.5366 -0.3732  0.2327
 3582SOL    HW122379   0.867   1.171   4.223 -0.6320 -2.2929  0.2676
 3582SOL    HW222380   1.000   1.202   4.265  1.5929 -1.1107  0.0827
 3583SOL     OW22381   1.514   1.274   6.101 -0.0277 -0.3875 -0.4174
 3583SOL    HW122382   1.547   1.318   6.022 -1.1021  0.6807 -0.2653
 3583SOL    HW222383   1.431   1.256   6.058 -1.1095 -0.4670  1.6936
 3584SOL     OW22384   4.552   0.547   8.881 -0.3285 -0.0661 -0.4564
 3584SOL    HW122385   4.624   0.492   8.913  0.1868 -0.3037 -2.0073
 3584SOL    HW222386   4.550   0.602   8.959 -0.9670 -0.6495 -0.0613
 3585SOL     OW22387   2.212   4.573   7.688  0.4320 -0.3431 -0.2234
 3585SOL    HW122388   2.196   4.481   7.709  1.4186 -0.5176 -0.2084
 3585SOL    HW222389   2.125   4.600   7.716  0.7768 -0.0677  0.5671
 3586SOL     OW22390   0.827   0.816   9.121 -0.2100  0.2565  0.1185
 3586SOL    HW122391   0.901   0.805   9.061  0.1593  1.2461  0.4007
 3586SOL    HW222392   0.808   0.725   9.142 -1.1246  0.6571  0.9966
 3587SOL     OW22393   4.008   0.458   0.364  0.4471  0.2577  0.2364
 3587SOL    HW122394   4.078   0.513   0.328  2.6162  0.0244  4.0248
 3587SOL    HW222395   4.005   0.388   0.298 -1.2376  0.1836  0.4062
 3588SOL     OW22396   3.525   4.000  15.184 -0.3403 -0.0338 -0.0627
 3588SOL    HW122397   3.541   3.907  15.171  1.6263  0.1185  1.2611
 3588SOL    HW222398   3.533   4.004  15.279  1.6733 -1.1237 -0.1772
 3589SOL     OW22399   0.750   3.547   0.652  0.1567 -0.0395 -0.3725
 3589SOL    HW122400   0.677   3.504   0.608 -0.5710  0.1139  0.6703
 3589SOL    HW222401   0.817   3.487   0.620  2.0892  1.8754  0.0968
 3590SOL     OW22402   0.918   0.205   9.938  0.3117 -0.8771 -0.1535
 3590SOL    HW122403   0.987   0.220   9.873  0.2236  0.3011  0.0248
 3590SOL    HW222404   0.849   0.179   9.877 -0.7792  1.5066  0.0484
 3591SOL     OW22405   0.535   0.205  16.611 -0.4018  0.5229 -0.1615
 3591SOL    HW122406   0.446   0.207  16.575 -0.5292  0.0583  0.1300
 3591SOL    HW222407   0.516   0.194  16.704  2.4524 -3.2404 -0.0558
 3592SOL     OW22408   4.507   1.578  16.378  0.4713  0.6159  0.0711
 3592SOL    HW122409   4.540   1.657  16.421  1.4825 -0.5418  1.4360
 3592SOL    HW222410   4.425   1.597  16.333 -0.2192 -3.9460 -0.6231
 3593SOL     OW22411   4.588   3.698   6.759  0.0840  0.0597  0.3732
 3593SOL    HW122412   4.513   3.748   6.791  0.3051 -0.1912  1.2998
 3593SOL    HW222413   4.577   3.692   6.665  2.7566 -0.1114  0.0821
 3594SOL     OW22414   1.871   1.970  14.144 -0.0162  0.2180 -0.1100
 3594SOL    HW122415   1.913   1.931  14.221 -0.8695  1.0341  0.7698
 3594SOL    HW222416   1.865   2.063  14.165  3.9562  0.5610 -0.4629
 3595SOL     OW22417   1.774   1.960  11.833  0.7316 -0.4527 -0.3597
 3595SOL    HW122418   1.721   1.974  11.911 -1.3223 -0.5876 -1.7306
 3595SOL    HW222419   1.826   2.040  11.842  3.2941 -2.0852 -0.7534
 3596SOL     OW22420   1.891   2.707   5.702 -0.4337 -0.1313 -0.2400
 3596SOL    HW122421   1.796   2.713   5.696 -0.4157 -1.9971 -2.4252
 3596SOL    HW222422   1.923   2.796   5.684 -0.4486  0.1859  1.3641
 3597SOL     OW22423   2.932   3.454   1.952  0.1223  0.4290  0.2333
 3597SOL    HW122424   2.860   3.471   1.891  1.5125 -0.2813 -1.6010
 3597SOL    HW222425   2.971   3.541   1.948  1.3664 -0.1076  0.7428
 3598SOL     OW22426   3.170   0.204   8.055 -0.2227  0.0389 -0.6583
 3598SOL    HW122427   3.172   0.300   8.056 -2.5608  0.0757  0.0522
 3598SOL    HW222428   3.096   0.185   8.112  1.6981 -0.2845  1.7277
 3599SOL     OW22429   1.000   2.009   7.615  0.1496 -0.0000  0.1050
 3599SOL    HW122430   0.966   1.987   7.702  0.7632 -0.0324  0.3406
 3599SOL    HW222431   1.011   2.104   7.619 -0.6617  0.1954 -2.3881
 3600SOL     OW22432   4.605   0.122   9.418  1.2044 -0.2363  0.3329
 3600SOL    HW122433   4.631   0.033   9.393  3.7670  1.2825 -2.4085
 3600SOL    HW222434   4.629   0.118   9.510  0.6231 -0.4966  0.4766
 3601SOL     OW22435   3.407   0.518   3.436  0.4264 -0.3484  0.3417
 3601SOL    HW122436   3.365   0.587   3.385 -1.0872 -0.8934  0.8644
 3601SOL    HW222437   3.339   0.451   3.433  1.9097 -1.7597 -1.7924
 3602SOL     OW22438   0.736   2.674   4.561 -0.2339  0.2460  0.6365
 3602SOL    HW122439   0.770   2.602   4.508 -0.1175 -0.8376  2.1852
 3602SOL    HW222440   0.646   2.669   4.531 -0.3283  1.1794  0.7385
 3603SOL     OW22441   4.056   2.073  16.276 -0.0314 -0.2075 -0.3704
 3603SOL    HW122442   4.116   2.128  16.325  0.9315 -0.6268 -1.0752
 3603SOL    HW222443   4.112   2.053  16.201 -0.2796  1.4064 -0.9787
 3604SOL     OW22444   4.690   0.118  12.826 -0.7146  0.0886  0.1457
 3604SOL    HW122445   4.685   0.066  12.746 -0.8691  0.5006 -0.1135
 3604SOL    HW222446   4.639   0.055  12.876 -1.5750 -0.0081 -0.8699
 3605SOL     OW22447   0.660   0.148  13.346 -0.0555  0.4807  0.1296
 3605SOL    HW122448   0.572   0.167  13.378  0.5847  0.1288  2.0676
 3605SOL    HW222449   0.637   0.100  13.266  0.8160 -0.4847  0.4708
 3606SOL     OW22450   1.781   2.322  11.685  0.0114  0.1697  0.1038
 3606SOL    HW122451   1.856   2.262  11.688 -0.0643 -0.0838 -2.9809
 3606SOL    HW222452   1.783   2.347  11.777 -0.3225 -0.2406  0.2209
 3607SOL     OW22453   3.923   3.015   6.874  0.1209 -0.3175  0.3075
 3607SOL    HW122454   3.895   3.031   6.784  2.5833  1.2075 -0.1855
 3607SOL    HW222455   4.017   3.028   6.858  0.0872  1.6293  1.6465
 3608SOL     OW22456   4.541   4.259   6.130  0.1739  0.5902 -0.2385
 3608SOL    HW122457   4.525   4.233   6.039  0.5236 -2.8761  0.6889
 3608SOL    HW222458   4.457   4.224   6.158  0.5845  0.3433  0.6675
 3609SOL     OW22459   0.580   3.475  11.344 -0.7404 -0.3262  0.2119
 3609SOL    HW122460   0.497   3.494  11.299 -0.8262 -0.0457  0.4945
 3609SOL    HW222461   0.573   3.526  11.425 -1.3847  1.2943 -0.8553
 3610SOL     OW22462   0.419   3.322   0.668  0.1952  0.1536  0.4513
 3610SOL    HW122463   0.372   3.243   0.641  0.7326  0.1320 -0.4132
 3610SOL    HW222464   0.483   3.292   0.733  0.1328  0.4407  0.6476
 3611SOL     OW22465   4.210   2.040  15.175 -0.1913  0.1917 -0.1333
 3611SOL    HW122466   4.180   2.093  15.249 -0.0447  0.1088 -0.0139
 3611SOL    HW222467   4.296   2.078  15.157 -0.1498 -0.0117 -0.3680
 3612SOL     OW22468   2.617   4.102  17.156  0.1347  0.8217 -0.4791
 3612SOL    HW122469   2.644   4.024  17.107 -1.0825  0.4730 -0.5970
 3612SOL    HW222470   2.531   4.124  17.121 -0.3152  1.1558  0.8407
 3613SOL     OW22471   2.575   0.089   3.758  0.2691 -0.4019  0.0649
 3613SOL    HW122472   2.538   0.177   3.767  1.6408  0.0790  0.8661
 3613SOL    HW222473   2.662   0.106   3.793 -0.7300 -0.4641  2.5957
 3614SOL     OW22474   3.884   2.316   5.509  0.2181  0.0874  0.2744
 3614SOL    HW122475   3.852   2.236   5.553 -1.4182 -0.4147 -1.8400
 3614SOL    HW222476   3.809   2.345   5.457  1.1102 -0.4035 -1.2782
 3615SOL     OW22477   0.986   2.387  14.569 -0.7173 -0.4978 -0.0454
 3615SOL    HW122478   1.011   2.474  14.537 -2.7357 -0.0989 -0.5243
 3615SOL    HW222479   1.030   2.379  14.653 -0.4612 -0.1999 -0.1484
 3616SOL     OW22480   0.122   3.531   6.553 -0.3769  0.7653 -0.4250
 3616SOL    HW122481   0.164   3.590   6.616  0.8354 -1.7118  1.0961
 3616SOL    HW222482   0.146   3.441   6.576 -0.3802  0.3321 -2.1140
 3617SOL     OW22483   2.021   1.642   6.809 -0.2569 -0.0790 -0.3493
 3617SOL    HW122484   2.008   1.623   6.716 -0.0418 -1.0531 -0.1811
 3617SOL    HW222485   2.116   1.645   6.817 -0.2986  1.6961 -0.4492
 3618SOL     OW22486   0.958   3.456   1.823 -0.3068  0.1160  0.2356
 3618SOL    HW122487   0.922   3.372   1.853 -0.0305 -0.5671 -1.3625
 3618SOL    HW222488   0.960   3.454   1.728  0.7136  2.6305  0.2155
 3619SOL     OW22489   1.631   3.085   0.783 -0.0275  0.1096  0.1048
 3619SOL    HW122490   1.722   3.095   0.755 -0.3125 -0.2539 -0.9321
 3619SOL    HW222491   1.617   2.993   0.762 -1.5620  0.7247 -1.6096
 3620SOL     OW22492   3.682   1.207   8.228 -1.0849 -0.1225  0.3476
 3620SOL    HW122493   3.759   1.161   8.261 -0.7613  1.1401  1.3603
 3620SOL    HW222494   3.717   1.296   8.226 -1.1154 -0.1381 -1.0663
 3621SOL     OW22495   4.357   0.383   5.713  0.5789  0.4818 -0.0592
 3621SOL    HW122496   4.270   0.419   5.697 -0.2589 -1.3429  0.3733
 3621SOL    HW222497   4.364   0.406   5.806 -1.1574 -2.1059  0.6824
 3622SOL     OW22498   2.116   0.310   3.629  0.1250 -0.4871 -0.1843
 3622SOL    HW122499   2.164   0.391   3.645 -2.3438  1.7860 -4.0793
 3622SOL    HW222500   2.032   0.336   3.667  0.2975  0.5160 -0.4836
 3623SOL     OW22501   3.678   3.638   1.562 -0.2625 -0.7001  0.0180
 3623SOL    HW122502   3.620   3.662   1.635  0.6744 -0.5145  0.7072
 3623SOL    HW222503   3.763   3.642   1.607 -0.0323  1.0066 -0.5829
 3624SOL     OW22504   3.233   1.620   6.787  0.6615 -0.3856 -0.6048
 3624SOL    HW122505   3.297   1.559   6.825  0.7207 -0.9879 -1.6719
 3624SOL    HW222506   3.278   1.673   6.721  0.7263 -1.8885 -1.7568
 3625SOL     OW22507   0.918   4.515  16.063  0.2239 -0.3798 -0.7476
 3625SOL    HW122508   0.889   4.427  16.038 -1.2421  0.0239 -0.4532
 3625SOL    HW222509   0.884   4.567  15.990  3.3819  0.1149 -1.8716
 3626SOL     OW22510   2.119   2.697   1.728  0.4454  0.1635 -0.4637
 3626SOL    HW122511   2.033   2.659   1.709  0.1931  0.0222  0.9674
 3626SOL    HW222512   2.093   2.756   1.798  1.4353  0.7229 -0.5684
 3627SOL     OW22513   0.055   3.853  17.401  0.2056  0.8160  0.0693
 3627SOL    HW122514   0.085   3.870  17.490  1.8655  0.1968 -0.3835
 3627SOL    HW222515   0.007   3.935  17.393 -1.0858  0.0771  0.2348
 3628SOL     OW22516   2.643   2.539   5.853  0.2121  0.2548 -0.4310
 3628SOL    HW122517   2.559   2.584   5.850  0.9738  1.7246  0.3704
 3628SOL    HW222518   2.660   2.517   5.761 -0.1957 -0.7504 -0.2672
 3629SOL     OW22519   2.536   1.621   0.308  0.7624 -0.1596 -0.1586
 3629SOL    HW122520   2.537   1.619   0.212  0.2854 -3.1156 -0.1260
 3629SOL    HW222521   2.495   1.707   0.308  1.3024  0.0913  1.7452
 3630SOL     OW22522   3.157   3.515   7.415  0.1906  0.4104 -0.3171
 3630SOL    HW122523   3.115   3.595   7.387 -1.5503 -0.8177 -1.1725
 3630SOL    HW222524   3.250   3.535   7.404  0.2300  0.3530 -0.0996
 3631SOL     OW22525   1.585   3.708   9.458 -0.0297 -0.5969 -0.4221
 3631SOL    HW122526   1.572   3.636   9.520 -0.2627 -1.0598 -1.0008
 3631SOL    HW222527   1.606   3.782   9.515  0.2559 -0.1559 -1.0933
 3632SOL     OW22528   2.227   3.031  11.128 -0.2004 -0.1124  0.6282
 3632SOL    HW122529   2.258   3.106  11.077 -0.8289  0.6506  1.3848
 3632SOL    HW222530   2.188   2.969  11.066 -2.6980 -0.4539  2.5441
 3633SOL     OW22531   4.137   2.117   9.275 -0.1370  0.0626 -0.1296
 3633SOL    HW122532   4.093   2.032   9.278 -1.2746  0.7419  2.8105
 3633SOL    HW222533   4.226   2.094   9.305  0.0573 -0.5025 -1.1340
 3634SOL     OW22534   1.417   2.257   6.791  0.2373  1.1020 -0.2075
 3634SOL    HW122535   1.323   2.267   6.805 -0.2072 -2.1311 -0.8046
 3634SOL    HW222536   1.427   2.161   6.795  0.5410  1.1504  0.1950
 3635SOL     OW22537   2.844   3.590  16.299  0.2233  0.2233 -0.5235
 3635SOL    HW122538   2.828   3.609  16.207 -0.8225  0.9606 -0.1841
 3635SOL    HW222539   2.807   3.502  16.303  1.2134 -0.0517  2.8436
 3636SOL     OW22540   1.576   0.984   3.129  0.4856  0.0803 -0.2255
 3636SOL    HW122541   1.514   0.962   3.059 -1.1806  0.5996  1.0890
 3636SOL    HW222542   1.648   0.927   3.102  1.5031  1.6002 -0.7388
 3637SOL     OW22543   1.034   0.416   5.516 -0.3299  0.4885  0.2411
 3637SOL    HW122544   0.957   0.473   5.520  0.6105  1.6569  1.5071
 3637SOL    HW222545   0.986   0.334   5.500  0.7200 -0.2409  0.8354
 3638SOL     OW22546   4.387   2.735   8.518  0.2530 -0.4073 -0.2951
 3638SOL    HW122547   4.383   2.775   8.605 -1.7258 -1.3747  0.0502
 3638SOL    HW222548   4.414   2.654   8.561  0.5145  0.6728  1.6022
 3639SOL     OW22549   2.584   3.482  11.580 -0.3893 -0.3298  0.1034
 3639SOL    HW122550   2.558   3.509  11.668  1.9593 -0.2687  0.7712
 3639SOL    HW222551   2.641   3.409  11.603 -1.6444 -1.3184  0.1040
 3640SOL     OW22552   2.634   2.312   4.602  0.2799  0.6119  0.3604
 3640SOL    HW122553   2.702   2.262   4.556 -1.9722  0.1951 -2.4887
 3640SOL    HW222554   2.682   2.359   4.671 -1.0593  0.7342  1.1950
 3641SOL     OW22555   4.491   3.671   7.522 -0.0253 -0.1234  0.3314
 3641SOL    HW122556   4.419   3.733   7.511 -1.9085 -2.0952  1.3998
 3641SOL    HW222557   4.567   3.728   7.534 -1.6859  2.1293  0.1256
 3642SOL     OW22558   1.137   0.045   1.472  0.2291 -0.5306  0.1639
 3642SOL    HW122559   1.167   0.136   1.465 -3.6484  0.8677  1.6154
 3642SOL    HW222560   1.195   0.024   1.545  2.3891  2.4584 -0.6816
 3643SOL     OW22561   2.144   1.714   4.377  0.5537 -0.2831  0.2610
 3643SOL    HW122562   2.205   1.759   4.436 -0.0919 -0.2024  0.8654
 3643SOL    HW222563   2.083   1.786   4.363 -0.6392 -0.7926  2.8405
 3644SOL     OW22564   4.707   3.383   0.001 -0.6359  0.5612 -0.2671
 3644SOL    HW122565   0.035   3.454  17.741  2.0781 -1.8147  1.4070
 3644SOL    HW222566   4.701   3.350  17.654  0.7756 -1.0360  0.2279
 3645SOL     OW22567   0.611   3.810   2.512 -0.0328 -0.5920 -0.4222
 3645SOL    HW122568   0.702   3.838   2.506  0.7804 -3.3415 -0.5161
 3645SOL    HW222569   0.568   3.868   2.576  1.9114 -1.8312  1.9927
 3646SOL     OW22570   2.000   0.533   4.976 -0.1640 -0.8192 -0.4141
 3646SOL    HW122571   1.943   0.461   5.004 -0.6195 -1.1254 -2.1232
 3646SOL    HW222572   1.958   0.559   4.894  0.4365 -0.8953 -0.7496
 3647SOL     OW22573   4.229   0.125   3.359 -0.1459 -0.2192  0.1861
 3647SOL    HW122574   4.200   0.100   3.271 -0.0437 -0.7953  0.3174
 3647SOL    HW222575   4.150   0.172   3.385 -0.7396 -0.8058 -0.5393
 3648SOL     OW22576   0.678   2.400   5.807  0.1556 -0.0550  0.0880
 3648SOL    HW122577   0.743   2.330   5.801 -1.2939 -1.3313 -0.6022
 3648SOL    HW222578   0.617   2.378   5.878  0.3511 -3.1692 -0.7151
 3649SOL     OW22579   0.413   3.760   0.595 -0.5073 -0.0809 -0.0614
 3649SOL    HW122580   0.401   3.735   0.687 -0.0756 -2.1638 -0.5739
 3649SOL    HW222581   0.402   3.673   0.556  0.7661 -0.4587  0.4217
 3650SOL     OW22582   0.947   4.219  13.932 -0.6678 -0.1278  0.1384
 3650SOL    HW122583   0.893   4.157  13.980  0.2421 -1.7308 -0.9380
 3650SOL    HW222584   0.905   4.215  13.846 -3.0325 -0.6682  1.3251
 3651SOL     OW22585   0.197   4.217   3.741 -0.0808  0.1143  0.0573
 3651SOL    HW122586   0.239   4.270   3.809 -1.4951  2.1026 -0.6040
 3651SOL    HW222587   0.268   4.156   3.722  0.9816  1.5725 -0.7048
 3652SOL     OW22588   4.250   2.992   4.951 -0.7086 -0.4188 -0.4386
 3652SOL    HW122589   4.303   3.048   5.008 -2.1733 -0.6569  1.1343
 3652SOL    HW222590   4.169   3.042   4.952  0.9783  2.3075  1.0505
 3653SOL     OW22591   2.607   1.403   1.780  0.3158 -0.6144  0.1108
 3653SOL    HW122592   2.652   1.386   1.863 -0.3273 -0.8486  0.4056
 3653SOL    HW222593   2.637   1.326   1.730  0.9864  0.4484 -1.1212
 3654SOL     OW22594   4.404   2.525  11.127 -0.8676  0.4796 -0.2047
 3654SOL    HW122595   4.445   2.576  11.197 -0.1197  3.0308 -2.5282
 3654SOL    HW222596   4.321   2.571  11.112 -0.9724  1.5555  3.5558
 3655SOL     OW22597   1.269   0.437  14.691 -0.5910 -0.0248 -0.7714
 3655SOL    HW122598   1.223   0.518  14.673  0.0773  0.4425 -0.3846
 3655SOL    HW222599   1.331   0.433  14.618  1.3411 -2.2873  0.9751
 3656SOL     OW22600   2.750   1.981   7.225  0.0123  0.0391 -0.2138
 3656SOL    HW122601   2.726   2.071   7.202 -1.5564 -0.4888 -0.6203
 3656SOL    HW222602   2.686   1.955   7.292  1.9439 -1.1333  1.1519
 3657SOL     OW22603   0.596   1.707   8.698 -0.3559  0.4308 -0.1573
 3657SOL    HW122604   0.631   1.627   8.660 -0.4038  1.2343 -1.9033
 3657SOL    HW222605   0.597   1.690   8.792 -1.5716  1.1297 -0.0142
 3658SOL     OW22606   2.581   4.628   8.617 -0.4513 -0.3171 -0.3137
 3658SOL    HW122607   2.649   4.650   8.680 -0.2227  2.6807 -1.6100
 3658SOL    HW222608   2.598   4.535   8.606 -0.5811 -0.0659 -2.8275
 3659SOL     OW22609   1.164   2.350   5.702 -0.3022 -0.3387 -0.0376
 3659SOL    HW122610   1.111   2.301   5.640 -0.4854 -0.1849 -0.0052
 3659SOL    HW222611   1.158   2.298   5.782  0.3055 -1.4796 -0.7420
 3660SOL     OW22612   0.500   1.802  17.440 -0.8919  0.5052  0.4219
 3660SOL    HW122613   0.501   1.885  17.391 -0.5134  0.7290  0.8018
 3660SOL    HW222614   0.471   1.841  17.522 -0.3631 -0.5875  1.1213
 3661SOL     OW22615   2.363   1.187   8.367 -0.3397  0.6120  0.1278
 3661SOL    HW122616   2.332   1.233   8.290 -0.9519  0.1392  0.0932
 3661SOL    HW222617   2.379   1.259   8.428  2.0925  0.1790  0.0090
 3662SOL     OW22618   0.277   1.076   6.811  0.5927 -0.0357 -0.5066
 3662SOL    HW122619   0.297   1.101   6.721 -2.1472  1.5552 -0.6806
 3662SOL    HW222620   0.285   1.156   6.864  4.1976 -0.4151 -0.4893
 3663SOL     OW22621   1.769   1.517  14.712 -0.0030  0.3265  0.3979
 3663SOL    HW122622   1.827   1.473  14.774  0.6728  1.1993  0.3968
 3663SOL    HW222623   1.690   1.463  14.709 -0.0639  0.2762  2.9333
 3664SOL     OW22624   2.646   0.940  12.557  0.9499 -0.0992  0.7124
 3664SOL    HW122625   2.675   0.887  12.482 -1.8109 -1.6119  0.7141
 3664SOL    HW222626   2.701   0.901  12.624 -2.4880 -0.6392  3.2047
 3665SOL     OW22627   3.435   4.005  12.481  0.2226 -0.3082  0.0080
 3665SOL    HW122628   3.511   4.059  12.501  0.1478  0.1875 -1.0438
 3665SOL    HW222629   3.373   4.078  12.478 -1.0795 -1.3088  2.3144
 3666SOL     OW22630   2.757   4.098   4.724  0.4844 -0.0550 -0.5581
 3666SOL    HW122631   2.765   4.058   4.637  1.5818  0.7555 -0.8265
 3666SOL    HW222632   2.666   4.128   4.731  0.0737 -0.8246 -2.5964
 3667SOL     OW22633   2.567   1.466   3.621 -0.8768  0.4182 -0.1108
 3667SOL    HW122634   2.522   1.417   3.552 -2.9338  2.6568 -0.3170
 3667SOL    HW222635   2.514   1.544   3.614  0.6064  1.6464  2.1874
 3668SOL     OW22636   0.194   4.194   7.955 -0.3871  0.1907 -0.3118
 3668SOL    HW122637   0.233   4.196   8.042 -0.5942 -1.8979 -0.1499
 3668SOL    HW222638   0.147   4.277   7.955  0.1883  0.5144 -2.2207
 3669SOL     OW22639   3.235   2.519   2.067 -0.1396  0.2505 -0.2316
 3669SOL    HW122640   3.239   2.451   2.000  1.3490 -0.0794  0.1902
 3669SOL    HW222641   3.249   2.468   2.147 -0.9000 -2.6603 -1.9795
 3670SOL     OW22642   2.509   0.693   7.603  0.0504 -0.3653 -0.4843
 3670SOL    HW122643   2.456   0.678   7.524 -0.4208  0.2188 -0.2843
 3670SOL    HW222644   2.566   0.764   7.574 -0.5413  0.9618  1.5692
 3671SOL     OW22645   4.413   3.904   2.986 -0.2316 -0.4227 -0.6333
 3671SOL    HW122646   4.324   3.868   2.982 -0.0983 -0.9038  0.8003
 3671SOL    HW222647   4.437   3.879   3.076 -0.9028  0.5110 -0.1949
 3672SOL     OW22648   0.484   2.760  11.523 -0.2559 -0.0818 -0.0615
 3672SOL    HW122649   0.491   2.707  11.602 -0.2658  0.8813  0.5874
 3672SOL    HW222650   0.389   2.773  11.520 -0.2677  0.0084  0.7149
 3673SOL     OW22651   3.499   2.715   0.599 -0.4288  0.0565  1.0340
 3673SOL    HW122652   3.483   2.745   0.688 -0.6356  1.3919  0.5436
 3673SOL    HW222653   3.566   2.777   0.570 -0.0997 -0.1831  1.2844
 3674SOL     OW22654   3.377   4.364   1.627  0.6511 -0.8757  0.1910
 3674SOL    HW122655   3.377   4.404   1.540 -1.3016 -0.8308  0.2158
 3674SOL    HW222656   3.450   4.409   1.671  0.7778 -2.3283  1.4760
 3675SOL     OW22657   3.675   0.722  10.272  0.5468 -0.2449 -0.0558
 3675SOL    HW122658   3.619   0.678  10.336 -1.1388  1.3022 -0.4625
 3675SOL    HW222659   3.763   0.689  10.286  1.2080  1.9339  0.8693
 3676SOL     OW22660   1.632   4.169   2.665  0.1862  0.5128 -0.3083
 3676SOL    HW122661   1.557   4.112   2.683  0.2250  1.1973  2.0658
 3676SOL    HW222662   1.585   4.243   2.627 -1.5871 -0.7078 -0.4786
 3677SOL     OW22663   3.563   3.648  11.978 -0.3217 -0.2237 -0.9712
 3677SOL    HW122664   3.625   3.612  11.915 -2.2237 -1.8276 -1.9025
 3677SOL    HW222665   3.593   3.607  12.060 -2.2554  0.5056  0.1165
 3678SOL     OW22666   2.500   2.287   2.095 -0.5268  0.1817 -0.5303
 3678SOL    HW122667   2.469   2.207   2.052  2.3991  0.3534 -2.9040
 3678SOL    HW222668   2.525   2.344   2.022  1.9515 -0.5634 -0.2498
 3679SOL     OW22669   3.489   1.239   6.498 -0.4301  0.2792 -0.1904
 3679SOL    HW122670   3.445   1.164   6.458  0.7457 -0.6036  0.1548
 3679SOL    HW222671   3.558   1.195   6.549 -2.5861 -1.1360  1.5097
 3680SOL     OW22672   4.082   2.472   3.392 -1.0894  0.5471 -0.1801
 3680SOL    HW122673   4.053   2.391   3.432  1.4968  0.4274  1.4950
 3680SOL    HW222674   4.151   2.508   3.448 -1.5245  1.9811 -0.5558
 3681SOL     OW22675   0.260   4.206   6.339  0.1741 -0.8414  0.3498
 3681SOL    HW122676   0.220   4.293   6.338 -0.4335 -1.1232 -0.2287
 3681SOL    HW222677   0.188   4.154   6.304 -0.3342  1.0532 -1.4349
 3682SOL     OW22678   3.490   4.459   2.271 -0.1786  0.5440  0.3277
 3682SOL    HW122679   3.402   4.457   2.308 -0.4709 -0.8916 -0.4487
 3682SOL    HW222680   3.537   4.499   2.344 -0.7541  0.7503  0.5812
 3683SOL     OW22681   0.540   4.469   9.571 -0.6065 -1.0011 -0.2822
 3683SOL    HW122682   0.559   4.376   9.581 -0.0629 -0.7813  0.7543
 3683SOL    HW222683   0.544   4.473   9.476  0.1923 -0.2844 -0.2104
 3684SOL     OW22684   1.964   2.128   6.879  0.2518 -0.4278 -0.5894
 3684SOL    HW122685   2.054   2.094   6.872  0.3743 -0.3644  0.6090
 3684SOL    HW222686   1.916   2.050   6.852  2.0697 -2.0782  0.9163
 3685SOL     OW22687   2.979   4.606   3.083 -0.0892  0.1088 -0.5077
 3685SOL    HW122688   3.007   4.695   3.064 -1.6641  1.4631  3.3964
 3685SOL    HW222689   2.895   4.621   3.126 -0.3302 -2.1291 -0.2097
 3686SOL     OW22690   2.159   1.544  14.230 -0.4344  0.2032 -0.0851
 3686SOL    HW122691   2.224   1.522  14.164 -1.4722 -0.9402 -0.7155
 3686SOL    HW222692   2.177   1.638  14.230  1.4472 -0.1581  2.2638
 3687SOL     OW22693   1.470   0.151   4.159 -0.1137  0.5320 -0.3520
 3687SOL    HW122694   1.459   0.128   4.251  1.5360 -0.3762 -0.3844
 3687SOL    HW222695   1.504   0.073   4.116  0.2805  0.1388  0.6719
 3688SOL     OW22696   1.151   2.439   6.023  0.4566  0.0626 -0.5419
 3688SOL    HW122697   1.242   2.430   5.995  0.2180 -1.2147 -0.8680
 3688SOL    HW222698   1.118   2.526   5.998 -1.4249 -0.2005  1.1337
 3689SOL     OW22699   0.197   2.343  15.632  1.0672  0.2671  0.2811
 3689SOL    HW122700   0.270   2.405  15.637  0.5219  0.9701 -0.4884
 3689SOL    HW222701   0.221   2.307  15.547 -0.5471 -1.0617  0.3888
 3690SOL     OW22702   1.824   1.783   4.200  0.0171 -0.4374 -0.7193
 3690SOL    HW122703   1.743   1.793   4.251  0.0380  1.0331 -0.9761
 3690SOL    HW222704   1.885   1.842   4.245  0.6107 -2.1046  0.6731
 3691SOL     OW22705   2.950   3.568   8.780 -0.4910  0.0550 -0.8614
 3691SOL    HW122706   2.995   3.645   8.815 -0.9602 -0.7538  1.4948
 3691SOL    HW222707   2.971   3.562   8.687 -0.7576  0.5534 -0.9567
 3692SOL     OW22708   0.395   4.359  15.070  0.4424 -0.6628  0.4817
 3692SOL    HW122709   0.366   4.358  15.162 -0.8736 -1.0602  0.0613
 3692SOL    HW222710   0.311   4.338  15.030  0.9969 -2.0088  0.0189
 3693SOL     OW22711   0.076   1.982   5.461 -0.8391 -0.7496 -0.0747
 3693SOL    HW122712   0.168   1.959   5.470 -0.9126 -0.1618  2.1712
 3693SOL    HW222713   0.039   1.916   5.403 -1.2462 -0.2122 -0.4335
 3694SOL     OW22714   3.520   3.988   2.782 -0.0885  0.1362  0.5995
 3694SOL    HW122715   3.509   3.924   2.713 -0.1318 -1.1924  1.8389
 3694SOL    HW222716   3.585   3.943   2.836 -0.5275 -2.0812 -0.7406
 3695SOL     OW22717   4.596   3.267   0.408  0.2417  0.0585 -0.2045
 3695SOL    HW122718   4.648   3.217   0.344  1.2259 -0.0516  0.6637
 3695SOL    HW222719   4.630   3.352   0.382  1.4675 -0.7894 -1.3876
 3696SOL     OW22720   1.558   0.258   3.199  0.4451 -0.3397  0.4457
 3696SOL    HW122721   1.562   0.206   3.120 -3.1266  0.3845 -0.2336
 3696SOL    HW222722   1.466   0.247   3.224 -0.4575  1.4319 -2.0476
 3697SOL     OW22723   4.001   2.463   5.701  0.5101 -0.5021 -0.3985
 3697SOL    HW122724   3.958   2.418   5.629  0.2471  0.7931 -1.0436
 3697SOL    HW222725   4.091   2.446   5.673  0.8168 -1.2461  1.0417
 3698SOL     OW22726   1.815   2.152  17.644 -0.5188  0.4233  0.6276
 3698SOL    HW122727   1.765   2.213  17.591  1.0628  1.0551 -0.1438
 3698SOL    HW222728   1.847   2.088  17.581  1.5020  0.0054  2.0652
 3699SOL     OW22729   0.045   2.335   4.870 -0.4378 -0.0734  0.3222
 3699SOL    HW122730   4.686   2.330   4.857 -0.2953  2.6367 -1.7871
 3699SOL    HW222731   0.053   2.381   4.953  4.2479 -0.0949 -0.1488
 3700SOL     OW22732   2.934   0.228   8.738  0.6998 -0.2695 -0.2276
 3700SOL    HW122733   3.029   0.216   8.736  0.7833  0.0960  1.5841
 3700SOL    HW222734   2.928   0.217   8.833 -0.2709  0.5840 -0.1909
 3701SOL     OW22735   0.581   4.006  17.482 -0.4532  0.1423 -0.5380
 3701SOL    HW122736   0.594   4.012  17.576 -1.9533  1.2186 -0.4059
 3701SOL    HW222737   0.648   4.060  17.441 -2.3017  2.9560  0.1134
 3702SOL     OW22738   4.326   3.237   8.934  0.1791 -0.0380 -0.3416
 3702SOL    HW122739   4.312   3.253   8.840 -1.2130 -1.8847 -0.4493
 3702SOL    HW222740   4.316   3.328   8.962 -0.4047  0.1385 -1.1138
 3703SOL     OW22741   1.306   0.993   8.900 -0.0339 -0.6896 -0.7580
 3703SOL    HW122742   1.265   1.014   8.816 -0.7089 -1.1928 -0.5523
 3703SOL    HW222743   1.380   1.055   8.894 -0.2586 -0.3321  0.1696
 3704SOL     OW22744   4.682   2.716  11.100  0.2086 -0.4227 -0.5285
 3704SOL    HW122745   0.022   2.754  11.144  0.3857 -2.0859  0.5897
 3704SOL    HW222746   4.630   2.698  11.178 -0.2331 -2.2709 -1.2573
 3705SOL     OW22747   0.720   0.038  16.912  0.5787 -0.5396  0.3897
 3705SOL    HW122748   0.649   0.101  16.923  0.9941 -0.4503  2.4633
 3705SOL    HW222749   0.689   4.710  16.848  2.1219 -0.2649 -0.6572
 3706SOL     OW22750   1.866   0.961  10.566 -0.4062  0.1939 -0.2487
 3706SOL    HW122751   1.919   1.037  10.587 -0.3451  0.6689 -2.1079
 3706SOL    HW222752   1.931   0.894  10.589  1.2297  2.1795  0.9441
 3707SOL     OW22753   0.130   2.976   2.252 -0.3712  0.0976  0.1154
 3707SOL    HW122754   0.103   3.065   2.228 -2.8294 -0.2581  1.6448
 3707SOL    HW222755   0.041   2.943   2.263 -1.8025  3.8410 -0.2244
 3708SOL     OW22756   2.566   3.349   5.202  0.3298 -0.0287  0.0963
 3708SOL    HW122757   2.648   3.300   5.208 -0.1346 -0.7823  0.3044
 3708SOL    HW222758   2.574   3.426   5.259  0.4486  0.6734 -0.8543
 3709SOL     OW22759   1.214   0.595   3.728  0.0136  0.7039 -0.0444
 3709SOL    HW122760   1.205   0.555   3.814 -0.7378  0.0964 -0.4043
 3709SOL    HW222761   1.309   0.605   3.735  0.0319  0.5904 -0.1198
 3710SOL     OW22762   3.518   2.824  11.246 -0.1001 -0.7426 -0.1953
 3710SOL    HW122763   3.564   2.818  11.163 -0.6456 -1.4300 -0.4531
 3710SOL    HW222764   3.585   2.871  11.295 -1.4158  2.3221 -1.3133
 3711SOL     OW22765   2.976   3.446   6.235  0.4855  0.3639  0.3050
 3711SOL    HW122766   2.919   3.382   6.194  0.8565  0.4850 -0.4057
 3711SOL    HW222767   3.038   3.466   6.165 -0.4137 -1.5135 -1.0221
 3712SOL     OW22768   4.125   2.609   0.230 -0.3885 -0.4410  0.4630
 3712SOL    HW122769   4.039   2.618   0.270  0.2287 -1.2217  1.9309
 3712SOL    HW222770   4.156   2.699   0.224  0.2954 -0.6930  0.2417
 3713SOL     OW22771   0.874   2.511   3.273 -0.1924 -0.3460  0.2069
 3713SOL    HW122772   0.831   2.592   3.244 -0.4172 -0.6685 -0.3510
 3713SOL    HW222773   0.859   2.511   3.368 -1.4592  2.1613  0.0042
 3714SOL     OW22774   4.212   0.212  11.406  0.6509  0.6158 -0.0153
 3714SOL    HW122775   4.143   0.264  11.366  1.1309  1.0747 -0.2428
 3714SOL    HW222776   4.266   0.277  11.450 -0.7959  1.5401  0.3820
 3715SOL     OW22777   0.703   1.488  14.359  0.1153 -0.5320 -0.0500
 3715SOL    HW122778   0.688   1.574  14.319  2.6459 -0.5108 -0.9626
 3715SOL    HW222779   0.740   1.451  14.279  0.7155 -0.1326  0.0410
 3716SOL     OW22780   0.569   1.608  11.931  0.1145  0.0964 -0.1579
 3716SOL    HW122781   0.488   1.625  11.884  0.9754  0.7151 -1.4262
 3716SOL    HW222782   0.593   1.524  11.891 -3.2732 -1.0109  0.1508
 3717SOL     OW22783   1.061   1.467   3.912  0.2226  0.3064  0.1327
 3717SOL    HW122784   1.104   1.398   3.962 -0.6312 -0.8540 -0.7575
 3717SOL    HW222785   0.969   1.453   3.933  0.1033  0.2142 -0.4363
 3718SOL     OW22786   0.549   1.304   3.700  0.4233 -0.1979  0.3558
 3718SOL    HW122787   0.524   1.366   3.768 -2.3786 -0.0311 -0.8340
 3718SOL    HW222788   0.474   1.246   3.692  0.9839 -0.4779 -3.2330
 3719SOL     OW22789   3.023   1.372   2.564  0.4444  0.1508 -0.8435
 3719SOL    HW122790   2.937   1.413   2.556  0.4541  0.2006 -0.6965
 3719SOL    HW222791   3.009   1.302   2.628 -0.6919  2.7370  1.6663
 3720SOL     OW22792   4.162   0.755   8.952 -0.4639 -0.0658 -0.4607
 3720SOL    HW122793   4.230   0.817   8.977 -0.1196 -0.6273  0.0056
 3720SOL    HW222794   4.169   0.679   9.010 -0.4278 -0.0258 -0.4131
 3721SOL     OW22795   0.035   3.227   2.204 -0.2628 -0.1132 -0.3358
 3721SOL    HW122796   0.062   3.298   2.146  2.1205  0.5441  1.5773
 3721SOL    HW222797   4.678   3.245   2.219 -0.4919 -0.0649 -1.8968
 3722SOL     OW22798   2.846   1.026   4.950  0.3980  0.0640  0.1171
 3722SOL    HW122799   2.940   1.021   4.966  0.4674  0.6015 -0.1532
 3722SOL    HW222800   2.838   1.005   4.857 -2.5222  0.5224  0.2562
 3723SOL     OW22801   4.465   2.656   3.710 -0.4718  0.5637 -0.5430
 3723SOL    HW122802   4.527   2.721   3.677  1.4480 -1.3523 -0.6750
 3723SOL    HW222803   4.398   2.714   3.747  0.7009  1.2724  0.4634
 3724SOL     OW22804   2.673   3.678   0.910 -0.6315 -0.3011 -0.0058
 3724SOL    HW122805   2.612   3.648   0.978  2.6513  0.0624  3.0656
 3724SOL    HW222806   2.645   3.623   0.837 -0.6038 -0.3614  0.0295
 3725SOL     OW22807   1.691   1.153  16.900  0.0974  0.5675 -0.2422
 3725SOL    HW122808   1.688   1.231  16.955 -1.9287  1.0193 -0.9814
 3725SOL    HW222809   1.657   1.083  16.955 -0.1329  0.7792 -0.1134
 3726SOL     OW22810   1.050   0.043  10.757 -0.1854  0.0010 -0.0215
 3726SOL    HW122811   1.108   0.108  10.718 -2.2651  1.4000 -0.7875
 3726SOL    HW222812   1.048   4.721  10.680  1.6866 -1.0263  0.7064
 3727SOL     OW22813   3.737   1.915  13.576 -0.4061  0.4108  0.5536
 3727SOL    HW122814   3.718   1.835  13.526 -0.3844 -0.4758  1.9794
 3727SOL    HW222815   3.690   1.988  13.536 -1.5250  0.9080  2.8317
 3728SOL     OW22816   3.125   2.699   3.517  0.4932 -0.0607  0.3589
 3728SOL    HW122817   3.031   2.680   3.509  0.6333 -0.8182  0.5142
 3728SOL    HW222818   3.156   2.682   3.428 -1.1149  0.2013 -0.2473
 3729SOL     OW22819   3.792   0.298   8.135 -0.1212  0.1748 -0.1055
 3729SOL    HW122820   3.798   0.203   8.125 -0.6744  0.0419  0.8148
 3729SOL    HW222821   3.698   0.319   8.129 -0.3423 -0.7322  0.0705
 3730SOL     OW22822   3.171   2.323  17.388 -0.2285  0.0553 -0.0751
 3730SOL    HW122823   3.264   2.345  17.376  0.2956 -2.0630  0.0813
 3730SOL    HW222824   3.139   2.405  17.426 -4.8261 -2.1868  0.8717
 3731SOL     OW22825   0.142   2.780   0.548 -0.5531  0.3756 -0.1066
 3731SOL    HW122826   0.083   2.856   0.543 -0.9835  0.0619  0.1631
 3731SOL    HW222827   0.151   2.750   0.458 -0.9542 -1.1191  0.3493
 3732SOL     OW22828   1.601   0.197   7.610  0.2984  0.2058 -0.2761
 3732SOL    HW122829   1.578   0.288   7.592 -1.6153 -0.8939 -3.3148
 3732SOL    HW222830   1.560   0.182   7.696  0.3153 -0.3079 -0.3602
 3733SOL     OW22831   3.174   2.754  12.670  0.0804 -0.5810  0.1192
 3733SOL    HW122832   3.171   2.669  12.624  0.4652  0.8493 -2.5691
 3733SOL    HW222833   3.264   2.780  12.653  0.3520 -0.2291  2.1548
 3734SOL     OW22834   3.142   1.710   7.065 -0.5928  0.1994 -0.5943
 3734SOL    HW122835   3.134   1.660   6.984  0.6497 -0.6369 -0.2004
 3734SOL    HW222836   3.070   1.670   7.114  2.1051 -1.6915  1.8240
 3735SOL     OW22837   1.254   0.943   2.305  0.0252 -0.0255  0.2554
 3735SOL    HW122838   1.288   1.007   2.243  1.7059 -1.1715 -0.0108
 3735SOL    HW222839   1.314   0.869   2.292 -0.5180 -0.2786 -0.7812
 3736SOL     OW22840   3.674   4.710   4.981  0.0431 -0.6829  0.2733
 3736SOL    HW122841   3.604   4.647   4.965 -0.0345 -1.0385  2.0621
 3736SOL    HW222842   3.659   0.037   4.911  1.0494 -0.5350  0.1914
 3737SOL     OW22843   2.318   1.611   5.195 -0.2546 -0.4498 -0.3931
 3737SOL    HW122844   2.267   1.672   5.249 -0.9037 -0.9027 -0.4950
 3737SOL    HW222845   2.284   1.524   5.214 -1.1212 -0.2365 -0.9462
 3738SOL     OW22846   3.910   4.016   9.610 -0.3656 -0.0269 -0.2660
 3738SOL    HW122847   3.817   3.993   9.613 -0.4608  0.4472  0.5086
 3738SOL    HW222848   3.950   3.948   9.556  2.2724  0.2130  1.4372
 3739SOL     OW22849   4.244   4.198   2.317  0.0408 -0.0606  0.2708
 3739SOL    HW122850   4.335   4.181   2.292  0.2412 -1.1248  1.6970
 3739SOL    HW222851   4.190   4.146   2.258  2.3776 -2.5485  0.3175
 3740SOL     OW22852   1.631   0.689   5.021 -0.3450  0.0579  0.2223
 3740SOL    HW122853   1.559   0.637   5.058 -0.4452 -1.1171 -1.6311
 3740SOL    HW222854   1.653   0.740   5.099  0.3655 -0.8286  0.5962
 3741SOL     OW22855   1.854   1.887   6.804  0.3812 -0.8350  0.1064
 3741SOL    HW122856   1.876   1.901   6.712 -1.5176 -2.9554 -0.6461
 3741SOL    HW222857   1.893   1.802   6.825  0.4416 -0.8622 -0.1170
 3742SOL     OW22858   3.652   0.497   3.149 -0.1582 -0.0441  0.0771
 3742SOL    HW122859   3.741   0.478   3.120  0.3153  0.7534  1.0054
 3742SOL    HW222860   3.660   0.582   3.193  1.5140 -0.1726  0.0437
 3743SOL     OW22861   4.024   3.137   2.307 -0.0033  0.0942  0.2282
 3743SOL    HW122862   4.001   3.188   2.230 -0.0934  1.7994  1.3916
 3743SOL    HW222863   3.946   3.096   2.344 -0.7917  1.0026 -0.4358
 3744SOL     OW22864   3.368   3.454   2.303 -0.5498  0.5608  0.3693
 3744SOL    HW122865   3.351   3.480   2.212  0.7097  0.0433 -0.0095
 3744SOL    HW222866   3.334   3.365   2.305  1.6522 -0.2765 -0.0260
 3745SOL     OW22867   3.094   4.226   9.188  0.1508 -0.5406  0.6770
 3745SOL    HW122868   3.122   4.287   9.256  0.3608  1.0714 -0.8321
 3745SOL    HW222869   3.117   4.140   9.222 -1.6851 -1.1003  0.4915
 3746SOL     OW22870   0.062   3.624   6.305  0.0923 -0.0993  0.0805
 3746SOL    HW122871   0.081   3.592   6.394 -4.3123 -1.7700  0.4610
 3746SOL    HW222872   0.144   3.662   6.276 -0.4254  2.3692  1.8944
 3747SOL     OW22873   1.333   0.481   6.293 -0.4061 -0.1878  0.3973
 3747SOL    HW122874   1.342   0.488   6.388  1.0038 -0.0992  0.2492
 3747SOL    HW222875   1.238   0.481   6.283 -0.3496  0.2697 -0.1941
 3748SOL     OW22876   0.259   2.986  13.502  0.2096  0.5998 -0.0910
 3748SOL    HW122877   0.184   3.007  13.558  1.7040  1.2081  1.6833
 3748SOL    HW222878   0.230   2.906  13.459  1.8114 -0.8547  1.5113
 3749SOL     OW22879   3.101   3.426   8.346  0.6326  0.0458 -0.3297
 3749SOL    HW122880   3.072   3.370   8.275 -0.1673  1.9902 -1.5224
 3749SOL    HW222881   3.182   3.378   8.363  0.2243 -0.9182 -1.1876
 3750SOL     OW22882   3.171   2.634   6.586  0.3810  0.4448 -0.0002
 3750SOL    HW122883   3.114   2.708   6.607  2.0544  1.6438  0.4044
 3750SOL    HW222884   3.138   2.566   6.645 -1.7041  0.5541 -1.0869
 3751SOL     OW22885   3.247   2.989   6.482 -0.7040 -0.0601 -0.7229
 3751SOL    HW122886   3.222   3.006   6.392 -3.5970  1.0817  0.3010
 3751SOL    HW222887   3.238   3.070   6.531  3.3613  2.1776 -3.6514
 3752SOL     OW22888   2.433   4.141   2.415 -0.4800 -0.5874  0.1015
 3752SOL    HW122889   2.436   4.200   2.339 -0.7756 -0.9556 -0.1994
 3752SOL    HW222890   2.502   4.081   2.386  0.3819  0.0773  0.8105
 3753SOL     OW22891   2.658   3.260   3.459 -0.8874 -0.1399 -0.3001
 3753SOL    HW122892   2.736   3.227   3.414  1.0560  1.0620  2.1958
 3753SOL    HW222893   2.662   3.353   3.437  0.0349 -0.2047 -0.4008
 3754SOL     OW22894   0.004   2.108   1.959  0.5136 -0.4279  0.5754
 3754SOL    HW122895   4.710   2.049   1.890 -0.0613  0.1022  0.3709
 3754SOL    HW222896   0.005   2.053   2.037 -1.8684 -1.3328 -0.0196
 3755SOL     OW22897   3.725   0.011   4.493  0.0067 -0.7439 -0.2467
 3755SOL    HW122898   3.773   0.025   4.575 -1.2006  3.8442 -0.3031
 3755SOL    HW222899   3.684   4.661   4.503 -0.3706 -0.5460 -0.0753
 3756SOL     OW22900   3.936   1.660   2.678  0.0960  0.2841  0.4505
 3756SOL    HW122901   3.901   1.597   2.615 -0.1401  1.2179 -0.3451
 3756SOL    HW222902   3.861   1.686   2.731 -0.4802 -1.2851  0.4172
 3757SOL     OW22903   4.645   1.409  11.642 -0.8909 -0.2923 -0.5713
 3757SOL    HW122904   4.616   1.484  11.590  2.6889  0.8619 -0.8720
 3757SOL    HW222905   4.587   1.423  11.718 -0.2270  0.8717 -0.2726
 3758SOL     OW22906   2.718   3.486   7.417 -0.0866 -0.3141  0.0378
 3758SOL    HW122907   2.636   3.493   7.466 -0.3784  1.4687 -0.7133
 3758SOL    HW222908   2.685   3.482   7.328  2.0432 -1.3222 -0.7134
 3759SOL     OW22909   2.412   0.938   7.102 -0.6814 -0.4254  0.2237
 3759SOL    HW122910   2.406   0.979   7.016 -1.8225 -0.6394  0.2005
 3759SOL    HW222911   2.505   0.957   7.118 -0.5387  0.8521 -2.1607
 3760SOL     OW22912   2.729   2.516  13.249 -0.4846 -0.2409  0.1020
 3760SOL    HW122913   2.688   2.561  13.322  0.1448 -0.4762  0.5964
 3760SOL    HW222914   2.807   2.570  13.232 -1.1401  0.3379 -1.1104
 3761SOL     OW22915   4.290   1.470  14.201 -0.5401 -0.3721  0.2568
 3761SOL    HW122916   4.333   1.459  14.116 -1.7350  0.9643 -0.5156
 3761SOL    HW222917   4.337   1.395  14.237  1.1788  0.3964 -0.4117
 3762SOL     OW22918   4.160   3.921  11.002  1.3000 -0.6579 -0.0405
 3762SOL    HW122919   4.251   3.934  11.030  0.7559  2.8187  0.1214
 3762SOL    HW222920   4.127   3.865  11.072  0.6602  1.7101  1.5381
 3763SOL     OW22921   4.268   4.255   0.177  0.1186 -0.0696 -0.1700
 3763SOL    HW122922   4.300   4.166   0.192 -1.2441 -0.6115 -0.5443
 3763SOL    HW222923   4.237   4.243   0.087  1.4848 -0.5532 -0.5803
 3764SOL     OW22924   2.089   0.822  10.647  0.9884 -0.2777  0.3072
 3764SOL    HW122925   2.155   0.887  10.667  0.2742  0.3067  0.7848
 3764SOL    HW222926   2.105   0.752  10.711 -3.2557  0.2976  2.0152
 3765SOL     OW22927   1.255   0.584   9.615  0.0189 -0.1546  0.2432
 3765SOL    HW122928   1.290   0.622   9.695  0.7829  1.8722 -1.0585
 3765SOL    HW222929   1.263   0.640   9.538  1.5039  0.3159  0.7326
 3766SOL     OW22930   0.525   1.996  13.192 -0.7522  0.1434  0.0399
 3766SOL    HW122931   0.595   1.934  13.214 -2.1287 -0.5680  2.4378
 3766SOL    HW222932   0.565   2.033  13.114 -0.6964 -2.3560 -1.1254
 3767SOL     OW22933   3.221   0.495   5.818  0.3443 -0.5070 -0.0058
 3767SOL    HW122934   3.225   0.462   5.907 -0.3386 -2.6542 -0.7707
 3767SOL    HW222935   3.312   0.525   5.810  0.2514 -0.2450 -0.0794
 3768SOL     OW22936   3.241   2.642  17.219  0.6717 -0.1168  0.2004
 3768SOL    HW122937   3.312   2.654  17.156  0.9457  2.9409  1.0785
 3768SOL    HW222938   3.208   2.730  17.236  1.8689  0.6662 -1.4978
 3769SOL     OW22939   3.548   2.357  14.996 -0.2049 -0.1678  0.4939
 3769SOL    HW122940   3.590   2.443  15.006  1.3249 -0.7202 -1.3261
 3769SOL    HW222941   3.530   2.339  14.904  0.4355 -1.1759  0.5740
 3770SOL     OW22942   1.941   2.310   1.977  0.2759 -0.0752  0.0502
 3770SOL    HW122943   2.013   2.345   1.925  1.4171 -0.3394  1.4605
 3770SOL    HW222944   1.998   2.254   2.030  0.5716 -1.0347 -1.2893
 3771SOL     OW22945   1.023   2.478  15.089 -0.3475  0.0932  0.2217
 3771SOL    HW122946   0.947   2.519  15.049 -0.7909  0.6497  1.6564
 3771SOL    HW222947   1.034   2.390  15.053  0.3657 -0.0075  0.6821
 3772SOL     OW22948   2.349   3.409   6.356 -0.0381 -0.2341 -0.5557
 3772SOL    HW122949   2.333   3.455   6.273 -0.0125 -0.6685 -0.8027
 3772SOL    HW222950   2.382   3.479   6.412  1.5670  0.6915 -2.6349
 3773SOL     OW22951   0.482   2.059   6.746 -0.1784 -0.0831  0.4864
 3773SOL    HW122952   0.535   2.136   6.723 -1.0277 -0.9326 -4.3708
 3773SOL    HW222953   0.447   2.031   6.662 -2.4549  0.2541  1.3424
 3774SOL     OW22954   1.543   3.868  12.084 -0.0713 -0.0929 -0.0338
 3774SOL    HW122955   1.598   3.947  12.087 -0.6348  0.2395  1.4977
 3774SOL    HW222956   1.593   3.804  12.133 -0.5439 -0.7260 -0.3786
 3775SOL     OW22957   4.437   1.167   7.417  0.2367  0.1472  0.2229
 3775SOL    HW122958   4.490   1.089   7.407 -0.7375 -0.5453  0.4254
 3775SOL    HW222959   4.366   1.139   7.475  1.6350  1.1994  2.4138
 3776SOL     OW22960   3.685   4.320   7.216 -0.5125  0.1364 -0.4686
 3776SOL    HW122961   3.694   4.294   7.124  2.0529 -0.2469 -0.0989
 3776SOL    HW222962   3.679   4.415   7.205  3.9103  0.6176  1.3321
 3777SOL     OW22963   3.525   0.458  13.855  0.5164 -0.0683  0.3404
 3777SOL    HW122964   3.552   0.479  13.766 -0.0342 -4.1481 -0.7978
 3777SOL    HW222965   3.462   0.387  13.842 -1.0398  1.1119  1.4841
 3778SOL     OW22966   0.318   1.274   2.436 -0.0701  0.0956 -0.6448
 3778SOL    HW122967   0.342   1.348   2.381 -0.9247  0.1328 -0.9629
 3778SOL    HW222968   0.403   1.262   2.478  0.4148  1.7038 -1.1569
 3779SOL     OW22969   4.182   4.080  16.410 -0.6094 -0.6378  0.4986
 3779SOL    HW122970   4.151   4.001  16.366 -2.1042 -0.3613  1.0626
 3779SOL    HW222971   4.221   4.143  16.350 -0.0210 -1.3745  0.0997
 3780SOL     OW22972   2.520   0.811   2.534  0.4317  0.3184  0.0436
 3780SOL    HW122973   2.450   0.804   2.469  1.5573  0.6424 -1.2169
 3780SOL    HW222974   2.508   0.733   2.588 -3.6523  0.0442 -1.2682
 3781SOL     OW22975   1.773   2.018   2.584 -0.0461 -0.1773  0.5454
 3781SOL    HW122976   1.713   1.952   2.550 -2.1713  1.8302  0.4367
 3781SOL    HW222977   1.834   2.032   2.512 -1.2592  1.1425 -0.2267
 3782SOL     OW22978   4.216   1.393   7.826  0.1432 -0.3441  0.4183
 3782SOL    HW122979   4.267   1.315   7.848 -1.0066 -0.5879  2.1991
 3782SOL    HW222980   4.170   1.413   7.908 -0.8352  0.9971 -0.4535
 3783SOL     OW22981   2.666   1.009   0.308 -0.2035  0.5630  0.2783
 3783SOL    HW122982   2.665   0.941   0.375  0.7332 -0.0633 -0.3623
 3783SOL    HW222983   2.753   1.042   0.330  0.9867 -1.0754 -2.0257
 3784SOL     OW22984   4.417   2.296   9.057  0.6073 -0.5121 -0.1195
 3784SOL    HW122985   4.363   2.372   9.037 -1.0830 -1.5665  0.3713
 3784SOL    HW222986   4.473   2.337   9.123 -0.6704 -0.8083  1.1583
 3785SOL     OW22987   3.305   1.836  13.341 -0.0538 -0.0979  0.1387
 3785SOL    HW122988   3.273   1.756  13.300 -1.2814  0.6810 -0.3900
 3785SOL    HW222989   3.230   1.893  13.328  1.6879  1.8652 -1.1937
 3786SOL     OW22990   1.466   0.436   7.539  0.1467 -0.0817  0.1868
 3786SOL    HW122991   1.391   0.495   7.539  0.2831  0.0812 -0.7997
 3786SOL    HW222992   1.483   0.433   7.445 -3.2355  0.5418 -0.4370
 3787SOL     OW22993   2.472   3.136   4.313  0.2005  0.0418 -0.2536
 3787SOL    HW122994   2.508   3.217   4.348  0.1572 -0.3638  0.7183
 3787SOL    HW222995   2.457   3.087   4.394 -0.1461 -0.5631 -0.6787
 3788SOL     OW22996   1.369   3.200  12.050  0.5624 -0.1734  0.3386
 3788SOL    HW122997   1.421   3.122  12.029 -1.0663 -0.9153 -1.0041
 3788SOL    HW222998   1.279   3.178  12.023  0.9873 -0.1994 -1.0751
 3789SOL     OW22999   0.857   1.012   3.417  0.4405  0.2978  0.5177
 3789SOL    HW123000   0.788   0.966   3.368  2.5161  0.2252 -2.3695
 3789SOL    HW223001   0.846   1.098   3.377 -0.7505 -0.2184 -0.2657
 3790SOL     OW23002   4.398   4.164   8.740 -0.1945  0.0244 -0.7149
 3790SOL    HW123003   4.400   4.206   8.653 -4.0493 -2.6157 -2.0244
 3790SOL    HW223004   4.358   4.083   8.709  0.5448 -0.5906 -0.0512
 3791SOL     OW23005   4.317   4.278  15.614  0.7867  0.1566 -0.5738
 3791SOL    HW123006   4.301   4.191  15.650  1.3617  0.3332  0.0999
 3791SOL    HW223007   4.295   4.259  15.522 -0.5898 -0.9165 -0.0166
 3792SOL     OW23008   0.022   1.072   2.943 -0.2950  0.3345  0.0464
 3792SOL    HW123009   4.699   1.003   2.914 -1.0976  0.8808  0.3904
 3792SOL    HW223010   4.697   1.113   3.004 -1.6191  0.6374 -1.4780
 3793SOL     OW23011   4.192   4.031   8.387 -0.4184  0.0921 -0.1168
 3793SOL    HW123012   4.128   4.026   8.316  0.2775 -0.8542 -0.6848
 3793SOL    HW223013   4.138   4.033   8.466  0.0538  0.7399  0.1874
 3794SOL     OW23014   1.094   2.767  16.976  0.3656 -0.4224  0.9919
 3794SOL    HW123015   1.023   2.772  16.912  1.6599  2.5189 -0.2469
 3794SOL    HW223016   1.167   2.798  16.922  0.4245 -1.0849  0.6938
 3795SOL     OW23017   0.195   0.842   2.670 -0.2991  0.7980 -0.9465
 3795SOL    HW123018   0.124   0.790   2.633 -2.2755  2.0681  1.0529
 3795SOL    HW223019   0.189   0.909   2.602  1.0751 -0.7948 -2.6442
 3796SOL     OW23020   1.598   2.769   4.066  0.5498 -0.0820 -0.7125
 3796SOL    HW123021   1.530   2.742   4.128  0.2551  1.5178 -0.3541
 3796SOL    HW223022   1.535   2.790   3.998 -0.2364 -2.4037 -0.7041
 3797SOL     OW23023   4.271   0.362  10.584  0.1973 -0.0578 -0.4047
 3797SOL    HW123024   4.188   0.404  10.563  0.2816  0.3693  0.1128
 3797SOL    HW223025   4.253   0.350  10.678 -0.6754  1.6209 -0.3681
 3798SOL     OW23026   3.819   0.783   5.879  0.4558 -0.3119 -0.6476
 3798SOL    HW123027   3.835   0.877   5.875  0.6082 -0.3424 -0.7282
 3798SOL    HW223028   3.753   0.794   5.948  1.0030 -2.8864  0.3071
 3799SOL     OW23029   0.220   0.199   1.525  0.0863 -0.2054 -0.2384
 3799SOL    HW123030   0.238   0.281   1.571 -0.4667  0.6525 -1.5607
 3799SOL    HW223031   0.293   0.208   1.463  1.5018 -1.6482  1.2162
 3800SOL     OW23032   3.017   0.482  16.442  0.6330 -0.3117  0.3151
 3800SOL    HW123033   2.997   0.535  16.519  0.8103 -1.5652  1.2264
 3800SOL    HW223034   2.928   0.465  16.413  0.4347 -0.8807  1.2597
 3801SOL     OW23035   0.243   2.244   1.989  0.6185 -0.6467  0.2939
 3801SOL    HW123036   0.172   2.183   1.967 -0.3001 -0.1207  1.8094
 3801SOL    HW223037   0.308   2.178   2.015  1.4993 -0.4964 -1.5119
 3802SOL     OW23038   3.550   3.801  15.640 -0.2369  0.7726 -0.2433
 3802SOL    HW123039   3.471   3.751  15.624 -0.7827  0.6341  2.8742
 3802SOL    HW223040   3.564   3.772  15.730  0.3324 -0.7115 -0.8135
 3803SOL     OW23041   1.704   1.431   9.049 -0.1235  0.4304 -0.2836
 3803SOL    HW123042   1.702   1.462   8.959  1.4993 -0.2684 -0.5587
 3803SOL    HW223043   1.647   1.496   9.091 -0.1665 -1.2143  2.2247
 3804SOL     OW23044   1.621   4.224   8.063  0.1661 -0.0730  0.5131
 3804SOL    HW123045   1.699   4.223   8.007 -0.2536  0.3631 -0.0763
 3804SOL    HW223046   1.581   4.137   8.066  1.3199 -0.6706 -1.6818
 3805SOL     OW23047   4.514   2.088   2.674 -0.4233 -0.7534  0.3552
 3805SOL    HW123048   4.586   2.102   2.736 -0.0598 -0.5165 -0.1200
 3805SOL    HW223049   4.502   2.172   2.631  0.9563  0.6227  2.6209
 3806SOL     OW23050   4.734   4.191   5.269  0.0523 -0.6579  0.0259
 3806SOL    HW123051   0.043   4.244   5.335  2.9860 -1.9047 -0.9847
 3806SOL    HW223052   4.710   4.261   5.208 -1.6437 -0.7671  0.5487
 3807SOL     OW23053   1.131   3.764   6.805  0.3207  0.4948  0.5324
 3807SOL    HW123054   1.057   3.719   6.846 -1.1305  0.6153 -1.9599
 3807SOL    HW223055   1.101   3.854   6.818 -3.1806 -0.7884  1.4701
 3808SOL     OW23056   4.681   1.913   0.109  0.0317 -0.2106  0.0984
 3808SOL    HW123057   4.629   1.955   0.178  1.6816 -0.7885  1.6865
 3808SOL    HW223058   4.612   1.860   0.068  0.9005 -2.7227  1.8858
 3809SOL     OW23059   2.577   1.390   7.720  0.1997 -0.1870 -0.0624
 3809SOL    HW123060   2.623   1.381   7.803 -1.1971  0.2468  0.7421
 3809SOL    HW223061   2.646   1.390   7.653 -1.7886 -0.9484 -2.1203
 3810SOL     OW23062   1.081   0.485   6.216 -0.0568  0.2311 -0.0049
 3810SOL    HW123063   1.029   0.465   6.139  0.1871  0.2992 -0.1878
 3810SOL    HW223064   1.017   0.491   6.287 -0.2417  0.3049 -0.1787
 3811SOL     OW23065   3.319   1.167   0.837  0.3505 -0.2394 -0.0000
 3811SOL    HW123066   3.374   1.127   0.770  0.5941  1.5805 -0.8871
 3811SOL    HW223067   3.380   1.175   0.911 -0.4735  0.1042  0.6438
 3812SOL     OW23068   1.492   0.954   6.064  0.2375 -0.7254  0.3925
 3812SOL    HW123069   1.431   0.989   5.999  0.1809 -1.3289  0.1170
 3812SOL    HW223070   1.490   0.861   6.039 -0.8264 -0.1645 -1.6246
 3813SOL     OW23071   4.392   4.356  11.652 -1.0208  0.5116  0.1023
 3813SOL    HW123072   4.403   4.263  11.670  1.4218  0.6837 -0.4961
 3813SOL    HW223073   4.394   4.345  11.557  2.2738 -1.9499  0.4741
 3814SOL     OW23074   1.899   3.487   2.079 -0.1287  0.3350  0.2495
 3814SOL    HW123075   1.906   3.409   2.023  1.1768  0.8263 -0.2633
 3814SOL    HW223076   1.988   3.482   2.116  0.2681  1.1164 -0.5932
 3815SOL     OW23077   2.172   1.434   4.906  0.4869 -0.2775  0.1113
 3815SOL    HW123078   2.089   1.412   4.865  0.5875 -0.8101  0.1935
 3815SOL    HW223079   2.216   1.464   4.827 -0.9734 -0.6792 -0.8533
 3816SOL     OW23080   2.251   4.191   7.064 -0.8393 -0.2248  0.0547
 3816SOL    HW123081   2.182   4.258   7.067  0.8240  1.4179  0.8116
 3816SOL    HW223082   2.200   4.114   7.037  2.8587 -2.5923 -0.1264
 3817SOL     OW23083   0.736   0.494   6.389 -0.4668  0.1943 -0.7996
 3817SOL    HW123084   0.727   0.578   6.344 -1.3838 -0.2979 -1.5418
 3817SOL    HW223085   0.656   0.447   6.366 -0.6069 -1.5641  3.2524
 3818SOL     OW23086   1.679   3.291   4.910  0.0801  0.0896 -0.1481
 3818SOL    HW123087   1.680   3.328   4.822  0.0975 -0.9101 -0.5711
 3818SOL    HW223088   1.744   3.343   4.958 -1.6883  1.2427  1.0138
 3819SOL     OW23089   1.737   0.330   1.750  0.3587  0.8116  0.2648
 3819SOL    HW123090   1.822   0.374   1.743  0.0297  1.3618 -0.2789
 3819SOL    HW223091   1.723   0.293   1.663 -1.6439  0.5170  0.7310
 3820SOL     OW23092   2.467   3.796   5.550 -0.2480 -0.6049  0.5666
 3820SOL    HW123093   2.380   3.811   5.514 -0.9127  0.9286  2.7669
 3820SOL    HW223094   2.507   3.878   5.520  1.8391 -1.0366  2.1364
 3821SOL     OW23095   2.083   4.354   9.000 -0.1359 -0.2706  0.4904
 3821SOL    HW123096   2.136   4.405   8.939 -0.4832 -0.9991 -0.4066
 3821SOL    HW223097   1.998   4.393   8.980  1.0186 -0.2380 -4.2253
 3822SOL     OW23098   3.074   0.684   9.196 -0.2915  0.2341  0.2696
 3822SOL    HW123099   3.123   0.731   9.263  0.8048  1.7185 -1.5836
 3822SOL    HW223100   2.987   0.721   9.210  0.6027  2.8249 -1.0109
 3823SOL     OW23101   2.659   2.475   1.214 -0.1882 -0.2070 -0.2438
 3823SOL    HW123102   2.578   2.424   1.218 -1.9654  2.5699 -1.2831
 3823SOL    HW223103   2.644   2.551   1.269 -1.6009 -0.6875  0.0249
 3824SOL     OW23104   2.213   2.000   6.860  0.0073 -0.2704 -0.3288
 3824SOL    HW123105   2.304   2.005   6.830  0.7475 -1.4889  1.6978
 3824SOL    HW223106   2.229   2.000   6.955 -1.7710  0.1472 -0.0299
 3825SOL     OW23107   3.902   4.343   4.386  0.2957  0.2855 -0.0877
 3825SOL    HW123108   3.944   4.428   4.375  0.5225  0.4643  2.2440
 3825SOL    HW223109   3.984   4.297   4.369 -0.3573 -0.9483  0.1065
 3826SOL     OW23110   1.655   2.401   9.011 -0.0054 -0.1899  0.2269
 3826SOL    HW123111   1.748   2.416   9.026 -0.1572  0.8360  0.1682
 3826SOL    HW223112   1.652   2.428   8.920 -1.4424 -3.5416 -0.7438
 3827SOL     OW23113   2.115   0.655   5.199 -0.4926 -0.1954  0.6812
 3827SOL    HW123114   2.210   0.667   5.212 -0.1910 -1.0314 -0.7882
 3827SOL    HW223115   2.105   0.606   5.117 -0.6996  1.9644 -0.5950
 3828SOL     OW23116   4.453   3.313  10.399 -0.3702  0.0012 -0.1650
 3828SOL    HW123117   4.451   3.352  10.487 -3.4898  1.5526 -0.9210
 3828SOL    HW223118   4.546   3.300  10.382 -0.7611 -2.4899 -0.4385
 3829SOL     OW23119   1.420   0.796   7.182 -0.5435  0.1178  0.2374
 3829SOL    HW123120   1.387   0.872   7.135 -1.1465  0.8276  1.8108
 3829SOL    HW223121   1.514   0.813   7.175 -0.3635 -0.8700  0.2677
 3830SOL     OW23122   4.195   2.913   2.325  0.2898  0.0505 -0.0697
 3830SOL    HW123123   4.115   2.864   2.309  1.8312 -2.5362  0.0490
 3830SOL    HW223124   4.161   3.002   2.321 -1.0290 -0.3951  1.2854
 3831SOL     OW23125   4.395   0.647   7.235  0.3436  0.5805  0.3867
 3831SOL    HW123126   4.333   0.688   7.174 -0.5775 -2.0209 -0.4329
 3831SOL    HW223127   4.349   0.565   7.252  1.8124 -0.0580  1.1941
 3832SOL     OW23128   3.069   0.520   3.557 -0.2451 -0.3735 -0.5431
 3832SOL    HW123129   2.977   0.501   3.576 -0.6663  2.9951  0.7888
 3832SOL    HW223130   3.064   0.614   3.576  0.5245 -0.7372  1.4263
 3833SOL     OW23131   0.439   0.473   6.400  0.1151  0.1568 -0.3933
 3833SOL    HW123132   0.408   0.455   6.488 -1.8351 -0.7010 -1.2481
 3833SOL    HW223133   0.485   0.394   6.374  0.0422 -0.4541  1.3571
 3834SOL     OW23134   1.495   1.105  12.220 -0.0804 -0.3132  0.2858
 3834SOL    HW123135   1.572   1.153  12.188  0.2070  0.7327  2.5110
 3834SOL    HW223136   1.530   1.092  12.308 -0.1616  0.8815  0.5011
 3835SOL     OW23137   2.906   4.461   7.736 -0.1344  0.2157 -0.4301
 3835SOL    HW123138   2.930   4.395   7.672  0.2973  1.3981 -1.4749
 3835SOL    HW223139   2.817   4.432   7.758 -0.2899  0.1751 -1.1271
 3836SOL     OW23140   4.293   4.205   6.422 -0.5267 -0.3375 -0.2779
 3836SOL    HW123141   4.217   4.251   6.457  0.2588 -0.1800  1.2313
 3836SOL    HW223142   4.333   4.171   6.502  1.2031  1.2281 -0.4846
 3837SOL     OW23143   1.821   3.413  13.366 -0.5007  0.5508  0.1820
 3837SOL    HW123144   1.845   3.459  13.286 -1.1332 -0.2050 -0.4383
 3837SOL    HW223145   1.905   3.367  13.373 -0.3336  1.0552  1.5030
 3838SOL     OW23146   3.827   3.336   2.556  0.9031  0.0323 -0.0491
 3838SOL    HW123147   3.907   3.360   2.508 -0.1637 -2.3284 -3.0141
 3838SOL    HW223148   3.783   3.274   2.498  1.8573 -0.3307 -0.3833
 3839SOL     OW23149   3.941   0.649  11.281  0.4285 -0.8669 -0.0888
 3839SOL    HW123150   3.994   0.706  11.337 -0.3536  1.9762 -2.2787
 3839SOL    HW223151   3.858   0.642  11.328  1.5846  2.1678  2.4363
 3840SOL     OW23152   3.305   0.367   8.435 -0.2916 -0.7402 -0.9809
 3840SOL    HW123153   3.217   0.387   8.406 -1.4193 -0.7116  2.4586
 3840SOL    HW223154   3.362   0.420   8.379 -0.0944  1.8838  1.6963
 3841SOL     OW23155   0.465   3.815   6.599 -0.1971 -0.1859  0.1655
 3841SOL    HW123156   0.406   3.886   6.573 -3.0625 -2.2708  0.9578
 3841SOL    HW223157   0.410   3.771   6.663 -1.6257  0.5553 -0.5594
 3842SOL     OW23158   4.616   1.963   4.181  0.0396  0.1791  0.0099
 3842SOL    HW123159   4.590   1.877   4.147 -0.8387  0.3315  0.2857
 3842SOL    HW223160   4.553   2.017   4.134  0.7601 -0.5837 -1.8293
 3843SOL     OW23161   0.759   2.502   8.502 -0.2065 -0.3104  0.0220
 3843SOL    HW123162   0.717   2.522   8.419  0.1178  1.2032  0.2240
 3843SOL    HW223163   0.684   2.477   8.556  0.6125 -0.0529  1.2877
 3844SOL     OW23164   0.602   0.587  12.181 -0.3233  0.2009  0.6043
 3844SOL    HW123165   0.556   0.578  12.264  1.2629 -0.8129  1.3771
 3844SOL    HW223166   0.591   0.675  12.145  2.1712  0.0935 -0.3979
 3845SOL     OW23167   0.572   1.795  14.923  0.4341 -0.0408  0.4263
 3845SOL    HW123168   0.599   1.807  14.832  0.2877 -1.5166  0.1832
 3845SOL    HW223169   0.596   1.703  14.935 -2.1210 -0.5923  1.2663
 3846SOL     OW23170   4.291   0.013   4.019  0.7655  0.9548  0.1570
 3846SOL    HW123171   4.219   0.056   4.065  1.3544  1.9615  0.1419
 3846SOL    HW223172   4.314   0.080   3.954  1.1715  1.1955  0.5472
 3847SOL     OW23173   0.475   3.647   3.296 -0.6919 -0.3674 -0.2017
 3847SOL    HW123174   0.493   3.651   3.202  0.4993  0.5845  0.0697
 3847SOL    HW223175   0.522   3.728   3.315  0.2092 -0.9834  0.1914
 3848SOL     OW23176   2.133   4.255   2.158  0.3861 -0.1539 -0.1668
 3848SOL    HW123177   2.065   4.237   2.093  0.1422  0.3272 -0.0485
 3848SOL    HW223178   2.104   4.341   2.190  2.6723 -0.0048  1.5198
 3849SOL     OW23179   0.789   0.663  10.461  0.5695  0.8012  0.1066
 3849SOL    HW123180   0.781   0.753  10.492 -0.0854  0.9891 -0.6127
 3849SOL    HW223181   0.714   0.622  10.503 -0.7250  2.4458 -0.6304
 3850SOL     OW23182   3.771   4.223   9.783  0.5977  0.4741  0.1857
 3850SOL    HW123183   3.785   4.151   9.844 -0.7291  2.3420  2.6627
 3850SOL    HW223184   3.816   4.185   9.708  0.7547 -1.0777  1.0738
 3851SOL     OW23185   1.752   3.039  10.416 -0.5390 -0.0794  0.1663
 3851SOL    HW123186   1.742   3.123  10.372  1.8254 -0.7082 -1.6258
 3851SOL    HW223187   1.786   3.067  10.501  0.7126  0.3599 -0.4735
 3852SOL     OW23188   1.529   0.435   1.496  0.5722  0.1047  0.1688
 3852SOL    HW123189   1.471   0.358   1.499  0.9674 -0.1981 -0.0135
 3852SOL    HW223190   1.583   0.393   1.429 -0.3767 -1.7884  0.5703
 3853SOL     OW23191   4.309   2.008   9.529  0.1507 -0.4327  0.1829
 3853SOL    HW123192   4.343   2.078   9.584 -1.2492  1.2458 -1.0969
 3853SOL    HW223193   4.364   2.008   9.451  1.2583 -1.7215  0.9475
 3854SOL     OW23194   4.273   2.016   2.334 -0.2119  0.3528  0.5349
 3854SOL    HW123195   4.257   2.105   2.304 -1.2955 -0.2345 -0.6190
 3854SOL    HW223196   4.211   2.011   2.408 -1.4272 -0.7532 -0.5576
 3855SOL     OW23197   1.891   4.142  14.668  0.2189 -0.1771 -0.4653
 3855SOL    HW123198   1.817   4.174  14.617  0.4524  0.3507 -0.4727
 3855SOL    HW223199   1.843   4.081  14.724 -2.5930  0.1504 -2.5320
 3856SOL     OW23200   0.577   4.669   3.372  0.1921  0.0005 -0.3812
 3856SOL    HW123201   0.671   4.683   3.363 -0.1646  1.4058 -1.8711
 3856SOL    HW223202   0.565   4.690   3.465 -2.2636  1.2220 -0.9715
 3857SOL     OW23203   0.765   3.005   4.090  0.0228  0.6553 -0.0804
 3857SOL    HW123204   0.782   2.912   4.099  1.0194  0.6257 -2.4786
 3857SOL    HW223205   0.843   3.030   4.040  0.5148  2.3337  1.4917
 3858SOL     OW23206   1.384   2.901   6.047 -0.0047 -0.0382 -0.7402
 3858SOL    HW123207   1.378   2.984   6.095  1.8325 -0.5703  0.3867
 3858SOL    HW223208   1.324   2.849   6.100 -0.7482  0.8944 -0.6471
 3859SOL     OW23209   1.791   4.670   5.754  0.2355  0.1182 -0.7527
 3859SOL    HW123210   1.728   4.676   5.826 -0.4337  1.1273 -1.4278
 3859SOL    HW223211   1.867   4.631   5.796  1.0490  0.8675 -1.5503
 3860SOL     OW23212   1.425   2.521   2.759  0.5959  0.7304  0.5590
 3860SOL    HW123213   1.356   2.567   2.711  0.8547  1.0174  0.4708
 3860SOL    HW223214   1.505   2.568   2.740  1.5522 -0.3713  1.8468
 3861SOL     OW23215   1.897   3.267   1.883  0.0388  0.3481  0.4333
 3861SOL    HW123216   1.810   3.262   1.843 -0.2640  1.6131  0.9344
 3861SOL    HW223217   1.918   3.180   1.850 -1.2204 -0.1276  0.8850
 3862SOL     OW23218   0.924   0.233  11.203  0.2257  0.2663 -0.2080
 3862SOL    HW123219   0.900   0.167  11.138  0.4107 -1.3111  1.3021
 3862SOL    HW223220   0.840   0.233  11.248  0.5190  1.0216  0.3416
 3863SOL     OW23221   0.151   0.981   8.188 -0.0494  0.0568  0.1727
 3863SOL    HW123222   0.117   1.030   8.113  3.3902  0.5227 -1.0813
 3863SOL    HW223223   0.213   1.047   8.219 -1.2132  1.9387 -1.5103
 3864SOL     OW23224   4.498   0.748   8.085 -0.3708 -0.2424  0.0697
 3864SOL    HW123225   4.427   0.740   8.148  0.4702 -1.5139  0.8578
 3864SOL    HW223226   4.461   0.706   8.008 -1.9316 -1.4394  1.4606
 3865SOL     OW23227   1.428   3.841   7.895 -0.2233  0.4271 -0.0505
 3865SOL    HW123228   1.402   3.907   7.830 -0.1207 -2.2557 -2.8146
 3865SOL    HW223229   1.438   3.896   7.972  0.4729  0.2212  0.0068
 3866SOL     OW23230   2.593   0.081   3.410  0.4466  0.1305  0.1153
 3866SOL    HW123231   2.510   0.128   3.412  1.1820  1.4643 -1.1608
 3866SOL    HW223232   2.666   0.140   3.390 -0.6480  1.4676  0.1282
 3867SOL     OW23233   2.540   1.094   2.843  0.1546 -0.1710  0.0037
 3867SOL    HW123234   2.448   1.076   2.827  0.2051  1.8313 -2.6313
 3867SOL    HW223235   2.558   1.170   2.787 -0.1823  0.7471  1.1406
 3868SOL     OW23236   1.038   1.820   3.571  0.2398 -0.3701 -0.5205
 3868SOL    HW123237   1.080   1.900   3.602  0.9027 -0.7299 -0.4826
 3868SOL    HW223238   0.948   1.825   3.603  0.0761  0.0209 -1.0591
 3869SOL     OW23239   0.369   3.797  17.700 -0.0601  0.5532  0.5237
 3869SOL    HW123240   0.461   3.814  17.717 -0.1951  0.6923  1.1388
 3869SOL    HW223241   0.367   3.722   0.016 -0.3272  0.7403  0.7568
 3870SOL     OW23242   0.505   0.282  15.321 -0.1230 -0.1324 -0.1712
 3870SOL    HW123243   0.492   0.207  15.378  0.4986 -0.1990 -0.1166
 3870SOL    HW223244   0.536   0.254  15.235  0.2746  0.8024 -0.3377
 3871SOL     OW23245   1.895   2.347  11.169 -0.1214  0.2813  0.1186
 3871SOL    HW123246   1.886   2.393  11.253 -0.1421  0.8830 -0.2096
 3871SOL    HW223247   1.983   2.376  11.144 -0.8703  0.6855 -2.0223
 3872SOL     OW23248   0.296   4.678   6.258  0.2769 -0.3047 -0.2112
 3872SOL    HW123249   0.289   4.650   6.166 -0.4369 -0.1530 -0.2008
 3872SOL    HW223250   0.337   0.027   6.243 -2.6735  1.3130  0.9035
 3873SOL     OW23251   3.106   3.070   6.250  0.3614  0.3043 -0.6544
 3873SOL    HW123252   3.079   3.157   6.278 -2.2297 -0.8984  0.4989
 3873SOL    HW223253   3.186   3.089   6.201  0.3451  0.8045 -0.4782
 3874SOL     OW23254   4.284   3.233   4.374 -0.1246  0.1262 -0.2008
 3874SOL    HW123255   4.356   3.276   4.419  1.1656 -2.0680 -0.1784
 3874SOL    HW223256   4.241   3.304   4.325 -2.2369  0.1596  1.7244
 3875SOL     OW23257   3.116   2.437   8.359 -0.0084 -0.2908  0.5870
 3875SOL    HW123258   3.158   2.360   8.323  1.3733  0.2407  1.0671
 3875SOL    HW223259   3.129   2.488   8.279  0.8039 -0.8636  0.3557
 3876SOL     OW23260   3.800   0.715   0.751 -0.4966  0.0325 -0.3620
 3876SOL    HW123261   3.770   0.625   0.758  3.7476 -1.2465  1.4472
 3876SOL    HW223262   3.772   0.752   0.835  1.0711 -0.5618  0.4322
 3877SOL     OW23263   1.547   0.255   6.789 -0.3151  0.0667  0.2484
 3877SOL    HW123264   1.532   0.343   6.822 -5.3353 -0.5702 -0.2462
 3877SOL    HW223265   1.457   0.225   6.776 -0.4572  1.3017 -1.5871
 3878SOL     OW23266   0.914   3.196  15.095  0.1485  0.1350 -0.1695
 3878SOL    HW123267   0.968   3.206  15.173  0.7103 -1.0072 -0.4150
 3878SOL    HW223268   0.828   3.185  15.135 -0.9599  1.5134 -2.1913
 3879SOL     OW23269   2.792   2.620   6.614 -0.8968  0.4668 -0.3841
 3879SOL    HW123270   2.749   2.664   6.687  1.9808  2.5913  0.0156
 3879SOL    HW223271   2.824   2.695   6.565  1.5650 -2.3235 -3.0905
 3880SOL     OW23272   1.129   0.815   5.607 -0.8707 -0.3030 -0.3607
 3880SOL    HW123273   1.200   0.756   5.631 -0.1268  0.7020 -0.0880
 3880SOL    HW223274   1.084   0.813   5.692 -0.2683  1.5511  0.0093
 3881SOL     OW23275   3.812   3.267   5.980  0.6550  0.0382 -0.1949
 3881SOL    HW123276   3.729   3.300   6.014  1.0311  0.3424  0.4234
 3881SOL    HW223277   3.820   3.313   5.897 -4.2326  1.9561  0.4143
 3882SOL     OW23278   4.059   3.622   2.264  0.0787 -0.1325 -0.6390
 3882SOL    HW123279   4.082   3.552   2.325  2.6184  0.9668 -0.3427
 3882SOL    HW223280   4.097   3.697   2.309 -0.4645 -1.4339  2.0130
 3883SOL     OW23281   3.817   0.822   3.756 -0.1358 -0.1454  0.7900
 3883SOL    HW123282   3.911   0.805   3.754 -0.2693 -0.9507  1.1449
 3883SOL    HW223283   3.799   0.858   3.669  1.2033  0.2893  0.7064
 3884SOL     OW23284   0.548   3.426   3.923  0.2152  0.1057  0.5035
 3884SOL    HW123285   0.477   3.483   3.893 -0.8162  0.4285  3.5342
 3884SOL    HW223286   0.551   3.357   3.857  2.9633 -0.5340  1.3184
 3885SOL     OW23287   3.397   0.141   5.870  0.2951  0.1822  0.1065
 3885SOL    HW123288   3.392   0.168   5.779 -0.4027 -1.9214 -0.4714
 3885SOL    HW223289   3.334   0.193   5.921 -0.2083  0.0276 -0.3621
 3886SOL     OW23290   0.818   3.646   2.331  0.3021  0.9109 -0.3320
 3886SOL    HW123291   0.846   3.726   2.375  2.1397 -0.8323  1.6791
 3886SOL    HW223292   0.724   3.651   2.346  0.2300  0.9442 -0.8029
 3887SOL     OW23293   2.620   3.424   7.837 -0.6572 -0.0194 -0.0524
 3887SOL    HW123294   2.560   3.358   7.872 -0.5772  0.8677  1.7419
 3887SOL    HW223295   2.580   3.451   7.754 -0.8765 -0.6001 -0.1353
 3888SOL     OW23296   0.792   3.449  15.891  0.4298  0.5737  0.2028
 3888SOL    HW123297   0.725   3.455  15.822  0.8078 -0.7936 -0.2885
 3888SOL    HW223298   0.852   3.516  15.859 -0.0299 -0.1529 -2.1760
 3889SOL     OW23299   0.897   1.053   4.545 -0.1629  0.7099 -0.4042
 3889SOL    HW123300   0.804   1.071   4.557 -0.8257  0.1426 -4.7220
 3889SOL    HW223301   0.910   1.054   4.450 -2.2310  0.5498 -0.6857
 3890SOL     OW23302   4.187   0.336   2.088 -0.4615  1.0082  0.2823
 3890SOL    HW123303   4.103   0.349   2.044 -0.0309  0.4288 -0.7259
 3890SOL    HW223304   4.206   0.417   2.134  1.4782  0.7468 -0.0166
 3891SOL     OW23305   3.865   0.365   9.753  0.2785  0.0566  0.0008
 3891SOL    HW123306   3.773   0.359   9.778 -0.2409 -0.0744 -1.9351
 3891SOL    HW223307   3.889   0.273   9.744 -2.9325 -0.7187 -0.7782
 3892SOL     OW23308   3.828   4.611   4.135 -0.4802 -0.3900  0.0844
 3892SOL    HW123309   3.871   4.620   4.220 -1.0664  2.1548  0.1299
 3892SOL    HW223310   3.739   4.588   4.164 -0.7195 -1.0106 -1.1700
 3893SOL     OW23311   1.843   2.658   4.711  0.0367 -0.3904  0.0799
 3893SOL    HW123312   1.929   2.653   4.670 -0.5110 -1.2068 -0.9811
 3893SOL    HW223313   1.856   2.689   4.800 -0.0261 -0.3374  0.0709
 3894SOL     OW23314   4.298   0.103   6.390  0.0919 -0.1568  0.1576
 3894SOL    HW123315   4.285   0.190   6.350  0.2867 -0.1927  0.0190
 3894SOL    HW223316   4.317   0.052   6.312 -1.4312 -0.1570 -0.2129
 3895SOL     OW23317   3.445   3.400   4.221  0.3438  0.0058  0.1820
 3895SOL    HW123318   3.352   3.389   4.240  0.6739 -1.3060  1.0283
 3895SOL    HW223319   3.490   3.318   4.242 -1.6428 -0.6263  1.9477
 3896SOL     OW23320   4.046   0.207  10.108 -0.1511  0.1635  0.2343
 3896SOL    HW123321   4.101   0.285  10.106 -1.8071  1.3048 -1.1181
 3896SOL    HW223322   4.079   0.171  10.190  0.9978  1.5537  0.3766
 3897SOL     OW23323   3.478   3.840   4.018 -0.1344  0.3871  0.4933
 3897SOL    HW123324   3.563   3.813   4.054  0.7021  1.4368 -0.7051
 3897SOL    HW223325   3.452   3.904   4.084  0.5857 -1.0815  2.2114
 3898SOL     OW23326   2.264   1.524   2.304  0.0425  0.3496  0.4182
 3898SOL    HW123327   2.308   1.449   2.346  1.5091  0.1926 -1.3796
 3898SOL    HW223328   2.299   1.588   2.366 -2.7813 -0.2387  2.6192
 3899SOL     OW23329   1.797   2.884   7.370 -0.1857 -0.2939 -0.5053
 3899SOL    HW123330   1.869   2.845   7.421 -0.9401  1.5350  1.9847
 3899SOL    HW223331   1.825   2.975   7.364  0.6834 -0.5237 -0.0563
 3900SOL     OW23332   0.454   2.443   6.364 -0.0728 -0.8753  0.2427
 3900SOL    HW123333   0.367   2.475   6.339  0.4167  0.2792  0.0169
 3900SOL    HW223334   0.439   2.360   6.409 -1.5426 -1.0720 -0.6156
 3901SOL     OW23335   1.982   1.071   5.024 -0.3008  0.4267 -0.8288
 3901SOL    HW123336   1.937   1.034   4.948 -0.2127  0.0814 -0.7118
 3901SOL    HW223337   1.977   1.163   4.999  2.9160  0.7478 -0.3500
 3902SOL     OW23338   3.902   4.557  16.787  0.0813 -0.1362  0.3491
 3902SOL    HW123339   3.950   4.640  16.786  1.0474 -0.7021 -0.1879
 3902SOL    HW223340   3.900   4.547  16.882  0.9264 -1.4943  0.2271
 3903SOL     OW23341   3.834   0.610   8.542  0.5215 -0.8137 -0.0038
 3903SOL    HW123342   3.761   0.600   8.603  0.1462 -2.1137 -0.6837
 3903SOL    HW223343   3.900   0.635   8.607 -2.5020  1.7294  2.1098
 3904SOL     OW23344   4.459   4.552   6.105 -0.1207  0.2409 -0.1556
 3904SOL    HW123345   4.419   4.513   6.183  1.0799  0.0503  0.3652
 3904SOL    HW223346   4.534   4.499   6.078 -0.2713 -0.5827  1.0491
 3905SOL     OW23347   4.625   0.113   4.459  0.0236 -0.3063  0.3407
 3905SOL    HW123348   4.530   0.112   4.454 -0.0309 -0.9108  1.5003
 3905SOL    HW223349   4.631   0.041   4.397 -0.1610 -0.3790  0.4085
 3906SOL     OW23350   0.766   3.735   6.250  0.2392 -0.0380  0.2194
 3906SOL    HW123351   0.684   3.779   6.273  2.0887  3.1750  0.5889
 3906SOL    HW223352   0.798   3.809   6.198  1.0193  0.3254  1.2282
 3907SOL     OW23353   1.568   2.525  17.025  0.0421  0.1741 -0.3069
 3907SOL    HW123354   1.618   2.592  17.072 -0.0721 -1.5471  2.3171
 3907SOL    HW223355   1.487   2.544  17.073  0.2986 -2.2767  1.1281
 3908SOL     OW23356   1.840   0.897  13.961 -0.3463 -0.6024 -0.4253
 3908SOL    HW123357   1.869   0.825  14.016 -0.2124  1.0524  1.6536
 3908SOL    HW223358   1.919   0.908  13.908 -0.2438 -0.7940 -0.3128
 3909SOL     OW23359   0.189   2.621   8.029  0.2753  0.0609 -0.1371
 3909SOL    HW123360   0.199   2.537   7.983  2.1034  0.6696 -0.8843
 3909SOL    HW223361   0.106   2.646   7.990  0.1169  0.1214  0.2413
 3910SOL     OW23362   2.061   3.489   2.853 -0.2637 -0.0134  0.3683
 3910SOL    HW123363   2.124   3.446   2.910 -0.6368  0.2421  0.9729
 3910SOL    HW223364   2.103   3.574   2.840  0.7153 -0.4965  0.3392
 3911SOL     OW23365   3.784   3.172   5.601 -0.2763 -0.1483  0.2183
 3911SOL    HW123366   3.811   3.263   5.615  0.2862 -0.2827 -0.0229
 3911SOL    HW223367   3.739   3.185   5.517 -0.3108  2.0889  0.5633
 3912SOL     OW23368   3.786   2.093   0.582  0.2509 -0.2753 -0.2250
 3912SOL    HW123369   3.761   2.001   0.578 -1.8310  0.3393 -1.1169
 3912SOL    HW223370   3.707   2.145   0.598 -1.3488 -3.2368  1.4071
 3913SOL     OW23371   3.353   0.012   3.217  0.0374  0.3288  0.0492
 3913SOL    HW123372   3.280   0.042   3.162 -0.6855 -0.3331  0.6444
 3913SOL    HW223373   3.412   0.085   3.203  2.2409 -1.6489 -1.0489
 3914SOL     OW23374   3.200   0.825   1.968  0.1988  0.3150 -0.6885
 3914SOL    HW123375   3.280   0.863   1.932  0.5980  1.6037  1.5628
 3914SOL    HW223376   3.232   0.797   2.053  0.3447  0.6233 -0.6426
 3915SOL     OW23377   3.279   0.959   3.857  0.7566 -0.2794  0.3390
 3915SOL    HW123378   3.356   0.939   3.805  1.5149 -3.2535  2.5889
 3915SOL    HW223379   3.274   0.885   3.917 -0.5235  0.3596  1.0349
 3916SOL     OW23380   2.253   4.589   0.969 -0.5534 -0.0894 -0.6763
 3916SOL    HW123381   2.289   4.523   0.910 -1.4897 -0.5941 -0.6815
 3916SOL    HW223382   2.243   4.664   0.911  0.6520 -0.2250 -1.0584
 3917SOL     OW23383   4.336   2.127   7.251  0.4033  0.2359  0.3007
 3917SOL    HW123384   4.400   2.056   7.260  1.5132  1.2841  0.6007
 3917SOL    HW223385   4.358   2.152   7.161 -0.1403 -0.6918 -0.0993
 3918SOL     OW23386   2.799   3.510   3.464  0.4489 -0.6540 -0.4045
 3918SOL    HW123387   2.887   3.473   3.458 -0.6039 -2.8787 -1.8698
 3918SOL    HW223388   2.793   3.529   3.558  2.4159 -1.9274 -0.0325
 3919SOL     OW23389   0.879   0.172  10.404  0.1850 -0.3522 -0.7792
 3919SOL    HW123390   0.862   0.081  10.427 -1.7845 -0.1063 -1.2233
 3919SOL    HW223391   0.934   0.163  10.326 -0.5658  0.2808 -1.3883
 3920SOL     OW23392   0.279   3.381   4.840  0.5485 -0.1089 -0.3700
 3920SOL    HW123393   0.326   3.338   4.911 -1.8693  2.1849  2.6174
 3920SOL    HW223394   0.259   3.296   4.801 -1.2844  0.8420 -1.4851
 3921SOL     OW23395   0.313   4.222   2.833  0.4128  0.3230 -0.0590
 3921SOL    HW123396   0.262   4.289   2.788 -1.9377 -0.7765  0.9560
 3921SOL    HW223397   0.355   4.176   2.761 -1.5528 -0.6253 -0.6190
 3922SOL     OW23398   1.486   4.212   4.020  0.3808  0.0739 -0.1280
 3922SOL    HW123399   1.463   4.128   4.059  0.9840 -0.7736 -1.6175
 3922SOL    HW223400   1.559   4.245   4.072  0.6533  0.1679 -0.5767
 3923SOL     OW23401   2.942   4.371   4.101 -0.0019  0.2151 -0.1719
 3923SOL    HW123402   2.947   4.325   4.017 -0.1423 -1.5410  0.7746
 3923SOL    HW223403   2.877   4.438   4.085  1.3094  2.1721  2.7127
 3924SOL     OW23404   1.613   0.688   0.892 -0.4614 -1.1950 -0.0172
 3924SOL    HW123405   1.525   0.685   0.930 -0.6346 -1.0404 -0.4017
 3924SOL    HW223406   1.594   0.665   0.801 -0.0232 -1.6807  0.0145
 3925SOL     OW23407   3.493   2.901   4.175 -0.4944  0.1934 -0.0840
 3925SOL    HW123408   3.491   2.843   4.099  0.7078 -1.4998  1.1649
 3925SOL    HW223409   3.541   2.842   4.233 -1.9531 -1.3009 -0.4064
 3926SOL     OW23410   3.008   0.099   6.039 -0.1394  0.3043 -0.0065
 3926SOL    HW123411   3.071   0.170   6.029 -0.7220  0.9272  0.7408
 3926SOL    HW223412   3.031   0.075   6.129  0.0230  0.8633  0.1012
 3927SOL     OW23413   4.084   1.675  16.115  0.2522  0.9955  0.3597
 3927SOL    HW123414   3.997   1.697  16.148 -0.0494 -1.1308  0.9887
 3927SOL    HW223415   4.122   1.763  16.121  0.2695  0.9265  1.2652
 3928SOL     OW23416   2.142   3.204   0.038  0.3426  0.1376  0.9196
 3928SOL    HW123417   2.203   3.211   0.112  0.8026 -1.1113  0.6769
 3928SOL    HW223418   2.091   3.284   0.048 -0.0530 -0.2031  1.6097
 3929SOL     OW23419   3.939   1.318   4.477 -0.0968  0.2710  0.1907
 3929SOL    HW123420   4.001   1.383   4.511 -1.3876  1.1328  0.8851
 3929SOL    HW223421   3.972   1.238   4.519 -0.5286  0.9836  1.8767
 3930SOL     OW23422   0.827   1.260   5.905  0.7178 -0.1929 -0.4376
 3930SOL    HW123423   0.748   1.307   5.880  0.2561 -2.1210 -2.5898
 3930SOL    HW223424   0.893   1.324   5.932  1.3528 -1.2390  0.5099
 3931SOL     OW23425   1.774   0.660  15.603  0.2432  0.4927  0.2607
 3931SOL    HW123426   1.790   0.570  15.631 -0.6675  0.8518  1.9312
 3931SOL    HW223427   1.702   0.683  15.661  0.1225 -1.8124  1.0224
 3932SOL     OW23428   1.994   2.020   5.344 -0.1310  0.2196  0.2729
 3932SOL    HW123429   1.929   1.952   5.329 -0.0647  0.1334  0.3787
 3932SOL    HW223430   1.935   2.095   5.354 -0.6363 -0.1874  0.3512
 3933SOL     OW23431   1.662   2.018   3.839 -0.5885 -0.1180  0.1851
 3933SOL    HW123432   1.574   2.042   3.868 -0.0878  0.4667  1.2124
 3933SOL    HW223433   1.674   1.927   3.864 -0.6709 -0.1996 -0.0793
 3934SOL     OW23434   0.977   0.297   7.346 -0.6977  0.4735 -0.5560
 3934SOL    HW123435   0.984   0.313   7.252 -0.4883  3.6452  0.0190
 3934SOL    HW223436   0.882   0.297   7.357 -0.2880  1.5250  2.9430
 3935SOL     OW23437   1.813   2.384   4.407 -0.0286  0.0837  0.4685
 3935SOL    HW123438   1.827   2.392   4.313  3.0517 -0.8104  0.8681
 3935SOL    HW223439   1.719   2.365   4.409  0.0051 -0.1059  0.0986
 3936SOL     OW23440   0.252   3.801   2.665  0.0908  0.4264 -0.2374
 3936SOL    HW123441   0.308   3.874   2.692  1.7720 -0.8081 -0.3620
 3936SOL    HW223442   0.180   3.847   2.623 -0.5601  1.1710  1.6883
 3937SOL     OW23443   4.068   0.738   4.578 -0.2511  0.7797 -0.2809
 3937SOL    HW123444   4.124   0.717   4.504 -0.9572 -2.6547  0.1618
 3937SOL    HW223445   3.980   0.713   4.551 -0.3922  3.8953 -2.7602
 3938SOL     OW23446   4.671   1.153  10.917 -0.3498  0.2436 -0.2629
 3938SOL    HW123447   0.020   1.109  10.919  0.0521  1.0027 -0.9276
 3938SOL    HW223448   4.619   1.073  10.902 -0.3332  0.0202  0.8307
 3939SOL     OW23449   2.313   2.917   8.180  0.0772  0.1444  1.0993
 3939SOL    HW123450   2.282   2.931   8.269 -1.1469 -1.1411  0.8792
 3939SOL    HW223451   2.294   2.824   8.165 -1.1311  0.6646 -0.6382
 3940SOL     OW23452   3.926   0.469   5.832 -0.4418  0.2456  0.0491
 3940SOL    HW123453   3.897   0.381   5.856 -2.6614  1.4395  1.7542
 3940SOL    HW223454   3.871   0.487   5.756  0.4312 -1.7245 -1.0425
 3941SOL     OW23455   1.394   4.101  13.684 -0.5149 -0.1174 -0.1749
 3941SOL    HW123456   1.313   4.085  13.733  0.3381 -1.3518  0.8225
 3941SOL    HW223457   1.359   4.125  13.598  2.1158 -2.0341 -1.7973
 3942SOL     OW23458   2.861   4.400  17.534  0.8208 -0.0726  0.2337
 3942SOL    HW123459   2.835   4.449  17.612  0.2417  2.4819 -1.5552
 3942SOL    HW223460   2.784   4.400  17.477 -0.6465  1.6231  2.2060
 3943SOL     OW23461   0.070   0.167   3.683 -0.0842  0.2916  0.0331
 3943SOL    HW123462   0.004   0.174   3.751 -0.7762 -1.9656 -0.4137
 3943SOL    HW223463   0.066   0.072   3.673 -0.4149  0.0309  2.7248
 3944SOL     OW23464   3.250   3.654   4.018 -0.2695  0.3617 -0.4063
 3944SOL    HW123465   3.336   3.695   4.028 -0.0549 -0.3428  0.5890
 3944SOL    HW223466   3.207   3.652   4.104  2.0457  1.7368  0.7963
 3945SOL     OW23467   1.259   3.393   6.719 -0.8287  0.6360  0.5566
 3945SOL    HW123468   1.321   3.443   6.666  0.6207 -1.2601  0.4290
 3945SOL    HW223469   1.180   3.398   6.666  1.2189  2.5167 -2.2773
 3946SOL     OW23470   4.111   2.680   8.518  0.1033 -0.0075 -0.1915
 3946SOL    HW123471   4.101   2.650   8.608 -1.6425 -1.3241 -0.8304
 3946SOL    HW223472   4.203   2.707   8.521 -0.3382  1.4905 -0.1493
 3947SOL     OW23473   4.316   2.630   2.389  0.2770  0.2053  0.3530
 3947SOL    HW123474   4.242   2.613   2.330  0.3057 -3.1011  1.2569
 3947SOL    HW223475   4.298   2.719   2.417  1.2661 -0.0812  1.8767
 3948SOL     OW23476   2.481   1.297   4.628  0.1859  0.0208  0.0392
 3948SOL    HW123477   2.508   1.220   4.678  0.1641 -0.0091  0.0054
 3948SOL    HW223478   2.558   1.340   4.592  0.8561  0.0643  1.5112
 3949SOL     OW23479   1.571   3.683   4.043  0.3957  0.0665 -0.2315
 3949SOL    HW123480   1.546   3.716   3.957  0.1587 -0.7225 -0.4682
 3949SOL    HW223481   1.667   3.683   4.047  0.3520  2.7039  0.9522
 3950SOL     OW23482   2.190   2.946  13.271 -0.2499  0.4181  0.0993
 3950SOL    HW123483   2.095   2.942  13.281 -0.3786  1.9977 -0.4968
 3950SOL    HW223484   2.216   2.978  13.357 -0.9105 -2.0181  1.2132
 3951SOL     OW23485   4.260   2.831   8.149 -0.2528 -0.2263  0.0173
 3951SOL    HW123486   4.342   2.803   8.110 -0.3586 -0.3711 -0.1000
 3951SOL    HW223487   4.200   2.782   8.094 -1.4321 -0.3299  1.3813
 3952SOL     OW23488   0.522   2.631  17.517 -0.4603 -0.3737 -0.5636
 3952SOL    HW123489   0.544   2.544  17.551 -1.5285 -1.2788 -2.1753
 3952SOL    HW223490   0.610   2.656  17.488 -0.1514  1.9028  2.3793
 3953SOL     OW23491   2.744   3.024  11.851 -0.1028  0.2247  0.6312
 3953SOL    HW123492   2.683   3.098  11.856 -1.0628 -0.4672 -0.9660
 3953SOL    HW223493   2.827   3.069  11.864 -0.4756  1.0099  0.3096
 3954SOL     OW23494   0.478   0.634  13.792 -0.3170 -0.1067 -0.0419
 3954SOL    HW123495   0.439   0.672  13.713  0.3464 -0.5793 -0.5886
 3954SOL    HW223496   0.407   0.572  13.808  0.9020 -1.3251  0.5418
 3955SOL     OW23497   1.827   0.897   9.487 -0.2346  0.0455  0.7006
 3955SOL    HW123498   1.840   0.948   9.407  1.7482  1.0963  1.7043
 3955SOL    HW223499   1.905   0.908   9.541  0.3397  3.2227 -0.7727
 3956SOL     OW23500   3.985   1.118   1.137 -0.5408  0.1689  0.2419
 3956SOL    HW123501   4.080   1.109   1.138 -0.5051  0.2624 -1.6251
 3956SOL    HW223502   3.960   1.025   1.141  0.7552 -0.2055 -0.2767
 3957SOL     OW23503   0.555   0.520  17.481  0.2481 -0.1086 -0.0837
 3957SOL    HW123504   0.502   0.535  17.559  0.0609  1.0259 -0.4177
 3957SOL    HW223505   0.488   0.493  17.419 -0.2377 -2.3179  1.4383
 3958SOL     OW23506   3.370   4.537  11.783  0.3306  0.4223  0.1548
 3958SOL    HW123507   3.416   4.490  11.713  1.2905  2.2728 -0.4470
 3958SOL    HW223508   3.332   4.470  11.840  0.8032  1.7050  1.9859
 3959SOL     OW23509   2.410   1.114   4.868 -0.2703 -0.2091 -0.1677
 3959SOL    HW123510   2.495   1.102   4.826  0.5040  1.4968  0.8805
 3959SOL    HW223511   2.427   1.145   4.958  1.6547  1.5399 -1.1375
 3960SOL     OW23512   0.576   2.969   6.690  0.1735  0.6722 -0.2983
 3960SOL    HW123513   0.628   2.924   6.756 -1.2869 -1.3280 -0.5038
 3960SOL    HW223514   0.613   3.057   6.693 -1.4429  1.3804 -0.8276
 3961SOL     OW23515   3.827   2.634   5.842 -0.3218 -0.3373  0.2408
 3961SOL    HW123516   3.819   2.582   5.922 -0.0009  0.6814  0.9381
 3961SOL    HW223517   3.896   2.602   5.784 -0.1777 -0.3905  0.4404
 3962SOL     OW23518   2.976   3.772   3.257 -0.4331  0.8914  0.4063
 3962SOL    HW123519   3.046   3.823   3.299 -0.0453  0.1134  0.7025
 3962SOL    HW223520   3.003   3.682   3.274  0.9258  0.7563 -2.6100
 3963SOL     OW23521   0.058   0.612   4.083 -0.2989  0.3805  0.1004
 3963SOL    HW123522   0.045   0.576   3.995 -3.2396  0.7255  0.4094
 3963SOL    HW223523   0.120   0.683   4.065 -0.4042  0.1274 -1.2930
 3964SOL     OW23524   1.385   4.685   8.988 -0.4480 -0.0160  0.0866
 3964SOL    HW123525   1.354   0.031   8.950 -2.8307 -0.3875  1.1960
 3964SOL    HW223526   1.316   4.629   8.953 -0.1051 -0.3819  0.0039
 3965SOL     OW23527   4.163   4.655   5.300 -0.1893  0.0547  0.1018
 3965SOL    HW123528   4.138   4.581   5.244  0.8691 -0.3930  0.2118
 3965SOL    HW223529   4.199   4.705   5.227  0.1862  0.7729  0.7713
 3966SOL     OW23530   0.802   0.895   7.963 -0.4687  0.3251 -0.0980
 3966SOL    HW123531   0.730   0.869   7.906  0.6901 -0.9245 -1.0061
 3966SOL    HW223532   0.867   0.831   7.931 -2.1682 -1.9727  1.0171
 3967SOL     OW23533   3.141   3.570   1.680  0.0256  0.4648 -0.3482
 3967SOL    HW123534   3.169   3.617   1.758 -0.1095 -0.5369  0.3136
 3967SOL    HW223535   3.054   3.608   1.667 -0.6121 -0.3212  1.6289
 3968SOL     OW23536   1.694   3.864   4.463  0.2922 -0.6013 -0.0452
 3968SOL    HW123537   1.711   3.829   4.550  0.2219 -1.3836 -0.3536
 3968SOL    HW223538   1.662   3.793   4.408 -3.9653  1.2796 -0.0123
 3969SOL     OW23539   1.301   2.988   3.893 -0.3502  0.1513 -0.6906
 3969SOL    HW123540   1.227   2.980   3.833 -0.8114  0.8253 -0.2185
 3969SOL    HW223541   1.360   2.915   3.875  0.7121  0.7377  0.4096
 3970SOL     OW23542   0.821   3.283   7.091 -0.3068 -0.0100  0.3849
 3970SOL    HW123543   0.809   3.363   7.142  0.8979  0.4201  0.0066
 3970SOL    HW223544   0.901   3.244   7.127 -0.1762  1.1335  1.3202
 3971SOL     OW23545   2.264   2.876   4.584 -0.2819 -0.4624  0.3698
 3971SOL    HW123546   2.347   2.861   4.538 -0.6935  0.4523 -0.6653
 3971SOL    HW223547   2.283   2.839   4.670  0.4358 -1.7905 -0.3585
 3972SOL     OW23548   4.440   2.314   5.123 -0.2255 -0.8114 -0.1337
 3972SOL    HW123549   4.415   2.377   5.056  0.4016 -0.5171 -0.0977
 3972SOL    HW223550   4.357   2.268   5.121 -0.7705  0.0722  1.8140
 3973SOL     OW23551   4.170   3.504   5.429 -0.4225 -0.3309  0.4437
 3973SOL    HW123552   4.176   3.409   5.424 -1.6868 -0.3982  0.3102
 3973SOL    HW223553   4.229   3.521   5.503 -1.2569  3.4563  0.2455
 3974SOL     OW23554   4.654   0.125   5.126 -0.5116 -0.0512 -1.0025
 3974SOL    HW123555   4.576   0.095   5.174  0.0594 -0.2223 -0.1791
 3974SOL    HW223556   4.661   0.217   5.152 -1.4306 -0.2988  0.1366
 3975SOL     OW23557   3.858   0.368  11.544  0.3388  0.1299  0.6154
 3975SOL    HW123558   3.764   0.351  11.551  1.0621 -3.7146  0.7502
 3975SOL    HW223559   3.853   0.459  11.573 -3.9322  0.1844 -0.2312
 3976SOL     OW23560   4.621   3.571   2.433  0.5481  0.7961 -0.2178
 3976SOL    HW123561   4.578   3.655   2.446  1.6757  1.7667 -2.9514
 3976SOL    HW223562   4.615   3.533   2.521 -0.4867  2.1910  0.3007
 3977SOL     OW23563   1.533   0.880   5.662 -0.9349  0.1542  0.1200
 3977SOL    HW123564   1.529   0.809   5.726 -0.0583 -0.4796 -0.5390
 3977SOL    HW223565   1.616   0.916   5.693 -0.0279 -0.9668 -1.0394
 3978SOL     OW23566   2.430   1.554   6.629  0.2680  0.1099 -0.1310
 3978SOL    HW123567   2.438   1.487   6.562  1.0534 -0.8335  0.8996
 3978SOL    HW223568   2.383   1.626   6.587 -1.5365  0.0322  1.7708
 3979SOL     OW23569   2.471   4.096   6.775 -0.1280 -0.1760  0.1252
 3979SOL    HW123570   2.398   4.045   6.738 -0.2309 -0.7155  1.0863
 3979SOL    HW223571   2.547   4.043   6.751 -0.7163 -1.9627  2.2406
 3980SOL     OW23572   3.751   4.701  14.300 -0.7098  0.2806  0.4241
 3980SOL    HW123573   3.670   0.009  14.323 -0.4546  1.0824 -0.2001
 3980SOL    HW223574   3.803   0.035  14.260  0.9500 -1.1774  0.0415
 3981SOL     OW23575   4.351   3.097   4.732 -0.1310  0.3464  0.2258
 3981SOL    HW123576   4.438   3.134   4.745 -0.6862  1.9258 -0.5541
 3981SOL    HW223577   4.337   3.049   4.814  0.2926 -0.1334  0.0171
 3982SOL     OW23578   3.819   3.201  15.611  0.1676  0.0842  0.1588
 3982SOL    HW123579   3.880   3.178  15.542  1.6717  4.5371 -0.0169
 3982SOL    HW223580   3.846   3.137  15.677 -0.1362  0.4824  0.6779
 3983SOL     OW23581   4.133   0.578   8.360 -0.2406  0.1168 -0.1314
 3983SOL    HW123582   4.084   0.537   8.288 -1.2666  0.1483  0.5365
 3983SOL    HW223583   4.063   0.565   8.424 -1.9212  2.0796 -1.5686
 3984SOL     OW23584   3.859   2.263   1.244  0.2671  0.2804  0.7338
 3984SOL    HW123585   3.901   2.240   1.161  1.9239  2.6734  0.9026
 3984SOL    HW223586   3.781   2.311   1.219 -0.2349 -3.3776 -4.5952
 3985SOL     OW23587   1.270   2.158   3.776 -0.2114  0.3022  0.8095
 3985SOL    HW123588   1.346   2.155   3.718 -0.9031  1.1737 -0.1387
 3985SOL    HW223589   1.213   2.085   3.751 -0.5128  1.7859 -2.7357
 3986SOL     OW23590   1.572   2.678   7.332  0.1741 -0.2316  0.5453
 3986SOL    HW123591   1.508   2.738   7.294  2.5515  1.5189 -0.6904
 3986SOL    HW223592   1.649   2.723   7.367  1.2552 -0.6778 -1.2886
 3987SOL     OW23593   0.718   2.023   8.859 -0.4314 -0.4407  0.3897
 3987SOL    HW123594   0.742   2.095   8.800  1.2422  0.0412  1.6551
 3987SOL    HW223595   0.680   1.957   8.801  0.4056  0.6623 -1.4317
 3988SOL     OW23596   3.476   3.920   6.229  0.6574  0.4816  0.0782
 3988SOL    HW123597   3.443   4.004   6.197  0.4179  1.4331  2.8202
 3988SOL    HW223598   3.570   3.925   6.214  0.8865  4.4649  3.0450
 3989SOL     OW23599   1.821   3.221   4.452 -0.0314 -0.1545 -0.2708
 3989SOL    HW123600   1.778   3.136   4.457 -1.4072  0.6063  0.7419
 3989SOL    HW223601   1.914   3.200   4.452 -0.4023 -1.8703 -2.7994
 3990SOL     OW23602   2.180   4.073   7.949 -0.0341 -0.0915  0.3794
 3990SOL    HW123603   2.177   3.996   8.006 -2.6273 -1.0470 -1.0733
 3990SOL    HW223604   2.113   4.050   7.885  0.1429 -0.1572  0.2186
 3991SOL     OW23605   2.777   1.610   4.031 -0.0324 -0.1371 -0.3182
 3991SOL    HW123606   2.763   1.574   4.119  0.9032 -0.4021 -0.2773
 3991SOL    HW223607   2.732   1.550   3.973  0.2255  0.5778 -1.2516
 3992SOL     OW23608   3.777   0.669   1.055 -0.1792  0.2930  0.1731
 3992SOL    HW123609   3.870   0.692   1.063 -0.8262  2.8380  0.4727
 3992SOL    HW223610   3.775   0.610   1.130  0.3891 -2.1719 -1.7477
 3993SOL     OW23611   3.579   4.257   2.703  0.3391  0.1705  0.1702
 3993SOL    HW123612   3.582   4.178   2.758  0.2527 -0.7620 -1.1622
 3993SOL    HW223613   3.494   4.295   2.726 -0.5179 -1.3064 -0.5185
 3994SOL     OW23614   0.626   0.967  14.277  0.2235  0.8745  0.1368
 3994SOL    HW123615   0.706   0.924  14.307  1.0403  1.0248 -1.8046
 3994SOL    HW223616   0.653   1.040  14.220  2.1664  0.0753  0.0579
 3995SOL     OW23617   3.716   4.102   8.814 -0.2429 -0.4583  0.2069
 3995SOL    HW123618   3.622   4.114   8.830 -0.0939  1.4207 -0.4080
 3995SOL    HW223619   3.712   4.022   8.761  0.9876 -0.3826  0.0124
 3996SOL     OW23620   1.416   3.810   1.813 -0.2510 -0.1810  0.2634
 3996SOL    HW123621   1.420   3.878   1.880 -0.4707  1.1465 -1.0421
 3996SOL    HW223622   1.504   3.830   1.780 -0.5877 -0.0797 -0.5900
 3997SOL     OW23623   1.216   2.348   8.045 -0.1135 -0.2244 -0.0510
 3997SOL    HW123624   1.221   2.359   8.140  2.2906 -1.4054 -0.0473
 3997SOL    HW223625   1.303   2.384   8.028  0.1494 -0.7308  0.2426
 3998SOL     OW23626   4.119   1.991   1.839 -0.7296 -0.0713  0.1168
 3998SOL    HW123627   4.170   2.065   1.871 -0.0983 -0.0935 -0.8155
 3998SOL    HW223628   4.157   1.917   1.887  1.2444  1.9319  1.5881
 3999SOL     OW23629   0.325   2.087   3.693  0.2064 -0.0805  0.0718
 3999SOL    HW123630   0.240   2.088   3.649 -1.6314  1.0696  3.6571
 3999SOL    HW223631   0.313   2.170   3.740 -0.5756  1.0046 -2.0356
 4000SOL     OW23632   1.225   1.449  11.686 -0.4123 -0.5181 -0.5612
 4000SOL    HW123633   1.306   1.499  11.684 -1.8061  1.7438 -0.1846
 4000SOL    HW223634   1.184   1.476  11.604 -0.9761  0.0550 -0.0943
 4001SOL     OW23635   0.483   4.441   8.472 -0.0337 -0.0339  0.7139
 4001SOL    HW123636   0.478   4.498   8.395 -1.9078  0.3481  1.1039
 4001SOL    HW223637   0.575   4.415   8.467 -0.3632 -1.0520 -0.0356
 4002SOL     OW23638   1.501   2.406  12.783 -0.2191 -0.4536  0.8727
 4002SOL    HW123639   1.578   2.349  12.790  0.8379  1.0130  1.2413
 4002SOL    HW223640   1.427   2.368  12.830  0.1598 -2.1854  0.0486
 4003SOL     OW23641   3.038   3.332   3.481  0.1249 -0.0605  0.1403
 4003SOL    HW123642   3.118   3.307   3.435 -0.5097  0.6245 -1.3421
 4003SOL    HW223643   3.048   3.300   3.571 -0.5708  1.6414  0.8173
 4004SOL     OW23644   2.458   3.012   0.335 -0.4419 -0.2711  0.0772
 4004SOL    HW123645   2.432   2.927   0.372 -0.4502  0.1946  1.1217
 4004SOL    HW223646   2.379   3.063   0.350 -0.4847  0.4899 -2.7487
 4005SOL     OW23647   1.147   3.866  14.782  0.2623 -0.4168 -0.3925
 4005SOL    HW123648   1.080   3.891  14.719  0.4100  0.7904 -0.0664
 4005SOL    HW223649   1.191   3.949  14.763 -0.3502 -0.0605 -0.2476
 4006SOL     OW23650   1.984   0.981   6.040  0.3516 -0.2535  0.2434
 4006SOL    HW123651   1.895   1.014   6.053  0.5455  1.4752 -2.9448
 4006SOL    HW223652   2.000   0.929   6.119 -0.1251 -1.8748 -0.7380
 4007SOL     OW23653   4.107   0.836   1.508  0.1172 -0.7436  0.3261
 4007SOL    HW123654   4.194   0.816   1.543  0.0173 -2.8009 -0.6025
 4007SOL    HW223655   4.102   0.930   1.524 -1.3655 -0.6490 -0.7740
 4008SOL     OW23656   3.286   3.953  12.816  0.6798 -0.0520 -0.0787
 4008SOL    HW123657   3.301   3.979  12.907  0.2740 -1.2011  0.3242
 4008SOL    HW223658   3.269   4.038  12.777 -0.0905  0.4598  1.3756
 4009SOL     OW23659   1.825   3.548   6.891  0.3072  0.7369 -0.3519
 4009SOL    HW123660   1.914   3.582   6.894  1.1711 -1.8462  2.9313
 4009SOL    HW223661   1.763   3.619   6.910 -0.4307  0.2110 -0.7775
 4010SOL     OW23662   2.193   2.530   3.621  0.2600 -0.0062  0.1836
 4010SOL    HW123663   2.109   2.491   3.596  0.3182  1.9167 -3.0321
 4010SOL    HW223664   2.159   2.582   3.693  0.5158  0.5905 -0.1327
 4011SOL     OW23665   4.710   3.759  12.361 -0.8631  0.4247 -0.6149
 4011SOL    HW123666   4.720   3.853  12.347  1.2990  0.5412  1.5799
 4011SOL    HW223667   0.040   3.757  12.431 -1.4296  1.9365 -0.0282
 4012SOL     OW23668   3.634   3.366   3.655 -0.2290 -0.4744  0.1848
 4012SOL    HW123669   3.588   3.333   3.732  0.6663  0.9347  1.3410
 4012SOL    HW223670   3.701   3.299   3.644  0.0124 -0.0262 -1.0181
 4013SOL     OW23671   3.610   3.079   3.361  0.3070 -0.0636  0.0876
 4013SOL    HW123672   3.528   3.051   3.320 -0.3076  1.9621 -0.0802
 4013SOL    HW223673   3.571   3.107   3.443  1.2633  0.9627  0.2116
 4014SOL     OW23674   2.065   1.139   5.339 -0.2374 -0.1563 -0.7072
 4014SOL    HW123675   2.012   1.108   5.412  1.4296 -0.4690  0.3654
 4014SOL    HW223676   2.036   1.082   5.267 -0.0338 -0.6944 -0.3614
 4015SOL     OW23677   3.218   3.490   5.673  0.3886  0.4493 -1.0658
 4015SOL    HW123678   3.290   3.431   5.652  1.8943  1.4459  1.2516
 4015SOL    HW223679   3.257   3.549   5.738 -0.8848  0.9883 -0.7887
 4016SOL     OW23680   4.117   0.518   9.830 -0.6996  0.0836  0.2089
 4016SOL    HW123681   4.083   0.597   9.787 -2.0480 -0.4346  0.3382
 4016SOL    HW223682   4.039   0.465   9.813 -1.2638  1.2522 -0.8468
 4017SOL     OW23683   3.489   3.038   5.338 -0.4867 -0.4398 -0.3609
 4017SOL    HW123684   3.501   2.948   5.310  1.0225 -0.5740  0.6924
 4017SOL    HW223685   3.579   3.069   5.333 -0.6217 -0.3110 -2.0147
 4018SOL     OW23686   4.174   3.753  12.520 -0.5758  0.3014  0.3738
 4018SOL    HW123687   4.161   3.729  12.428  3.1883  1.9605 -0.5881
 4018SOL    HW223688   4.205   3.671  12.557 -0.5560 -0.3795 -1.1617
 4019SOL     OW23689   2.548   1.926  11.151 -0.5883  0.2258 -0.1690
 4019SOL    HW123690   2.595   2.005  11.126 -1.0439  0.4934 -0.1854
 4019SOL    HW223691   2.526   1.951  11.241 -2.5092  0.4550 -0.7016
 4020SOL     OW23692   4.205   3.994   6.154  0.0732  0.1524 -0.1631
 4020SOL    HW123693   4.183   4.051   6.227  2.7591  2.0395 -0.8562
 4020SOL    HW223694   4.186   4.059   6.086 -3.3847  0.8786  1.4762
 4021SOL     OW23695   4.545   1.213   9.596  0.0346 -0.0031 -0.5459
 4021SOL    HW123696   4.457   1.177   9.586  1.0399 -2.3691 -0.8622
 4021SOL    HW223697   4.592   1.150   9.650  0.1125  0.5638  0.0426
 4022SOL     OW23698   0.317   3.352   5.281 -0.3132  0.3206 -0.7701
 4022SOL    HW123699   0.243   3.293   5.267 -1.2464  1.0977  0.8260
 4022SOL    HW223700   0.378   3.296   5.329 -1.7796 -0.4020  0.2268
 4023SOL     OW23701   2.932   0.106   4.967 -0.5189 -0.1526  0.3774
 4023SOL    HW123702   2.859   0.165   4.946 -0.8708 -1.1299 -1.1061
 4023SOL    HW223703   3.005   0.164   4.949  0.0714 -0.8217  0.6253
 4024SOL     OW23704   2.209   2.941   1.312 -0.3810  0.7824 -0.1047
 4024SOL    HW123705   2.153   2.976   1.382 -2.0513  1.4921 -1.8037
 4024SOL    HW223706   2.289   2.926   1.364  0.3291 -0.5386 -1.5996
 4025SOL     OW23707   1.189   0.936   7.704 -0.5718 -0.5086  0.4578
 4025SOL    HW123708   1.194   0.922   7.798  0.0661  1.3351  0.6844
 4025SOL    HW223709   1.282   0.930   7.683 -0.1286  0.2490  2.2227
 4026SOL     OW23710   2.904   3.787  15.843  0.1102 -0.0581 -0.0601
 4026SOL    HW123711   2.919   3.881  15.836  0.7008 -0.1352  0.2181
 4026SOL    HW223712   2.841   3.785  15.771  0.8969 -0.1995 -0.7478
 4027SOL     OW23713   0.402   2.948   1.173 -0.0000  0.1878  0.8599
 4027SOL    HW123714   0.446   3.001   1.107  2.2695 -1.4528  1.0376
 4027SOL    HW223715   0.393   2.998   1.254  0.5269  1.7514 -0.0507
 4028SOL     OW23716   0.383   0.748   4.593  0.3915 -0.3757  0.3378
 4028SOL    HW123717   0.356   0.829   4.549  2.6345  1.4213  2.3093
 4028SOL    HW223718   0.431   0.784   4.668 -0.7153 -1.8863  1.7520
 4029SOL     OW23719   4.407   4.162   2.823  0.4020 -0.0871 -0.4019
 4029SOL    HW123720   4.421   4.087   2.881  3.8877 -0.0153 -1.1512
 4029SOL    HW223721   4.403   4.231   2.889  2.0286 -0.2754 -0.1033
 4030SOL     OW23722   3.641   4.573   2.458 -0.2946 -0.2556 -0.7611
 4030SOL    HW123723   3.672   4.660   2.435  2.8748 -1.7474 -2.2302
 4030SOL    HW223724   3.693   4.557   2.537 -0.8598 -0.9026 -0.5126
 4031SOL     OW23725   4.184   1.818   7.527  0.0227 -0.0003  0.1740
 4031SOL    HW123726   4.192   1.731   7.567 -2.5595 -0.2484  0.1866
 4031SOL    HW223727   4.170   1.862   7.610 -0.0375  2.6241 -1.2425
 4032SOL     OW23728   2.370   4.049  12.672 -0.3927 -0.4603  0.4220
 4032SOL    HW123729   2.313   4.051  12.749  0.1227 -0.3955  0.7983
 4032SOL    HW223730   2.386   3.958  12.647  1.6523 -0.2439  0.9385
 4033SOL     OW23731   3.792   1.178   6.383 -0.6750  0.2420 -0.4958
 4033SOL    HW123732   3.803   1.261   6.430 -1.0296  0.0967 -0.1542
 4033SOL    HW223733   3.827   1.211   6.300  0.0597 -1.4689 -0.8663
 4034SOL     OW23734   1.340   2.349   1.640  0.2144  0.0065 -0.2509
 4034SOL    HW123735   1.280   2.276   1.657 -1.5236  1.3106 -0.8211
 4034SOL    HW223736   1.357   2.332   1.547 -0.3418  1.4999 -0.6247
 4035SOL     OW23737   3.176   1.738   7.575  0.2860  0.2823 -0.1426
 4035SOL    HW123738   3.157   1.818   7.625  1.5124  0.0651  0.6758
 4035SOL    HW223739   3.249   1.757   7.515  1.0407  2.2536  1.3715
 4036SOL     OW23740   1.778   2.565   6.522 -0.0684 -0.5398  0.3851
 4036SOL    HW123741   1.726   2.550   6.601 -1.1093  0.0256 -0.1817
 4036SOL    HW223742   1.817   2.478   6.512  0.3711 -0.6381  3.0724
 4037SOL     OW23743   2.401   4.393   8.564  0.2915 -0.0098  0.0563
 4037SOL    HW123744   2.430   4.350   8.644  0.1539  0.3819  0.3221
 4037SOL    HW223745   2.489   4.399   8.527  1.5498 -0.4817  2.9610
 4038SOL     OW23746   1.627   4.635  14.263 -0.2805  0.1422  0.2799
 4038SOL    HW123747   1.703   4.588  14.297 -1.7850 -1.2675  1.7122
 4038SOL    HW223748   1.569   4.560  14.248 -0.5756  0.7443 -1.5534
 4039SOL     OW23749   1.860   1.645   9.184  0.2844  0.4439 -0.0083
 4039SOL    HW123750   1.882   1.713   9.120 -1.7485 -0.8223 -2.0283
 4039SOL    HW223751   1.784   1.604   9.143  0.9023 -2.2843  1.6131
 4040SOL     OW23752   0.586   2.623   7.506  0.6196 -0.4055 -0.0280
 4040SOL    HW123753   0.611   2.683   7.577  1.4004 -0.9107  0.1186
 4040SOL    HW223754   0.673   2.590   7.485  0.4504 -0.0696 -1.2561
 4041SOL     OW23755   0.333   0.104  16.320  0.1341  0.0111 -0.0497
 4041SOL    HW123756   0.416   0.150  16.303 -0.2042  0.5551 -0.2444
 4041SOL    HW223757   0.298   0.147  16.399  0.0343  0.5687 -0.3947
 4042SOL     OW23758   0.755   0.067   4.022 -0.4288 -0.3957 -0.3328
 4042SOL    HW123759   0.719   0.014   3.952  0.6815  2.0269 -2.7838
 4042SOL    HW223760   0.732   0.008   4.093 -0.1482  0.2077  0.2702
 4043SOL     OW23761   0.980   2.092  14.812 -0.5258 -0.4511 -0.2604
 4043SOL    HW123762   0.957   2.101  14.905  1.0251  1.1614 -0.0449
 4043SOL    HW223763   1.020   2.178  14.800 -0.3706 -0.3208  1.2104
 4044SOL     OW23764   2.811   0.349   3.539  0.3390 -0.4043  0.4566
 4044SOL    HW123765   2.831   0.285   3.607 -1.4372 -1.7555 -0.2924
 4044SOL    HW223766   2.836   0.300   3.462 -2.4451 -1.2026  0.0675
 4045SOL     OW23767   2.998   3.106   7.222 -0.1225  0.3689 -0.4970
 4045SOL    HW123768   3.042   3.165   7.161 -0.4759  1.3845  0.2280
 4045SOL    HW223769   2.983   3.169   7.292  0.2769 -1.0963  0.9042
 4046SOL     OW23770   1.643   2.213   5.521 -0.1458 -0.1997 -0.1274
 4046SOL    HW123771   1.681   2.152   5.584  1.8558 -0.2613 -1.4048
 4046SOL    HW223772   1.711   2.206   5.453 -0.1738 -1.6452 -0.0098
 4047SOL     OW23773   3.730   0.173   8.782 -0.2367  0.0150  0.1482
 4047SOL    HW123774   3.767   0.252   8.743  0.5582 -0.1224  0.6164
 4047SOL    HW223775   3.758   0.177   8.874 -0.6257  0.1188  0.2598
 4048SOL     OW23776   1.562   3.480  17.555 -0.0178 -0.1963 -0.3237
 4048SOL    HW123777   1.504   3.555  17.554 -1.8027 -1.5815 -0.9232
 4048SOL    HW223778   1.514   3.412  17.603  0.5583  0.9344  1.8365
 4049SOL     OW23779   4.062   1.832  16.476 -0.0107  0.1477  0.4209
 4049SOL    HW123780   4.144   1.798  16.511 -0.2186 -1.2753 -0.4709
 4049SOL    HW223781   4.074   1.926  16.491 -1.2383  0.3575  0.0890
 4050SOL     OW23782   4.247   3.752   3.552 -0.2313  0.0490 -0.2500
 4050SOL    HW123783   4.320   3.803   3.588 -1.0611  1.4504 -0.5735
 4050SOL    HW223784   4.179   3.764   3.618  0.3606 -0.7106  0.5077
 4051SOL     OW23785   1.581   4.268   6.932 -0.2702  0.3963  0.0903
 4051SOL    HW123786   1.580   4.324   6.855 -0.5340 -0.5231 -0.5687
 4051SOL    HW223787   1.531   4.195   6.895  1.6187 -1.1966  0.6705
 4052SOL     OW23788   1.903   4.536   4.648  0.2770 -0.1489 -0.3936
 4052SOL    HW123789   1.968   4.500   4.588 -0.2688  1.8855 -2.2039
 4052SOL    HW223790   1.904   4.631   4.640  1.2564 -0.1702 -0.4414
 4053SOL     OW23791   0.392   2.950   8.617 -0.1934  0.2055  0.0652
 4053SOL    HW123792   0.300   2.962   8.593 -0.7724 -1.6689  1.3436
 4053SOL    HW223793   0.408   2.875   8.559 -0.7390 -0.1487  0.3692
 4054SOL     OW23794   4.084   4.419   2.134 -0.1391  0.1670 -0.0782
 4054SOL    HW123795   4.129   4.471   2.201  0.7102 -0.0315 -0.4950
 4054SOL    HW223796   4.045   4.351   2.189  3.6582 -1.2843  0.8064
 4055SOL     OW23797   1.369   2.654   1.476  0.3595 -0.5399  0.1213
 4055SOL    HW123798   1.335   2.678   1.390 -1.9132 -0.9419  0.9037
 4055SOL    HW223799   1.391   2.563   1.457 -0.1224 -0.4838 -0.7262
 4056SOL     OW23800   1.410   3.378  16.715  0.3072 -0.4206 -0.0100
 4056SOL    HW123801   1.344   3.342  16.774  0.7690 -0.5967  0.3940
 4056SOL    HW223802   1.479   3.411  16.772 -0.2261 -0.6234  0.7556
 4057SOL     OW23803   1.071   3.692   4.290  0.2991  0.2543 -0.7446
 4057SOL    HW123804   1.164   3.678   4.308  0.6209  0.5309 -2.1311
 4057SOL    HW223805   1.044   3.617   4.238  1.9646  0.7068 -2.2824
 4058SOL     OW23806   3.175   0.135  17.327  0.1622 -0.2000 -0.0369
 4058SOL    HW123807   3.250   0.084  17.296 -0.1353 -0.8929  0.3859
 4058SOL    HW223808   3.131   0.061  17.367  0.2024 -0.9790 -1.4558
 4059SOL     OW23809   3.515   4.159   9.515 -0.3859  0.2720 -0.2051
 4059SOL    HW123810   3.481   4.190   9.431 -1.5363 -2.8771 -0.8818
 4059SOL    HW223811   3.576   4.228   9.540 -1.3028  0.7251  0.7781
 4060SOL     OW23812   3.987   1.328   0.721  0.1528 -0.3410  0.0356
 4060SOL    HW123813   3.905   1.288   0.691  0.2193  0.5934 -1.3896
 4060SOL    HW223814   3.965   1.332   0.814  0.0187 -0.7026  0.0215
 4061SOL     OW23815   3.422   4.219   5.919 -0.5010  0.2701 -0.3217
 4061SOL    HW123816   3.427   4.286   5.852 -1.9563  2.0645  1.3669
 4061SOL    HW223817   3.379   4.152   5.865  1.1912  1.8951 -3.6515
 4062SOL     OW23818   2.225   3.846   5.463  0.3991 -0.6412  0.3962
 4062SOL    HW123819   2.182   3.800   5.390 -1.6851 -0.2704  1.4025
 4062SOL    HW223820   2.148   3.859   5.518  0.1902 -0.0386 -0.0338
 4063SOL     OW23821   3.000   1.940   8.783 -0.6449 -0.2410 -0.0695
 4063SOL    HW123822   3.049   1.880   8.840 -0.3048  0.2654  0.1648
 4063SOL    HW223823   3.043   1.931   8.698 -0.6530 -0.5139 -0.0450
 4064SOL     OW23824   2.409   1.732   3.307 -0.0091  0.2187 -0.1864
 4064SOL    HW123825   2.376   1.755   3.220  0.2792 -0.9314 -0.5908
 4064SOL    HW223826   2.342   1.764   3.368 -0.5681 -0.8739 -0.2332
 4065SOL     OW23827   3.577   0.209   3.660 -0.3507  0.0285 -0.3877
 4065SOL    HW123828   3.660   0.215   3.708 -0.2770 -0.8264 -0.4157
 4065SOL    HW223829   3.568   0.292   3.613  0.2619 -0.7383 -1.8745
 4066SOL     OW23830   3.879   2.018   2.103 -0.2466 -0.1861  0.6722
 4066SOL    HW123831   3.954   2.077   2.096 -0.4091  0.0412  0.8396
 4066SOL    HW223832   3.927   1.936   2.116  0.0579 -0.2223 -0.6685
 4067SOL     OW23833   3.529   3.693   3.802  0.1055 -0.4047 -0.3726
 4067SOL    HW123834   3.622   3.717   3.800 -0.2352  1.2441  2.7204
 4067SOL    HW223835   3.500   3.754   3.870  0.1989 -0.6636 -0.0990
 4068SOL     OW23836   0.275   3.951  10.799 -0.5550  0.8086 -0.6376
 4068SOL    HW123837   0.239   3.924  10.714  1.1763  3.2025 -2.1295
 4068SOL    HW223838   0.230   4.032  10.822 -2.3462  0.1267 -1.7349
 4069SOL     OW23839   4.529   0.022  17.631  0.1858  0.4138 -0.0479
 4069SOL    HW123840   4.590   4.732  17.699 -0.7007 -0.9718  0.2073
 4069SOL    HW223841   4.463   0.073  17.679  0.3281 -0.7521  1.3930
 4070SOL     OW23842   1.192   2.871   4.146  0.2439 -0.4472  0.1627
 4070SOL    HW123843   1.108   2.912   4.169  0.2320 -0.0987 -0.5188
 4070SOL    HW223844   1.219   2.912   4.064  2.6758 -1.1589  0.6053
 4071SOL     OW23845   4.389   4.532   8.618  0.4384  0.0773 -0.2534
 4071SOL    HW123846   4.322   4.554   8.682 -1.7618  1.4814 -3.0122
 4071SOL    HW223847   4.364   4.443   8.594 -3.3385  1.1139 -0.1959
 4072SOL     OW23848   3.493   3.029  16.810  0.0956 -0.4340  0.7983
 4072SOL    HW123849   3.501   3.096  16.742 -1.5232  0.8088  1.8279
 4072SOL    HW223850   3.444   2.968  16.754  0.6721 -0.7412  0.6289
 4073SOL     OW23851   2.328   2.562  17.101 -0.1165 -0.1827  0.5131
 4073SOL    HW123852   2.343   2.598  17.013  3.3813  2.1615  2.0741
 4073SOL    HW223853   2.392   2.490  17.103  0.8692  0.6792 -0.0961
 4074SOL     OW23854   0.190   4.070  11.452 -0.5916 -0.0746 -0.1556
 4074SOL    HW123855   0.220   4.153  11.490  0.9435 -1.1494  0.9933
 4074SOL    HW223856   0.150   4.015  11.520 -0.5608 -0.3282 -0.3443
 4075SOL     OW23857   2.981   0.901   2.392 -0.5993 -0.4308  0.1571
 4075SOL    HW123858   2.907   0.855   2.431  0.3319 -0.5099  1.8560
 4075SOL    HW223859   2.976   0.899   2.296 -1.5492 -1.7983  0.2396
 4076SOL     OW23860   3.419   3.598   7.422 -0.0934  0.3045  0.1328
 4076SOL    HW123861   3.504   3.555   7.426 -0.7252 -0.9014  0.4910
 4076SOL    HW223862   3.429   3.646   7.340 -0.1843 -1.6895 -1.0451
 4077SOL     OW23863   0.244   2.575   6.283  0.6496  0.4830 -0.1419
 4077SOL    HW123864   0.255   2.663   6.246  0.1967  1.0595  1.0838
 4077SOL    HW223865   0.231   2.526   6.202  1.0005 -0.9418  0.6595
 4078SOL     OW23866   4.220   3.772  14.018 -0.4640 -0.3924 -0.5825
 4078SOL    HW123867   4.266   3.750  13.937 -0.1171 -1.6457 -0.0533
 4078SOL    HW223868   4.130   3.791  13.993 -0.7191 -0.5495  0.2012
 4079SOL     OW23869   1.886   1.738   4.584  0.2554 -0.5241  0.1484
 4079SOL    HW123870   1.961   1.742   4.643  0.7704  3.1419 -0.7425
 4079SOL    HW223871   1.874   1.832   4.569 -2.0779 -0.6825  0.9777
 4080SOL     OW23872   4.727   3.846   9.282  0.0253 -0.0402 -0.2052
 4080SOL    HW123873   4.695   3.826   9.370 -1.6178 -2.8134 -1.4252
 4080SOL    HW223874   0.082   3.870   9.300 -0.5839  1.2033  1.2088
 4081SOL     OW23875   1.241   1.529   5.544  0.5521  0.4852 -0.5020
 4081SOL    HW123876   1.221   1.620   5.568  0.9999  0.2167  0.8423
 4081SOL    HW223877   1.249   1.540   5.449  0.6050  1.0402 -0.4347
 4082SOL     OW23878   2.244   1.619   7.389 -0.7650  0.0175  0.1658
 4082SOL    HW123879   2.255   1.708   7.354 -2.1504  0.9284  2.0342
 4082SOL    HW223880   2.254   1.571   7.308 -0.7939 -1.5413  1.0893
 4083SOL     OW23881   2.100   3.539   6.452  0.3092 -0.3311 -0.1627
 4083SOL    HW123882   2.043   3.484   6.398  1.1480  1.0215 -2.4646
 4083SOL    HW223883   2.180   3.487   6.444 -2.2015 -4.2863  0.0676
 4084SOL     OW23884   0.022   4.445   8.325  0.1119 -0.3741  0.3711
 4084SOL    HW123885   0.090   4.449   8.391  1.5692 -1.2539 -1.0821
 4084SOL    HW223886   0.048   4.367   8.277 -0.4978 -1.0769  1.1829
 4085SOL     OW23887   4.548   2.412   6.038 -0.0169 -0.1235 -0.0851
 4085SOL    HW123888   4.628   2.460   6.018  0.6638 -1.6336 -1.0356
 4085SOL    HW223889   4.497   2.475   6.089  1.1526 -1.2811  2.5126
 4086SOL     OW23890   3.458   3.632   1.021 -0.0196 -0.0363  0.5050
 4086SOL    HW123891   3.456   3.626   1.117  2.0463  0.7122  0.5835
 4086SOL    HW223892   3.475   3.541   0.999 -1.9377 -0.2282 -0.1430
 4087SOL     OW23893   1.584   4.016   4.815 -0.5607 -0.1308 -0.0969
 4087SOL    HW123894   1.594   4.100   4.861 -3.1937 -2.0601  3.9739
 4087SOL    HW223895   1.658   4.026   4.755 -0.9948  1.1669 -0.4185
 4088SOL     OW23896   3.778   2.313  13.367 -0.3672 -0.2751  0.1498
 4088SOL    HW123897   3.756   2.248  13.301 -0.4447 -0.4438  0.3410
 4088SOL    HW223898   3.717   2.281  13.433 -0.2097  1.0752  0.9559
 4089SOL     OW23899   1.227   3.703   6.174  0.3323  0.4256 -0.5582
 4089SOL    HW123900   1.315   3.698   6.211  0.2222 -2.5428 -0.7210
 4089SOL    HW223901   1.201   3.791   6.202 -1.6766  0.6378 -3.0845
 4090SOL     OW23902   3.489   0.371   1.511  0.3084  0.0099  0.3576
 4090SOL    HW123903   3.467   0.428   1.437  1.6531  1.0649  0.7811
 4090SOL    HW223904   3.400   0.370   1.546  0.0888  0.7844 -0.1648
 4091SOL     OW23905   0.496   0.210  17.495 -0.4696  0.3854 -0.4038
 4091SOL    HW123906   0.486   0.209  17.400 -0.7451  1.8007 -0.3890
 4091SOL    HW223907   0.405   0.223  17.519 -0.9183  2.0813 -3.1274
 4092SOL     OW23908   3.002   2.183   2.050 -0.5598 -0.0091  0.7168
 4092SOL    HW123909   2.970   2.220   1.968  0.4991  0.8553  0.7021
 4092SOL    HW223910   2.971   2.257   2.102 -2.0278  0.9782 -1.5824
 4093SOL     OW23911   0.107   0.638   6.520 -0.0068 -0.4517  0.0441
 4093SOL    HW123912   0.086   0.550   6.487 -1.5224  0.2254 -0.7915
 4093SOL    HW223913   0.035   0.691   6.487  1.2702  3.2559  3.2771
 4094SOL     OW23914   1.370   1.725  14.888 -0.4525  0.4346 -0.5096
 4094SOL    HW123915   1.277   1.721  14.913 -0.1089  0.7728  0.8010
 4094SOL    HW223916   1.393   1.637  14.859 -1.8876  0.7683 -2.6266
 4095SOL     OW23917   1.105   0.294  17.533  0.2607 -0.0985  0.4617
 4095SOL    HW123918   1.201   0.294  17.530  0.2482 -3.1188 -0.3552
 4095SOL    HW223919   1.093   0.365  17.469 -2.0275 -0.8513  0.0839
 4096SOL     OW23920   1.150   3.606  17.742 -0.1144 -0.3631 -0.1492
 4096SOL    HW123921   1.109   3.602   0.086 -0.4950  0.1004 -0.3134
 4096SOL    HW223922   1.073   3.586  17.689 -0.7749  0.8299  0.3675
 4097SOL     OW23923   2.012   0.354  15.852  0.0723 -0.4656  0.6659
 4097SOL    HW123924   2.061   0.436  15.855 -0.0513 -0.3639 -0.0913
 4097SOL    HW223925   1.953   0.372  15.779  2.8176 -1.3326 -1.7664
 4098SOL     OW23926   1.371   3.051  12.356  0.5183  0.3235  0.0991
 4098SOL    HW123927   1.285   3.093  12.349 -0.2350 -1.3166 -0.5253
 4098SOL    HW223928   1.361   2.971  12.303 -1.3224  0.6480 -0.0240
 4099SOL     OW23929   1.020   0.704   6.410 -0.9161 -0.5830  0.2762
 4099SOL    HW123930   1.036   0.619   6.452 -1.1993 -1.3842 -1.2276
 4099SOL    HW223931   0.985   0.756   6.483  0.6279  0.9085 -0.0639
 4100SOL     OW23932   0.224   0.277  14.428  0.1935  0.3794  0.0283
 4100SOL    HW123933   0.135   0.281  14.462 -0.3568  0.2932 -1.3770
 4100SOL    HW223934   0.226   0.184  14.405  1.4994  0.3453  0.3148
 4101SOL     OW23935   3.846   2.791  15.464  0.0393 -0.7656 -0.1167
 4101SOL    HW123936   3.804   2.872  15.494  1.8739 -0.1680  0.8996
 4101SOL    HW223937   3.773   2.732  15.481  0.4564 -0.9281  1.1054
 4102SOL     OW23938   0.836   3.954   6.108 -0.8600 -0.0673 -0.4478
 4102SOL    HW123939   0.839   3.983   6.016  1.4950 -1.0391 -0.6886
 4102SOL    HW223940   0.889   4.019   6.154 -0.0501 -1.4497  0.5975
 4103SOL     OW23941   0.954   1.976   6.316  0.0308 -0.3395  0.1754
 4103SOL    HW123942   0.977   1.946   6.404  2.2981  0.8213 -0.0123
 4103SOL    HW223943   1.025   2.038   6.299  1.1402 -2.0336 -1.4389
 4104SOL     OW23944   0.962   0.327   1.724  0.0684 -0.1639  0.4438
 4104SOL    HW123945   1.031   0.381   1.684 -0.5825 -1.1754 -2.0600
 4104SOL    HW223946   0.880   0.344   1.678 -0.7899  1.0720  2.4703
 4105SOL     OW23947   3.184   1.901   2.718  0.0909 -0.4075 -0.6655
 4105SOL    HW123948   3.145   1.818   2.746 -0.6385  0.4519  0.8378
 4105SOL    HW223949   3.198   1.883   2.625 -1.0249 -1.1310 -0.7076
 4106SOL     OW23950   2.620   3.133   8.163 -0.2771 -0.2080 -0.1679
 4106SOL    HW123951   2.707   3.157   8.195 -0.0410  0.0189 -0.9898
 4106SOL    HW223952   2.610   3.042   8.194  1.4117 -0.2514  0.2836
 4107SOL     OW23953   4.672   2.471   7.780  0.2574  0.2767 -0.3722
 4107SOL    HW123954   4.685   2.377   7.796  1.2369  0.8395  2.2430
 4107SOL    HW223955   4.606   2.497   7.844  1.8598  1.6820  0.7176
 4108SOL     OW23956   0.464   2.864  16.871 -0.7941 -0.1009  0.0306
 4108SOL    HW123957   0.489   2.900  16.787  2.1730 -0.2719  0.8416
 4108SOL    HW223958   0.377   2.904  16.878 -0.2301  0.9623  0.9726
 4109SOL     OW23959   2.209   0.886  14.799  0.0444 -0.5765 -0.1567
 4109SOL    HW123960   2.205   0.793  14.820  1.1465 -0.3609  1.0947
 4109SOL    HW223961   2.280   0.914  14.858 -0.9807 -2.9682  2.2208
 4110SOL     OW23962   1.527   0.053   8.490  0.0025 -0.0754  0.7487
 4110SOL    HW123963   1.522   0.041   8.585  4.0937  0.2497  1.0005
 4110SOL    HW223964   1.574   4.708   8.468 -0.0104  0.7511 -2.2243
 4111SOL     OW23965   2.990   0.246   0.824  0.3280  0.0606 -0.0715
 4111SOL    HW123966   2.934   0.183   0.869  0.3828 -0.1646 -0.3114
 4111SOL    HW223967   3.033   0.294   0.895  3.1563 -0.2036 -1.5901
 4112SOL     OW23968   0.333   3.424  14.100  0.0534 -0.1816 -0.6352
 4112SOL    HW123969   0.259   3.467  14.144  1.4995  0.8318  0.8122
 4112SOL    HW223970   0.324   3.339  14.143  1.5471 -0.0869 -0.1519
 4113SOL     OW23971   1.615   3.465   3.788 -0.5341  0.0962 -0.2233
 4113SOL    HW123972   1.555   3.398   3.818 -0.3691 -0.0874 -0.3043
 4113SOL    HW223973   1.550   3.533   3.774  1.0443  1.9537  1.3594
 4114SOL     OW23974   4.623   3.310   5.809  0.4180  0.6191 -0.0681
 4114SOL    HW123975   4.578   3.231   5.838 -1.5792  1.9081  0.3142
 4114SOL    HW223976   4.620   3.312   5.713 -0.0051 -0.8375 -0.0713
 4115SOL     OW23977   0.081   0.834  16.709  0.4546 -0.4800 -0.2044
 4115SOL    HW123978   0.015   0.886  16.756 -2.1537 -2.2814 -1.8575
 4115SOL    HW223979   0.154   0.895  16.708  0.3930 -0.4176 -0.6440
 4116SOL     OW23980   3.044   2.596  14.893  0.3044  0.4515 -0.2272
 4116SOL    HW123981   2.956   2.562  14.911  1.1280 -1.1798  0.6583
 4116SOL    HW223982   3.048   2.585  14.798  1.9199  0.5106 -0.1597
 4117SOL     OW23983   4.128   3.527   1.205  0.1695 -0.0998  0.0829
 4117SOL    HW123984   4.169   3.519   1.291 -2.7081  0.8663  1.5288
 4117SOL    HW223985   4.045   3.479   1.212  1.4980 -2.6331 -1.2787
 4118SOL     OW23986   3.709   3.004   8.286  0.1363  0.3029  0.4911
 4118SOL    HW123987   3.777   2.987   8.220 -0.6711 -1.6810  0.1704
 4118SOL    HW223988   3.745   2.958   8.363 -0.2956  1.2307  1.2500
 4119SOL     OW23989   3.871   1.158   5.387 -0.1015  0.7380 -0.1359
 4119SOL    HW123990   3.860   1.186   5.296  0.4114 -3.1424 -1.3698
 4119SOL    HW223991   3.966   1.156   5.377 -0.1365 -2.6743  0.3297
 4120SOL     OW23992   2.747   2.207   2.678 -0.1780 -0.2130  0.4190
 4120SOL    HW123993   2.766   2.262   2.602 -0.7279  0.9854  1.1531
 4120SOL    HW223994   2.769   2.123   2.637  0.3751  0.3582 -0.4807
 4121SOL     OW23995   4.227   0.990   2.136 -0.2013  0.2370 -0.2355
 4121SOL    HW123996   4.306   1.041   2.119  1.5130 -2.5685 -0.7199
 4121SOL    HW223997   4.243   0.954   2.223  0.3050  0.0367 -0.4091
 4122SOL     OW23998   3.443   0.949  12.892  0.3293 -0.2528 -0.0439
 4122SOL    HW123999   3.414   1.036  12.921  2.2467 -0.0302  1.1658
 4122SOL    HW224000   3.359   0.904  12.884  0.9443 -1.6444  1.6529
 4123SOL     OW24001   2.214   3.474   7.306 -0.0012 -0.2813  0.2905
 4123SOL    HW124002   2.288   3.419   7.281  1.8572  1.5607  1.7195
 4123SOL    HW224003   2.223   3.547   7.245 -0.8371 -0.1428  0.3323
 4124SOL     OW24004   3.132   2.582   2.732 -0.0881 -1.0722 -0.2208
 4124SOL    HW124005   3.207   2.607   2.679 -0.9428 -0.4367 -1.1204
 4124SOL    HW224006   3.162   2.635   2.806  0.2185 -1.2119 -0.2428
 4125SOL     OW24007   4.380   4.471   1.465 -0.0400  0.0736 -0.0926
 4125SOL    HW124008   4.358   4.406   1.531 -0.7049  1.9276  1.5262
 4125SOL    HW224009   4.393   4.548   1.520  2.4364  1.3430 -2.4474
 4126SOL     OW24010   2.013   4.411   7.435 -0.3306  0.8993 -0.1520
 4126SOL    HW124011   1.963   4.333   7.407  0.8974 -0.0502  0.3050
 4126SOL    HW224012   1.949   4.450   7.493 -4.0652 -0.4088 -3.3798
 4127SOL     OW24013   2.775   0.762   3.828  0.1164 -0.0562  0.2464
 4127SOL    HW124014   2.855   0.762   3.774  0.0422 -1.4482  0.1366
 4127SOL    HW224015   2.766   0.671   3.854  0.0985 -0.5055 -1.3069
 4128SOL     OW24016   1.673   1.336   1.888  0.3139 -0.0658 -0.1900
 4128SOL    HW124017   1.605   1.401   1.868  0.9784  0.2972 -1.2837
 4128SOL    HW224018   1.746   1.394   1.908  0.7495 -1.4079  2.0311
 4129SOL     OW24019   2.370   2.718   7.267  0.5411  0.0273  0.0906
 4129SOL    HW124020   2.461   2.744   7.265  0.8303 -0.8909  0.8753
 4129SOL    HW224021   2.330   2.744   7.184  2.3154  1.5917 -0.2509
 4130SOL     OW24022   0.519   4.256   3.026 -0.5166  0.3964  0.2251
 4130SOL    HW124023   0.457   4.274   3.096 -0.3815  0.9630  0.2007
 4130SOL    HW224024   0.461   4.265   2.951  2.0352  1.8480 -1.5935
 4131SOL     OW24025   4.617   1.216  17.616 -0.1605  0.4879 -0.1538
 4131SOL    HW124026   4.688   1.155  17.596  0.0373  0.6789 -0.0270
 4131SOL    HW224027   4.617   1.224  17.711 -1.5082 -3.3687  0.1623
 4132SOL     OW24028   4.104   3.264  15.293  0.0914  0.6135 -0.8924
 4132SOL    HW124029   4.122   3.344  15.343 -1.7169  1.3198 -1.3897
 4132SOL    HW224030   4.177   3.259  15.231  0.1714 -0.8290 -0.6749
 4133SOL     OW24031   1.191   3.609  15.270  0.1418 -0.0814 -0.1542
 4133SOL    HW124032   1.227   3.530  15.230 -1.8037 -1.8553  1.6190
 4133SOL    HW224033   1.185   3.652  15.185  1.4508  1.6529  0.6177
 4134SOL     OW24034   3.489   0.721   6.309  0.1174  0.3108 -0.0196
 4134SOL    HW124035   3.499   0.644   6.364 -1.0977 -0.7589 -1.2875
 4134SOL    HW224036   3.395   0.724   6.290  0.0968 -4.5012 -0.6710
 4135SOL     OW24037   3.957   0.309  16.733  0.0354 -0.8323 -0.4722
 4135SOL    HW124038   4.005   0.376  16.684  1.0813 -0.0891  1.5642
 4135SOL    HW224039   3.866   0.338  16.736  0.8701  1.8078 -0.6706
 4136SOL     OW24040   3.023   1.161   6.635  0.4719  0.5600 -0.3215
 4136SOL    HW124041   3.099   1.218   6.644  2.6016 -2.2494 -0.3823
 4136SOL    HW224042   3.035   1.108   6.713  3.1873 -0.2854 -1.3105
 4137SOL     OW24043   3.071   1.008   5.211  0.1826 -0.1625 -0.1141
 4137SOL    HW124044   3.095   0.939   5.272 -0.6573  1.0440  1.5803
 4137SOL    HW224045   3.057   1.076   5.277 -0.4217 -0.6449  0.2535
 4138SOL     OW24046   1.606   3.297   6.981 -0.1807 -0.2586  0.7122
 4138SOL    HW124047   1.557   3.368   7.021 -0.0449  1.3969 -2.0822
 4138SOL    HW224048   1.691   3.340   6.971  1.7005 -3.5577  2.5933
 4139SOL     OW24049   3.891   3.349   4.195  0.0899 -0.0387 -0.1255
 4139SOL    HW124050   3.835   3.272   4.182 -1.8471  0.9585  2.5963
 4139SOL    HW224051   3.869   3.379   4.283 -1.5595 -0.4202 -0.4201
 4140SOL     OW24052   2.530   0.088   5.566  0.9411 -0.2476 -0.3075
 4140SOL    HW124053   2.614   0.069   5.609  0.5724  0.8951  0.9274
 4140SOL    HW224054   2.558   0.144   5.494 -0.2790 -0.6150 -1.0751
 4141SOL     OW24055   1.759   1.561   8.128  0.1835  0.1248  0.5598
 4141SOL    HW124056   1.671   1.592   8.106 -0.7286 -1.6309  1.6815
 4141SOL    HW224057   1.778   1.630   8.192  0.3485  1.2222 -0.6792
 4142SOL     OW24058   2.672   2.750   6.825  0.1546  0.4004 -0.7241
 4142SOL    HW124059   2.669   2.843   6.846 -3.4983  0.7292 -2.6954
 4142SOL    HW224060   2.580   2.724   6.829  0.0226  0.4743 -2.9718
 4143SOL     OW24061   0.741   4.422   2.975  0.3539 -0.7018  0.3397
 4143SOL    HW124062   0.671   4.358   2.978 -0.3101 -0.0833 -2.0800
 4143SOL    HW224063   0.781   4.380   2.900  1.4281  0.2101  0.3869
 4144SOL     OW24064   4.613   4.483  15.886 -0.8529 -0.0499  0.0729
 4144SOL    HW124065   4.518   4.479  15.879 -1.1781  1.3321  3.5547
 4144SOL    HW224066   4.638   4.493  15.794  0.7473 -0.4034  0.4629
 4145SOL     OW24067   3.940   2.870  11.195 -0.2454  0.1295 -0.0335
 4145SOL    HW124068   3.954   2.965  11.192 -1.0490  0.1829 -1.8793
 4145SOL    HW224069   3.868   2.857  11.257 -0.8328  2.2004 -0.2867
 4146SOL     OW24070   4.693   0.456   1.432 -0.4924  0.2612 -0.2250
 4146SOL    HW124071   4.672   0.518   1.502  0.4911  0.4126 -0.0649
 4146SOL    HW224072   4.638   0.379   1.449  2.1355 -1.3865  0.6960
 4147SOL     OW24073   0.250   2.161   5.224 -0.4805 -0.0303  0.1068
 4147SOL    HW124074   0.267   2.117   5.141 -0.9413  1.4538 -0.7834
 4147SOL    HW224075   0.271   2.086   5.280 -0.8394  0.0550  0.3554
 4148SOL     OW24076   2.526   2.124  10.248  0.3370  0.7138  0.4743
 4148SOL    HW124077   2.439   2.146  10.281 -0.5659  0.0550 -1.4660
 4148SOL    HW224078   2.529   2.152  10.157  0.5056  1.3259  0.6676
 4149SOL     OW24079   1.041   0.667  11.381  1.0283  0.5883 -0.1049
 4149SOL    HW124080   1.063   0.727  11.309 -0.2733  0.4542 -0.6182
 4149SOL    HW224081   1.102   0.708  11.441 -1.4963  2.7491  0.9767
 4150SOL     OW24082   1.399   4.027   5.143  0.4530 -0.0041  0.3108
 4150SOL    HW124083   1.387   4.107   5.091 -1.1962  0.1849  0.9978
 4150SOL    HW224084   1.405   4.055   5.234  2.6518  0.8219 -0.0881
 4151SOL     OW24085   4.399   3.535   7.248 -0.0567  0.6309 -0.1281
 4151SOL    HW124086   4.407   3.535   7.344 -0.6236  1.7229 -0.0686
 4151SOL    HW224087   4.439   3.619   7.225  1.3885 -0.2876 -0.8764
 4152SOL     OW24088   0.898   0.481   7.930 -0.3811 -0.0703  0.3880
 4152SOL    HW124089   0.936   0.568   7.917 -1.2192 -0.0512 -1.8570
 4152SOL    HW224090   0.821   0.511   7.979 -1.8929 -0.2958 -1.8623
 4153SOL     OW24091   0.150   2.612   6.549  0.2979  0.4537  0.3404
 4153SOL    HW124092   0.177   2.599   6.458  0.6109 -2.5184  0.8468
 4153SOL    HW224093   0.237   2.642   6.577  0.2867  2.7083 -2.0942
 4154SOL     OW24094   3.955   1.568  12.970 -0.2666 -0.3052  0.1320
 4154SOL    HW124095   4.026   1.507  12.952  1.5127  1.6238  0.5782
 4154SOL    HW224096   3.983   1.650  12.929 -2.0012  0.4146  0.3553
 4155SOL     OW24097   2.075   3.794   1.968  0.6221  0.2888 -0.3549
 4155SOL    HW124098   1.994   3.799   1.917  0.4268  1.1643  0.0416
 4155SOL    HW224099   2.086   3.702   1.993 -3.9789 -0.4280 -1.0138
 4156SOL     OW24100   0.165   0.658   1.634 -0.0135 -1.2662  0.0714
 4156SOL    HW124101   0.240   0.716   1.635 -1.1281  0.1597  0.3581
 4156SOL    HW224102   0.097   0.708   1.589 -1.0451 -3.9207 -1.3223
 4157SOL     OW24103   4.283   0.367   0.519 -0.5284 -0.0383 -0.9409
 4157SOL    HW124104   4.222   0.379   0.592 -0.1994  2.1497 -1.0227
 4157SOL    HW224105   4.248   0.416   0.446 -1.9105  0.8157  0.2974
 4158SOL     OW24106   2.503   1.997   2.371  0.1177  0.3431 -0.4703
 4158SOL    HW124107   2.537   2.085   2.356 -0.0461  0.4703 -0.0976
 4158SOL    HW224108   2.554   1.967   2.446 -2.3463  0.1600  1.1321
 4159SOL     OW24109   2.990   2.214   3.545  0.1921  0.4841 -0.1817
 4159SOL    HW124110   3.041   2.144   3.585 -2.6962 -0.4419  1.8620
 4159SOL    HW224111   2.967   2.177   3.459  1.3610  0.1764 -0.3559
 4160SOL     OW24112   1.510   3.638   2.659 -0.1460  0.4896  0.6681
 4160SOL    HW124113   1.540   3.717   2.615  1.9782 -1.3530 -1.1922
 4160SOL    HW224114   1.415   3.652   2.653 -0.4000 -0.2406  3.0589
 4161SOL     OW24115   2.505   0.584   5.708  0.3306  0.6948  0.1209
 4161SOL    HW124116   2.556   0.588   5.627 -0.7388 -2.8865 -0.7438
 4161SOL    HW224117   2.437   0.651   5.708 -0.4541 -0.0904  1.3623
 4162SOL     OW24118   1.473   3.726   6.274 -0.0152  0.7793  0.3791
 4162SOL    HW124119   1.553   3.713   6.224 -0.7590 -0.3642 -0.5269
 4162SOL    HW224120   1.496   3.719   6.367 -1.5584  0.6645  0.7564
 4163SOL     OW24121   4.512   1.392   3.812  0.7095 -0.1599  0.0399
 4163SOL    HW124122   4.547   1.461   3.867 -0.9238 -0.2820  1.2445
 4163SOL    HW224123   4.514   1.442   3.730 -1.4556  2.9016  1.8291
 4164SOL     OW24124   0.428   0.034  11.152 -0.2675  0.0984 -0.5181
 4164SOL    HW124125   0.477   4.714  11.212 -3.6901 -3.6697 -1.3010
 4164SOL    HW224126   0.463   4.729  11.072  0.5693 -0.2921  0.0415
 4165SOL     OW24127   1.908   3.338   3.884  0.1945 -0.7700  0.1611
 4165SOL    HW124128   1.883   3.373   3.970 -0.2780 -0.8095  0.0411
 4165SOL    HW224129   1.971   3.268   3.901  0.0856 -0.8925  0.0560
 4166SOL     OW24130   0.246   1.812   0.542  0.4093  0.6623 -0.5063
 4166SOL    HW124131   0.296   1.742   0.585 -1.4009  0.5455  1.4354
 4166SOL    HW224132   0.202   1.774   0.465 -0.1770 -0.2497  0.2744
 4167SOL     OW24133   2.753   2.019  15.534 -0.2161  0.1000  0.6006
 4167SOL    HW124134   2.733   2.034  15.442  3.5340 -1.6200 -0.5202
 4167SOL    HW224135   2.684   2.061  15.586 -0.6422  0.4288 -0.2421
 4168SOL     OW24136   2.271   4.009  13.279 -0.4057  0.0191 -0.0716
 4168SOL    HW124137   2.290   3.917  13.298  0.8097  0.6973  2.0281
 4168SOL    HW224138   2.262   4.047  13.366  0.5749 -0.3556  0.1966
 4169SOL     OW24139   4.579   0.312  16.650  0.0283 -0.5066  0.7092
 4169SOL    HW124140   4.576   0.388  16.592 -4.1653  0.2477  1.9168
 4169SOL    HW224141   4.497   0.269  16.625 -0.5192  1.0219 -0.1185
 4170SOL     OW24142   3.261   0.027   1.684 -0.0816 -0.4340  0.0534
 4170SOL    HW124143   3.307   0.088   1.741  0.6346  0.7373 -1.7944
 4170SOL    HW224144   3.313   0.045   1.606 -0.6326  0.5841 -0.0758
 4171SOL     OW24145   1.143   0.314  13.499 -0.0100 -0.1529 -0.3478
 4171SOL    HW124146   1.113   0.296  13.588  2.7191 -0.0422  0.5777
 4171SOL    HW224147   1.157   0.409  13.507  1.6363 -0.3339 -1.0233
 4172SOL     OW24148   0.145   2.891   3.415 -0.2286 -0.3755 -0.2207
 4172SOL    HW124149   0.233   2.927   3.413  0.5965 -2.3948 -0.1695
 4172SOL    HW224150   0.139   2.859   3.505 -1.1408 -2.1497 -0.9062
 4173SOL     OW24151   1.206   4.354  10.114  0.0617  0.2568  0.6488
 4173SOL    HW124152   1.149   4.430  10.126 -0.4446 -0.0782  0.3712
 4173SOL    HW224153   1.159   4.291  10.169 -3.3412  1.3754 -0.9907
 4174SOL     OW24154   3.269   3.693   8.710  0.0479 -0.3602 -0.2396
 4174SOL    HW124155   3.306   3.608   8.732  1.1054  0.2507  0.3477
 4174SOL    HW224156   3.185   3.667   8.671 -0.2736 -0.0064  0.2178
 4175SOL     OW24157   2.053   3.999   7.034 -0.1372  0.6020 -0.7620
 4175SOL    HW124158   2.021   3.922   7.081 -0.0213 -1.0256 -3.3337
 4175SOL    HW224159   1.972   4.025   6.989 -0.3664 -0.6402 -1.0669
 4176SOL     OW24160   0.980   4.074   4.906 -0.1433  0.2774 -0.4422
 4176SOL    HW124161   0.978   3.996   4.851 -2.6236  0.0742 -0.0541
 4176SOL    HW224162   0.940   4.045   4.987  0.3701 -1.1198 -0.6951
 4177SOL     OW24163   1.647   3.654  14.015 -0.1047  0.4608  0.1620
 4177SOL    HW124164   1.604   3.723  14.065 -0.7336 -0.8886  1.5012
 4177SOL    HW224165   1.626   3.674  13.924 -0.6111 -0.4302  0.0797
 4178SOL     OW24166   2.693   3.421   0.211  0.4647 -0.0842 -0.1114
 4178SOL    HW124167   2.666   3.348   0.267  2.6895 -0.6472  0.2262
 4178SOL    HW224168   2.769   3.446   0.264 -0.0836 -1.4639  1.3457
 4179SOL     OW24169   4.324   1.294   7.165  0.3038  0.2540 -0.3979
 4179SOL    HW124170   4.380   1.268   7.238  0.9169 -1.2569 -1.4258
 4179SOL    HW224171   4.368   1.277   7.082  0.8130  0.4036 -0.1648
 4180SOL     OW24172   1.032   4.181   9.464 -0.4615 -0.4955  0.4256
 4180SOL    HW124173   1.054   4.122   9.392  0.3093  0.3229 -0.0086
 4180SOL    HW224174   0.939   4.191   9.446 -0.6469  3.2502  3.4094
 4181SOL     OW24175   3.041   3.804   0.051 -0.2246  0.1081 -0.0046
 4181SOL    HW124176   3.083   3.889   0.041 -0.7924  0.4731  0.7126
 4181SOL    HW224177   3.068   3.762   0.132 -1.4784  1.3419  1.0642
 4182SOL     OW24178   3.209   3.622  11.904  0.2546 -0.3175 -0.4105
 4182SOL    HW124179   3.125   3.665  11.919  0.7151  0.2048  0.6310
 4182SOL    HW224180   3.272   3.683  11.943 -0.2831  0.0703 -0.1547
 4183SOL     OW24181   2.144   0.270  12.534 -0.1360 -0.8254 -0.1979
 4183SOL    HW124182   2.066   0.277  12.589 -1.8681 -1.0186 -2.6743
 4183SOL    HW224183   2.122   0.332  12.465 -0.1624  0.0123  0.5640
 4184SOL     OW24184   2.790   2.868   2.224  0.0407  0.0313 -0.2432
 4184SOL    HW124185   2.774   2.955   2.259  0.9360  0.0261  0.1939
 4184SOL    HW224186   2.871   2.882   2.174  0.0786 -2.0016 -0.7538
 4185SOL     OW24187   4.464   0.687  11.703  0.1860 -0.0195  0.0037
 4185SOL    HW124188   4.524   0.612  11.709  0.7445  0.2353 -2.4801
 4185SOL    HW224189   4.396   0.665  11.639  0.7483  0.3011 -0.7065
 4186SOL     OW24190   1.049   2.237   1.262 -0.3816  0.0396 -0.0588
 4186SOL    HW124191   1.004   2.321   1.265  1.2500  0.8925  0.9660
 4186SOL    HW224192   1.071   2.231   1.169  0.9328  0.6867  0.2011
 4187SOL     OW24193   0.201   0.684   9.683  0.1607 -0.3336  0.0373
 4187SOL    HW124194   0.269   0.641   9.630 -0.1257 -0.5143 -0.1869
 4187SOL    HW224195   0.250   0.718   9.757  3.0854 -0.5017 -1.8378
 4188SOL     OW24196   4.532   4.005   6.569 -0.3177 -0.1831 -0.0725
 4188SOL    HW124197   4.535   3.920   6.525 -0.8355  1.2003 -2.7823
 4188SOL    HW224198   4.473   3.984   6.642 -0.3864 -2.6817 -0.8193
 4189SOL     OW24199   4.240   0.075   1.855 -0.0913  0.2008  0.1561
 4189SOL    HW124200   4.235   0.015   1.781 -0.9285 -1.4873  1.5752
 4189SOL    HW224201   4.151   0.060   1.887 -0.2186 -1.5522 -1.0984
 4190SOL     OW24202   2.408   1.085   9.636 -0.0852 -0.2918 -0.4742
 4190SOL    HW124203   2.332   1.124   9.591  0.0550 -1.8533 -2.0736
 4190SOL    HW224204   2.371   0.997   9.641 -1.6201  0.2120 -2.7296
 4191SOL     OW24205   2.460   1.754  10.333 -0.1447 -0.4244 -0.2838
 4191SOL    HW124206   2.517   1.819  10.373 -0.6913 -1.7119  2.6270
 4191SOL    HW224207   2.521   1.699  10.283  1.8776  0.3979  1.2627
 4192SOL     OW24208   4.211   1.929  16.112  0.3887 -0.1903 -0.1591
 4192SOL    HW124209   4.179   1.945  16.023  0.2705 -3.2878 -0.6533
 4192SOL    HW224210   4.300   1.906  16.088 -0.6644 -4.9422  0.4328
 4193SOL     OW24211   1.099   2.258   5.302  0.1980 -0.4614 -0.3390
 4193SOL    HW124212   1.030   2.257   5.368 -0.0775  0.6153 -0.6155
 4193SOL    HW224213   1.167   2.201   5.339  1.9221  3.2978  2.2727
 4194SOL     OW24214   3.392   0.959   5.486  0.3462  0.3643  0.2568
 4194SOL    HW124215   3.423   0.924   5.570 -0.7125 -1.9423 -0.2890
 4194SOL    HW224216   3.395   1.052   5.508  1.3191  0.2440  0.5979
 4195SOL     OW24217   0.172   0.472  16.378 -0.0266  0.2386 -0.6477
 4195SOL    HW124218   0.099   0.442  16.323  0.0681 -0.8991 -0.1394
 4195SOL    HW224219   0.234   0.500  16.311 -0.0101  2.5286  0.3106
 4196SOL     OW24220   1.187   1.255   4.064  0.1765  0.2540  0.4091
 4196SOL    HW124221   1.147   1.168   4.069  0.9688 -0.2043 -1.5785
 4196SOL    HW224222   1.261   1.236   4.008 -0.0009 -0.2619  0.3547
 4197SOL     OW24223   4.379   0.419   8.733  0.6428 -0.1231 -0.1824
 4197SOL    HW124224   4.421   0.420   8.647 -2.7354 -0.9926 -1.8219
 4197SOL    HW224225   4.435   0.468   8.794 -2.4161  0.3693  2.2358
 4198SOL     OW24226   1.252   0.843   7.991 -0.1620  0.4412 -0.1064
 4198SOL    HW124227   1.254   0.890   8.074 -4.0476  1.5186 -0.6563
 4198SOL    HW224228   1.347   0.839   7.974 -0.1756  0.1640 -0.1132
 4199SOL     OW24229   3.824   2.682   5.439  0.0821  0.0837 -0.5281
 4199SOL    HW124230   3.807   2.724   5.355 -0.6890 -2.1029 -1.4381
 4199SOL    HW224231   3.919   2.672   5.432  0.2811  2.0295 -0.6325
 4200SOL     OW24232   0.327   4.219   5.627  0.3581 -0.0834 -0.4082
 4200SOL    HW124233   0.418   4.191   5.613  1.2321  1.9178  1.2804
 4200SOL    HW224234   0.326   4.258   5.714  3.5841 -1.3340  0.1932
 4201SOL     OW24235   2.982   3.118  11.612  0.1071 -0.1685 -0.3734
 4201SOL    HW124236   3.072   3.126  11.580  0.2717  0.2973  0.2066
 4201SOL    HW224237   2.994   3.110  11.706  0.3160 -2.1085 -0.5691
 4202SOL     OW24238   4.489   0.818   2.107 -0.0273  0.0674  0.1103
 4202SOL    HW124239   4.421   0.783   2.165  2.0596 -2.0481  1.2711
 4202SOL    HW224240   4.472   0.912   2.103  0.6455  0.1729 -0.3507
 4203SOL     OW24241   4.629   1.816   6.271  0.5263  0.0803  0.4614
 4203SOL    HW124242   4.549   1.768   6.249 -0.3963  2.3726 -1.1863
 4203SOL    HW224243   4.614   1.903   6.234  2.5407 -1.2193 -3.4914
 4204SOL     OW24244   1.344   0.144   7.524  0.1839 -0.4284 -0.2787
 4204SOL    HW124245   1.432   0.138   7.561 -0.3273  3.6937  1.6509
 4204SOL    HW224246   1.365   0.090   7.448  0.0974 -0.0280 -0.5881
 4205SOL     OW24247   1.836   3.115  15.886 -0.0061  0.5053  0.3487
 4205SOL    HW124248   1.821   3.170  15.962 -2.4712 -1.6779  1.4112
 4205SOL    HW224249   1.779   3.142  15.814 -2.1337  1.2299  2.3258
 4206SOL     OW24250   2.411   0.087   2.914 -0.3764 -0.7359 -0.1279
 4206SOL    HW124251   2.502   0.118   2.918 -0.3429 -0.9777  0.7964
 4206SOL    HW224252   2.412   0.013   2.975 -2.5528  0.2510  1.0595
 4207SOL     OW24253   2.051   0.507   3.253 -0.6398 -0.6206 -0.0802
 4207SOL    HW124254   2.026   0.536   3.340 -0.2544  3.6367 -1.4174
 4207SOL    HW224255   1.980   0.448   3.227 -0.7393  0.5899 -2.5687
 4208SOL     OW24256   4.712   4.169  17.544  0.2830  0.3730 -0.1737
 4208SOL    HW124257   4.621   4.142  17.553  0.6561 -1.0413 -0.6830
 4208SOL    HW224258   4.703   4.256  17.505 -0.9933  0.3949  0.1849
 4209SOL     OW24259   4.499   3.659   3.761 -0.2504 -0.0027  0.1763
 4209SOL    HW124260   4.572   3.682   3.819  1.7648  1.4042 -2.9503
 4209SOL    HW224261   4.520   3.708   3.682 -1.0796  1.9170  1.1477
 4210SOL     OW24262   2.114   3.327   3.221 -0.1404  0.2803  0.1132
 4210SOL    HW124263   2.025   3.329   3.256 -0.4869 -4.1896 -0.5115
 4210SOL    HW224264   2.138   3.413   3.256 -2.5419  0.9742  0.0539
 4211SOL     OW24265   3.226   0.238  12.837 -0.2229  0.1551 -0.0519
 4211SOL    HW124266   3.207   0.292  12.913 -3.3745 -0.5957 -0.2781
 4211SOL    HW224267   3.210   0.296  12.763  1.0911  2.3130  1.3868
 4212SOL     OW24268   1.321   3.654  14.814  1.2183  0.0348 -0.1560
 4212SOL    HW124269   1.365   3.714  14.875  1.0586 -0.4558  0.4384
 4212SOL    HW224270   1.252   3.717  14.795  0.7550  0.4561  2.9197
 4213SOL     OW24271   1.862   1.206   0.675  0.2035  0.1608 -0.4323
 4213SOL    HW124272   1.957   1.201   0.664  0.3826  0.7698  0.9348
 4213SOL    HW224273   1.846   1.154   0.754 -0.4113  4.1468  2.0373
 4214SOL     OW24274   1.353   4.481  15.181  0.0723 -0.1254  0.3794
 4214SOL    HW124275   1.363   4.554  15.242  0.0738  1.0037 -0.9760
 4214SOL    HW224276   1.258   4.471  15.186  0.1999  1.0650  4.8747
 4215SOL     OW24277   3.617   1.833  10.450  0.2049  0.1615  0.4053
 4215SOL    HW124278   3.607   1.882  10.532  0.8756 -1.3580  1.4026
 4215SOL    HW224279   3.699   1.783  10.460 -0.3229 -0.6870  0.5135
 4216SOL     OW24280   2.661   1.685   8.272  0.1293 -0.0598  0.5086
 4216SOL    HW124281   2.601   1.723   8.209 -0.4015  0.4522  1.3173
 4216SOL    HW224282   2.603   1.637   8.331 -0.1452 -1.1816 -0.6828
 4217SOL     OW24283   1.007   1.732   0.245 -0.2843 -0.1552  0.0584
 4217SOL    HW124284   0.935   1.708   0.186  0.5871 -2.0011 -0.2740
 4217SOL    HW224285   0.991   1.690   0.329  0.4522 -0.2495  0.1488
 4218SOL     OW24286   0.833   4.577   3.534 -0.2394  0.3782 -0.1368
 4218SOL    HW124287   0.898   4.571   3.604 -2.2012  1.5909  1.7942
 4218SOL    HW224288   0.754   4.555   3.585 -0.3631  0.3858 -0.3236
 4219SOL     OW24289   4.569   0.714  16.656  0.0205 -0.9241 -0.1779
 4219SOL    HW124290   4.604   0.766  16.584 -0.3293  0.0717  0.3743
 4219SOL    HW224291   4.551   0.631  16.611 -0.7756 -0.3963 -0.8245
 4220SOL     OW24292   0.930   1.225   6.704 -0.4841 -0.3196  0.3242
 4220SOL    HW124293   0.920   1.166   6.779  1.5342 -0.3409  0.5664
 4220SOL    HW224294   0.851   1.277   6.719  0.0646 -0.0289  2.2189
 4221SOL     OW24295   4.397   0.414   4.593  0.3041 -0.7414  0.0259
 4221SOL    HW124296   4.489   0.387   4.591  0.6707  0.4614  0.6436
 4221SOL    HW224297   4.402   0.451   4.681  0.3245  0.1997 -0.3684
 4222SOL     OW24298   1.852   3.318  17.241 -0.0712 -0.5833  0.5493
 4222SOL    HW124299   1.908   3.278  17.175 -0.4653  1.5977 -1.1258
 4222SOL    HW224300   1.894   3.306  17.326 -2.3787  1.8018  2.0414
 4223SOL     OW24301   3.692   1.521   4.745 -0.2524 -0.3557 -0.9343
 4223SOL    HW124302   3.659   1.477   4.666 -1.4746  0.1609 -0.7019
 4223SOL    HW224303   3.749   1.451   4.777  1.0781  1.5538  0.9008
 4224SOL     OW24304   4.132   3.747   7.997  0.0379 -0.0520 -0.0953
 4224SOL    HW124305   4.153   3.689   8.070  0.7874  0.1854 -0.1165
 4224SOL    HW224306   4.206   3.808   7.996  1.3603 -1.6463  1.2442
 4225SOL     OW24307   3.713   4.653   3.812 -0.3331 -0.0728 -0.4966
 4225SOL    HW124308   3.776   4.598   3.766 -2.1431 -3.4041  0.9661
 4225SOL    HW224309   3.770   4.711   3.862 -0.9566 -0.7097  0.9658
 4226SOL     OW24310   1.185   3.763   1.957 -0.0359  0.7645  0.0578
 4226SOL    HW124311   1.260   3.765   1.898  0.6186  0.1534  0.8745
 4226SOL    HW224312   1.181   3.669   1.974  1.7771  0.9640  1.5525
 4227SOL     OW24313   0.758   3.777   4.869  0.2274 -0.3378  0.0070
 4227SOL    HW124314   0.789   3.707   4.927  0.6310  0.5152  0.8187
 4227SOL    HW224315   0.824   3.773   4.800  0.5803 -0.5116  0.3599
 4228SOL     OW24316   0.822   3.763   8.101  0.0159 -0.5371 -0.0493
 4228SOL    HW124317   0.852   3.673   8.112  0.8514 -0.3311 -0.5947
 4228SOL    HW224318   0.869   3.809   8.170 -0.9280 -0.5059  0.5718
 4229SOL     OW24319   3.761   4.200   8.270 -0.2338  0.0227  0.5664
 4229SOL    HW124320   3.723   4.113   8.276 -2.0440  0.8908  1.6599
 4229SOL    HW224321   3.811   4.197   8.351  2.4350  0.7402 -1.0716
 4230SOL     OW24322   1.993   2.209  11.798 -0.3290  0.0082  0.0891
 4230SOL    HW124323   2.057   2.145  11.768 -1.0825 -0.1278 -1.2503
 4230SOL    HW224324   1.968   2.175  11.884 -1.2455 -0.1118 -0.2204
 4231SOL     OW24325   3.866   0.899   1.254 -0.3534  0.5935  0.9109
 4231SOL    HW124326   3.888   0.817   1.297 -1.5564 -0.3514 -0.2560
 4231SOL    HW224327   3.774   0.894   1.228 -0.3566  1.5151  0.7261
 4232SOL     OW24328   0.597   4.647  10.987 -0.5826  0.5560 -0.2871
 4232SOL    HW124329   0.641   4.571  11.024  1.4731  1.2234 -1.3546
 4232SOL    HW224330   0.662   4.680  10.925 -1.1451  2.9984  0.3844
 4233SOL     OW24331   0.475   2.099   2.093  0.3010  0.3050  0.4529
 4233SOL    HW124332   0.456   2.030   2.156 -1.7714  0.0673 -0.4147
 4233SOL    HW224333   0.558   2.071   2.054 -0.9878 -1.9669 -0.6495
 4234SOL     OW24334   0.765   3.296   0.094  0.1147 -0.7882  0.3671
 4234SOL    HW124335   0.750   3.256   0.008  0.3228  0.0214 -0.0460
 4234SOL    HW224336   0.730   3.226   0.149 -0.9610 -0.4876  0.0792
 4235SOL     OW24337   0.356   0.823   2.217 -0.5690 -0.4356 -0.3178
 4235SOL    HW124338   0.404   0.901   2.245  0.4514 -1.4421  0.7195
 4235SOL    HW224339   0.284   0.864   2.170  0.9328  2.0495 -0.4611
 4236SOL     OW24340   1.610   4.336   7.399 -0.0457 -0.4057 -0.5251
 4236SOL    HW124341   1.535   4.381   7.438 -0.9630  0.9651 -3.8979
 4236SOL    HW224342   1.604   4.347   7.304 -0.2608 -1.3414 -0.6246
 4237SOL     OW24343   2.281   4.510   8.838 -0.1749 -0.0681  0.0966
 4237SOL    HW124344   2.317   4.545   8.756 -0.9455  0.1938 -0.1246
 4237SOL    HW224345   2.331   4.563   8.900  1.9387 -1.9605  0.0030
 4238SOL     OW24346   1.926   4.260   5.722  0.0867 -0.2215 -0.2657
 4238SOL    HW124347   1.990   4.292   5.785 -1.1423  0.2081  0.7703
 4238SOL    HW224348   1.847   4.259   5.776 -0.9530  0.1700 -1.7608
 4239SOL     OW24349   2.305   4.116  11.034 -0.3418  0.9697 -0.5392
 4239SOL    HW124350   2.374   4.162  10.987 -0.4814  0.6267 -1.0755
 4239SOL    HW224351   2.275   4.197  11.075  2.5164  2.0456 -0.6195
 4240SOL     OW24352   2.787   1.391   7.583 -0.7527  0.1889 -0.5711
 4240SOL    HW124353   2.863   1.445   7.606  0.0797 -1.1286 -0.2192
 4240SOL    HW224354   2.826   1.307   7.606 -0.7761 -0.1312 -1.7069
 4241SOL     OW24355   1.752   3.168   3.728  0.3684 -0.2190  0.1311
 4241SOL    HW124356   1.658   3.186   3.736  0.4765  0.7504 -0.7407
 4241SOL    HW224357   1.776   3.246   3.778  2.8806 -0.9462  0.0296
 4242SOL     OW24358   1.409   1.663   6.321  0.2025  0.2968  0.2391
 4242SOL    HW124359   1.476   1.731   6.333  1.8075 -1.6774  2.5140
 4242SOL    HW224360   1.360   1.704   6.250 -1.2702  1.3488  1.8751
 4243SOL     OW24361   1.149   0.390   5.174 -0.5998 -0.4272 -0.1233
 4243SOL    HW124362   1.055   0.375   5.187 -1.0014  2.5045  0.3239
 4243SOL    HW224363   1.176   0.301   5.150 -1.5314 -0.9312  0.7072
 4244SOL     OW24364   2.521   3.566   5.373 -0.3183 -0.2857  0.1613
 4244SOL    HW124365   2.616   3.577   5.372 -0.2783 -0.8549 -2.4488
 4244SOL    HW224366   2.495   3.648   5.414 -0.7366 -0.4866  0.2997
 4245SOL     OW24367   2.507   4.552   3.053  0.0006  0.3889  0.0953
 4245SOL    HW124368   2.414   4.551   3.031  0.7237  0.4655 -2.9808
 4245SOL    HW224369   2.534   4.460   3.047 -2.5181 -0.4150  1.3705
 4246SOL     OW24370   1.618   2.421   1.908 -0.1887 -0.2446 -0.3505
 4246SOL    HW124371   1.590   2.453   1.823  1.8787  0.8394 -0.6098
 4246SOL    HW224372   1.664   2.497   1.942 -0.1624 -0.6898  0.6002
 4247SOL     OW24373   1.021   3.017   0.300  0.1944 -0.0074  0.0393
 4247SOL    HW124374   1.060   3.077   0.364 -1.2295 -0.8444  1.6901
 4247SOL    HW224375   1.098   2.983   0.256  1.2648  0.0279  1.8715
 4248SOL     OW24376   3.400   3.848  16.120 -0.2051 -0.2743  0.3969
 4248SOL    HW124377   3.314   3.805  16.126 -0.8369  0.7991 -0.9689
 4248SOL    HW224378   3.398   3.896  16.037  1.9798 -0.7600  0.0759
 4249SOL     OW24379   0.536   3.804   5.800 -0.2905  0.1376 -0.2298
 4249SOL    HW124380   0.465   3.835   5.857  0.3531  1.4056 -0.1164
 4249SOL    HW224381   0.578   3.890   5.796 -1.0604  0.5368  0.3916
 4250SOL     OW24382   1.601   2.644  15.699 -0.7189 -0.4848  0.2206
 4250SOL    HW124383   1.688   2.611  15.720  1.3376  2.8061 -3.1902
 4250SOL    HW224384   1.541   2.571  15.716 -1.7434 -0.0353 -1.4570
 4251SOL     OW24385   0.253   1.505   7.291 -0.3833 -0.2245 -0.3081
 4251SOL    HW124386   0.255   1.537   7.201  0.8340  0.7839  0.0782
 4251SOL    HW224387   0.195   1.429   7.280 -0.5667 -0.2204  0.6189
 4252SOL     OW24388   4.569   4.549   2.870  0.1600 -0.5048 -0.4855
 4252SOL    HW124389   4.511   4.577   2.941  0.2309  0.3564 -0.7628
 4252SOL    HW224390   4.651   4.535   2.917  0.9019 -0.3386 -1.7143
 4253SOL     OW24391   3.407   1.571   7.441 -0.9109  0.6782 -0.0453
 4253SOL    HW124392   3.475   1.576   7.507 -1.9490 -0.9506  1.1377
 4253SOL    HW224393   3.430   1.646   7.387  1.3056  0.1367  0.1333
 4254SOL     OW24394   1.802   3.476  17.679  0.4498 -0.6679  0.4797
 4254SOL    HW124395   1.727   3.477  17.620  0.9521 -1.4411 -0.1833
 4254SOL    HW224396   1.783   3.556  17.728 -0.5860 -1.9119  2.1257
 4255SOL     OW24397   0.357   1.905   5.387 -0.1395 -0.5973  0.0972
 4255SOL    HW124398   0.382   1.813   5.395 -0.8634 -0.7734  0.3283
 4255SOL    HW224399   0.412   1.927   5.312  0.8031 -0.5695  0.7888
 4256SOL     OW24400   1.882   3.917  11.255 -0.9185  0.0398 -0.2394
 4256SOL    HW124401   1.912   3.828  11.272  0.2539  0.1529 -1.7350
 4256SOL    HW224402   1.795   3.922  11.294  0.2101 -0.6124  2.3635
 4257SOL     OW24403   2.973   3.265   6.442  0.0213 -0.0348 -0.3533
 4257SOL    HW124404   2.881   3.246   6.456  0.0355  0.5802  0.5065
 4257SOL    HW224405   2.980   3.343   6.387 -0.7806 -1.9131 -3.1144
 4258SOL     OW24406   4.002   2.597   4.054 -0.9182 -0.1160 -0.5062
 4258SOL    HW124407   3.961   2.529   4.108 -0.6967  0.3531  0.2559
 4258SOL    HW224408   3.976   2.567   3.967 -1.4538  0.4928 -0.5556
 4259SOL     OW24409   0.032   4.501   2.578 -0.0211  0.2810 -0.0938
 4259SOL    HW124410   0.097   4.513   2.647 -0.6162  1.5006  0.2455
 4259SOL    HW224411   4.734   4.590   2.568 -1.7987 -0.3030  0.8230
 4260SOL     OW24412   0.143   1.471   6.477 -0.2721  0.2841 -0.0148
 4260SOL    HW124413   0.178   1.451   6.564  0.9359  0.6725 -0.4194
 4260SOL    HW224414   0.189   1.411   6.418 -1.6837  0.4216 -1.2643
 4261SOL     OW24415   4.034   0.053  16.763 -0.2731  0.3480 -0.0486
 4261SOL    HW124416   4.106   0.050  16.826 -0.2500  1.3757 -0.0280
 4261SOL    HW224417   4.010   0.145  16.763  1.1058  0.7065  0.2580
 4262SOL     OW24418   2.966   3.073   5.526 -0.3890 -0.3541 -0.2429
 4262SOL    HW124419   2.917   3.011   5.472 -0.0610  0.0003 -0.9401
 4262SOL    HW224420   3.058   3.050   5.511 -0.6682 -2.6333  1.4735
 4263SOL     OW24421   0.798   0.321  16.392 -0.4085 -0.1570 -0.0395
 4263SOL    HW124422   0.855   0.384  16.348  0.1182 -1.2043 -0.8653
 4263SOL    HW224423   0.793   0.362  16.478  1.3747  0.2724 -0.1333
 4264SOL     OW24424   1.730   2.736   1.979 -0.1254 -0.7043 -0.5858
 4264SOL    HW124425   1.720   2.807   2.043  0.3197 -2.1734  1.1312
 4264SOL    HW224426   1.763   2.670   2.040 -2.8111 -0.4760  1.1221
 4265SOL     OW24427   4.330   3.252   6.646  0.5686  0.0402  0.1761
 4265SOL    HW124428   4.361   3.340   6.666 -0.6512  0.4194  0.3854
 4265SOL    HW224429   4.274   3.287   6.577  0.4627 -0.7159 -0.1141
 4266SOL     OW24430   2.511   3.871   4.430  0.1556 -0.6408  0.6398
 4266SOL    HW124431   2.515   3.892   4.523 -0.4643 -1.4158  0.8513
 4266SOL    HW224432   2.450   3.797   4.438 -0.1416 -0.7203 -2.3897
 4267SOL     OW24433   1.697   0.412   3.947  0.6683 -0.3734 -0.9591
 4267SOL    HW124434   1.614   0.365   3.941  0.0439  0.7998 -1.5517
 4267SOL    HW224435   1.670   0.487   4.001 -0.6369 -1.1685 -0.4839
 4268SOL     OW24436   2.882   1.695   7.823 -0.4823  0.0316 -0.3933
 4268SOL    HW124437   2.803   1.716   7.774 -1.8211 -1.2010  1.2684
 4268SOL    HW224438   2.894   1.771   7.880 -1.9960  1.6883 -2.2869
 4269SOL     OW24439   0.058   2.667   4.401 -0.1131  0.0747 -0.6038
 4269SOL    HW124440   0.061   2.763   4.398  1.9213 -0.0288 -1.8691
 4269SOL    HW224441   4.710   2.639   4.366 -0.4278 -0.1654  0.3397
 4270SOL     OW24442   1.823   1.849   7.195 -0.0123 -0.2780  0.1353
 4270SOL    HW124443   1.739   1.844   7.150  1.1170 -0.0358 -2.0172
 4270SOL    HW224444   1.797   1.833   7.286 -0.1216  1.5512  0.4251
 4271SOL     OW24445   2.893   4.631  10.454  0.3564  0.2211  0.2311
 4271SOL    HW124446   2.946   4.562  10.416 -0.2797  1.9279 -3.7573
 4271SOL    HW224447   2.961   4.696  10.471  0.4666  0.4313 -0.9902
 4272SOL     OW24448   2.255   2.703  13.183 -0.1226  0.8823  0.7085
 4272SOL    HW124449   2.235   2.790  13.216  0.3024  0.6022  1.7007
 4272SOL    HW224450   2.334   2.710  13.129 -0.0410 -3.1016  0.2799
 4273SOL     OW24451   0.928   2.981  14.862 -0.1246  0.1132  0.2170
 4273SOL    HW124452   0.919   3.070  14.830  0.1661 -0.6446 -2.0408
 4273SOL    HW224453   0.873   2.980  14.940 -1.1670  0.0275 -0.5160
 4274SOL     OW24454   1.927   4.357  16.179  0.1796  0.5517  0.1463
 4274SOL    HW124455   1.961   4.351  16.269 -1.6119  1.1199  0.8485
 4274SOL    HW224456   2.014   4.368  16.140 -0.0417  1.3789 -0.1041
 4275SOL     OW24457   0.537   3.472   0.474 -0.1512  0.7883  0.1978
 4275SOL    HW124458   0.512   3.434   0.390  2.3370 -2.1819  0.7966
 4275SOL    HW224459   0.488   3.407   0.524  1.0297 -0.4563 -0.2510
 4276SOL     OW24460   4.166   1.002   7.501  0.1984 -0.2600  0.0262
 4276SOL    HW124461   4.223   0.926   7.507  0.7583  0.0947 -0.9666
 4276SOL    HW224462   4.076   0.970   7.513 -0.3628  1.8341  1.4624
 4277SOL     OW24463   2.705   1.243   1.973 -0.2617  0.1428  0.4652
 4277SOL    HW124464   2.679   1.266   2.062  0.1197 -0.4069  0.7176
 4277SOL    HW224465   2.660   1.159   1.966 -2.3212  1.1382  1.6348
 4278SOL     OW24466   3.259   4.324   3.971 -0.1604 -0.1328  0.2792
 4278SOL    HW124467   3.306   4.381   4.031  2.8208 -1.7486 -0.5419
 4278SOL    HW224468   3.327   4.268   3.934  0.9475  1.5020 -0.0979
 4279SOL     OW24469   3.077   2.688  14.335  0.1589  0.3641  0.7910
 4279SOL    HW124470   3.105   2.770  14.377 -1.4812  0.9410  0.7282
 4279SOL    HW224471   3.070   2.718  14.244  0.2065 -1.4511  0.1907
 4280SOL     OW24472   3.427   4.716   6.424 -0.3848 -0.6206 -0.4355
 4280SOL    HW124473   3.391   0.057   6.469  0.4732 -0.6700  0.3497
 4280SOL    HW224474   3.495   0.017   6.368 -0.1370 -0.5272 -0.0749
 4281SOL     OW24475   0.492   2.688   2.426 -0.2283 -0.1027  0.0973
 4281SOL    HW124476   0.459   2.636   2.499  0.2241 -0.1397  0.2798
 4281SOL    HW224477   0.557   2.738   2.475 -0.7907  0.3782  0.3379
 4282SOL     OW24478   0.470   0.752   9.786  0.3623  0.0025  0.0295
 4282SOL    HW124479   0.531   0.735   9.714 -0.3547  1.2638 -0.8750
 4282SOL    HW224480   0.537   0.769   9.854  1.2096 -2.5622 -0.1880
 4283SOL     OW24481   1.656   3.550   8.005  0.1230  0.0645  0.6239
 4283SOL    HW124482   1.665   3.586   8.093 -1.2671  1.5585  0.1602
 4283SOL    HW224483   1.737   3.592   7.977 -0.6347  0.2699 -1.2576
 4284SOL     OW24484   0.079   3.775   0.347  0.1901 -0.3435 -0.1470
 4284SOL    HW124485   0.005   3.767   0.288  0.1502 -1.1902  0.0132
 4284SOL    HW224486   0.141   3.817   0.287 -1.1173  2.1978  0.2853
 4285SOL     OW24487   2.787   3.271   6.127  0.6285 -0.0788  0.0074
 4285SOL    HW124488   2.809   3.182   6.153  2.0711  0.2920  0.0812
 4285SOL    HW224489   2.692   3.268   6.130  0.6504  0.4791  1.4889
 4286SOL     OW24490   3.965   3.633  14.165 -0.5303  0.2091 -0.0500
 4286SOL    HW124491   3.871   3.634  14.148 -0.6715 -1.4145  0.6392
 4286SOL    HW224492   3.978   3.727  14.152 -1.0840  0.6153  2.3358
 4287SOL     OW24493   1.382   0.924  16.775 -0.1917  0.2706 -0.1865
 4287SOL    HW124494   1.381   0.839  16.820  2.7902  0.9355  1.2129
 4287SOL    HW224495   1.451   0.908  16.710  0.3670  1.4912  0.1117
 4288SOL     OW24496   4.026   0.778  11.507  0.0700 -0.4154 -0.0816
 4288SOL    HW124497   4.022   0.874  11.502 -0.6855 -0.4078  0.7943
 4288SOL    HW224498   4.035   0.761  11.600  2.1900  0.6598 -0.0697
 4289SOL     OW24499   4.216   2.281   2.818 -0.0078  0.3986 -0.0731
 4289SOL    HW124500   4.134   2.327   2.837  0.5237 -0.2736  3.7892
 4289SOL    HW224501   4.284   2.344   2.793  0.0405 -0.6186 -2.4963
 4290SOL     OW24502   2.862   1.821  13.032 -0.9902 -0.0790  0.1813
 4290SOL    HW124503   2.822   1.776  12.957 -1.6579  0.4783  0.2065
 4290SOL    HW224504   2.785   1.842  13.085 -0.8797 -0.8684  0.6523
 4291SOL     OW24505   1.117   3.688  12.801  0.1517 -0.5672 -0.5194
 4291SOL    HW124506   1.092   3.671  12.892 -0.1392 -3.0933 -1.0751
 4291SOL    HW224507   1.212   3.698  12.810 -0.0703  1.0305  0.1084
 4292SOL     OW24508   4.271   4.273   1.691 -0.5138 -0.8697 -0.4103
 4292SOL    HW124509   4.341   4.260   1.755 -1.5550 -0.5207  0.7983
 4292SOL    HW224510   4.194   4.274   1.748 -0.8837  1.0602 -0.9102
 4293SOL     OW24511   1.607   1.220   8.280 -0.1524  0.3198 -0.2088
 4293SOL    HW124512   1.574   1.307   8.301 -1.0755  0.1552 -0.9985
 4293SOL    HW224513   1.577   1.176   8.360 -1.7028 -1.3948 -1.7524
 4294SOL     OW24514   4.479   1.580   8.175 -0.2312  0.0746 -0.2116
 4294SOL    HW124515   4.480   1.567   8.269  0.7139  1.5539 -0.0192
 4294SOL    HW224516   4.463   1.489   8.152  1.7916 -0.7325  1.6680
 4295SOL     OW24517   0.279   1.917   6.497  0.5774  0.2622 -0.2310
 4295SOL    HW124518   0.324   1.847   6.545  1.3501  1.9020  1.4272
 4295SOL    HW224519   0.194   1.876   6.476  1.1228 -1.0523  0.1012
 4296SOL     OW24520   1.924   2.369   3.198 -0.2901 -0.2802 -0.5094
 4296SOL    HW124521   1.926   2.465   3.201 -2.0590 -0.2366 -0.9505
 4296SOL    HW224522   1.944   2.352   3.106  1.6405  0.8114 -0.2914
 4297SOL     OW24523   0.487   3.201   9.061 -0.1545  0.7053  0.6083
 4297SOL    HW124524   0.443   3.189   9.145 -0.8377  0.7918  0.2618
 4297SOL    HW224525   0.445   3.129   9.014  1.0610  0.3528  0.0506
 4298SOL     OW24526   2.231   1.472   7.164 -0.5581  0.3531 -0.1990
 4298SOL    HW124527   2.150   1.515   7.134  0.1791  0.2052 -2.4083
 4298SOL    HW224528   2.253   1.405   7.099 -0.4075 -0.3614  0.5900
 4299SOL     OW24529   2.267   2.358   3.419 -0.5127  0.0989 -0.5829
 4299SOL    HW124530   2.346   2.395   3.378 -0.9792 -1.7302 -3.1410
 4299SOL    HW224531   2.274   2.404   3.503  2.1680  2.1916 -1.9196
 4300SOL     OW24532   2.278   0.806   8.511 -0.7284 -1.1516 -0.0960
 4300SOL    HW124533   2.237   0.787   8.426 -0.7160  0.7952 -0.5348
 4300SOL    HW224534   2.321   0.889   8.490  0.3510 -0.8053  3.4403
 4301SOL     OW24535   3.192   2.915   8.390 -0.3496 -0.2251 -0.0108
 4301SOL    HW124536   3.191   2.846   8.456 -3.0407 -2.5674 -2.4498
 4301SOL    HW224537   3.284   2.941   8.387 -0.0878 -1.2009 -0.3482
 4302SOL     OW24538   3.432   4.342  15.190  0.6919  0.0916 -0.3653
 4302SOL    HW124539   3.477   4.311  15.268 -1.0087 -0.4068  0.4262
 4302SOL    HW224540   3.395   4.265  15.147 -0.4655  1.3500 -1.6239
 4303SOL     OW24541   1.259   2.294  12.858 -0.0907  0.2107  0.7850
 4303SOL    HW124542   1.220   2.318  12.942  0.0701 -1.3846  1.3204
 4303SOL    HW224543   1.190   2.233  12.830 -0.4105  1.6156 -1.4666
 4304SOL     OW24544   0.068   2.646   2.868 -0.3486 -0.1970  0.4597
 4304SOL    HW124545   0.119   2.715   2.910  0.6829  0.1458 -1.3999
 4304SOL    HW224546   0.096   2.570   2.918  1.6225 -0.3076 -0.8322
 4305SOL     OW24547   3.762   1.777  17.406 -0.3885 -0.0512 -0.4639
 4305SOL    HW124548   3.765   1.742  17.495 -2.0689  3.3815  0.9567
 4305SOL    HW224549   3.849   1.774  17.367 -0.0476 -0.5610  0.3530
 4306SOL     OW24550   2.106   1.039  11.173  0.1198 -0.4665  0.3339
 4306SOL    HW124551   2.092   0.994  11.257 -2.9179  0.7701  0.5052
 4306SOL    HW224552   2.035   1.012  11.115 -0.8405 -1.1688  1.8343
 4307SOL     OW24553   4.175   4.642   8.736 -0.2072 -0.1805 -0.4930
 4307SOL    HW124554   4.170   4.733   8.706 -1.2980 -0.6212 -1.6328
 4307SOL    HW224555   4.093   4.646   8.787 -0.4590  0.7366 -0.9732
 4308SOL     OW24556   2.116   3.694   4.057  0.6726  0.1950  0.0692
 4308SOL    HW124557   2.181   3.689   4.128  0.3200 -0.7301  0.3192
 4308SOL    HW224558   2.161   3.639   3.993  0.5981  0.9450 -0.6305
 4309SOL     OW24559   3.393   0.732   6.594 -0.3221 -0.4128 -0.2987
 4309SOL    HW124560   3.304   0.762   6.613  0.1127  0.1889  0.8501
 4309SOL    HW224561   3.370   0.640   6.578  1.3914 -0.6672 -1.2647
 4310SOL     OW24562   0.316   0.849   7.048  0.1912  0.4265  0.2561
 4310SOL    HW124563   0.241   0.889   7.091 -0.3706  1.6017 -1.7728
 4310SOL    HW224564   0.280   0.806   6.970  1.7453  0.4112 -0.4495
 4311SOL     OW24565   1.826   4.042   2.493 -0.7161  0.6597 -0.3303
 4311SOL    HW124566   1.882   4.069   2.565 -0.9513  0.9601 -0.2595
 4311SOL    HW224567   1.744   4.086   2.515 -1.6999 -0.4404 -1.7933
 4312SOL     OW24568   3.526   2.563   2.276 -1.0036  0.3517  0.3846
 4312SOL    HW124569   3.478   2.482   2.258 -1.5300  0.6774  0.3462
 4312SOL    HW224570   3.609   2.551   2.230 -1.7895 -1.2413 -0.6061
 4313SOL     OW24571   3.345   3.380   7.946  0.1426 -0.2489  0.0176
 4313SOL    HW124572   3.357   3.412   7.857 -2.1986 -0.4085 -0.3595
 4313SOL    HW224573   3.281   3.441   7.985 -1.1016 -2.2138  1.0428
 4314SOL     OW24574   4.347   3.486  10.022 -0.0870  0.0802 -0.0195
 4314SOL    HW124575   4.396   3.568  10.011 -1.5620  1.0952  0.8027
 4314SOL    HW224576   4.254   3.507  10.032 -0.2093 -0.3656 -0.2560
 4315SOL     OW24577   1.361   0.930   4.659 -0.0964 -0.0229  0.8462
 4315SOL    HW124578   1.353   1.002   4.596  0.8746  0.2394  1.0209
 4315SOL    HW224579   1.273   0.921   4.693 -1.0292  1.0913 -1.2270
 4316SOL     OW24580   1.193   2.744   4.602  0.0837 -0.5320 -0.3339
 4316SOL    HW124581   1.104   2.716   4.623  0.7296 -1.4281  1.1716
 4316SOL    HW224582   1.216   2.819   4.655  0.4840  0.5812 -2.0677
 4317SOL     OW24583   4.204   0.141  10.311 -0.4462  0.3016 -0.0386
 4317SOL    HW124584   4.274   0.194  10.351  0.0563 -1.0226  0.8406
 4317SOL    HW224585   4.190   0.076  10.380 -1.8501 -0.3798 -0.9772
 4318SOL     OW24586   4.619   4.482   7.006 -0.0437  0.2178  0.6980
 4318SOL    HW124587   4.687   4.486   7.073 -0.7399  0.1945  1.4070
 4318SOL    HW224588   4.585   4.571   7.001 -0.2939  0.0528 -0.6199
 4319SOL     OW24589   2.101   4.432   9.864 -0.1045  0.8190 -1.0118
 4319SOL    HW124590   2.028   4.374   9.883  0.9047 -0.1230  0.0353
 4319SOL    HW224591   2.156   4.383   9.803 -1.4326 -1.4106 -0.4186
 4320SOL     OW24592   2.501   1.248  14.411  0.2425 -0.4606 -0.2311
 4320SOL    HW124593   2.540   1.165  14.440  2.3632  0.0749 -1.5749
 4320SOL    HW224594   2.503   1.295  14.494  2.5377 -1.5924  0.3682
 4321SOL     OW24595   1.861   0.533   6.298 -0.2334  0.1689  0.0801
 4321SOL    HW124596   1.793   0.587   6.339 -0.1088 -1.5085  2.4777
 4321SOL    HW224597   1.807   0.468   6.254 -1.5243  1.4926 -0.2780
 4322SOL     OW24598   4.117   3.041   0.756 -0.1461  0.0067 -0.4161
 4322SOL    HW124599   4.118   3.108   0.825  2.2750 -0.6847  0.2084
 4322SOL    HW224600   4.029   3.050   0.719 -0.9221 -1.9141  0.9475
 4323SOL     OW24601   1.936   1.343  11.236 -0.7630  0.1060  0.0485
 4323SOL    HW124602   1.967   1.356  11.326 -0.2100  0.7514 -0.2414
 4323SOL    HW224603   1.917   1.250  11.248 -2.6474  0.5614  0.6056
 4324SOL     OW24604   3.977   0.160   8.600 -0.3535 -0.2471  0.0997
 4324SOL    HW124605   4.020   0.241   8.630  1.7873 -1.2217 -0.3851
 4324SOL    HW224606   3.891   0.197   8.579 -0.9704 -1.8964 -0.2578
 4325SOL     OW24607   1.009   1.672   1.844 -0.0850  0.2160  0.5735
 4325SOL    HW124608   0.941   1.668   1.776  0.6415  0.1782 -0.1456
 4325SOL    HW224609   1.085   1.694   1.790  0.0661 -3.6117 -0.7545
 4326SOL     OW24610   3.835   0.330   7.819  0.3258 -0.3809 -0.1193
 4326SOL    HW124611   3.857   0.283   7.899 -0.5439 -0.4522  0.0767
 4326SOL    HW224612   3.760   0.385   7.838  0.3986 -1.4638  3.3604
 4327SOL     OW24613   0.318   0.584  10.024 -0.2473 -0.3797 -0.9070
 4327SOL    HW124614   0.406   0.613  10.002 -0.4481  2.2509  1.7366
 4327SOL    HW224615   0.332   0.490  10.036  1.6414  0.1322  0.7709
 4328SOL     OW24616   1.763   3.032   8.518 -0.2647 -0.0762  0.1358
 4328SOL    HW124617   1.796   2.942   8.515  0.0253  0.0271  0.2078
 4328SOL    HW224618   1.779   3.059   8.427 -1.9584  0.6203  0.0542
 4329SOL     OW24619   0.097   2.352   3.889 -1.1532 -0.6205 -0.1532
 4329SOL    HW124620   0.002   2.367   3.894 -0.9794  0.3165  0.4393
 4329SOL    HW224621   0.122   2.438   3.855  1.7654 -0.7778  1.6316
 4330SOL     OW24622   3.510   0.320   8.130  0.1207 -0.7131  0.5558
 4330SOL    HW124623   3.500   0.252   8.196  2.2103 -1.9392 -0.3869
 4330SOL    HW224624   3.423   0.360   8.138  2.0431  3.5289  0.3845
 4331SOL     OW24625   2.477   1.877   6.550  0.1279  0.1915 -0.4816
 4331SOL    HW124626   2.548   1.847   6.607 -0.1855 -0.5781 -0.4954
 4331SOL    HW224627   2.440   1.938   6.614 -1.0852 -0.9448 -0.0921
 4332SOL     OW24628   0.199   2.810  14.415 -0.4298 -0.2008  0.3562
 4332SOL    HW124629   0.158   2.738  14.462  1.4051 -1.4843  0.0002
 4332SOL    HW224630   0.283   2.804  14.459 -1.1351  1.3748  1.9059
 4333SOL     OW24631   2.975   4.706   5.750  0.1335  0.1412 -0.0799
 4333SOL    HW124632   2.961   0.028   5.825  0.8257 -0.2285  0.3410
 4333SOL    HW224633   3.036   0.021   5.697 -1.0164  2.5798  0.9340
 4334SOL     OW24634   0.400   0.639   9.432 -0.0289  0.0864 -0.4415
 4334SOL    HW124635   0.462   0.640   9.504 -1.1205 -0.0285  0.4924
 4334SOL    HW224636   0.453   0.691   9.371  0.1974  1.9944  1.3576
 4335SOL     OW24637   2.869   3.192   3.312  0.5490  0.0159  0.4953
 4335SOL    HW124638   2.942   3.243   3.346  2.4619 -0.1805 -3.2598
 4335SOL    HW224639   2.878   3.209   3.218 -0.6694 -2.3286 -0.0636
 4336SOL     OW24640   4.601   1.299   1.939  0.1573 -0.1098 -0.5966
 4336SOL    HW124641   4.585   1.373   1.998  4.5405 -1.0319  1.7632
 4336SOL    HW224642   4.535   1.321   1.874  0.8692  0.8410 -0.9986
 4337SOL     OW24643   2.503   4.039   5.443 -0.1283 -0.0662  0.0319
 4337SOL    HW124644   2.523   4.056   5.351 -2.4948 -1.4232 -0.7447
 4337SOL    HW224645   2.410   4.056   5.436 -0.1857  0.5600  2.4926
 4338SOL     OW24646   1.338   1.279   6.982 -0.2562 -0.2148  0.7108
 4338SOL    HW124647   1.270   1.267   7.047 -0.4402  0.8298  0.7172
 4338SOL    HW224648   1.281   1.268   6.906  0.3875  0.1627  0.1668
 4339SOL     OW24649   1.072   3.457   6.184 -0.5899  0.0221 -0.1515
 4339SOL    HW124650   1.126   3.533   6.205  1.5078 -1.6305  0.4089
 4339SOL    HW224651   1.120   3.430   6.106 -0.2937  0.7870 -0.2343
 4340SOL     OW24652   0.037   0.373   7.339 -0.0171 -0.2330  0.5981
 4340SOL    HW124653   0.094   0.444   7.369  1.6085 -0.7209 -1.3802
 4340SOL    HW224654   0.078   0.292   7.368  1.0639  0.9082  2.2675
 4341SOL     OW24655   2.322   3.986  13.002 -1.4536  0.8420  0.2578
 4341SOL    HW124656   2.289   4.058  12.948 -4.1642 -0.5085  0.1057
 4341SOL    HW224657   2.287   4.011  13.088 -0.3404 -0.1146  0.9847
 4342SOL     OW24658   0.147   0.083   4.587  0.5614 -0.0417  0.1674
 4342SOL    HW124659   0.141   0.001   4.636  0.0677  0.7289  1.3926
 4342SOL    HW224660   0.064   0.085   4.539  0.7920 -1.3017 -0.2800
 4343SOL     OW24661   4.154   3.480   6.271 -0.5385 -0.1528  0.1983
 4343SOL    HW124662   4.112   3.531   6.340  2.4636  1.4027  0.8532
 4343SOL    HW224663   4.224   3.540   6.246  0.7026 -1.7981 -0.2617
 4344SOL     OW24664   0.102   2.175  10.640 -0.2437 -0.0578  0.1312
 4344SOL    HW124665   0.018   2.211  10.614 -1.4158 -2.8015  0.1086
 4344SOL    HW224666   0.164   2.217  10.580 -1.4019 -0.2267 -1.1727
 4345SOL     OW24667   1.267   1.163   6.022 -0.1404 -0.8201 -0.6234
 4345SOL    HW124668   1.233   1.136   5.936 -1.4531 -0.0776 -0.3399
 4345SOL    HW224669   1.193   1.134   6.076  0.9987 -0.0332  1.3561
 4346SOL     OW24670   0.430   3.438  12.397 -0.0807  0.0651 -0.0993
 4346SOL    HW124671   0.436   3.496  12.473 -2.7372  2.5149 -1.7719
 4346SOL    HW224672   0.509   3.465  12.350  0.3636  0.2427  0.7559
 4347SOL     OW24673   0.813   3.486   6.788  0.3563 -0.3305  0.4088
 4347SOL    HW124674   0.833   3.524   6.873 -0.2895 -1.1146  0.9101
 4347SOL    HW224675   0.718   3.483   6.779  0.3554 -0.7108  0.5448
 4348SOL     OW24676   1.435   3.028  17.413  0.5947  0.5366 -0.1201
 4348SOL    HW124677   1.513   3.011  17.466  0.5161 -0.3736 -0.3100
 4348SOL    HW224678   1.460   3.010  17.322 -2.8573 -0.1805 -0.9363
 4349SOL     OW24679   3.800   1.820   5.012  0.4014  0.4742  0.2769
 4349SOL    HW124680   3.819   1.823   4.918  0.5281  4.8389  0.4256
 4349SOL    HW224681   3.705   1.830   5.009  0.3730 -0.1672 -0.8744
 4350SOL     OW24682   2.028   1.199   8.261  0.6450  0.2578 -0.0231
 4350SOL    HW124683   2.023   1.216   8.167  0.8975 -1.0237 -0.2614
 4350SOL    HW224684   2.006   1.106   8.266 -2.1612  0.9413  0.3770
 4351SOL     OW24685   0.105   3.338   5.570 -0.0567  0.4006  0.6015
 4351SOL    HW124686   0.109   3.250   5.606 -1.5468  0.9524  2.1256
 4351SOL    HW224687   0.164   3.379   5.633  0.2174 -0.6857  1.0381
 4352SOL     OW24688   4.643   2.490   8.571  0.4327 -0.1304 -0.5243
 4352SOL    HW124689   4.732   2.462   8.552  0.4770 -1.1532  1.1156
 4352SOL    HW224690   4.607   2.505   8.484  0.9758  0.8017 -0.5920
 4353SOL     OW24691   3.288   3.725   1.493 -0.2858 -0.4955 -0.4000
 4353SOL    HW124692   3.240   3.663   1.548  2.4968 -0.6618  1.8471
 4353SOL    HW224693   3.336   3.772   1.561 -0.7592  1.7713 -1.6327
 4354SOL     OW24694   4.328   2.268   4.419 -0.0198 -0.1072  0.4665
 4354SOL    HW124695   4.303   2.189   4.467  0.4493  0.7916  2.1646
 4354SOL    HW224696   4.419   2.251   4.396 -0.0445 -0.8424  0.8887
 4355SOL     OW24697   4.018   0.935   0.913  0.7046  0.0509 -0.0460
 4355SOL    HW124698   4.019   0.846   0.949 -0.5410  0.3511  0.7174
 4355SOL    HW224699   4.110   0.947   0.938  0.5529 -0.0576  0.5697
 4356SOL     OW24700   3.784   1.499  14.261  0.2044 -0.0493  0.3905
 4356SOL    HW124701   3.737   1.580  14.283  3.0419  0.9429  2.7790
 4356SOL    HW224702   3.797   1.464  14.349  0.4580 -2.0682 -0.4520
 4357SOL     OW24703   1.772   3.707   2.223 -0.3630 -0.3673  0.1793
 4357SOL    HW124704   1.854   3.735   2.263 -2.7010  1.7634  3.5376
 4357SOL    HW224705   1.793   3.622   2.184 -2.5684 -1.3857  1.2007
 4358SOL     OW24706   4.111   0.320  11.652 -0.0540  0.0361  0.3143
 4358SOL    HW124707   4.082   0.229  11.663  0.0872 -0.1880 -1.0766
 4358SOL    HW224708   4.035   0.356  11.606  1.4145  1.7039 -0.7707
 4359SOL     OW24709   0.098   3.385   4.480  0.1023  0.0559 -0.2786
 4359SOL    HW124710   0.177   3.431   4.507 -1.0430  1.4854  0.6934
 4359SOL    HW224711   0.048   3.447   4.426  1.3663  0.9164 -0.4510
 4360SOL     OW24712   0.760   1.284   7.707  0.5133 -0.0292  0.3346
 4360SOL    HW124713   0.782   1.250   7.794 -2.3360 -3.3989 -0.3075
 4360SOL    HW224714   0.746   1.203   7.658 -0.9413  0.8163 -0.6322
 4361SOL     OW24715   0.605   0.052   8.565 -0.3798 -0.2768  0.2742
 4361SOL    HW124716   0.690   0.060   8.522 -0.1132  1.5542  1.1723
 4361SOL    HW224717   0.612   0.127   8.623 -0.0044 -0.2633  0.2085
 4362SOL     OW24718   2.494   0.642  12.699 -0.1156 -0.4506  0.0589
 4362SOL    HW124719   2.543   0.711  12.745  0.6353 -2.0794  1.7065
 4362SOL    HW224720   2.553   0.613  12.630  2.2775  1.2573  1.3902
 4363SOL     OW24721   2.881   1.647   8.485 -0.2051  0.2907 -0.5042
 4363SOL    HW124722   2.921   1.600   8.558  1.3995  2.0611 -0.2352
 4363SOL    HW224723   2.808   1.589   8.463  0.9075 -0.3469 -2.5085
 4364SOL     OW24724   3.539   3.762   4.925  0.1947  0.6433 -0.0264
 4364SOL    HW124725   3.560   3.723   4.840  0.4942  0.4349  0.1423
 4364SOL    HW224726   3.516   3.853   4.911 -1.7718  0.2086  0.3310
 4365SOL     OW24727   4.531   1.083   7.671  0.1450 -0.0611 -0.0701
 4365SOL    HW124728   4.510   0.992   7.694 -2.3585  0.5512  0.0022
 4365SOL    HW224729   4.597   1.063   7.604 -0.0175 -1.5889  0.2120
 4366SOL     OW24730   3.307   1.181   3.990 -0.2866 -0.3727 -0.5593
 4366SOL    HW124731   3.290   1.095   3.952  0.8416 -1.3209  1.1097
 4366SOL    HW224732   3.402   1.184   4.006 -0.6735 -0.6649  1.6941
 4367SOL     OW24733   1.984   3.580   1.532  0.2196 -0.3157  0.0562
 4367SOL    HW124734   2.017   3.637   1.462  1.1353 -3.4605 -2.1054
 4367SOL    HW224735   1.978   3.638   1.607 -3.2034  1.3267 -1.4738
 4368SOL     OW24736   1.560   2.967   4.953 -0.4851  0.2039 -0.3980
 4368SOL    HW124737   1.509   2.894   4.917  1.9463 -1.7059  0.0611
 4368SOL    HW224738   1.491   3.013   5.001 -1.0125 -1.4775  0.4471
 4369SOL     OW24739   2.954   0.178   8.203  0.3000  0.1831 -0.1507
 4369SOL    HW124740   2.911   0.258   8.234 -0.0046  1.1941 -3.1979
 4369SOL    HW224741   2.875   0.129   8.183 -0.5231  1.7919 -0.8324
 4370SOL     OW24742   3.025   4.189  17.604  0.2475 -0.4377  0.2983
 4370SOL    HW124743   2.990   4.130  17.537  0.4031  0.2244 -0.3714
 4370SOL    HW224744   2.974   4.268  17.587  1.0434  0.1609  0.6728
 4371SOL     OW24745   3.029   0.854  13.722  0.2686 -0.4396  0.1252
 4371SOL    HW124746   2.977   0.922  13.764 -0.2541 -1.1398  0.5924
 4371SOL    HW224747   3.074   0.808  13.792  2.7350 -0.4640 -1.4618
 4372SOL     OW24748   4.194   0.043  14.565  0.0925  0.2568  0.6883
 4372SOL    HW124749   4.207   0.028  14.471 -0.5878  2.1633  0.2707
 4372SOL    HW224750   4.121   4.720  14.582 -0.3101  0.3615 -0.6292
 4373SOL     OW24751   1.531   1.304  10.216  0.3379 -0.1983 -0.3359
 4373SOL    HW124752   1.473   1.228  10.211  0.5937 -0.3270 -1.4482
 4373SOL    HW224753   1.560   1.291  10.306 -3.0084 -2.3811  0.4283
 4374SOL     OW24754   1.360   4.036   1.954  0.1379  0.0253  0.4132
 4374SOL    HW124755   1.321   4.035   2.041  0.0353  0.7007  0.3774
 4374SOL    HW224756   1.289   4.078   1.905  0.2742  0.2515  0.4101
 4375SOL     OW24757   1.103   0.540   9.184  0.0810  0.4828  0.1371
 4375SOL    HW124758   1.094   0.574   9.273  2.1815  1.7578 -0.1440
 4375SOL    HW224759   1.033   0.475   9.186  1.0485 -0.5409  1.1135
 4376SOL     OW24760   2.300   2.552   0.658 -0.2093 -0.2779 -0.6287
 4376SOL    HW124761   2.275   2.594   0.741  1.1571 -0.4665 -0.1327
 4376SOL    HW224762   2.395   2.553   0.670 -0.0926 -0.7512 -1.5608
 4377SOL     OW24763   2.061   0.387   1.796 -0.7099  0.2033 -0.2175
 4377SOL    HW124764   2.072   0.347   1.710  2.3061 -2.7976  1.5997
 4377SOL    HW224765   2.106   0.472   1.793 -0.2259  0.0321  1.8814
 4378SOL     OW24766   1.000   2.912   5.204 -0.5899  0.1285  0.5210
 4378SOL    HW124767   1.059   2.855   5.155 -1.9666 -0.2029 -0.7387
 4378SOL    HW224768   1.038   2.999   5.191 -0.5161 -0.3212 -2.1672
 4379SOL     OW24769   3.373   2.565   4.688 -0.5428  0.2477  0.2232
 4379SOL    HW124770   3.370   2.598   4.598  2.6731  2.0189  0.7907
 4379SOL    HW224771   3.285   2.592   4.714 -0.4935 -0.7471  1.4036
 4380SOL     OW24772   2.654   0.096   9.185  0.3217 -0.1811 -0.8008
 4380SOL    HW124773   2.651   0.067   9.276  1.0815  0.5972 -0.5297
 4380SOL    HW224774   2.746   0.120   9.182 -0.2446  2.0960  0.4236
 4381SOL     OW24775   4.184   0.439  10.150 -0.5987  0.1645  0.0234
 4381SOL    HW124776   4.238   0.433  10.071  2.1654 -0.8233  1.9810
 4381SOL    HW224777   4.251   0.470  10.212  1.8458 -0.1526 -2.4634
 4382SOL     OW24778   4.627   2.496  12.816 -0.3714  0.1320 -0.3816
 4382SOL    HW124779   4.690   2.440  12.771 -0.8104 -1.2441  0.7211
 4382SOL    HW224780   4.677   2.531  12.889  0.2959 -0.7118 -0.4283
 4383SOL     OW24781   2.972   1.794   6.723  0.0570  0.3312  0.5690
 4383SOL    HW124782   2.992   1.743   6.644 -0.9491  0.7464  0.0498
 4383SOL    HW224783   3.027   1.760   6.794  2.2690  3.3223  0.3313
 4384SOL     OW24784   4.571   2.123   3.425  0.5675  0.4134 -0.0741
 4384SOL    HW124785   4.592   2.140   3.333  1.0634 -1.0534 -0.2274
 4384SOL    HW224786   4.619   2.201   3.453  0.9452  0.2116 -0.1444
 4385SOL     OW24787   3.016   1.588  13.059 -0.2849 -0.4592  0.1757
 4385SOL    HW124788   2.987   1.535  13.133 -0.1505  1.6797  1.7853
 4385SOL    HW224789   2.969   1.669  13.079  1.6159  0.5912  0.3938
 4386SOL     OW24790   0.560   2.447   5.554 -0.3621  0.5415  0.4608
 4386SOL    HW124791   0.550   2.449   5.649  2.4851 -1.4199  0.8266
 4386SOL    HW224792   0.506   2.369   5.542  3.8784 -2.5182  1.4116
 4387SOL     OW24793   3.399   3.102   6.227  0.2599  0.3163  0.7640
 4387SOL    HW124794   3.451   3.045   6.283 -1.4331 -2.1683 -0.2201
 4387SOL    HW224795   3.451   3.182   6.219  0.6384 -0.0681 -0.5858
 4388SOL     OW24796   2.928   0.569   2.285  0.5470 -1.3250 -0.0848
 4388SOL    HW124797   2.869   0.560   2.210 -0.8423  1.3075  0.7174
 4388SOL    HW224798   2.880   0.641   2.325 -1.5943 -3.8957  1.9641
 4389SOL     OW24799   3.990   0.110   5.088 -0.0512 -0.6583  0.3973
 4389SOL    HW124800   3.992   0.176   5.158 -1.1942  0.3229 -0.4986
 4389SOL    HW224801   3.906   0.065   5.093  0.5478 -1.9432 -1.1511
 4390SOL     OW24802   2.741   1.252   4.763 -0.3624 -0.0690 -0.1267
 4390SOL    HW124803   2.718   1.249   4.856  2.9869  0.9204  0.7386
 4390SOL    HW224804   2.831   1.284   4.765 -0.0728 -0.8861 -0.1622
 4391SOL     OW24805   1.070   1.459  13.067  0.8205  0.1185  0.2348
 4391SOL    HW124806   1.111   1.483  12.984  1.2677 -0.0713  0.4001
 4391SOL    HW224807   0.989   1.508  13.059  2.2262  2.1208 -1.5944
 4392SOL     OW24808   3.901   0.813   4.178 -0.3526  0.0519  0.1307
 4392SOL    HW124809   3.878   0.720   4.177 -0.0317 -0.0128 -1.5158
 4392SOL    HW224810   3.991   0.822   4.210 -0.3637 -3.7799  1.2273
 4393SOL     OW24811   1.546   3.611   3.309 -0.0757 -0.1469  0.3920
 4393SOL    HW124812   1.638   3.593   3.288  0.0109 -2.5825  2.9487
 4393SOL    HW224813   1.509   3.524   3.301 -1.9990  0.6482  0.6475
 4394SOL     OW24814   1.773   3.062   9.165  0.2385  0.0750  0.0634
 4394SOL    HW124815   1.683   3.092   9.150  0.1974 -0.1209 -0.0817
 4394SOL    HW224816   1.777   3.035   9.256 -2.3471 -0.3969  0.0554
 4395SOL     OW24817   0.152   1.542   5.170 -0.3344 -0.5031 -0.4273
 4395SOL    HW124818   0.235   1.572   5.133 -0.5898  1.0617  0.2605
 4395SOL    HW224819   0.090   1.605   5.132  0.7036  0.6345 -0.2488
 4396SOL     OW24820   0.494   2.814   4.167  0.3173  1.3498 -0.0128
 4396SOL    HW124821   0.417   2.760   4.148  2.2407 -0.6868 -1.9706
 4396SOL    HW224822   0.491   2.868   4.088 -1.2290 -1.0288 -1.5882
 4397SOL     OW24823   3.877   0.423   2.498 -0.2565 -0.0286  0.2063
 4397SOL    HW124824   3.968   0.397   2.514 -0.4047 -1.3530 -1.0839
 4397SOL    HW224825   3.843   0.418   2.587 -0.7959  0.8252  0.0494
 4398SOL     OW24826   3.037   3.530   2.318  0.1646  0.1615  0.0128
 4398SOL    HW124827   2.964   3.581   2.284 -0.5156 -0.9834 -0.2327
 4398SOL    HW224828   2.986   3.477   2.380 -2.6299  2.6068 -0.2062
 4399SOL     OW24829   4.039   3.098   5.615 -0.0195  0.1473  0.4282
 4399SOL    HW124830   4.063   3.047   5.692  0.6172  0.4689  0.4373
 4399SOL    HW224831   3.943   3.105   5.620 -0.1096  0.1703 -1.3788
 4400SOL     OW24832   3.434   2.804   6.881  0.1040 -0.0097  0.5123
 4400SOL    HW124833   3.464   2.714   6.884  0.4854  0.1770  2.2239
 4400SOL    HW224834   3.353   2.795   6.932 -0.7233  1.2395 -0.5724
 4401SOL     OW24835   3.023   1.011  11.464  0.4830 -0.0360 -0.1079
 4401SOL    HW124836   2.964   0.944  11.498  0.6118 -1.3696 -2.5453
 4401SOL    HW224837   2.960   1.061  11.413  0.4554  1.5737  1.5071
 4402SOL     OW24838   1.453   2.084   3.972  0.2702 -0.0818 -0.0562
 4402SOL    HW124839   1.379   2.123   3.926 -1.0326 -1.3945  0.9574
 4402SOL    HW224840   1.412   2.069   4.056  0.6737  0.3925  0.2294
 4403SOL     OW24841   2.502   3.302  12.096 -0.9074 -0.5540  0.9881
 4403SOL    HW124842   2.520   3.233  12.160  0.6866 -0.8859  0.1852
 4403SOL    HW224843   2.488   3.254  12.014  0.8124  0.6970 -0.0412
 4404SOL     OW24844   4.402   1.259   6.541  0.4922 -0.1882  0.5601
 4404SOL    HW124845   4.315   1.298   6.555  1.4282  1.7331  1.0421
 4404SOL    HW224846   4.392   1.170   6.574  1.0996 -0.1838  0.7621
 4405SOL     OW24847   3.904   4.701   5.391  0.4933  0.2282  0.7176
 4405SOL    HW124848   3.999   4.705   5.386  0.5573  0.5518  2.4017
 4405SOL    HW224849   3.887   4.669   5.302 -1.9375 -0.1749  1.3169
 4406SOL     OW24850   0.658   2.513   9.975 -0.1610  0.2457 -0.2525
 4406SOL    HW124851   0.604   2.577  10.022  0.8447  0.6474  0.3678
 4406SOL    HW224852   0.737   2.516  10.029 -0.8033  0.1375  0.7143
 4407SOL     OW24853   2.289   1.998   7.119 -0.0005  0.2100 -0.7945
 4407SOL    HW124854   2.206   2.014   7.164 -0.0966  0.7859 -1.1729
 4407SOL    HW224855   2.335   1.931   7.169 -0.3281  0.3948 -0.2526
 4408SOL     OW24856   1.312   2.949   4.732  0.3458  0.0396 -0.6467
 4408SOL    HW124857   1.285   3.007   4.804  0.4169  0.0357 -0.6172
 4408SOL    HW224858   1.379   2.998   4.685  1.4072  0.9968  1.8705
 4409SOL     OW24859   0.058   1.524   0.189  0.4366  0.8278  0.3828
 4409SOL    HW124860   0.100   1.528   0.102  1.8185  2.5032  1.1167
 4409SOL    HW224861   0.084   1.607   0.229  0.2280 -0.0524  2.3396
 4410SOL     OW24862   2.307   4.610   4.055  0.0214 -0.0831 -0.1810
 4410SOL    HW124863   2.285   4.585   3.965  0.3520 -0.1798 -0.2346
 4410SOL    HW224864   2.402   4.609   4.044 -0.3035 -0.7667 -2.9761
 4411SOL     OW24865   2.675   2.036  15.265  0.2246 -0.3845 -0.5682
 4411SOL    HW124866   2.618   1.960  15.255  1.3505 -1.0495 -1.9696
 4411SOL    HW224867   2.707   2.051  15.176  0.7437 -0.5401 -0.4037
 4412SOL     OW24868   0.931   3.477   2.172  0.2097  0.1947 -0.5015
 4412SOL    HW124869   0.883   3.536   2.231  0.2269 -0.8483  0.5732
 4412SOL    HW224870   0.873   3.401   2.164  1.4041 -0.7167 -0.5886
 4413SOL     OW24871   0.619   0.812   4.274 -0.3502  0.9088  0.2832
 4413SOL    HW124872   0.543   0.755   4.259 -2.1272  3.7701 -1.7710
 4413SOL    HW224873   0.642   0.829   4.183 -1.0440  2.0515  0.3140
 4414SOL     OW24874   3.508   1.052   0.397 -1.0330  0.1648 -0.0304
 4414SOL    HW124875   3.471   1.140   0.387 -0.4746  0.4463  0.3671
 4414SOL    HW224876   3.575   1.045   0.330  0.3952 -0.7414  1.5043
 4415SOL     OW24877   3.791   3.649   2.952  0.2065  0.6216 -0.2591
 4415SOL    HW124878   3.761   3.588   2.885  2.3054  1.1458 -1.6754
 4415SOL    HW224879   3.724   3.631   3.018  0.6901  1.8206  0.5594
 4416SOL     OW24880   2.386   4.454   3.334 -0.2549  1.0640  0.0067
 4416SOL    HW124881   2.481   4.453   3.346 -0.2220  0.4421 -0.3224
 4416SOL    HW224882   2.369   4.513   3.408 -0.9041 -1.5724  1.9497
 4417SOL     OW24883   3.702   1.671  15.857 -0.1927 -0.0931 -0.0015
 4417SOL    HW124884   3.631   1.613  15.828 -0.8619  0.0642  1.3365
 4417SOL    HW224885   3.705   1.639  15.947  1.6103 -0.1207 -0.0747
 4418SOL     OW24886   3.649   4.364   4.868 -0.1619 -0.3890 -0.4381
 4418SOL    HW124887   3.743   4.345   4.875  0.2826  1.3764 -1.5288
 4418SOL    HW224888   3.621   4.315   4.791  1.6521  2.5939 -3.0332
 4419SOL     OW24889   4.027   0.402  10.437 -0.7747 -0.4500 -0.2053
 4419SOL    HW124890   3.943   0.378  10.477  0.3000  0.7936  2.7778
 4419SOL    HW224891   4.028   0.354  10.355  1.6279 -0.0663 -0.4121
 4420SOL     OW24892   3.731   2.287   8.244  0.2165 -0.0460  0.2001
 4420SOL    HW124893   3.798   2.233   8.285 -0.8812 -1.3468  0.2769
 4420SOL    HW224894   3.785   2.345   8.190 -0.7135 -1.2691 -2.0651
 4421SOL     OW24895   3.820   2.634   3.222  0.2988 -0.6197 -0.3010
 4421SOL    HW124896   3.743   2.581   3.204  0.0715  0.4065 -2.4441
 4421SOL    HW224897   3.882   2.562   3.218  0.5937 -0.4217  0.7653
 4422SOL     OW24898   1.040   2.108  17.334 -0.5300  0.0657  0.6751
 4422SOL    HW124899   0.971   2.173  17.322 -0.0853  0.5181  0.5337
 4422SOL    HW224900   1.064   2.126  17.425 -2.3082 -1.7416  1.4956
 4423SOL     OW24901   3.260   2.956  12.052  0.3394  0.1270 -0.5146
 4423SOL    HW124902   3.289   3.047  12.058  0.8084 -0.1686  1.4675
 4423SOL    HW224903   3.249   2.931  12.144 -0.0753  1.2565 -0.2664
 4424SOL     OW24904   1.455   2.379   5.234  0.9763 -0.1807  0.2465
 4424SOL    HW124905   1.548   2.367   5.216  0.9291 -0.8618  0.4662
 4424SOL    HW224906   1.418   2.340   5.155  0.4901  1.0049 -0.1075
 4425SOL     OW24907   3.213   3.613   6.396 -0.2635  0.0015 -0.2419
 4425SOL    HW124908   3.186   3.558   6.470 -0.5172  0.2225 -0.1706
 4425SOL    HW224909   3.130   3.658   6.380 -0.4789 -1.1159 -2.2421
 4426SOL     OW24910   2.615   1.453   3.891  0.5072 -0.4028 -0.0459
 4426SOL    HW124911   2.556   1.402   3.945  1.6181 -1.2541  0.3602
 4426SOL    HW224912   2.574   1.444   3.805 -0.3498  2.0956  0.0925
 4427SOL     OW24913   0.935   3.910   1.951 -0.0871 -0.1688  0.1013
 4427SOL    HW124914   1.020   3.867   1.963  0.7345  1.7443  1.0708
 4427SOL    HW224915   0.880   3.832   1.952 -1.6290  0.9516  1.6678
 4428SOL     OW24916   2.086   1.388   2.087 -0.0819 -0.1135 -0.2707
 4428SOL    HW124917   2.155   1.405   2.022  1.9365 -0.2941  1.8476
 4428SOL    HW224918   2.147   1.393   2.160 -0.4841 -1.5795  0.1726
 4429SOL     OW24919   3.005   4.414   9.648 -0.3435  0.4142  0.5023
 4429SOL    HW124920   2.956   4.449   9.722  0.1566 -0.2393  1.1468
 4429SOL    HW224921   2.945   4.366   9.591  0.7203 -1.4859  0.9688
 4430SOL     OW24922   0.036   0.041   0.340  0.1280 -0.4505 -0.2371
 4430SOL    HW124923   0.077   4.717   0.403  0.3246 -1.9681 -1.8235
 4430SOL    HW224924   4.682   0.051   0.372  0.8405 -0.8011  1.8609
 4431SOL     OW24925   4.368   2.044   5.344  0.1543  0.1692 -0.1222
 4431SOL    HW124926   4.352   2.090   5.262 -3.1516 -0.7262  0.0245
 4431SOL    HW224927   4.304   2.094   5.394 -0.1203  1.5698 -1.8930
 4432SOL     OW24928   0.383   2.106   2.688  0.0392  0.1024 -0.6098
 4432SOL    HW124929   0.328   2.142   2.618  0.9388 -2.7386 -2.7766
 4432SOL    HW224930   0.450   2.173   2.698  1.4090 -1.5100  0.9674
 4433SOL     OW24931   4.275   4.545   7.953  0.1920 -0.3824 -0.2451
 4433SOL    HW124932   4.194   4.502   7.980 -0.3398  0.6028 -0.2618
 4433SOL    HW224933   4.255   4.578   7.866 -2.2200 -3.3373 -0.8344
 4434SOL     OW24934   0.704   3.007  11.948  0.3655  0.4237 -0.1665
 4434SOL    HW124935   0.785   2.966  11.918 -0.2825 -1.1652  0.2721
 4434SOL    HW224936   0.737   3.091  11.980  1.2060  1.0286 -2.6399
 4435SOL     OW24937   2.093   4.192   8.786 -0.0111 -0.3944 -0.3757
 4435SOL    HW124938   2.093   4.224   8.876  0.5885 -0.6722 -0.2790
 4435SOL    HW224939   2.025   4.125   8.785 -0.1651 -0.2332 -0.5719
 4436SOL     OW24940   0.268   0.991   7.526  0.1064 -0.6258  0.3507
 4436SOL    HW124941   0.300   1.039   7.602 -0.0127 -1.7866  1.1416
 4436SOL    HW224942   0.332   1.006   7.457 -1.8860  1.4693 -1.0354
 4437SOL     OW24943   1.126   3.843  15.558  0.6413 -0.1162  0.3639
 4437SOL    HW124944   1.186   3.851  15.484  0.3155 -0.0409  0.1081
 4437SOL    HW224945   1.071   3.769  15.534 -0.2051  1.4268 -2.5109
 4438SOL     OW24946   3.449   4.580   5.213  0.3972 -0.2843  0.0957
 4438SOL    HW124947   3.453   4.581   5.117 -0.3528 -1.2680  0.0491
 4438SOL    HW224948   3.454   4.484   5.217  0.3098 -0.3393 -0.9868
 4439SOL     OW24949   0.991   4.458   3.329  0.2115 -0.1447  0.4273
 4439SOL    HW124950   0.976   4.482   3.238  0.7171 -0.4490  0.2621
 4439SOL    HW224951   0.955   4.530   3.381 -0.7319 -1.9704  2.3102
 4440SOL     OW24952   0.759   4.303  15.671 -0.5312 -0.1666  0.2788
 4440SOL    HW124953   0.702   4.267  15.603 -0.7817  1.5604 -0.4385
 4440SOL    HW224954   0.726   4.393  15.677  0.1755  0.2640 -2.1794
 4441SOL     OW24955   2.965   3.288   2.148  0.2384 -0.2124 -0.0996
 4441SOL    HW124956   2.900   3.227   2.113  1.9297 -1.2685 -1.3936
 4441SOL    HW224957   2.971   3.352   2.077  2.5140 -0.1448  0.1616
 4442SOL     OW24958   2.057   4.064  16.226  0.5554 -0.8909  0.2281
 4442SOL    HW124959   2.124   4.127  16.253  1.2232 -0.9025 -1.3671
 4442SOL    HW224960   1.982   4.094  16.277  0.0228  1.6892 -2.0804
 4443SOL     OW24961   1.210   0.790   2.820  0.1481 -0.4225 -0.5852
 4443SOL    HW124962   1.159   0.869   2.836 -0.0232 -0.5811 -0.3554
 4443SOL    HW224963   1.251   0.814   2.736 -0.4247  1.5074 -0.2948
 4444SOL     OW24964   0.927   0.483   3.653  0.0135 -0.0533 -0.3679
 4444SOL    HW124965   1.007   0.520   3.690  0.2390 -2.1006  1.1858
 4444SOL    HW224966   0.957   0.471   3.563  2.2115  0.0938  0.3498
 4445SOL     OW24967   1.496   4.312  16.769 -0.4891 -0.2661 -0.0277
 4445SOL    HW124968   1.556   4.319  16.844 -0.0862 -0.9842 -0.2777
 4445SOL    HW224969   1.434   4.381  16.792 -1.4771 -1.2337  0.2252
 4446SOL     OW24970   1.135   1.283  12.324 -0.5617 -0.3937 -0.0514
 4446SOL    HW124971   1.191   1.315  12.253 -3.3778  0.8438 -1.7123
 4446SOL    HW224972   1.060   1.342  12.317  0.1273  0.3079 -1.5502
 4447SOL     OW24973   3.927   0.362   3.194 -0.2522 -0.4573 -0.3350
 4447SOL    HW124974   3.889   0.274   3.199 -0.3607 -0.4310 -0.6834
 4447SOL    HW224975   3.973   0.374   3.110 -2.7216 -0.6109 -1.7132
 4448SOL     OW24976   1.545   2.135   2.676  0.1403  0.3089  0.0319
 4448SOL    HW124977   1.620   2.081   2.651 -0.6217  0.0030 -1.5910
 4448SOL    HW224978   1.596   2.216   2.678  0.5450  0.0734 -0.5035
 4449SOL     OW24979   3.298   2.563   1.688  0.5149 -0.2904  0.6437
 4449SOL    HW124980   3.375   2.540   1.636 -0.4195 -1.0677 -0.3985
 4449SOL    HW224981   3.314   2.647   1.731  0.7807  1.0059 -2.0367
 4450SOL     OW24982   4.695   2.364   8.084 -0.0528 -0.2379  0.2899
 4450SOL    HW124983   4.726   2.278   8.056 -2.2019 -1.3410  1.3568
 4450SOL    HW224984   0.036   2.391   8.135  0.7623  2.0229 -2.1108
 4451SOL     OW24985   0.600   4.523   4.512  0.3221 -0.0706 -0.4022
 4451SOL    HW124986   0.579   4.595   4.573 -0.5952 -0.0593 -0.7228
 4451SOL    HW224987   0.609   4.452   4.576  0.8276  1.7653  1.5986
 4452SOL     OW24988   0.315   2.010   8.729 -0.2464 -0.5043 -0.1093
 4452SOL    HW124989   0.353   2.093   8.699 -1.3194  0.4656  1.2101
 4452SOL    HW224990   0.298   2.023   8.823 -0.3939 -1.7873  0.0425
 4453SOL     OW24991   0.753   2.244   1.381  0.3978 -0.0048  0.5487
 4453SOL    HW124992   0.671   2.283   1.408 -0.6889  0.3440 -3.1995
 4453SOL    HW224993   0.803   2.318   1.347  1.5043 -1.8270 -1.8042
 4454SOL     OW24994   1.063   0.247  10.940 -0.1860  0.2448  0.3028
 4454SOL    HW124995   1.053   0.183  10.869 -1.2615 -0.4228  1.0480
 4454SOL    HW224996   1.021   0.202  11.014 -0.8660  1.2255  0.5126
 4455SOL     OW24997   2.217   1.426   8.922 -0.2521 -0.0277  0.5843
 4455SOL    HW124998   2.307   1.457   8.930  0.0859 -0.8709 -0.0012
 4455SOL    HW224999   2.164   1.497   8.960 -0.0690 -0.3962  1.5210
 4456SOL     OW25000   2.632   2.613  17.082  0.5506  0.2324  0.0733
 4456SOL    HW125001   2.571   2.684  17.103  0.9333  0.4063  0.5907
 4456SOL    HW225002   2.676   2.594  17.165  1.7266  0.3069 -0.5340
 4457SOL     OW25003   3.107   2.853  11.702 -0.1132 -0.0406 -0.2915
 4457SOL    HW125004   3.099   2.942  11.735  0.9196  0.6088 -1.7935
 4457SOL    HW225005   3.157   2.866  11.622 -1.6301  0.0220 -1.2292
 4458SOL     OW25006   0.711   1.475   8.628  0.2538 -0.2070 -0.8790
 4458SOL    HW125007   0.789   1.479   8.572 -0.6429  2.4875 -1.9307
 4458SOL    HW225008   0.756   1.454   8.710 -3.0107 -3.7830 -0.0384
 4459SOL     OW25009   1.594   2.809   7.645 -0.1278  0.6214  0.1757
 4459SOL    HW125010   1.650   2.732   7.658 -1.0057  0.6394  4.2890
 4459SOL    HW225011   1.608   2.863   7.723 -0.4856 -0.1720  0.7966
 4460SOL     OW25012   1.875   1.273   9.174 -0.0360 -0.7375  0.9653
 4460SOL    HW125013   1.825   1.335   9.122  2.0635  0.1114 -0.0343
 4460SOL    HW225014   1.866   1.311   9.261 -0.9185 -1.2261  1.0978
 4461SOL     OW25015   3.819   2.780   5.197 -0.4439 -0.0748  0.2221
 4461SOL    HW125016   3.914   2.781   5.193 -0.3920  1.1240  1.8605
 4461SOL    HW225017   3.802   2.844   5.128 -0.0399  1.6159  1.7200
 4462SOL     OW25018   4.063   1.381   1.228 -0.1324  0.3966  0.2525
 4462SOL    HW125019   4.075   1.286   1.225 -0.0029  0.4126  0.2670
 4462SOL    HW225020   4.148   1.407   1.194 -0.7872  3.0841  0.6704
 4463SOL     OW25021   1.244   3.471   5.980  0.2879 -0.2572  0.2027
 4463SOL    HW125022   1.289   3.552   5.956  0.2058 -0.4430 -0.5784
 4463SOL    HW225023   1.278   3.406   5.919  1.4138 -0.9567  1.5765
 4464SOL     OW25024   0.266   0.256  17.325  0.3907  0.6570 -0.2481
 4464SOL    HW125025   0.179   0.278  17.359  0.5480  0.4142  0.3006
 4464SOL    HW225026   0.264   0.161  17.318  0.9283  0.9112 -4.1313
 4465SOL     OW25027   1.221   3.881  12.982  0.0712  0.1569 -0.1954
 4465SOL    HW125028   1.204   3.918  12.896  0.0022  0.5812  0.0047
 4465SOL    HW225029   1.142   3.833  13.006  0.9134 -0.1267  2.0219
 4466SOL     OW25030   1.337   2.355   7.115 -0.2732  0.5116  0.2679
 4466SOL    HW125031   1.331   2.275   7.063  2.7512  1.5070 -1.6263
 4466SOL    HW225032   1.394   2.338   7.190  1.8559  1.5372 -1.0727
 4467SOL     OW25033   2.587   2.527   0.395  0.5672  0.6741 -0.2765
 4467SOL    HW125034   2.558   2.618   0.387 -1.6543  0.0407  0.5473
 4467SOL    HW225035   2.504   2.480   0.409 -0.3955  2.1182 -1.1454
 4468SOL     OW25036   0.532   1.899   2.992  0.3179  0.0612 -0.0077
 4468SOL    HW125037   0.625   1.914   3.003  0.9021 -3.2164 -0.3322
 4468SOL    HW225038   0.503   1.879   3.082  1.4675  2.0549  0.7998
 4469SOL     OW25039   2.937   1.266   6.913 -0.8978  0.3677  0.7853
 4469SOL    HW125040   2.939   1.335   6.847 -1.0228 -0.2163  0.1812
 4469SOL    HW225041   3.009   1.293   6.970 -1.8130  0.7220  1.7983
 4470SOL     OW25042   0.946   0.588   2.431  0.0857 -0.0505  0.3926
 4470SOL    HW125043   0.951   0.666   2.377  0.4010 -1.1414 -1.1751
 4470SOL    HW225044   1.020   0.600   2.490  0.3594 -0.6370  0.1704
 4471SOL     OW25045   3.156   4.693   5.055  0.6402 -0.1693 -0.0167
 4471SOL    HW125046   3.076   4.732   5.018  0.8122  0.1456 -0.0628
 4471SOL    HW225047   3.209   0.023   5.009  0.7075  0.0567  0.3797
 4472SOL     OW25048   1.773   3.126  10.090  0.4149 -0.1699 -0.4552
 4472SOL    HW125049   1.731   3.040  10.100 -1.2793  0.6785 -0.4099
 4472SOL    HW225050   1.707   3.191  10.114 -0.4805 -1.3011  0.1454
 4473SOL     OW25051   3.320   4.210  13.115  0.5190  0.3204 -0.3019
 4473SOL    HW125052   3.400   4.254  13.089 -0.1126  0.9742 -1.1481
 4473SOL    HW225053   3.260   4.280  13.091  2.3168  2.3695  1.2760
 4474SOL     OW25054   4.492   4.599   7.805 -0.2024  1.1950  0.2505
 4474SOL    HW125055   4.427   4.564   7.865  1.7261 -1.7990  0.5948
 4474SOL    HW225056   4.541   4.656   7.864 -0.2764  1.9888 -0.4483
 4475SOL     OW25057   4.311   4.306  13.695  0.5790  0.5800 -0.0065
 4475SOL    HW125058   4.400   4.340  13.706  0.7226  0.2164 -0.0603
 4475SOL    HW225059   4.281   4.360  13.622 -0.3932  2.6003  1.8880
 4476SOL     OW25060   2.529   2.844  13.396 -0.5398  0.2952  0.7363
 4476SOL    HW125061   2.440   2.849  13.430 -0.2915  1.1738  1.2542
 4476SOL    HW225062   2.540   2.749  13.401 -3.1500 -0.0592 -0.3104
 4477SOL     OW25063   1.841   0.330   9.412  0.2661 -0.6524  0.1024
 4477SOL    HW125064   1.772   0.378   9.366  0.0154 -1.4488 -0.3598
 4477SOL    HW225065   1.904   0.313   9.341 -1.0323  2.3645 -1.7650
 4478SOL     OW25066   3.021   2.382   8.813 -0.5952 -0.1975  0.5963
 4478SOL    HW125067   2.983   2.321   8.877 -1.0456 -1.4716 -0.8858
 4478SOL    HW225068   3.110   2.349   8.814 -1.0868 -1.5310 -0.5637
 4479SOL     OW25069   1.648   1.917  11.337  0.4267  0.6443 -0.7409
 4479SOL    HW125070   1.741   1.929  11.354  0.1526  0.5584  0.8333
 4479SOL    HW225071   1.631   1.923  11.431  0.8506  1.8171 -0.7332
 4480SOL     OW25072   2.596   0.275   0.868 -0.3932  0.4564  0.0757
 4480SOL    HW125073   2.619   0.182   0.872 -0.5054  0.4094 -0.4845
 4480SOL    HW225074   2.520   0.277   0.810 -2.0334 -0.2927  2.1890
 4481SOL     OW25075   0.916   0.465   4.429 -0.1166  0.4273  0.2799
 4481SOL    HW125076   0.871   0.549   4.430 -0.3209  0.3066  0.8036
 4481SOL    HW225077   0.948   0.458   4.339 -0.2432  1.1815  0.1753
 4482SOL     OW25078   3.679   0.758   7.615  0.2704  0.2518  0.0862
 4482SOL    HW125079   3.616   0.785   7.683 -0.5186  1.0345 -0.9638
 4482SOL    HW225080   3.759   0.764   7.668 -0.1888  1.6046  0.6561
 4483SOL     OW25081   4.276   2.416   6.473 -0.2059  0.0967 -0.0669
 4483SOL    HW125082   4.311   2.352   6.411 -0.3872  0.3440 -0.4200
 4483SOL    HW225083   4.272   2.361   6.552  0.5860 -1.7329 -1.2950
 4484SOL     OW25084   1.295   3.712   0.389 -0.3536  0.0181  0.0670
 4484SOL    HW125085   1.205   3.694   0.415 -0.2347 -1.6476 -0.7362
 4484SOL    HW225086   1.297   3.654   0.314  1.1044  0.3554 -0.1674
 4485SOL     OW25087   0.039   1.053   4.899 -0.3944 -0.5279  0.3291
 4485SOL    HW125088   4.685   1.086   4.899 -0.3972 -0.4978 -1.4686
 4485SOL    HW225089   0.059   1.057   4.805 -1.1053  3.1091  0.3219
 4486SOL     OW25090   0.489   1.656   5.393 -0.2571  0.9906 -0.2890
 4486SOL    HW125091   0.515   1.565   5.407 -2.0098  0.4202 -0.6110
 4486SOL    HW225092   0.525   1.663   5.304  0.0548 -1.2022 -0.3382
 4487SOL     OW25093   4.050   1.110   4.611 -0.2409  0.1593 -1.0768
 4487SOL    HW125094   4.141   1.138   4.604 -0.0306  0.1520  1.4676
 4487SOL    HW225095   4.053   1.067   4.697 -0.5483  1.7539 -0.2572
 4488SOL     OW25096   0.230   2.672   0.761 -0.3978  0.4418 -0.4673
 4488SOL    HW125097   0.319   2.651   0.734 -0.1628  1.7348 -0.7114
 4488SOL    HW225098   0.203   2.712   0.678 -0.4353 -0.1427 -0.7356
 4489SOL     OW25099   2.992   4.559  13.899  0.5694 -0.3523  0.3534
 4489SOL    HW125100   3.069   4.559  13.842  0.5025 -0.3488  0.2641
 4489SOL    HW225101   3.044   4.563  13.980  2.8429  1.8827 -1.2302
 4490SOL     OW25102   4.075   3.294  13.339 -0.1512 -0.4345 -0.0835
 4490SOL    HW125103   4.007   3.347  13.381  0.7217  1.5017 -1.0921
 4490SOL    HW225104   4.087   3.209  13.382  1.9796 -1.0097 -1.8327
 4491SOL     OW25105   3.321   0.796   4.586  0.6043  0.2893 -0.3424
 4491SOL    HW125106   3.283   0.712   4.611 -1.6846  0.6256 -2.7319
 4491SOL    HW225107   3.264   0.822   4.514 -1.5619  2.2492  2.0402
 4492SOL     OW25108   3.105   3.604  15.910  0.2811 -0.2799  0.9062
 4492SOL    HW125109   3.129   3.632  15.998  0.2411  0.7085  0.5975
 4492SOL    HW225110   3.025   3.653  15.893  0.3758 -0.1894  0.7126
 4493SOL     OW25111   3.210   3.197   4.791 -0.4760  0.0664  0.5871
 4493SOL    HW125112   3.115   3.198   4.784 -0.3237 -1.5284 -1.7137
 4493SOL    HW225113   3.211   3.102   4.800 -0.0696  0.1223  1.1674
 4494SOL     OW25114   3.752   3.925   2.937  0.0033  0.2294 -0.3744
 4494SOL    HW125115   3.777   3.927   3.029  0.9547  0.4134 -0.6374
 4494SOL    HW225116   3.765   3.832   2.916 -1.0331  0.0565 -0.2471
 4495SOL     OW25117   4.504   0.956  11.396  0.6725 -0.2321 -0.3131
 4495SOL    HW125118   4.593   0.957  11.362  0.6086  1.7193 -0.4457
 4495SOL    HW225119   4.489   1.051  11.406  0.5032 -0.2874 -0.0496
 4496SOL     OW25120   1.454   2.097   1.063  0.7989  0.4782 -0.6439
 4496SOL    HW125121   1.524   2.109   1.127 -1.2446 -1.2136  1.8893
 4496SOL    HW225122   1.380   2.107   1.123  1.9043  0.6743  0.6676
 4497SOL     OW25123   1.616   3.862   2.517  0.0494 -0.1789 -0.4637
 4497SOL    HW125124   1.542   3.900   2.471 -0.0805 -1.1292 -1.0211
 4497SOL    HW225125   1.688   3.902   2.467 -1.0461  2.2727 -0.0644
 4498SOL     OW25126   0.237   1.228  15.442  0.6275  0.1574  0.1510
 4498SOL    HW125127   0.245   1.288  15.516  0.9417  0.6737 -0.3143
 4498SOL    HW225128   0.165   1.170  15.470  1.5693 -1.1665 -0.1458
 4499SOL     OW25129   1.818   0.234   4.985 -0.0810  0.5650  0.1254
 4499SOL    HW125130   1.883   0.247   4.916 -0.7633  0.0614 -0.6062
 4499SOL    HW225131   1.869   0.172   5.039  0.2797  1.0468  0.3354
 4500SOL     OW25132   2.062   1.268   4.191  0.3310 -0.5194  0.2929
 4500SOL    HW125133   2.099   1.182   4.210 -0.7651 -1.1231 -0.3013
 4500SOL    HW225134   2.077   1.283   4.098 -0.0552  0.4170  0.3881
 4501SOL     OW25135   1.242   3.353   7.435  0.9432 -0.5500  0.0845
 4501SOL    HW125136   1.325   3.355   7.483  0.1114  0.8376  1.4707
 4501SOL    HW225137   1.169   3.359   7.496  0.1522 -3.4310 -0.5756
 4502SOL     OW25138   2.949   1.519   2.154 -0.0726 -0.1308  0.2389
 4502SOL    HW125139   2.989   1.576   2.219  2.4727  0.0264 -1.4458
 4502SOL    HW225140   2.934   1.585   2.086  1.1125 -0.7880 -0.6564
 4503SOL     OW25141   0.858   1.435   4.795  0.3730  0.1891 -0.5489
 4503SOL    HW125142   0.775   1.482   4.800  1.6338  2.7528 -3.4169
 4503SOL    HW225143   0.905   1.485   4.861 -1.4600  0.9354  0.1805
 4504SOL     OW25144   0.451   1.701   3.972 -0.7356  0.0875 -0.0356
 4504SOL    HW125145   0.399   1.686   3.893  1.1766 -0.6221 -1.1519
 4504SOL    HW225146   0.441   1.795   3.979 -0.2567  0.1488 -0.1729
 4505SOL     OW25147   2.105   3.181   8.232  0.1771  0.4827  0.1455
 4505SOL    HW125148   2.063   3.243   8.291 -0.0186  0.0577  0.4524
 4505SOL    HW225149   2.093   3.098   8.278  0.2103 -0.1839 -1.0680
 4506SOL     OW25150   2.939   3.104   6.818 -0.5260  0.6575 -0.1443
 4506SOL    HW125151   2.907   3.181   6.865 -1.1023  1.3713 -1.6977
 4506SOL    HW225152   3.028   3.091   6.852 -0.6500 -0.3917 -0.2368
 4507SOL     OW25153   2.631   1.117   2.397  0.2310 -0.3007  0.4803
 4507SOL    HW125154   2.607   1.099   2.306  1.1944 -3.5705  0.8589
 4507SOL    HW225155   2.726   1.107   2.397  0.1479 -1.0541 -2.0690
 4508SOL     OW25156   0.303   0.760  15.686  0.0729  0.3849 -0.2649
 4508SOL    HW125157   0.217   0.752  15.727 -0.2568  1.5205 -0.7354
 4508SOL    HW225158   0.296   0.853  15.663 -0.7005  0.2158 -0.7056
 4509SOL     OW25159   2.512   0.795  10.072  0.1498  0.7907  0.2345
 4509SOL    HW125160   2.443   0.851  10.037 -0.7944 -0.8768 -0.6276
 4509SOL    HW225161   2.562   0.769   9.994  1.0668 -1.7771  1.6849
 4510SOL     OW25162   3.725   2.561   7.153  0.2601 -0.5394 -0.0395
 4510SOL    HW125163   3.793   2.603   7.101 -0.2284 -0.3958 -0.5596
 4510SOL    HW225164   3.776   2.503   7.210  2.4443 -0.2208 -1.6903
 4511SOL     OW25165   2.511   0.241   6.923  0.0631 -0.0293 -0.0907
 4511SOL    HW125166   2.482   0.237   6.831 -2.6425 -0.1516  0.7607
 4511SOL    HW225167   2.453   0.312   6.949 -2.3419 -2.5533  1.3917
 4512SOL     OW25168   2.662   0.458   7.092 -0.5581  0.1541 -0.3437
 4512SOL    HW125169   2.646   0.550   7.116  0.1142 -0.2741  1.6955
 4512SOL    HW225170   2.657   0.482   6.999  1.1401  1.0974 -0.2014
 4513SOL     OW25171   1.070   4.484   2.342  0.6003  0.2314 -0.0658
 4513SOL    HW125172   1.150   4.433   2.328 -0.2543 -1.2355  0.3082
 4513SOL    HW225173   1.070   4.536   2.262  1.6706  1.1435  0.5320
 4514SOL     OW25174   4.585   4.348   2.451 -0.0591 -0.0026  0.0658
 4514SOL    HW125175   4.647   4.418   2.470  1.8064 -1.9801  1.1654
 4514SOL    HW225176   4.508   4.363   2.506 -1.8464 -2.4007 -1.7366
 4515SOL     OW25177   2.996   3.895  14.033 -0.0990 -0.5320 -0.0451
 4515SOL    HW125178   3.064   3.956  14.008 -0.0306 -0.0120  1.4330
 4515SOL    HW225179   2.921   3.953  14.047  0.2602  0.6345 -3.1075
 4516SOL     OW25180   0.087   3.510   0.725  0.1973  0.2559 -0.5270
 4516SOL    HW125181   0.031   3.567   0.778 -1.6548  0.5875 -2.8358
 4516SOL    HW225182   0.173   3.529   0.764 -0.1735 -0.3106  0.5747
 4517SOL     OW25183   0.259   2.726  17.457  0.3138 -0.1521  0.2948
 4517SOL    HW125184   0.225   2.638  17.440  0.2211  0.7375 -3.9488
 4517SOL    HW225185   0.342   2.702  17.498  0.4208 -0.7311 -0.2597
 4518SOL     OW25186   0.297   4.539   2.695  0.0952 -0.2353  0.1238
 4518SOL    HW125187   0.391   4.539   2.676 -0.1065 -3.6366 -0.7849
 4518SOL    HW225188   0.309   4.626   2.733  1.7360 -0.2319 -0.3758
 4519SOL     OW25189   3.545   2.149  12.921  0.1173  0.5106 -0.5641
 4519SOL    HW125190   3.553   2.054  12.906  0.1163  0.5427 -0.7778
 4519SOL    HW225191   3.474   2.177  12.862  0.2371  1.3145 -0.3178
 4520SOL     OW25192   0.138   3.983   3.925  0.8513 -0.0261 -0.2259
 4520SOL    HW125193   0.161   3.954   3.837  2.8200  0.1211  0.2506
 4520SOL    HW225194   0.045   3.984   3.903  0.4805  0.0372  1.3672
 4521SOL     OW25195   0.899   1.093   5.686 -0.1165  0.4908  0.1726
 4521SOL    HW125196   0.896   1.170   5.743 -0.7681  1.4149 -1.0957
 4521SOL    HW225197   0.994   1.087   5.679 -0.1338  1.6868 -1.0197
 4522SOL     OW25198   0.781   4.572  12.015 -0.0706  0.3397 -0.3277
 4522SOL    HW125199   0.758   4.637  11.949  1.2636  1.5499  0.3834
 4522SOL    HW225200   0.766   4.499  11.955 -1.1033  0.1941  0.1100
 4523SOL     OW25201   1.652   2.057   4.372 -0.5312  0.3208 -0.4292
 4523SOL    HW125202   1.637   1.968   4.403  1.2295  0.4470  0.7891
 4523SOL    HW225203   1.652   2.051   4.276  0.5763 -1.5974 -0.3013
 4524SOL     OW25204   0.763   3.062  16.708 -0.6519 -0.3613  0.3187
 4524SOL    HW125205   0.739   2.970  16.694 -3.9393  0.3890  1.1178
 4524SOL    HW225206   0.681   3.106  16.687  0.2982  1.4196  0.3361
 4525SOL     OW25207   1.699   4.285  14.517  0.4786 -0.4740 -0.2161
 4525SOL    HW125208   1.733   4.295  14.428 -0.3350 -1.6963 -0.6594
 4525SOL    HW225209   1.701   4.375  14.549  0.8085  0.6725 -3.4389
 4526SOL     OW25210   0.726   1.979   4.686 -0.4773  0.0359 -1.0081
 4526SOL    HW125211   0.785   2.027   4.627  1.1956  0.9994  1.4727
 4526SOL    HW225212   0.647   2.016   4.646 -0.7948  1.0155  0.5376
 4527SOL     OW25213   4.351   4.107   1.312 -0.0957  0.3527  0.1425
 4527SOL    HW125214   4.369   4.196   1.281 -0.3490  0.5329  0.5137
 4527SOL    HW225215   4.264   4.088   1.278  1.4959 -1.1391 -3.1122
 4528SOL     OW25216   2.554   0.067   6.676 -0.3188 -0.2046 -0.8708
 4528SOL    HW125217   2.481   0.012   6.650 -2.0929  2.6487 -1.8883
 4528SOL    HW225218   2.608   0.010   6.732 -0.4135  0.8133  0.2526
 4529SOL     OW25219   4.729   1.940  11.672  0.4711  0.0700  0.8209
 4529SOL    HW125220   4.663   1.929  11.604 -1.4499  2.8035  2.2507
 4529SOL    HW225221   0.066   1.952  11.611  0.2643 -0.9695  0.3789
 4530SOL     OW25222   1.581   0.644  10.281  1.0265  0.0224 -0.2938
 4530SOL    HW125223   1.567   0.716  10.342 -0.2869  0.4381 -1.0980
 4530SOL    HW225224   1.569   0.578  10.349 -0.2713 -1.0114 -1.5471
 4531SOL     OW25225   4.421   0.250  12.143  0.4855 -0.7046 -0.0849
 4531SOL    HW125226   4.486   0.181  12.158 -0.0912 -0.8151  1.9362
 4531SOL    HW225227   4.446   0.314  12.211  0.6739  1.7291 -2.4521
 4532SOL     OW25228   4.491   4.211   5.852  0.2738 -0.6168  0.1334
 4532SOL    HW125229   4.545   4.167   5.787 -0.0949 -0.8847  0.0097
 4532SOL    HW225230   4.421   4.249   5.799 -1.2712 -0.4558  2.2804
 4533SOL     OW25231   3.059   2.142   6.086  0.1087 -1.0995  0.0425
 4533SOL    HW125232   3.069   2.169   6.177 -0.4472 -1.1276  0.1112
 4533SOL    HW225233   3.104   2.213   6.040  0.1853 -1.1355  0.0617
 4534SOL     OW25234   1.686   2.216  11.271  0.4975 -0.6464  0.4082
 4534SOL    HW125235   1.713   2.132  11.308 -0.2423 -0.4711  1.3572
 4534SOL    HW225236   1.765   2.265  11.247  0.3503 -1.4160 -1.6197
 4535SOL     OW25237   0.225   1.159   6.145  0.4012  1.3169 -0.1680
 4535SOL    HW125238   0.280   1.186   6.071  0.4437 -0.7315 -0.8810
 4535SOL    HW225239   0.292   1.175   6.212  1.2283 -1.5071 -0.3231
 4536SOL     OW25240   2.285   0.841   6.784 -0.6071  0.3577 -0.0170
 4536SOL    HW125241   2.268   0.749   6.763  0.2888 -0.0879  1.1888
 4536SOL    HW225242   2.205   0.881   6.820  0.5854  3.2282 -0.6076
 4537SOL     OW25243   0.094   0.033  15.221  0.2656  0.0800  0.1881
 4537SOL    HW125244   0.114   4.695  15.279 -1.3983 -1.3219 -1.0111
 4537SOL    HW225245   0.175   0.033  15.169  0.0870 -0.6187 -0.0976
 4538SOL     OW25246   0.016   4.588   1.080 -0.6849  0.0334  0.1182
 4538SOL    HW125247   0.027   4.549   0.994 -2.7153  1.4122 -0.7725
 4538SOL    HW225248   4.670   4.639   1.081 -0.7590 -0.1019  1.1605
 4539SOL     OW25249   4.015   0.630  11.971 -0.6749 -0.1426 -0.4222
 4539SOL    HW125250   4.089   0.572  11.955  0.0771  0.7269 -0.0299
 4539SOL    HW225251   4.014   0.653  12.063 -0.6002 -1.1806 -0.1556
 4540SOL     OW25252   4.520   4.445  15.516  0.5334  0.1121  0.3548
 4540SOL    HW125253   4.585   4.378  15.496 -1.6163 -1.5538 -0.9691
 4540SOL    HW225254   4.454   4.393  15.562  0.4427 -0.4984 -0.4509
 4541SOL     OW25255   0.796   4.626   4.831  0.4426  0.0271  0.0198
 4541SOL    HW125256   0.804   4.721   4.819 -1.0709  0.1448 -0.0465
 4541SOL    HW225257   0.723   4.620   4.892  2.2719 -0.1497  2.1769
 4542SOL     OW25258   0.846   3.484   6.310 -0.4087 -0.0911 -0.2344
 4542SOL    HW125259   0.931   3.475   6.268  0.1788 -0.9244  1.1205
 4542SOL    HW225260   0.826   3.577   6.300  0.3576  0.0950  0.0169
 4543SOL     OW25261   0.598   0.158  15.091  0.0624  0.4808  0.6573
 4543SOL    HW125262   0.566   0.200  15.011  0.8293  0.2357  0.2151
 4543SOL    HW225263   0.577   0.067  15.068 -2.1439  0.5360  2.5538
 4544SOL     OW25264   3.398   0.510   1.278  0.0620  0.0629  0.2081
 4544SOL    HW125265   3.330   0.577   1.278 -0.7020 -0.7140  1.1544
 4544SOL    HW225266   3.440   0.521   1.192  1.2419 -1.5925  0.5926
 4545SOL     OW25267   3.515   0.908   7.782  0.3943  0.5572  0.1515
 4545SOL    HW125268   3.444   0.911   7.719 -0.5317 -0.9860  1.1213
 4545SOL    HW225269   3.555   0.994   7.766  2.2126 -0.3152  0.0059
 4546SOL     OW25270   3.414   2.160   4.528  0.9104 -0.0221 -0.6112
 4546SOL    HW125271   3.359   2.186   4.454  1.9164  1.5478 -0.8148
 4546SOL    HW225272   3.351   2.113   4.583  0.2151  0.9409 -0.5813
 4547SOL     OW25273   0.026   4.037   3.050  0.2618 -0.0720 -0.3514
 4547SOL    HW125274   4.729   3.952   3.021 -2.2704  0.8603 -0.1564
 4547SOL    HW225275   0.034   4.092   2.972  0.5714  0.4004  0.0103
 4548SOL     OW25276   1.889   2.290   2.454 -0.3036 -0.3993  0.4524
 4548SOL    HW125277   1.944   2.215   2.432 -1.9423 -1.4913  0.1560
 4548SOL    HW225278   1.956   2.355   2.432 -0.7519  0.4742  1.6470
 4549SOL     OW25279   4.174   0.349   4.467  0.5269  0.2831 -0.1914
 4549SOL    HW125280   4.176   0.441   4.444 -0.4766  0.1396 -0.8392
 4549SOL    HW225281   4.255   0.344   4.518 -0.8125  3.3710  2.1658
 4550SOL     OW25282   2.360   1.933   3.705  0.2585  0.1605  0.1748
 4550SOL    HW125283   2.301   1.979   3.764  0.6266 -0.3167  0.9079
 4550SOL    HW225284   2.334   1.982   3.627 -2.0236 -0.0523  0.8100
 4551SOL     OW25285   2.379   3.300   8.281  0.7110  0.7424  0.0684
 4551SOL    HW125286   2.431   3.220   8.268 -0.7146 -0.3831  1.3969
 4551SOL    HW225287   2.294   3.258   8.266  0.7650  0.9603 -0.8736
 4552SOL     OW25288   2.958   4.121   7.450  0.5792  0.8123  0.2789
 4552SOL    HW125289   2.980   4.174   7.374  0.6245  0.6813  0.2009
 4552SOL    HW225290   2.997   4.169   7.523  2.1418 -0.7151  0.4636
 4553SOL     OW25291   1.818   3.932   5.470  0.7889 -0.4771 -0.4036
 4553SOL    HW125292   1.785   3.924   5.560 -1.1452  0.6569 -1.0119
 4553SOL    HW225293   1.896   3.983   5.492 -0.4363  0.2024  2.2815
 4554SOL     OW25294   3.499   4.158   1.030  0.2707  0.2220  0.1361
 4554SOL    HW125295   3.558   4.226   0.996 -1.7402  1.2296 -1.3879
 4554SOL    HW225296   3.550   4.083   1.001 -0.1330 -0.2973  0.7845
 4555SOL     OW25297   2.606   1.368   5.409 -0.2256  0.1847 -0.0676
 4555SOL    HW125298   2.605   1.370   5.314  2.6449 -0.3331 -0.0815
 4555SOL    HW225299   2.628   1.276   5.423 -2.5508 -0.3790 -0.0091
 4556SOL     OW25300   2.189   4.324   1.780  0.0982  0.2847  0.2417
 4556SOL    HW125301   2.198   4.257   1.848 -0.3465  0.1686  0.1868
 4556SOL    HW225302   2.173   4.396   1.841 -1.2821  0.9392 -0.8798
 4557SOL     OW25303   4.583   3.822   8.617  0.2635 -0.4595  0.6220
 4557SOL    HW125304   4.545   3.893   8.565  0.4120 -0.0379  1.0879
 4557SOL    HW225305   4.581   3.863   8.704 -2.1889 -2.0706  1.3150
 4558SOL     OW25306   4.304   1.161   3.260 -0.0783  0.2217  0.9222
 4558SOL    HW125307   4.279   1.243   3.217 -0.4795  0.0481  0.8265
 4558SOL    HW225308   4.224   1.126   3.299  0.0724 -1.6508 -0.4894
 4559SOL     OW25309   3.452   2.657  17.054 -0.4439 -0.5216  0.6800
 4559SOL    HW125310   3.411   2.674  16.968  0.0711  2.6301  1.0334
 4559SOL    HW225311   3.541   2.686  17.035 -0.9097  1.2266  1.0690
 4560SOL     OW25312   3.110   0.875   5.712  0.3604 -0.0982 -0.7524
 4560SOL    HW125313   3.126   0.955   5.762 -0.7011 -0.8172  0.7424
 4560SOL    HW225314   3.167   0.811   5.757 -1.3487  0.9362  2.9025
 4561SOL     OW25315   1.446   3.409   5.363 -0.0230 -0.6572 -0.4855
 4561SOL    HW125316   1.535   3.445   5.360  0.0903 -0.8295  0.7730
 4561SOL    HW225317   1.406   3.437   5.280 -0.1938 -2.5580 -1.0500
 4562SOL     OW25318   0.998   3.120   4.798  0.3745 -0.0905 -0.0386
 4562SOL    HW125319   1.079   3.121   4.849  0.8882 -0.9996 -0.8259
 4562SOL    HW225320   0.959   3.043   4.840 -0.5283 -0.0675 -0.8353
 4563SOL     OW25321   3.075   4.249  17.028  0.2687  0.7375  0.0526
 4563SOL    HW125322   3.117   4.335  17.025 -0.8787  1.3594  1.6809
 4563SOL    HW225323   3.090   4.222  17.118  1.4795 -1.6212 -0.8555
 4564SOL     OW25324   0.076   4.130   2.202 -0.3596  0.4579 -0.3184
 4564SOL    HW125325   0.033   4.071   2.140 -0.2415 -1.2944  1.2453
 4564SOL    HW225326   0.081   4.215   2.159 -0.8209 -0.4251 -2.1025
 4565SOL     OW25327   0.170   2.419  17.313  0.2282 -0.1321  0.1691
 4565SOL    HW125328   0.217   2.351  17.363 -0.7682  1.1604  2.8368
 4565SOL    HW225329   0.252   2.438  17.267  0.8231  0.6779  1.5532
 4566SOL     OW25330   1.864   3.961   6.022 -0.1911 -0.0507 -0.0671
 4566SOL    HW125331   1.858   4.048   6.062 -0.6039 -0.3185  0.4476
 4566SOL    HW225332   1.938   3.983   5.964 -2.1521  0.1464 -2.4908
 4567SOL     OW25333   2.293   3.858   5.146  0.3150  0.7813 -0.3921
 4567SOL    HW125334   2.229   3.884   5.080  0.0246  1.6924  0.2559
 4567SOL    HW225335   2.288   3.934   5.204  0.2094  1.1270 -0.8605
 4568SOL     OW25336   4.288   4.221   4.602  0.6888 -0.4302  0.1994
 4568SOL    HW125337   4.359   4.285   4.595 -2.1907  2.8944  1.3780
 4568SOL    HW225338   4.228   4.256   4.536  0.9121 -0.8421 -0.2240
 4569SOL     OW25339   0.623   2.391   2.240  0.6324 -0.1421  0.4965
 4569SOL    HW125340   0.669   2.451   2.299  0.8730 -0.6976  0.8698
 4569SOL    HW225341   0.643   2.307   2.281  0.3289 -0.9317 -0.9903
 4570SOL     OW25342   0.906   4.598   3.079  0.3167  0.5470  0.1239
 4570SOL    HW125343   0.846   4.670   3.062 -2.3674 -1.3187  1.6564
 4570SOL    HW225344   0.857   4.527   3.037  0.9978  0.2686 -0.2119
 4571SOL     OW25345   0.093   1.910  10.679  0.5840 -0.0601  0.1949
 4571SOL    HW125346   0.099   2.003  10.661  1.3903 -0.4853 -1.7401
 4571SOL    HW225347   0.163   1.874  10.624 -0.2308 -0.0835 -0.8394
 4572SOL     OW25348   1.709   4.271   5.876 -0.7285  0.2758 -0.4989
 4572SOL    HW125349   1.654   4.196   5.853  1.1589 -1.5150  0.8340
 4572SOL    HW225350   1.637   4.333   5.880 -1.9115 -1.0872 -0.6767
 4573SOL     OW25351   4.357   0.391   2.675  0.3716 -0.2229  0.0661
 4573SOL    HW125352   4.359   0.394   2.771 -1.9489 -1.9266  0.1864
 4573SOL    HW225353   4.416   0.320   2.650 -1.0317 -2.0042  1.7863
 4574SOL     OW25354   1.006   1.587   6.850  0.5911  0.1202 -0.6406
 4574SOL    HW125355   1.092   1.626   6.866  1.2077 -2.0096  1.2014
 4574SOL    HW225356   1.018   1.501   6.890  0.1931  0.4437  0.1725
 4575SOL     OW25357   1.917   4.197   8.197  0.4355 -0.0139 -0.0334
 4575SOL    HW125358   1.972   4.234   8.127 -0.5184 -1.2858 -1.4678
 4575SOL    HW225359   1.889   4.116   8.154 -2.8884 -0.0951  2.2841
 4576SOL     OW25360   1.415   0.882   0.233 -0.6320 -0.3143 -0.2894
 4576SOL    HW125361   1.403   0.825   0.309  0.1530  1.6885  1.3378
 4576SOL    HW225362   1.403   0.963   0.283 -0.4949  0.2722 -1.2183
 4577SOL     OW25363   1.461   0.894   7.680  0.0028  0.3871 -0.4729
 4577SOL    HW125364   1.515   0.971   7.661 -0.1151  0.2106 -1.5512
 4577SOL    HW225365   1.505   0.875   7.763  0.7746  2.7886 -0.3398
 4578SOL     OW25366   4.648   3.983   3.781 -0.7972  0.0928  0.1436
 4578SOL    HW125367   4.647   4.074   3.751 -2.4406 -0.1596 -0.5902
 4578SOL    HW225368   4.612   3.935   3.705 -2.4632  0.3661  0.7637
 4579SOL     OW25369   2.050   2.060  14.487  0.3943 -0.3094 -0.3965
 4579SOL    HW125370   2.079   1.975  14.453 -0.2365 -0.2879 -0.9854
 4579SOL    HW225371   2.058   2.046  14.582 -3.0582  0.3504 -0.0123
 4580SOL     OW25372   1.992   0.933   8.164 -0.7557 -0.0026 -0.1119
 4580SOL    HW125373   2.013   0.874   8.237 -1.0159 -1.7873 -1.4891
 4580SOL    HW225374   2.028   0.874   8.098  1.3419  0.1527  0.9039
 4581SOL     OW25375   3.550   2.948   6.378  0.0649  0.0965  0.2596
 4581SOL    HW125376   3.560   2.889   6.452 -0.8739 -1.0080 -0.4957
 4581SOL    HW225377   3.626   2.921   6.327  1.1351 -1.0711  2.4661
 4582SOL     OW25378   1.949   4.495  12.144 -0.1833  0.5855  0.0554
 4582SOL    HW125379   1.906   4.423  12.190  2.8886 -0.6663  1.0068
 4582SOL    HW225380   1.878   4.531  12.092 -0.6258  1.0981  1.0140
 4583SOL     OW25381   0.123   1.369  14.999  0.0713 -0.2920  0.0150
 4583SOL    HW125382   0.195   1.429  15.017 -0.6003  1.1215 -2.0484
 4583SOL    HW225383   0.137   1.288  15.049  1.1790  0.0808  0.3087
 4584SOL     OW25384   4.078   4.249   6.792  0.3134  0.2944  0.3241
 4584SOL    HW125385   4.114   4.180   6.847 -0.5106  0.5943  1.2341
 4584SOL    HW225386   4.005   4.282   6.845 -0.0487  0.3544 -0.2154
 4585SOL     OW25387   1.314   3.132  13.816  0.5456  0.4258  0.1853
 4585SOL    HW125388   1.291   3.063  13.754  1.8247 -0.4514  0.7091
 4585SOL    HW225389   1.365   3.190  13.758  1.7368  1.1218  1.9274
 4586SOL     OW25390   1.274   0.258   3.999 -0.9313 -0.4238 -0.1976
 4586SOL    HW125391   1.205   0.247   4.065 -0.5606 -0.0392  0.2524
 4586SOL    HW225392   1.340   0.197   4.035 -0.1215  0.6342  0.1037
 4587SOL     OW25393   1.869   3.342  11.616 -0.0033 -0.1260 -0.0082
 4587SOL    HW125394   1.880   3.307  11.705  0.1687 -1.2204 -0.4612
 4587SOL    HW225395   1.956   3.381  11.602 -0.6506  1.4556  0.3879
 4588SOL     OW25396   4.290   3.963   5.464  0.1443 -0.0452 -0.4561
 4588SOL    HW125397   4.308   3.871   5.484 -1.8101 -0.1934  0.5999
 4588SOL    HW225398   4.370   3.988   5.417 -1.4059  0.8691 -2.5844
 4589SOL     OW25399   1.958   1.632   0.935 -0.5864 -0.1799 -0.1360
 4589SOL    HW125400   1.930   1.574   0.865 -0.4057 -0.8198  0.3180
 4589SOL    HW225401   2.038   1.659   0.891  0.1940  1.0043  1.9896
 4590SOL     OW25402   1.003   3.612  15.487 -0.2604  0.0835  0.2125
 4590SOL    HW125403   0.933   3.546  15.483 -1.5958  1.4592  0.9725
 4590SOL    HW225404   1.060   3.604  15.411 -1.5824  1.2005 -0.8956
 4591SOL     OW25405   0.622   0.804  13.935 -0.0176  0.1354 -0.3363
 4591SOL    HW125406   0.565   0.741  13.892 -0.7085 -0.1553  1.0066
 4591SOL    HW225407   0.708   0.771  13.911  0.2868 -0.0370  0.9904
 4592SOL     OW25408   0.035   2.447   5.332  0.5712  0.1289 -0.1647
 4592SOL    HW125409   0.001   2.371   5.379  1.5765 -1.0390 -1.3116
 4592SOL    HW225410   4.727   2.519   5.377  1.1534  0.7072 -0.5277
 4593SOL     OW25411   1.761   2.315   8.742 -0.4332 -0.0998  0.4073
 4593SOL    HW125412   1.843   2.311   8.694 -0.5696  0.4962  0.1274
 4593SOL    HW225413   1.772   2.232   8.788 -2.0287  0.9921  2.7731
 4594SOL     OW25414   0.423   2.959  10.194 -0.6360 -0.4733 -0.0034
 4594SOL    HW125415   0.511   2.995  10.198 -0.3437 -1.5851  3.4291
 4594SOL    HW225416   0.392   2.957  10.285 -0.5208 -1.2042  0.0205
 4595SOL     OW25417   3.574   4.528  12.819  0.5354 -0.0181  0.3670
 4595SOL    HW125418   3.534   4.614  12.810 -0.1281 -0.1761  1.8484
 4595SOL    HW225419   3.548   4.514  12.910  0.9683  0.4173  0.5617
 4596SOL     OW25420   3.670   3.731  10.477 -0.2505 -0.0985  0.0796
 4596SOL    HW125421   3.737   3.775  10.529 -0.7391  1.3420 -0.4876
 4596SOL    HW225422   3.615   3.804  10.449 -0.5615 -0.0957  0.7105
 4597SOL     OW25423   1.311   0.737   0.679 -0.1743  0.3921  0.3540
 4597SOL    HW125424   1.344   0.745   0.589  0.9106  1.9940  0.8960
 4597SOL    HW225425   1.300   0.642   0.692  1.0643  0.0566 -0.9928
 4598SOL     OW25426   3.164   1.097   2.395  0.2640  0.4650 -0.1833
 4598SOL    HW125427   3.091   1.036   2.385 -1.1373  2.0436  0.3376
 4598SOL    HW225428   3.143   1.161   2.327 -4.2903  0.5618  1.2879
 4599SOL     OW25429   1.718   3.016   2.458 -0.1454  0.4454 -0.0510
 4599SOL    HW125430   1.746   3.079   2.391 -0.1125  0.1404 -0.3218
 4599SOL    HW225431   1.758   3.045   2.540  2.3562  0.3005 -1.2319
 4600SOL     OW25432   1.678   1.124   7.216 -0.2506  0.2009 -0.2043
 4600SOL    HW125433   1.760   1.160   7.183 -0.7105  0.4124 -1.1270
 4600SOL    HW225434   1.623   1.200   7.233  0.1858  0.6042 -0.5836
 4601SOL     OW25435   0.818   2.168   7.370  0.2600  0.2408  0.1259
 4601SOL    HW125436   0.853   2.244   7.325 -1.5359  0.7363 -0.4380
 4601SOL    HW225437   0.890   2.155   7.432  0.3030  1.7917  0.3967
 4602SOL     OW25438   1.346   3.137   3.422 -0.0994  0.6248  0.0075
 4602SOL    HW125439   1.266   3.159   3.468 -0.3903  2.3859 -1.3492
 4602SOL    HW225440   1.356   3.042   3.427 -2.1474  0.4812  1.0585
 4603SOL     OW25441   2.204   0.001   6.521 -0.2623  0.2405 -0.4919
 4603SOL    HW125442   2.128   0.001   6.580  0.0821 -1.7129 -0.0616
 4603SOL    HW225443   2.279   4.724   6.579 -2.5351  1.2071  2.6896
 4604SOL     OW25444   0.899   3.102   5.476 -0.0447  0.3352 -0.3720
 4604SOL    HW125445   0.976   3.048   5.492  1.8118  2.6202 -1.7607
 4604SOL    HW225446   0.934   3.190   5.467  0.2016  0.0190 -2.3961
 4605SOL     OW25447   0.174   2.805  11.486 -0.8570  0.1918  0.0674
 4605SOL    HW125448   0.119   2.870  11.530 -0.6383  0.7295 -0.4428
 4605SOL    HW225449   0.157   2.721  11.529  2.0398 -0.0460  0.7338
 4606SOL     OW25450   1.361   4.364   2.293 -0.1172 -0.1340  0.4902
 4606SOL    HW125451   1.376   4.446   2.246  2.4401  0.2011  1.8910
 4606SOL    HW225452   1.320   4.319   2.219  0.2726  0.6993 -0.2447
 4607SOL     OW25453   2.801   1.535  13.278  0.1162  0.1377  0.0551
 4607SOL    HW125454   2.750   1.489  13.345 -1.9820  0.2914 -1.4267
 4607SOL    HW225455   2.738   1.605  13.257 -0.8194 -1.1766 -1.5093
 4608SOL     OW25456   4.133   2.522  16.004  0.5847  0.4685 -0.0171
 4608SOL    HW125457   4.120   2.588  15.935  1.8332  0.8993  0.1552
 4608SOL    HW225458   4.053   2.519  16.056 -0.2603 -1.5433 -1.4043
 4609SOL     OW25459   2.499   3.513   7.600  0.7917  0.4464 -0.0089
 4609SOL    HW125460   2.404   3.518   7.610  1.0630  0.3019  2.7331
 4609SOL    HW225461   2.502   3.600   7.561  0.3892 -0.4012 -1.9394
 4610SOL     OW25462   4.087   3.567   7.144  0.1726 -0.2528 -0.8317
 4610SOL    HW125463   4.022   3.502   7.118 -0.2664 -0.2396  0.2127
 4610SOL    HW225464   4.155   3.507   7.175 -1.1242 -0.6821  1.1771
 4611SOL     OW25465   2.351   4.207   5.988  0.6005 -0.0728 -0.3058
 4611SOL    HW125466   2.400   4.146   5.933  0.5815 -0.1619 -0.2232
 4611SOL    HW225467   2.422   4.244   6.042 -0.7750  1.3545  0.5322
 4612SOL     OW25468   0.366   2.989   1.855 -0.0123  0.0198 -0.1474
 4612SOL    HW125469   0.318   2.913   1.823  0.9908  0.7216 -3.3442
 4612SOL    HW225470   0.304   3.061   1.839  0.8184  0.4113 -1.6742
 4613SOL     OW25471   2.746   2.230  11.370 -0.5837 -0.2077  0.1690
 4613SOL    HW125472   2.680   2.298  11.380 -0.4268  0.3874 -2.6426
 4613SOL    HW225473   2.828   2.279  11.372 -0.6719 -0.1049  1.1355
 4614SOL     OW25474   1.870   4.246   6.106  0.1171 -0.7353  0.2535
 4614SOL    HW125475   1.811   4.287   6.169 -0.0653 -0.9866  0.2430
 4614SOL    HW225476   1.818   4.251   6.026  0.2871 -0.8719  0.1350
 4615SOL     OW25477   1.409   0.282   8.827 -0.3556 -0.2526  0.3721
 4615SOL    HW125478   1.334   0.225   8.846 -0.3824 -0.9878 -1.8894
 4615SOL    HW225479   1.373   0.342   8.761  0.7816  0.7525  0.6654
 4616SOL     OW25480   2.170   3.485   4.838  0.2406  0.4652 -0.0096
 4616SOL    HW125481   2.258   3.451   4.826 -0.7223 -1.5034 -1.5529
 4616SOL    HW225482   2.124   3.417   4.787  1.1969 -0.2545  0.0954
 4617SOL     OW25483   4.420   0.868  13.266  0.5888 -0.3049  0.4823
 4617SOL    HW125484   4.484   0.858  13.196  0.1877 -1.6198  0.3091
 4617SOL    HW225485   4.436   0.783  13.307  0.0876 -1.2433 -1.2675
 4618SOL     OW25486   1.217   4.481  12.131  0.1652  0.1094 -0.4861
 4618SOL    HW125487   1.216   4.430  12.212  2.3980 -0.5008 -0.8157
 4618SOL    HW225488   1.131   4.521  12.138 -1.1525 -2.6253 -1.2217
 4619SOL     OW25489   3.306   0.594   7.367  0.1342  0.2801 -0.6841
 4619SOL    HW125490   3.338   0.661   7.427  0.6150 -0.6105  0.0528
 4619SOL    HW225491   3.371   0.527   7.389 -1.4098 -1.2292 -0.7984
 4620SOL     OW25492   0.291   2.704   8.290  0.0507 -0.1047 -0.0483
 4620SOL    HW125493   0.349   2.694   8.214 -0.7127  1.9803 -0.8973
 4620SOL    HW225494   0.206   2.721   8.251  0.1236 -1.9661 -0.9965
 4621SOL     OW25495   4.162   2.889   0.265  0.3507 -0.4488 -0.2258
 4621SOL    HW125496   4.252   2.919   0.258  0.2479 -0.3703 -1.1830
 4621SOL    HW225497   4.136   2.951   0.333  0.6516 -1.3522  0.7111
 4622SOL     OW25498   1.287   2.274   5.048 -0.1399 -0.4890  0.2081
 4622SOL    HW125499   1.268   2.189   5.088 -0.8344  0.7460  2.4935
 4622SOL    HW225500   1.303   2.249   4.957  1.5390  0.0533  0.3621
 4623SOL     OW25501   4.324   4.427  15.842  0.2059  0.2029  0.1319
 4623SOL    HW125502   4.234   4.459  15.851 -0.6165 -1.6950 -1.4375
 4623SOL    HW225503   4.323   4.355  15.780  0.2861 -1.0634  1.5945
 4624SOL     OW25504   0.029   3.051   0.561  0.4942  0.0487 -0.1918
 4624SOL    HW125505   4.671   3.031   0.563  0.3836  0.6725  1.3169
 4624SOL    HW225506   0.032   3.144   0.538 -0.7810 -0.3483 -2.0084
 4625SOL     OW25507   0.015   0.430   9.141 -0.4706 -0.1395 -0.0302
 4625SOL    HW125508   4.658   0.412   9.152 -1.1544  1.0251 -3.7219
 4625SOL    HW225509   0.052   0.344   9.160  3.0504  1.4263  0.2134
 4626SOL     OW25510   2.861   0.815   9.044 -0.0140 -0.4043  0.0803
 4626SOL    HW125511   2.770   0.810   9.074  0.4836  0.6356  1.7402
 4626SOL    HW225512   2.870   0.737   8.989 -0.3517 -0.3606 -0.0427
 4627SOL     OW25513   1.687   0.672   1.976  0.3632  0.0276  0.4311
 4627SOL    HW125514   1.634   0.751   1.981 -0.1501 -0.3645  1.2883
 4627SOL    HW225515   1.698   0.683   1.881 -4.4200  3.4945  0.2413
 4628SOL     OW25516   2.176   1.578   9.232  0.4809 -0.6604 -0.4219
 4628SOL    HW125517   2.080   1.584   9.239  0.5012 -1.2251  0.3019
 4628SOL    HW225518   2.200   1.561   9.323 -2.7996 -2.9173  0.0198
 4629SOL     OW25519   4.523   1.042   4.776 -0.0619  0.2394  0.1972
 4629SOL    HW125520   4.472   1.001   4.846  1.8052  0.5020  1.6920
 4629SOL    HW225521   4.444   1.065   4.726  0.3798  1.5696  0.1200
 4630SOL     OW25522   0.569   3.299   8.817  0.3099  0.3482 -0.2370
 4630SOL    HW125523   0.656   3.333   8.838 -0.2196  0.1368  2.2970
 4630SOL    HW225524   0.545   3.255   8.899 -0.0577 -0.1229 -0.6005
 4631SOL     OW25525   3.187   3.964  11.078 -0.4413  1.1807  0.3086
 4631SOL    HW125526   3.282   3.973  11.086 -0.6287  2.1406  1.6106
 4631SOL    HW225527   3.198   3.878  11.039  0.5342 -0.3249  3.8542
 4632SOL     OW25528   3.979   3.086   6.128  0.1167  0.1293  0.4877
 4632SOL    HW125529   4.014   3.175   6.134  1.9439 -0.7312  2.2772
 4632SOL    HW225530   3.921   3.118   6.059 -0.1045  0.2105  0.7117
 4633SOL     OW25531   1.095   2.769   2.430  0.3686 -0.0339 -0.6622
 4633SOL    HW125532   1.006   2.790   2.458 -0.3247 -2.9899 -0.7488
 4633SOL    HW225533   1.098   2.674   2.424 -1.2270 -0.1688  0.9229
 4634SOL     OW25534   1.764   0.977   8.919 -0.2853  0.1827 -0.6467
 4634SOL    HW125535   1.698   0.932   8.971  0.7265  2.1227  2.2751
 4634SOL    HW225536   1.772   0.931   8.835 -1.8613 -2.4907  0.6630
 4635SOL     OW25537   1.823   0.886   5.757  0.1467  0.4016 -0.1630
 4635SOL    HW125538   1.906   0.923   5.728 -0.4971  0.9199 -1.3240
 4635SOL    HW225539   1.840   0.796   5.729 -0.3704  0.5361 -0.9157
 4636SOL     OW25540   3.262   1.257   6.693 -0.0759 -0.1502  0.1171
 4636SOL    HW125541   3.333   1.288   6.636 -0.8831  1.3660 -0.0658
 4636SOL    HW225542   3.311   1.199   6.751 -0.8407  0.9074  1.8092
 4637SOL     OW25543   4.213   2.764   2.707  0.5742  0.5500 -0.1893
 4637SOL    HW125544   4.152   2.831   2.739 -1.3466 -1.0039 -0.5862
 4637SOL    HW225545   4.275   2.756   2.779  0.1067  0.2970  0.1897
 4638SOL     OW25546   3.876   2.665  11.945  0.1727  0.7132  0.1230
 4638SOL    HW125547   3.795   2.615  11.943 -0.2789  1.5001 -1.0167
 4638SOL    HW225548   3.853   2.752  11.913 -0.1754 -0.4967 -2.8717
 4639SOL     OW25549   4.509   2.025   8.288 -0.4499  0.3936  0.2117
 4639SOL    HW125550   4.559   1.999   8.211 -2.1872  0.5376 -0.9694
 4639SOL    HW225551   4.445   2.090   8.257 -1.7768 -1.1251 -0.2010
 4640SOL     OW25552   0.697   4.708   2.321 -0.0850 -0.0191  0.5607
 4640SOL    HW125553   0.643   4.630   2.338  0.3124 -0.8942 -2.2467
 4640SOL    HW225554   0.692   4.710   2.226 -0.4308  2.8183  0.6540
 4641SOL     OW25555   1.829   3.114   1.647  0.2369  0.0798 -0.4814
 4641SOL    HW125556   1.780   3.032   1.661 -1.5794  1.1691 -0.3858
 4641SOL    HW225557   1.762   3.180   1.663  1.8664  1.6209 -0.0713
 4642SOL     OW25558   2.641   0.489   1.286 -0.2980 -0.7355 -0.2707
 4642SOL    HW125559   2.696   0.454   1.216  1.4488  1.6765 -0.0941
 4642SOL    HW225560   2.645   0.585   1.279 -3.9063 -0.6755 -2.1327
 4643SOL     OW25561   2.122   1.397   7.701 -0.1681  0.0360  0.2055
 4643SOL    HW125562   2.177   1.351   7.638  1.2900 -0.3390  1.7676
 4643SOL    HW225563   2.156   1.485   7.720  0.0570  0.6829 -3.2831
 4644SOL     OW25564   1.674   2.153   0.901  0.1256  0.6168  0.6438
 4644SOL    HW125565   1.683   2.090   0.830  0.4823  0.5695  0.7298
 4644SOL    HW225566   1.597   2.123   0.950 -2.6610  2.2648 -2.7700
 4645SOL     OW25567   3.019   4.128   6.136 -0.0904 -0.3517  0.1010
 4645SOL    HW125568   2.940   4.075   6.130 -0.3806  0.2447 -1.1662
 4645SOL    HW225569   2.999   4.195   6.072  0.3709  3.0876  3.5574
 4646SOL     OW25570   1.857   3.595   3.756 -0.3350 -0.0277  0.0230
 4646SOL    HW125571   1.765   3.569   3.753 -0.1169 -0.4115 -3.5255
 4646SOL    HW225572   1.894   3.518   3.799 -1.5446 -0.2998  0.5756
 4647SOL     OW25573   0.684   3.968   6.693 -0.0581  0.2120  0.0921
 4647SOL    HW125574   0.685   3.895   6.632  1.4018  1.0088 -0.8230
 4647SOL    HW225575   0.655   3.917   6.769 -1.5838 -0.4917 -0.9904
 4648SOL     OW25576   0.695   2.187   9.093 -0.3337 -0.3603 -0.1383
 4648SOL    HW125577   0.709   2.256   9.028 -0.7139  1.8897  2.1850
 4648SOL    HW225578   0.675   2.115   9.032  0.2595  1.4603 -2.4666
 4649SOL     OW25579   0.863   0.374   3.067  0.3262 -0.2571 -0.1225
 4649SOL    HW125580   0.871   0.355   2.974  3.2803  1.8361 -0.3092
 4649SOL    HW225581   0.911   0.457   3.069 -0.5160  0.2894 -2.0558
 4650SOL     OW25582   2.757   3.021  15.770 -0.1372  0.1542  0.2952
 4650SOL    HW125583   2.829   3.022  15.707 -0.5219  3.9019 -0.0467
 4650SOL    HW225584   2.686   3.072  15.732 -0.8408 -1.3153 -0.3735
 4651SOL     OW25585   0.411   2.603   1.416 -0.0814  0.2989 -0.5325
 4651SOL    HW125586   0.394   2.694   1.441  1.5301  1.0713 -2.2106
 4651SOL    HW225587   0.395   2.617   1.323 -3.1734 -0.0725 -0.0332
 4652SOL     OW25588   0.044   2.584   2.206  0.4501  0.2232  0.4438
 4652SOL    HW125589   0.122   2.563   2.154 -1.0234 -1.3265 -1.1445
 4652SOL    HW225590   0.085   2.639   2.272  2.4124 -0.3911 -0.2458
 4653SOL     OW25591   2.740   3.235  16.003  0.3609  0.7923 -0.0574
 4653SOL    HW125592   2.678   3.211  15.934 -0.2307  1.5918  0.1918
 4653SOL    HW225593   2.816   3.263  15.952 -1.4247  2.7572 -1.6542
 4654SOL     OW25594   4.068   1.726  12.770  0.1794 -0.4736  0.1817
 4654SOL    HW125595   4.154   1.694  12.797  0.4024 -0.0578 -0.0274
 4654SOL    HW225596   4.074   1.748  12.677  0.2426 -1.8155 -0.1345
 4655SOL     OW25597   2.575   1.067   2.149  0.1560 -0.2807 -0.0637
 4655SOL    HW125598   2.579   0.985   2.100  0.5873 -0.5501  0.4204
 4655SOL    HW225599   2.486   1.092   2.125  0.1601 -0.2170 -0.0114
 4656SOL     OW25600   3.212   1.342   1.832 -0.3479 -0.2736  0.0911
 4656SOL    HW125601   3.210   1.348   1.737  1.5345  2.0178  0.2166
 4656SOL    HW225602   3.119   1.326   1.852 -0.4552  0.1123 -0.1074
 4657SOL     OW25603   1.703   1.771   3.953 -0.3852 -0.4486 -0.1282
 4657SOL    HW125604   1.745   1.766   4.039 -1.2570 -3.8580  0.1071
 4657SOL    HW225605   1.728   1.687   3.913 -1.0239 -0.2347 -0.9684
 4658SOL     OW25606   2.660   3.637   6.262 -0.5153  0.2374 -0.1151
 4658SOL    HW125607   2.637   3.626   6.170 -2.1948 -1.6624  0.5474
 4658SOL    HW225608   2.575   3.665   6.296 -0.5931 -0.6749  0.4519
 4659SOL     OW25609   0.508   0.227   7.247 -0.2721 -0.1852  0.4886
 4659SOL    HW125610   0.454   0.299   7.215 -1.0116 -0.2369  1.6197
 4659SOL    HW225611   0.562   0.210   7.169  2.2161  0.6433  2.0077
 4660SOL     OW25612   2.678   3.127   9.747  0.2678 -0.6989 -0.1883
 4660SOL    HW125613   2.614   3.056   9.744 -0.3227 -0.1865  0.3466
 4660SOL    HW225614   2.750   3.076   9.785  0.0555 -1.9677 -1.4939
 4661SOL     OW25615   2.598   0.326   4.511  0.3331  0.2215  0.6575
 4661SOL    HW125616   2.660   0.256   4.492  3.3263  2.9950  0.3068
 4661SOL    HW225617   2.629   0.409   4.475  0.0163 -0.8450 -2.1278
 4662SOL     OW25618   3.326   0.546   2.160 -0.0236  0.3138 -0.0854
 4662SOL    HW125619   3.268   0.471   2.170  0.8661 -0.5956 -1.7607
 4662SOL    HW225620   3.334   0.551   2.064  1.5435 -0.1662  0.0166
 4663SOL     OW25621   4.152   0.561   3.352 -0.6071 -0.1658  0.2464
 4663SOL    HW125622   4.111   0.478   3.328  1.1945 -1.9782  3.5173
 4663SOL    HW225623   4.212   0.523   3.416  0.5641 -1.1785 -1.4182
 4664SOL     OW25624   1.220   0.993  11.499  0.5461  0.4490  0.0492
 4664SOL    HW125625   1.173   1.007  11.581  2.0070  1.2662  0.7282
 4664SOL    HW225626   1.239   0.899  11.500  2.5563  0.8728  0.9536
 4665SOL     OW25627   3.051   3.093   4.500 -0.5698 -0.3736  0.0830
 4665SOL    HW125628   3.108   3.161   4.535 -0.7181 -1.0800  1.7254
 4665SOL    HW225629   3.084   3.077   4.412  0.3624 -0.0588  0.3730
 4666SOL     OW25630   3.504   4.106   9.100 -0.6496  0.2327  0.3225
 4666SOL    HW125631   3.465   4.090   9.015  2.5489  2.3033 -1.5449
 4666SOL    HW225632   3.494   4.020   9.141  0.5268  0.0461  0.2392
 4667SOL     OW25633   1.510   0.473   3.680 -0.0469  0.8824  0.7324
 4667SOL    HW125634   1.520   0.565   3.703 -0.4211  0.7195  1.5461
 4667SOL    HW225635   1.502   0.428   3.764 -0.2662 -3.1646 -1.4333
 4668SOL     OW25636   1.040   0.680  14.654  0.3472 -0.6416  0.1162
 4668SOL    HW125637   1.132   0.694  14.677 -0.4138  0.2658  2.6208
 4668SOL    HW225638   1.007   0.769  14.642  1.4428 -0.1349  0.9162
 4669SOL     OW25639   2.419   4.461   1.113 -0.1044  0.4577 -0.3406
 4669SOL    HW125640   2.379   4.480   1.198  1.6882  0.9704  0.3939
 4669SOL    HW225641   2.368   4.518   1.057  2.1246  2.3444 -0.4200
 4670SOL     OW25642   1.814   3.222   2.264  0.2487 -0.3527  0.1743
 4670SOL    HW125643   1.783   3.275   2.338 -1.0525  0.2957 -0.8239
 4670SOL    HW225644   1.736   3.204   2.212  0.9169  0.3997 -1.0968
 4671SOL     OW25645   1.410   3.009   9.078 -0.3055 -0.4183  0.3768
 4671SOL    HW125646   1.434   2.917   9.089 -0.3621 -0.2943  1.5489
 4671SOL    HW225647   1.402   3.013   8.982  0.1118  2.1192  0.4618
 4672SOL     OW25648   4.318   2.889   9.068 -0.1544 -0.2512  0.1388
 4672SOL    HW125649   4.341   2.868   9.159 -0.7077  0.0262  0.3385
 4672SOL    HW225650   4.238   2.838   9.060  0.8583 -1.7991 -0.2349
 4673SOL     OW25651   2.490   2.332   6.774 -0.1246  0.0322 -0.6067
 4673SOL    HW125652   2.441   2.381   6.840 -1.5358 -1.5602 -0.4723
 4673SOL    HW225653   2.452   2.359   6.691 -0.5179  2.6358  0.4335
 4674SOL     OW25654   0.761   2.345   5.390  0.7452  0.6071  0.1113
 4674SOL    HW125655   0.726   2.266   5.348 -0.0978  1.7269 -1.2827
 4674SOL    HW225656   0.701   2.361   5.463  1.6071  1.4929  0.6165
 4675SOL     OW25657   4.140   2.466   9.534  0.0130  0.2900  0.1077
 4675SOL    HW125658   4.078   2.416   9.482  0.1044 -0.9494  1.1874
 4675SOL    HW225659   4.106   2.556   9.530 -0.5293 -0.0186 -2.2432
 4676SOL     OW25660   3.030   2.807  14.095 -0.2295 -0.0964  0.0967
 4676SOL    HW125661   3.093   2.879  14.083 -2.3179  1.0578 -3.7278
 4676SOL    HW225662   2.956   2.851  14.054 -1.2718 -1.7151  0.2381
 4677SOL     OW25663   1.957   0.526  16.616  0.5595  0.1385  0.3174
 4677SOL    HW125664   2.036   0.504  16.665 -1.0794  0.9929  3.2978
 4677SOL    HW225665   1.912   0.573  16.686 -0.7909 -1.3273  0.4414
 4678SOL     OW25666   4.476   1.965   1.769 -0.5361 -0.2660 -0.2187
 4678SOL    HW125667   4.446   2.055   1.762 -1.7914 -0.6587 -0.0418
 4678SOL    HW225668   4.431   1.945   1.852  1.8246  0.2658  1.1899
 4679SOL     OW25669   4.009   3.224   0.288  0.0107  0.1522  0.6155
 4679SOL    HW125670   3.990   3.286   0.358  2.8510 -0.6835  2.1376
 4679SOL    HW225671   4.033   3.145   0.336  0.7216 -0.8413 -1.3620
 4680SOL     OW25672   1.922   0.670   5.664 -0.4768  0.2608  0.2877
 4680SOL    HW125673   1.880   0.596   5.621 -0.5134  0.3800  0.1188
 4680SOL    HW225674   1.985   0.622   5.718 -3.1998  0.3918  3.5657
 4681SOL     OW25675   3.528   0.800   0.086  0.5519 -0.6296  0.0975
 4681SOL    HW125676   3.523   0.770  17.737  0.1680  0.0502 -0.1067
 4681SOL    HW225677   3.492   0.726   0.134  0.4714 -0.4722  0.2795
 4682SOL     OW25678   0.070   3.857   6.855  0.9027 -0.2277 -0.1888
 4682SOL    HW125679   0.017   3.889   6.928 -0.1788 -3.6307  0.5024
 4682SOL    HW225680   4.735   3.826   6.800 -0.5119 -0.9583  2.0301
 4683SOL     OW25681   2.746   0.051   7.135  0.0417  0.0108  0.2772
 4683SOL    HW125682   2.775   0.069   7.046 -4.7457 -0.1416 -1.3085
 4683SOL    HW225683   2.748   0.137   7.177  1.7692 -0.9681  2.1978
 4684SOL     OW25684   1.743   1.831   9.318  0.3942 -0.2719  0.0180
 4684SOL    HW125685   1.801   1.756   9.306  0.3114 -0.2322 -0.6338
 4684SOL    HW225686   1.763   1.875   9.400  1.0047 -0.9346  0.2217
 4685SOL     OW25687   2.519   3.084   7.695 -0.2814  0.2035  0.0448
 4685SOL    HW125688   2.602   3.099   7.741 -0.4655 -1.8223  1.0584
 4685SOL    HW225689   2.544   3.083   7.603 -0.4700 -1.8269  0.0121
 4686SOL     OW25690   3.012   0.702   4.870 -0.2538  0.0754 -0.3085
 4686SOL    HW125691   2.951   0.649   4.921  0.7329 -0.9114 -0.1421
 4686SOL    HW225692   3.053   0.755   4.938  1.3132 -0.3475 -0.9285
 4687SOL     OW25693   4.543   3.216   1.489  0.0983 -0.0465 -0.0877
 4687SOL    HW125694   4.554   3.286   1.553  0.1884 -0.3022  0.1818
 4687SOL    HW225695   4.598   3.150   1.532  1.5817  2.3251  1.6840
 4688SOL     OW25696   0.169   0.064   3.366  0.4933  0.3115 -0.1272
 4688SOL    HW125697   0.194   4.728   3.425  0.8691 -1.0791 -2.0029
 4688SOL    HW225698   0.154   0.013   3.287  1.1298 -0.0252 -0.0369
 4689SOL     OW25699   4.060   4.714   9.620 -0.2707  0.4077 -0.1899
 4689SOL    HW125700   4.059   4.618   9.621  1.4873  0.3651 -2.3164
 4689SOL    HW225701   4.154   4.731   9.621  0.0152 -1.2149  0.3048
 4690SOL     OW25702   4.549   2.316  13.968  0.3277  0.1246 -0.1178
 4690SOL    HW125703   4.613   2.385  13.987  0.1356 -0.5052  2.7554
 4690SOL    HW225704   4.487   2.332  14.039  2.6975 -1.0186  2.2105
 4691SOL     OW25705   3.813   2.263  16.752  0.1917  0.6005 -0.2179
 4691SOL    HW125706   3.871   2.338  16.742 -1.7641  2.2229  0.6014
 4691SOL    HW225707   3.851   2.201  16.689  0.7466 -0.1620  0.8689
 4692SOL     OW25708   3.979   2.570   3.738 -0.1188 -0.2133 -0.1992
 4692SOL    HW125709   4.041   2.499   3.755 -3.0832 -3.0977 -1.4290
 4692SOL    HW225710   4.041   2.640   3.713  0.1701  0.0868  1.3234
 4693SOL     OW25711   0.513   3.973   9.376 -0.1092  0.9631  0.1253
 4693SOL    HW125712   0.500   4.064   9.351 -0.9777  0.7487 -0.2366
 4693SOL    HW225713   0.590   3.956   9.321  0.0095 -0.6632  0.8002
 4694SOL     OW25714   3.244   2.273   6.342  0.0591 -0.1445 -0.2042
 4694SOL    HW125715   3.218   2.354   6.299 -1.0112 -0.1083  0.5053
 4694SOL    HW225716   3.306   2.306   6.407  0.9161 -0.5083 -0.8347
 4695SOL     OW25717   2.524   3.500   6.983 -0.2569 -0.1718 -0.4049
 4695SOL    HW125718   2.479   3.415   6.980 -2.9196  1.1782  0.8164
 4695SOL    HW225719   2.462   3.567   7.013  1.3838  1.7337 -1.2627
 4696SOL     OW25720   3.030   0.141   2.469 -0.0281 -0.1308  0.3782
 4696SOL    HW125721   2.969   0.140   2.395  1.8879  0.8533 -1.2377
 4696SOL    HW225722   3.026   0.235   2.484  1.7268 -0.0103  0.0482
 4697SOL     OW25723   4.229   0.290   2.420 -0.8901  0.5223 -0.3766
 4697SOL    HW125724   4.254   0.231   2.491  1.7823 -0.4958 -2.1997
 4697SOL    HW225725   4.200   0.231   2.351  0.6438 -0.7958  0.1094
 4698SOL     OW25726   1.707   3.628   9.233  0.0022  0.1599  0.1418
 4698SOL    HW125727   1.798   3.642   9.260  0.1758 -0.5455 -0.0832
 4698SOL    HW225728   1.663   3.643   9.316 -0.7784  0.1153 -0.2618
 4699SOL     OW25729   3.474   4.438   7.640 -0.0778 -0.0333  0.4251
 4699SOL    HW125730   3.557   4.393   7.624  0.4100  0.7697  0.6887
 4699SOL    HW225731   3.463   4.414   7.732  1.2169 -0.3814  0.4855
 4700SOL     OW25732   1.255   4.412   5.433  0.4673 -0.0503  0.0441
 4700SOL    HW125733   1.231   4.431   5.343  1.1163  2.7829  0.4730
 4700SOL    HW225734   1.207   4.475   5.486  1.0234  0.7666 -0.4221
 4701SOL     OW25735   2.320   3.441   5.614 -0.3265  0.0248 -0.0622
 4701SOL    HW125736   2.396   3.392   5.582  0.3660 -0.3836  2.1906
 4701SOL    HW225737   2.280   3.470   5.532 -1.5175 -2.0588 -0.2092
 4702SOL     OW25738   0.737   3.795   1.702  0.0143  0.0002 -0.1740
 4702SOL    HW125739   0.643   3.780   1.711  0.2625  0.0791  2.6484
 4702SOL    HW225740   0.762   3.744   1.779  2.0620  0.5238 -0.5029
 4703SOL     OW25741   1.555   0.759  12.425 -0.0205 -0.1533  0.4725
 4703SOL    HW125742   1.543   0.847  12.390  0.9435  0.5557  1.9087
 4703SOL    HW225743   1.618   0.777  12.496  0.0769 -0.5862  0.4981
 4704SOL     OW25744   1.971   3.560  12.410 -0.0417  0.1929  0.2747
 4704SOL    HW125745   1.993   3.534  12.499  0.6936  2.3502  0.7209
 4704SOL    HW225746   1.941   3.475  12.378 -0.0426  0.2343  0.1655
 4705SOL     OW25747   1.941   2.198   7.152 -0.0166  0.0974  0.0712
 4705SOL    HW125748   1.847   2.213   7.140  0.3748  0.7147 -2.1691
 4705SOL    HW225749   1.969   2.178   7.063 -0.2644  0.4599 -0.0880
 4706SOL     OW25750   0.735   4.040  14.011 -0.3991  0.5750 -0.0017
 4706SOL    HW125751   0.651   4.046  13.965  0.6531  0.2467 -1.9740
 4706SOL    HW225752   0.760   3.951  13.987 -1.1889 -0.0561  1.5160
 4707SOL     OW25753   0.396   4.075   5.329 -0.4430  0.1295  0.5314
 4707SOL    HW125754   0.468   4.054   5.388 -0.8785  0.6025  1.2348
 4707SOL    HW225755   0.324   4.029   5.371 -1.2562  2.4831  1.7274
 4708SOL     OW25756   4.030   1.286   5.854  0.3638 -0.0196 -0.0098
 4708SOL    HW125757   4.072   1.266   5.938  0.0738  1.1800  0.4073
 4708SOL    HW225758   4.084   1.352   5.811  1.7898  0.8331  3.1231
 4709SOL     OW25759   0.381   2.328   4.592 -0.1569 -0.0272  0.3121
 4709SOL    HW125760   0.296   2.358   4.624 -0.0779  1.4164 -0.8129
 4709SOL    HW225761   0.356   2.253   4.537  0.3643 -1.2673  1.7853
 4710SOL     OW25762   4.683   0.058   7.295  0.4315  0.6798 -0.7545
 4710SOL    HW125763   4.709   0.043   7.204 -0.1551 -0.1301 -0.7905
 4710SOL    HW225764   0.026   0.099   7.329  0.4414 -1.3842  1.6924
 4711SOL     OW25765   3.774   1.890   8.937  0.0220 -0.0721 -0.5163
 4711SOL    HW125766   3.690   1.867   8.977  1.0068  0.2326  1.7578
 4711SOL    HW225767   3.744   1.966   8.888 -1.6544 -0.0750  0.5009
 4712SOL     OW25768   0.250   2.221  14.307  0.3213 -0.1565 -0.3146
 4712SOL    HW125769   0.337   2.196  14.341  0.6314  0.8879 -0.3315
 4712SOL    HW225770   0.215   2.134  14.326 -2.7587  0.9815 -0.8440
 4713SOL     OW25771   4.578   3.309   5.513  0.1294  0.1388  0.6942
 4713SOL    HW125772   4.672   3.324   5.526 -0.0193  2.7035 -1.2226
 4713SOL    HW225773   4.572   3.358   5.431  0.6618  0.5624  0.9110
 4714SOL     OW25774   0.564   2.446   8.711  0.3597  0.2410 -0.2693
 4714SOL    HW125775   0.550   2.538   8.736  0.0932 -0.0090  0.4840
 4714SOL    HW225776   0.476   2.410   8.718  0.1118  0.8596 -0.1327
 4715SOL     OW25777   2.370   2.855   6.457  0.3985  0.2144 -0.1491
 4715SOL    HW125778   2.465   2.846   6.443  0.6222  0.6626  1.0413
 4715SOL    HW225779   2.357   2.943   6.421  1.1181 -0.0094 -0.9557
 4716SOL     OW25780   0.857   3.899   2.467 -0.2277  0.1274  0.2003
 4716SOL    HW125781   0.925   3.946   2.418  1.3465 -1.2160  1.1129
 4716SOL    HW225782   0.892   3.910   2.556  2.9113  1.0435 -1.1449
 4717SOL     OW25783   3.567   4.532   5.667 -0.4730  0.1579  0.3957
 4717SOL    HW125784   3.561   4.505   5.576 -1.9507  2.8909 -0.3021
 4717SOL    HW225785   3.659   4.540   5.692 -0.2414 -2.0784  0.2303
 4718SOL     OW25786   3.078   0.367   4.027  0.1047 -0.3880 -0.3312
 4718SOL    HW125787   3.159   0.322   4.003  0.6673  1.0897 -1.1892
 4718SOL    HW225788   3.013   0.347   3.960  1.5663  0.4941 -1.9851
 4719SOL     OW25789   0.855   2.931  12.614  0.2404 -0.1426  0.1167
 4719SOL    HW125790   0.910   2.965  12.544 -2.4073  0.9304 -1.4324
 4719SOL    HW225791   0.844   2.847  12.568 -0.9486 -0.6801  1.3942
 4720SOL     OW25792   1.940   1.917   3.304  0.0239  0.5215 -0.1728
 4720SOL    HW125793   1.869   1.949   3.360  1.0455  1.0221  0.8490
 4720SOL    HW225794   1.993   1.996   3.305  0.0984  0.5016 -3.2258
 4721SOL     OW25795   0.250   3.572  17.068 -0.2171  0.0329 -0.1479
 4721SOL    HW125796   0.340   3.578  17.101  0.2523 -1.0416 -1.2239
 4721SOL    HW225797   0.250   3.484  17.030  0.3503 -0.2499  0.4930
 4722SOL     OW25798   2.195   2.884   7.401  0.6371  0.2358  0.0661
 4722SOL    HW125799   2.259   2.836   7.349  0.3601 -0.6842  0.5705
 4722SOL    HW225800   2.151   2.932   7.331  0.4753 -1.7049 -1.1900
 4723SOL     OW25801   2.135   2.836   3.966 -0.3060  0.5193  0.3734
 4723SOL    HW125802   2.172   2.905   3.911 -1.4801  0.7486 -0.1330
 4723SOL    HW225803   2.096   2.880   4.042 -0.9358  2.7525 -1.2221
 4724SOL     OW25804   4.066   0.422   3.793 -0.3670 -0.5401 -0.7797
 4724SOL    HW125805   4.155   0.450   3.771 -0.6485  1.1688  0.2402
 4724SOL    HW225806   4.074   0.422   3.888  0.9103 -0.2486 -0.8829
 4725SOL     OW25807   2.228   1.663   6.469 -0.6625 -0.4005  0.3388
 4725SOL    HW125808   2.210   1.569   6.459 -1.9230 -0.1225 -0.0410
 4725SOL    HW225809   2.171   1.714   6.412 -0.3696  2.4301  2.5638
 4726SOL     OW25810   3.040   2.861   6.625  0.1592  0.5266  0.3306
 4726SOL    HW125811   2.970   2.925   6.613  0.0186 -0.1565 -2.3089
 4726SOL    HW225812   3.111   2.898   6.573 -0.9008  0.8663 -0.8570
 4727SOL     OW25813   4.689   1.979   8.080  0.0325  0.1890 -0.9395
 4727SOL    HW125814   0.012   1.910   8.048  2.1616  0.9187  1.3899
 4727SOL    HW225815   0.014   2.052   8.087  0.1843  0.2007 -2.5300
 4728SOL     OW25816   1.369   1.871   4.889  0.3841  0.4573  0.1007
 4728SOL    HW125817   1.448   1.845   4.842  3.1618  0.7691  4.6506
 4728SOL    HW225818   1.316   1.800   4.853 -0.3948  1.7877 -1.3691
 4729SOL     OW25819   2.136   4.551   1.933  0.8188 -0.4209 -0.3672
 4729SOL    HW125820   2.109   4.640   1.908 -0.7019 -0.4948  0.9826
 4729SOL    HW225821   2.081   4.540   2.011  0.7059 -2.5761 -0.7518
 4730SOL     OW25822   1.720   3.985   1.428  0.6094  0.4243 -0.3652
 4730SOL    HW125823   1.758   3.947   1.348 -0.6288  1.6792 -1.5423
 4730SOL    HW225824   1.644   4.028   1.388  0.3919  1.7180  1.4819
 4731SOL     OW25825   3.393   3.847  11.940  0.9132  0.1421 -0.3395
 4731SOL    HW125826   3.451   3.772  11.932  0.1747 -0.3797 -0.8662
 4731SOL    HW225827   3.430   3.891  12.017 -1.4730  2.7273 -0.6656
 4732SOL     OW25828   1.303   1.982   3.134  0.0449  0.1773 -0.2487
 4732SOL    HW125829   1.313   1.905   3.190  0.7946  0.1096 -0.4661
 4732SOL    HW225830   1.375   1.981   3.070  0.9829  0.2558  0.7972
 4733SOL     OW25831   2.233   2.925   5.598 -0.3487  0.3985 -0.6221
 4733SOL    HW125832   2.242   2.898   5.506  0.4649 -2.3075  0.2541
 4733SOL    HW225833   2.323   2.902   5.623 -1.1740 -2.7681 -0.5206
 4734SOL     OW25834   0.606   1.626   1.872  0.0358 -0.0125  0.2782
 4734SOL    HW125835   0.641   1.563   1.936  0.2853  0.6874  0.8216
 4734SOL    HW225836   0.579   1.694   1.933 -0.8126  0.1820 -0.3223
 4735SOL     OW25837   3.190   1.505   6.188 -0.3555 -0.4240  0.0684
 4735SOL    HW125838   3.134   1.539   6.118  0.4401  0.0538 -0.3397
 4735SOL    HW225839   3.235   1.586   6.213 -1.4955 -0.8511  3.4850
 4736SOL     OW25840   2.333   1.841   3.067 -0.4120 -0.2046 -0.2229
 4736SOL    HW125841   2.245   1.869   3.042 -0.5282 -1.0403 -0.7192
 4736SOL    HW225842   2.388   1.917   3.049 -0.8661  0.1860  0.0308
 4737SOL     OW25843   0.354   1.517   2.301 -0.0320 -0.0494  0.2565
 4737SOL    HW125844   0.432   1.553   2.257 -0.8795  0.9429 -0.4270
 4737SOL    HW225845   0.339   1.583   2.368 -0.0554 -0.4645  0.6621
 4738SOL     OW25846   0.867   2.195   5.862  0.4379 -0.4315 -0.5698
 4738SOL    HW125847   0.861   2.208   5.957  2.4052 -0.7292 -0.3976
 4738SOL    HW225848   0.957   2.162   5.853  1.2235  0.9794  1.9910
 4739SOL     OW25849   1.430   3.887   4.369  0.3928 -0.4008  0.3820
 4739SOL    HW125850   1.384   3.811   4.404 -2.3063  1.1866  0.2736
 4739SOL    HW225851   1.497   3.888   4.437  1.3538  0.8324 -0.5748
 4740SOL     OW25852   2.624   3.886   9.352 -0.0287  0.0656  0.0920
 4740SOL    HW125853   2.648   3.811   9.298 -2.4920  1.1112 -2.4533
 4740SOL    HW225854   2.630   3.842   9.437  2.1985  2.5756  1.2364
 4741SOL     OW25855   4.303   1.100  11.602  0.1998  0.1571  0.2426
 4741SOL    HW125856   4.305   1.154  11.681 -2.9471 -1.9825  1.7984
 4741SOL    HW225857   4.369   1.133  11.541  0.5421 -0.0728  0.4957
 4742SOL     OW25858   4.246   2.943   6.234  0.2698 -0.3258 -0.6513
 4742SOL    HW125859   4.296   2.872   6.192 -0.7763 -0.6808 -1.3025
 4742SOL    HW225860   4.303   3.015   6.206  1.3486 -0.7396  0.4568
 4743SOL     OW25861   2.884   3.198   4.734 -0.8890 -0.0427  0.6498
 4743SOL    HW125862   2.847   3.133   4.675  2.0756 -0.0165 -1.2671
 4743SOL    HW225863   2.922   3.255   4.668 -1.4949 -0.4658 -0.0605
 4744SOL     OW25864   0.266   3.697   1.364 -0.2640  0.2594 -0.6301
 4744SOL    HW125865   0.324   3.635   1.406 -0.3127  0.6678  0.0358
 4744SOL    HW225866   0.332   3.763   1.341  0.8541 -0.5335  0.3164
 4745SOL     OW25867   3.972   0.135  14.249  0.6765  0.0767  0.0622
 4745SOL    HW125868   4.015   0.220  14.242 -1.5298  1.2882  1.1026
 4745SOL    HW225869   4.047   0.078  14.230  0.2250  0.0713 -1.6917
 4746SOL     OW25870   4.446   3.479  17.153 -0.0578  0.0803  0.2348
 4746SOL    HW125871   4.492   3.399  17.178 -3.5658 -2.0187 -0.0392
 4746SOL    HW225872   4.513   3.507  17.092  1.5100 -1.7052  1.1420
 4747SOL     OW25873   2.638   0.918   4.527  0.2454 -0.0146  0.2895
 4747SOL    HW125874   2.665   0.996   4.479  0.2901  0.4313  1.0466
 4747SOL    HW225875   2.711   0.914   4.589 -0.7894  0.2412  1.5451
 4748SOL     OW25876   2.003   1.958   4.326 -0.7735  0.1305 -0.2851
 4748SOL    HW125877   2.068   1.970   4.257  0.2898 -1.4994  0.4193
 4748SOL    HW225878   2.001   2.046   4.363  0.2009 -0.7471  1.8460
 4749SOL     OW25879   3.855   2.462   8.063 -0.3295  0.1012  0.0488
 4749SOL    HW125880   3.811   2.544   8.039 -1.0361  0.5996  2.9651
 4749SOL    HW225881   3.905   2.485   8.141  0.0245 -1.3176  0.2303
 4750SOL     OW25882   0.473   2.615  11.748  0.3892  0.0983 -0.5036
 4750SOL    HW125883   0.425   2.533  11.755 -0.9525  1.2441  3.2961
 4750SOL    HW225884   0.559   2.591  11.782  0.4457  1.7123  0.4794
 4751SOL     OW25885   0.107   4.347   4.914 -0.2845 -0.2933  0.5501
 4751SOL    HW125886   0.026   4.361   4.963  0.0149  2.3309  0.2863
 4751SOL    HW225887   0.104   4.252   4.903 -1.6636 -0.1841 -0.0005
 4752SOL     OW25888   2.254   0.663   4.675  0.1418 -0.3286 -0.1052
 4752SOL    HW125889   2.268   0.748   4.633 -1.8436  1.7293  3.4593
 4752SOL    HW225890   2.160   0.669   4.689  0.2613 -0.3569  0.7044
 4753SOL     OW25891   0.855   1.591  13.998 -0.1770 -0.0341 -0.4391
 4753SOL    HW125892   0.826   1.638  13.919  1.2370  1.0496 -0.3091
 4753SOL    HW225893   0.812   1.639  14.068 -3.2903 -2.9477 -0.3477
 4754SOL     OW25894   0.315   3.163   6.233 -0.4709 -0.1331 -0.1137
 4754SOL    HW125895   0.276   3.162   6.146 -0.6359 -1.7570 -0.0125
 4754SOL    HW225896   0.231   3.162   6.279 -0.1799  3.5680  0.5452
 4755SOL     OW25897   4.669   1.441   5.778 -0.2453  0.2038  0.3294
 4755SOL    HW125898   4.666   1.513   5.715 -0.6481  2.0422  2.4790
 4755SOL    HW225899   4.621   1.371   5.734  1.0936  0.1489 -1.0469
 4756SOL     OW25900   2.542   2.046  13.983  0.2810 -0.2313 -0.3764
 4756SOL    HW125901   2.565   2.065  13.893  1.5137  0.6854  0.1420
 4756SOL    HW225902   2.529   2.131  14.025  0.6357 -0.1624 -0.4055
 4757SOL     OW25903   4.407   0.507   3.934 -0.8181 -0.1444  0.1612
 4757SOL    HW125904   4.405   0.490   3.840  0.2465 -1.0818  0.3102
 4757SOL    HW225905   4.488   0.558   3.939 -1.1142  0.5155 -1.7719
 4758SOL     OW25906   0.194   1.894   2.968  0.3043  0.2577 -0.0598
 4758SOL    HW125907   0.152   1.823   2.919 -0.8262 -0.3111  1.7448
 4758SOL    HW225908   0.278   1.885   2.922 -0.1663  0.7463 -1.0186
 4759SOL     OW25909   3.319   0.002   4.554 -0.0904 -0.3088  0.2764
 4759SOL    HW125910   3.322   4.665   4.492 -0.1941  0.7188 -0.9526
 4759SOL    HW225911   3.287   0.059   4.484 -1.3872 -0.5184  0.7024
 4760SOL     OW25912   1.692   0.197   6.515  0.1267 -0.6795  0.1244
 4760SOL    HW125913   1.658   0.236   6.596  1.3900 -0.6493  0.6364
 4760SOL    HW225914   1.758   0.138   6.550  2.5638 -0.0909 -3.5508
 4761SOL     OW25915   0.233   1.677  12.490  0.3576 -0.4877 -0.5022
 4761SOL    HW125916   0.266   1.729  12.563  0.2387  0.8674 -1.4211
 4761SOL    HW225917   0.317   1.644  12.457  2.2907  1.4381  2.4566
 4762SOL     OW25918   0.787   3.186   9.301  0.2079  0.0238 -0.2780
 4762SOL    HW125919   0.859   3.123   9.295 -0.6939 -0.9441 -0.8798
 4762SOL    HW225920   0.731   3.124   9.348  0.0888  0.1129 -0.3021
 4763SOL     OW25921   0.049   2.857   3.673  0.2106  0.3434 -0.2790
 4763SOL    HW125922   4.707   2.911   3.685 -0.7939 -0.8152 -1.6186
 4763SOL    HW225923   0.070   2.839   3.765  1.6346  3.6544  0.0407
 4764SOL     OW25924   2.402   0.451   1.620  0.1676 -0.8955  0.2973
 4764SOL    HW125925   2.455   0.413   1.691 -0.5792 -0.2354  1.2047
 4764SOL    HW225926   2.327   0.392   1.626 -0.0363 -0.7120 -0.4504
 4765SOL     OW25927   3.385   0.519  11.626 -0.0078 -0.7059  0.2527
 4765SOL    HW125928   3.366   0.609  11.654  2.9809  0.1588 -0.4963
 4765SOL    HW225929   3.301   0.486  11.594 -0.9584  2.2150 -0.2616
 4766SOL     OW25930   4.083   0.434   2.703  0.5970  0.0084  0.4222
 4766SOL    HW125931   4.100   0.517   2.747  1.9403  0.6708 -1.3284
 4766SOL    HW225932   4.164   0.422   2.653 -0.1283  0.9320 -1.0085
 4767SOL     OW25933   0.830   4.689  11.740 -0.2227 -0.2165  0.4282
 4767SOL    HW125934   0.862   4.716  11.654 -0.9110  0.6359  0.4425
 4767SOL    HW225935   0.898   4.734  11.790 -0.2823 -0.2709  0.5587
 4768SOL     OW25936   3.218   2.380   5.928  0.3274 -0.4778 -0.3446
 4768SOL    HW125937   3.272   2.451   5.962 -0.8703 -0.5372  1.6765
 4768SOL    HW225938   3.274   2.322   5.876  0.5524 -1.6937  1.2864
 4769SOL     OW25939   3.936   2.549   6.910  0.2304  0.2659  0.0061
 4769SOL    HW125940   3.872   2.478   6.921  2.9798 -2.1077  0.7633
 4769SOL    HW225941   3.997   2.510   6.848  0.9897  1.2799  0.1171
 4770SOL     OW25942   3.580   1.579  12.084 -0.0695  0.5308 -0.1171
 4770SOL    HW125943   3.609   1.596  11.994  3.4335  0.1441  0.9220
 4770SOL    HW225944   3.596   1.485  12.093  0.1780  0.5822 -0.0299
 4771SOL     OW25945   1.330   3.431   5.106  0.3733 -0.9242  0.2197
 4771SOL    HW125946   1.356   3.489   5.034 -0.6586 -0.0307  0.5664
 4771SOL    HW225947   1.246   3.474   5.122  0.7162 -0.0597 -0.2644
 4772SOL     OW25948   3.518   4.543   9.437  0.2741 -0.9053 -0.2983
 4772SOL    HW125949   3.443   4.530   9.496 -0.2264  2.8161 -0.1037
 4772SOL    HW225950   3.484   4.591   9.362  0.8954  1.1508  0.7157
 4773SOL     OW25951   0.302   3.125   0.126  0.0295 -0.7478 -0.2222
 4773SOL    HW125952   0.239   3.052   0.128  0.5431 -1.2189 -1.3347
 4773SOL    HW225953   0.297   3.153   0.034  0.1243  0.4978  0.1674
 4774SOL     OW25954   0.771   3.658   3.832  0.5452  0.0925 -0.1799
 4774SOL    HW125955   0.865   3.659   3.851  0.0955  0.8717  1.9089
 4774SOL    HW225956   0.730   3.713   3.898  0.6192 -2.3090  1.8801
 4775SOL     OW25957   1.701   3.109   5.336  0.2009 -0.0920  0.0879
 4775SOL    HW125958   1.622   3.144   5.295 -1.0387 -1.7270  1.0819
 4775SOL    HW225959   1.665   3.037   5.388  0.3404  0.8701  1.5230
 4776SOL     OW25960   1.974   1.646   2.275 -0.1676 -0.4881  0.5044
 4776SOL    HW125961   1.951   1.666   2.185  1.9091  0.6654  0.2444
 4776SOL    HW225962   2.067   1.667   2.278 -0.2514  0.1805 -1.8606
 4777SOL     OW25963   2.249   1.483   1.759 -0.2638 -0.0907 -0.5012
 4777SOL    HW125964   2.274   1.530   1.839 -1.0930 -1.8352  0.8083
 4777SOL    HW225965   2.292   1.397   1.761 -1.0035 -0.5173 -3.1380
 4778SOL     OW25966   1.951   3.708   6.289 -0.0608 -0.0444  0.2039
 4778SOL    HW125967   1.974   3.661   6.369  1.1631 -0.6896 -0.5365
 4778SOL    HW225968   2.028   3.765   6.295 -1.1019  1.4847 -0.7999
 4779SOL     OW25969   1.320   0.365   2.223  0.4131  0.2535 -0.1358
 4779SOL    HW125970   1.334   0.371   2.317  1.9355  1.9173 -0.4626
 4779SOL    HW225971   1.397   0.415   2.195  1.0892  0.4933  2.1443
 4780SOL     OW25972   3.249   1.565   9.535 -0.7049  1.0992 -0.6479
 4780SOL    HW125973   3.254   1.577   9.629  3.4932 -1.0708 -0.6043
 4780SOL    HW225974   3.254   1.659   9.514 -0.8553  1.2854  0.1800
 4781SOL     OW25975   0.995   4.732  17.377  0.2287  0.1500 -0.1006
 4781SOL    HW125976   1.045   4.663  17.422  2.1681  1.0991 -0.8287
 4781SOL    HW225977   1.055   0.007  17.303 -0.9361  1.5096 -0.8460
 4782SOL     OW25978   0.623   4.210   6.612  0.3751  0.1445 -0.2496
 4782SOL    HW125979   0.652   4.124   6.641 -0.7867  0.0097  0.5166
 4782SOL    HW225980   0.576   4.235   6.692  2.6229  2.0762  0.4497
 4783SOL     OW25981   2.208   2.829   5.908  0.1198  0.5872  0.2988
 4783SOL    HW125982   2.137   2.845   5.970 -0.5780 -0.7585 -0.1673
 4783SOL    HW225983   2.168   2.854   5.825  0.5468 -1.2495 -0.4700
 4784SOL     OW25984   2.636   4.324  14.445  0.0487  0.3271  0.4089
 4784SOL    HW125985   2.559   4.315  14.501  1.3285  1.8369  2.4158
 4784SOL    HW225986   2.665   4.237  14.418  1.5146  0.8949  0.1228
 4785SOL     OW25987   4.725   0.381   6.481 -0.1222 -0.1555 -0.6829
 4785SOL    HW125988   0.000   0.358   6.389  0.5121 -1.3038 -0.3098
 4785SOL    HW225989   0.014   0.297   6.518 -1.4568  1.2420  3.3693
 4786SOL     OW25990   0.097   4.300   5.486  0.0062  0.3817  0.6564
 4786SOL    HW125991   0.122   4.393   5.482 -0.5536  0.4424 -1.1565
 4786SOL    HW225992   0.184   4.276   5.520 -0.0787  0.7453  1.1447
 4787SOL     OW25993   2.458   3.589  17.485  0.0939  0.7781 -0.0513
 4787SOL    HW125994   2.508   3.559  17.561  0.6780  0.0690 -0.7231
 4787SOL    HW225995   2.389   3.523  17.494 -0.8156  1.4786 -1.9457
 4788SOL     OW25996   0.601   1.377   5.773  0.4414 -0.3578 -0.1234
 4788SOL    HW125997   0.582   1.356   5.681  0.2934 -0.6464 -0.0255
 4788SOL    HW225998   0.609   1.471   5.759  1.9870 -0.4524  0.2192
 4789SOL     OW25999   3.289   3.069   2.031 -0.1450 -0.2578 -0.6784
 4789SOL    HW126000   3.381   3.083   2.051 -0.1455 -4.4993  2.2172
 4789SOL    HW226001   3.266   3.157   2.002  0.4000  0.3006  0.5897
 4790SOL     OW26002   0.312   1.046  11.834  0.1739 -0.3317  0.1845
 4790SOL    HW126003   0.277   1.039  11.923 -1.2316  1.6846 -0.2136
 4790SOL    HW226004   0.246   1.105  11.798 -0.3987 -2.1282 -1.6997
 4791SOL     OW26005   1.539   0.883  11.584  0.5061  0.1952 -0.2271
 4791SOL    HW126006   1.614   0.938  11.606  0.0125  1.0977 -0.7726
 4791SOL    HW226007   1.468   0.924  11.634 -0.6256 -0.6811 -1.1048
 4792SOL     OW26008   1.157   3.904   2.788  0.0951  0.3741 -0.1131
 4792SOL    HW126009   1.183   3.898   2.696 -0.4223 -0.4555 -0.2041
 4792SOL    HW226010   1.238   3.878   2.832  0.5062  1.8584  0.0048
 4793SOL     OW26011   0.559   0.589   3.530 -0.1326 -0.2601 -0.3642
 4793SOL    HW126012   0.474   0.589   3.486 -0.3966  1.1518  0.1313
 4793SOL    HW226013   0.577   0.495   3.529  1.0556 -0.0431  0.1059
 4794SOL     OW26014   2.954   0.858   8.181  0.2130  0.6096  0.3801
 4794SOL    HW126015   2.883   0.798   8.157  0.4734  0.5223 -0.1791
 4794SOL    HW226016   3.031   0.801   8.179 -0.5406 -0.2656 -2.8970
 4795SOL     OW26017   1.004   2.347   3.084 -0.4593 -0.1742  0.3776
 4795SOL    HW126018   1.062   2.404   3.033 -2.3920  1.3521 -0.1085
 4795SOL    HW226019   0.962   2.412   3.139 -1.9731  0.6187 -1.7024
 4796SOL     OW26020   1.922   0.705   4.411  0.9844 -0.3162 -0.7531
 4796SOL    HW126021   1.910   0.783   4.356  1.1720  0.2428 -0.0074
 4796SOL    HW226022   1.867   0.641   4.366  0.6324 -2.0689  2.2010
 4797SOL     OW26023   3.483   3.373   5.624 -0.2622 -0.2070 -0.0170
 4797SOL    HW126024   3.521   3.396   5.539 -1.3891 -0.0316 -0.4768
 4797SOL    HW226025   3.495   3.278   5.628  0.2721 -0.1489 -0.2249
 4798SOL     OW26026   1.249   0.287   6.508  0.6168  0.4173  0.6211
 4798SOL    HW126027   1.237   0.232   6.584  0.0243 -0.4394 -0.0943
 4798SOL    HW226028   1.268   0.366   6.558 -1.8082  0.1030  2.0158
 4799SOL     OW26029   3.332   2.301   6.937  0.1398  0.1584 -0.2883
 4799SOL    HW126030   3.367   2.260   6.858  4.0246 -0.0215  1.5115
 4799SOL    HW226031   3.391   2.269   7.005 -0.3760  0.3486  0.2535
 4800SOL     OW26032   2.296   3.311  17.538 -0.3165  0.3822 -0.4114
 4800SOL    HW126033   2.242   3.322  17.616  0.2521  2.5883 -0.3278
 4800SOL    HW226034   2.363   3.252  17.573 -1.7377  1.1716  3.5988
 4801SOL     OW26035   3.137   4.141   4.533  0.1887 -0.0868  0.2340
 4801SOL    HW126036   3.153   4.189   4.452  2.5100 -1.1935  0.0250
 4801SOL    HW226037   3.069   4.184   4.584 -1.7630 -0.4167 -2.1149
 4802SOL     OW26038   1.056   1.672   7.777  0.1394  0.1668  0.6136
 4802SOL    HW126039   1.061   1.707   7.688 -2.5063  1.7326  1.0649
 4802SOL    HW226040   1.063   1.582   7.746  0.3765  0.4001 -0.0276
 4803SOL     OW26041   3.447   2.715  12.089 -0.2726 -1.0491 -0.3662
 4803SOL    HW126042   3.396   2.790  12.118  0.1385 -0.2692 -1.6456
 4803SOL    HW226043   3.386   2.645  12.112 -1.8638 -0.1528 -1.8179
 4804SOL     OW26044   0.597   3.981   4.844  0.0028 -0.4375  0.1890
 4804SOL    HW126045   0.621   4.021   4.760 -1.7549  0.5841  0.1705
 4804SOL    HW226046   0.667   3.917   4.855  0.4867 -0.6787 -4.4131
 4805SOL     OW26047   4.707   4.098   4.917  0.2841  1.0641 -0.3110
 4805SOL    HW126048   4.651   4.021   4.922 -0.3621  1.5883  0.4122
 4805SOL    HW226049   4.648   4.171   4.895  0.3950  0.9094 -1.1412
 4806SOL     OW26050   4.580   4.364  12.372  0.3383  0.5842 -0.6766
 4806SOL    HW126051   4.615   4.449  12.397 -0.3608 -0.1983  2.9567
 4806SOL    HW226052   4.490   4.388  12.349  0.0504 -0.3711 -0.5610
 4807SOL     OW26053   1.132   3.684  11.610 -0.6606  0.4211 -0.4602
 4807SOL    HW126054   1.185   3.670  11.531 -0.8518 -0.8232 -0.3638
 4807SOL    HW226055   1.103   3.595  11.630  0.1843  0.4092  0.7097
 4808SOL     OW26056   1.749   0.452  16.896  0.0414  0.0556  0.3043
 4808SOL    HW126057   1.804   0.530  16.888  1.5192 -1.2671 -2.3417
 4808SOL    HW226058   1.751   0.426  16.804 -1.2108  1.7417 -0.1933
 4809SOL     OW26059   3.365   2.879   3.356 -0.0156  0.0791 -0.1308
 4809SOL    HW126060   3.305   2.947   3.324  0.8242  0.8276 -0.1160
 4809SOL    HW226061   3.332   2.802   3.311  0.0736 -1.6135  2.6906
 4810SOL     OW26062   1.918   1.932  11.337 -0.7983  0.6348 -0.2691
 4810SOL    HW126063   1.977   2.003  11.362  2.6370 -1.9617 -1.1216
 4810SOL    HW226064   1.930   1.925  11.242  2.8141  0.3756  0.2252
 4811SOL     OW26065   3.027   1.018   1.097  0.0207  0.1576  0.7155
 4811SOL    HW126066   2.950   0.971   1.065  1.2301 -2.0635  1.0477
 4811SOL    HW226067   3.098   0.999   1.035 -0.2029  2.6574 -0.3355
 4812SOL     OW26068   0.519   2.413   7.857 -0.6841  0.0020  0.3850
 4812SOL    HW126069   0.557   2.401   7.769 -1.6899  0.8511 -0.1578
 4812SOL    HW226070   0.576   2.479   7.896 -0.4861  0.1516 -0.1455
 4813SOL     OW26071   4.015   3.924   0.452  0.0400  0.4053  0.5631
 4813SOL    HW126072   3.966   3.979   0.390  0.5765 -1.1373 -1.2052
 4813SOL    HW226073   4.094   3.977   0.445 -0.4795  1.0736 -0.2866
 4814SOL     OW26074   1.061   3.399   4.464 -0.6113  0.3398  0.9646
 4814SOL    HW126075   1.074   3.351   4.382  0.1799 -1.0886  1.9316
 4814SOL    HW226076   0.966   3.398   4.476 -0.8476 -2.4281 -1.0250
 4815SOL     OW26077   0.783   3.567  12.498 -0.0022 -0.0793 -0.1019
 4815SOL    HW126078   0.769   3.659  12.475 -0.9840 -0.1350  0.2985
 4815SOL    HW226079   0.747   3.525  12.420  1.3758 -1.3718 -0.0377
 4816SOL     OW26080   4.641   0.121   3.423 -0.5700  0.3215 -0.1022
 4816SOL    HW126081   4.627   0.075   3.341  1.8802 -0.2927 -0.1909
 4816SOL    HW226082   4.734   0.103   3.436 -1.3673 -2.0664  2.3220
 4817SOL     OW26083   3.963   1.470   2.493 -0.7625  0.2119 -0.3252
 4817SOL    HW126084   3.891   1.407   2.484  0.2591 -1.2750  1.9873
 4817SOL    HW226085   3.993   1.489   2.404 -1.2563  3.1777  0.1261
 4818SOL     OW26086   4.441   2.392   5.783 -0.6038 -0.2634 -0.3740
 4818SOL    HW126087   4.434   2.423   5.873  1.0692  0.6952 -0.5561
 4818SOL    HW226088   4.535   2.405   5.767  0.0095 -1.3095  2.3184
 4819SOL     OW26089   3.115   2.582   2.388 -0.1699  0.0922  0.4277
 4819SOL    HW126090   3.172   2.507   2.368 -0.1627 -0.3605  2.1405
 4819SOL    HW226091   3.165   2.648   2.341 -1.2307  0.7959  0.2660
 4820SOL     OW26092   1.120   3.149   5.973 -0.2946 -0.2097  0.7344
 4820SOL    HW126093   1.095   3.130   6.064  0.8510 -1.9550  0.6874
 4820SOL    HW226094   1.049   3.209   5.952 -0.0520  0.2529  1.2401
 4821SOL     OW26095   0.669   1.263   8.253 -0.0808  0.2952  0.0011
 4821SOL    HW126096   0.722   1.337   8.223 -0.2527  0.5228  0.2552
 4821SOL    HW226097   0.580   1.298   8.245 -0.3934 -0.9375 -2.0253
 4822SOL     OW26098   3.288   1.573   1.962  0.5660  0.5191 -0.0495
 4822SOL    HW126099   3.265   1.491   1.917  1.7267  1.0304 -1.5811
 4822SOL    HW226100   3.357   1.614   1.910  0.8878  1.6757  1.2937
 4823SOL     OW26101   3.090   3.633   7.804  0.0955 -0.3303  0.1919
 4823SOL    HW126102   3.105   3.573   7.731  0.5391 -1.8395  1.5570
 4823SOL    HW226103   3.007   3.678   7.785 -1.1228 -1.8003  2.0124
 4824SOL     OW26104   0.090   0.187   9.227  0.3233 -0.6128 -0.0190
 4824SOL    HW126105   0.011   0.164   9.277 -0.2236 -1.8066 -1.4415
 4824SOL    HW226106   0.152   0.197   9.299  0.4832 -0.0518 -0.2285
 4825SOL     OW26107   4.590   4.094   7.965  0.4304  0.1133  0.6717
 4825SOL    HW126108   4.660   4.126   7.908  0.0883 -0.5820 -0.1254
 4825SOL    HW226109   4.641   4.067   8.042 -0.3666  0.2466  1.2474
 4826SOL     OW26110   0.823   3.984   5.587  0.0875 -0.5718 -0.4200
 4826SOL    HW126111   0.876   3.905   5.590  1.7773  0.5544 -0.9881
 4826SOL    HW226112   0.878   4.053   5.551  0.5155  0.3962  2.0785
 4827SOL     OW26113   0.738   1.191  14.826 -0.0484 -0.2296  0.2841
 4827SOL    HW126114   0.767   1.183  14.736  0.0319 -1.9654  0.4711
 4827SOL    HW226115   0.669   1.256  14.811  0.2719  0.0966  0.2198
 4828SOL     OW26116   2.460   0.094  15.051 -0.1554 -0.6289 -0.7736
 4828SOL    HW126117   2.403   0.030  15.094 -1.3557  0.5717 -0.5764
 4828SOL    HW226118   2.432   0.081  14.961  0.3414  0.3329 -1.0707
 4829SOL     OW26119   1.151   2.167  16.661  0.3764 -0.0714 -0.0992
 4829SOL    HW126120   1.176   2.256  16.637  2.2906 -0.3199  0.8946
 4829SOL    HW226121   1.238   2.126  16.661  0.1849 -0.4473 -1.6945
 4830SOL     OW26122   2.278   4.340  11.213 -0.2754 -0.0239 -0.2698
 4830SOL    HW126123   2.286   4.429  11.249  1.9546 -0.6734  0.8088
 4830SOL    HW226124   2.206   4.306  11.267  1.8447 -0.6764  2.1411
 4831SOL     OW26125   0.574   0.256   6.260 -0.1415  0.1031 -0.3137
 4831SOL    HW126126   0.574   0.291   6.171 -0.5163  0.8646 -0.0171
 4831SOL    HW226127   0.501   0.195   6.246 -0.2171  0.3580 -1.0394
 4832SOL     OW26128   0.814   2.148  14.591 -0.3889 -0.4741  0.1850
 4832SOL    HW126129   0.854   2.232  14.568 -0.2579 -0.8542 -0.9380
 4832SOL    HW226130   0.866   2.120  14.667  0.5655  1.4933  0.2611
 4833SOL     OW26131   2.590   4.682  12.820  0.7403 -1.1302 -0.4075
 4833SOL    HW126132   2.570   4.601  12.866  2.9393 -0.9022  0.9220
 4833SOL    HW226133   2.679   4.701  12.849  0.2214  1.3709 -0.3931
 4834SOL     OW26134   0.962   1.627   1.424 -0.1778 -0.1410 -0.4709
 4834SOL    HW126135   1.023   1.670   1.485 -1.4670 -2.8319  2.7042
 4834SOL    HW226136   0.876   1.666   1.433  0.5003  1.1374  0.5074
 4835SOL     OW26137   2.239   1.381   8.261 -0.0989  0.2956 -0.2663
 4835SOL    HW126138   2.194   1.446   8.207  1.6132  1.0225 -0.7908
 4835SOL    HW226139   2.165   1.327   8.291  0.9981 -1.3230 -0.4791
 4836SOL     OW26140   2.206   2.137  15.563  0.0316  0.1879 -0.0928
 4836SOL    HW126141   2.138   2.168  15.503  1.9759  0.8619 -1.9237
 4836SOL    HW226142   2.280   2.197  15.552 -0.3330  0.3779 -1.4247
 4837SOL     OW26143   2.708   1.961   5.967  0.0135 -0.2859  0.1093
 4837SOL    HW126144   2.674   1.910   5.894 -0.5610 -1.9949  1.5701
 4837SOL    HW226145   2.744   2.039   5.925  0.7938 -1.6569 -1.7417
 4838SOL     OW26146   0.899   3.144  15.545 -0.3727 -0.0914  0.3935
 4838SOL    HW126147   0.940   3.110  15.625 -2.3509 -1.7937  0.6811
 4838SOL    HW226148   0.808   3.149  15.575 -0.1031  2.4185  0.8359
 4839SOL     OW26149   1.120   1.742  12.243  0.4706  0.3221  0.1488
 4839SOL    HW126150   1.162   1.671  12.194 -0.1166 -1.3295  2.0248
 4839SOL    HW226151   1.064   1.783  12.177  3.3389 -1.8471 -3.6446
 4840SOL     OW26152   0.859   1.149   3.883  0.1667 -0.7481 -0.0416
 4840SOL    HW126153   0.881   1.105   3.965  0.2039 -2.8600 -1.1908
 4840SOL    HW226154   0.855   1.082   3.815 -2.1194 -0.7900  0.1430
 4841SOL     OW26155   1.357   4.353   3.146 -0.0737  0.3125 -0.3137
 4841SOL    HW126156   1.333   4.260   3.144 -1.4881  0.6441  1.2090
 4841SOL    HW226157   1.322   4.379   3.231  0.3719  2.4618 -0.7996
 4842SOL     OW26158   0.939   4.172  14.810  0.6020  0.0096 -0.4975
 4842SOL    HW126159   0.936   4.254  14.761 -0.3901  0.4655  0.3323
 4842SOL    HW226160   0.995   4.121  14.751  1.3812  1.1437 -0.7422
 4843SOL     OW26161   1.814   2.666  17.052  0.1077  0.4961  0.3625
 4843SOL    HW126162   1.902   2.667  17.089  0.1561 -2.8447  0.3337
 4843SOL    HW226163   1.810   2.759  17.031  0.6284  0.6096  0.7673
 4844SOL     OW26164   1.472   1.247   9.167  0.0975 -0.8109 -1.0460
 4844SOL    HW126165   1.538   1.315   9.174 -0.3758 -0.6252  1.6876
 4844SOL    HW226166   1.480   1.215   9.077  0.8911 -0.6660 -1.0257
 4845SOL     OW26167   3.012   1.974   5.305  0.2002 -0.4928  0.2577
 4845SOL    HW126168   2.976   1.991   5.392  0.8778  1.6971  0.1235
 4845SOL    HW226169   3.105   1.958   5.323  0.3134 -2.2249 -1.8460
 4846SOL     OW26170   3.930   2.085   8.685 -0.3302 -0.0901  0.8037
 4846SOL    HW126171   3.990   2.028   8.636  0.2122 -0.4383  1.8925
 4846SOL    HW226172   3.981   2.114   8.760 -1.6026  2.3154  0.7279
 4847SOL     OW26173   3.381   3.378   7.110 -0.1061  0.0353 -0.0091
 4847SOL    HW126174   3.385   3.284   7.126  0.1589  0.1235  0.4499
 4847SOL    HW226175   3.457   3.407   7.059 -0.2256 -0.5868 -0.5467
 4848SOL     OW26176   0.547   1.152   2.542  0.1504  0.2129  0.4507
 4848SOL    HW126177   0.626   1.200   2.565  1.6432 -1.7393 -0.5632
 4848SOL    HW226178   0.521   1.153   2.634 -2.1169 -0.2253 -0.1930
 4849SOL     OW26179   2.824   4.421   0.589 -0.3748  0.8655  0.1517
 4849SOL    HW126180   2.743   4.468   0.603  0.1313  1.0031  2.5586
 4849SOL    HW226181   2.883   4.462   0.652 -0.2649  2.1906 -0.8130
 4850SOL     OW26182   3.556   3.610  10.704 -0.6494 -0.3010  0.0568
 4850SOL    HW126183   3.524   3.521  10.717  1.8054 -0.9750  1.6808
 4850SOL    HW226184   3.595   3.605  10.617 -1.0238  0.8663 -0.1780
 4851SOL     OW26185   0.809   4.716   1.917 -0.1174 -0.5899  0.7179
 4851SOL    HW126186   0.809   4.698   1.823  1.1280  0.1252  0.5784
 4851SOL    HW226187   0.900   0.003   1.936  0.3247 -0.7111 -1.2303
 4852SOL     OW26188   4.553   3.294   8.245  0.0603  0.3125 -0.4845
 4852SOL    HW126189   4.531   3.381   8.212  1.7001  0.1392 -2.0911
 4852SOL    HW226190   4.568   3.303   8.339 -0.1429  0.1123 -0.4328
 4853SOL     OW26191   1.434   4.343   5.923  0.6842 -0.3587 -0.3905
 4853SOL    HW126192   1.344   4.314   5.908  0.7246 -1.1569  0.8479
 4853SOL    HW226193   1.428   4.393   6.005 -1.8179 -0.4806 -0.5059
 4854SOL     OW26194   0.091   0.056   5.410  0.4428  0.2328  0.6256
 4854SOL    HW126195   4.732   0.064   5.415  0.6159  2.5906  0.0274
 4854SOL    HW226196   0.120   0.140   5.444  0.6336  0.6332 -0.5137
 4855SOL     OW26197   1.929   2.831  15.129 -0.3402  0.1875 -0.0820
 4855SOL    HW126198   1.895   2.876  15.206  0.9545  1.0375 -0.0104
 4855SOL    HW226199   1.925   2.737  15.148 -2.0533  0.5410  1.2980
 4856SOL     OW26200   3.804   1.344   8.931  0.0102 -0.4744  0.2604
 4856SOL    HW126201   3.744   1.334   9.005  1.2359  2.8176  1.7155
 4856SOL    HW226202   3.765   1.422   8.893  0.2824 -0.7511 -0.5795
 4857SOL     OW26203   0.410   1.365   4.427  0.5981 -0.3122  0.0791
 4857SOL    HW126204   0.367   1.366   4.342  0.2048  0.9756  0.3029
 4857SOL    HW226205   0.489   1.416   4.407  0.7476 -0.9721 -0.9847
 4858SOL     OW26206   2.056   2.995   7.188  0.2370  0.3326 -0.1630
 4858SOL    HW126207   2.031   3.064   7.248  0.2908 -0.7903  1.1523
 4858SOL    HW226208   1.986   2.995   7.123  0.1159 -0.4954 -0.0295
 4859SOL     OW26209   4.261   0.325   7.794 -0.1911 -0.5717  0.7044
 4859SOL    HW126210   4.313   0.267   7.850 -0.3229  0.0274  1.4404
 4859SOL    HW226211   4.228   0.383   7.863 -0.7463 -1.8610  1.5479
 4860SOL     OW26212   4.656   0.453   2.538  0.3633  0.3006 -0.3508
 4860SOL    HW126213   4.578   0.459   2.483 -1.0376 -0.4731  1.5826
 4860SOL    HW226214   4.705   0.385   2.491 -0.8373 -0.1613 -0.9323
 4861SOL     OW26215   2.038   3.887   0.823  0.4211 -0.2572  0.0499
 4861SOL    HW126216   2.080   3.850   0.902  2.1878 -0.7937 -1.1404
 4861SOL    HW226217   1.948   3.896   0.852  0.0226 -2.2749 -0.5141
 4862SOL     OW26218   3.626   3.923  16.271 -0.0045 -0.1307 -0.0728
 4862SOL    HW126219   3.555   3.895  16.213 -0.1025 -0.6131  0.2855
 4862SOL    HW226220   3.581   3.946  16.353  0.2173 -1.6243  0.4576
 4863SOL     OW26221   2.550   4.560   5.399 -0.1418  0.4386 -0.0303
 4863SOL    HW126222   2.556   4.622   5.472 -2.6937  0.9757 -0.2854
 4863SOL    HW226223   2.640   4.535   5.379 -0.8588 -0.4305 -2.2033
 4864SOL     OW26224   4.240   0.735   6.805  0.0565 -0.3966  0.3856
 4864SOL    HW126225   4.146   0.755   6.801  0.1595  0.0184  0.0429
 4864SOL    HW226226   4.252   0.679   6.728  0.0081 -0.9808  0.8079
 4865SOL     OW26227   1.288   2.080   2.621 -0.2838 -0.3836  0.3475
 4865SOL    HW126228   1.383   2.084   2.633 -0.1370  0.1683 -1.0877
 4865SOL    HW226229   1.288   2.068   2.526  0.0689 -0.6692  0.3841
 4866SOL     OW26230   2.448   4.204   8.261 -0.3295 -0.9315 -0.3989
 4866SOL    HW126231   2.479   4.139   8.325 -0.6592 -2.1421 -1.4703
 4866SOL    HW226232   2.527   4.221   8.209  0.6485 -1.3212  0.9281
 4867SOL     OW26233   2.170   4.703   2.571  0.3835 -0.9867  0.3730
 4867SOL    HW126234   2.250   4.686   2.522  1.0167 -0.7343  1.3307
 4867SOL    HW226235   2.199   0.041   2.624  1.5594 -1.0385 -0.2140
 4868SOL     OW26236   0.812   1.370  10.337  0.5068 -0.0452  0.1121
 4868SOL    HW126237   0.762   1.323  10.403 -1.4034 -0.6204 -1.7437
 4868SOL    HW226238   0.773   1.457  10.324 -2.7039 -1.6037 -0.5457
 4869SOL     OW26239   2.923   4.480  15.994  0.0251 -0.4783  0.3989
 4869SOL    HW126240   2.845   4.534  15.977  1.9324  2.7694  1.9195
 4869SOL    HW226241   2.983   4.548  16.025 -0.0093 -0.6286  0.7864
 4870SOL     OW26242   4.299   1.952   4.884  0.6935  0.1327 -0.5056
 4870SOL    HW126243   4.252   1.875   4.917  0.3789  1.1628  1.4455
 4870SOL    HW226244   4.382   1.909   4.864  0.7623 -0.7309  1.5953
 4871SOL     OW26245   3.850   1.047   7.539  0.2233 -0.8722  0.3013
 4871SOL    HW126246   3.864   1.040   7.444 -0.7892 -0.3751  0.1147
 4871SOL    HW226247   3.768   1.096   7.533  1.5680  1.5072  1.3522
 4872SOL     OW26248   3.867   1.078   2.551 -0.2240 -0.1346  0.4303
 4872SOL    HW126249   3.935   1.128   2.506  1.2738 -1.5226  1.1197
 4872SOL    HW226250   3.831   1.140   2.614 -0.6350  2.1026 -2.0062
 4873SOL     OW26251   0.345   0.221   3.750  0.9243  0.2715 -0.0882
 4873SOL    HW126252   0.257   0.243   3.719  1.2315 -0.0671 -1.2100
 4873SOL    HW226253   0.335   0.230   3.845 -2.7785  1.9121 -0.6121
 4874SOL     OW26254   0.306   3.402   8.135 -0.4456  0.0129 -0.3509
 4874SOL    HW126255   0.338   3.329   8.082  3.8210  1.7531 -0.1858
 4874SOL    HW226256   0.331   3.374   8.223  0.1895 -2.9689 -1.4715
 4875SOL     OW26257   3.676   4.407   1.336  0.0496  0.1674 -0.1326
 4875SOL    HW126258   3.658   4.369   1.422  1.7679  0.6222  0.4323
 4875SOL    HW226259   3.692   4.330   1.282  0.7793 -0.3555  0.8110
 4876SOL     OW26260   3.017   3.086  11.876  0.8368 -0.1965  0.9461
 4876SOL    HW126261   3.084   3.055  11.937  2.0241 -1.6039 -1.0449
 4876SOL    HW226262   3.017   3.181  11.870 -1.2884 -0.1967  0.9786
 4877SOL     OW26263   0.458   3.990   7.878 -0.4322  0.1199 -0.5295
 4877SOL    HW126264   0.520   3.948   7.938 -0.0375 -1.3286 -1.9691
 4877SOL    HW226265   0.377   3.993   7.930 -0.3365  4.5011 -0.5866
 4878SOL     OW26266   3.265   3.172  11.437  0.4070  0.3578 -0.2765
 4878SOL    HW126267   3.243   3.125  11.356 -1.7239 -0.0078  0.5331
 4878SOL    HW226268   3.345   3.215  11.407  0.4830  0.2792 -0.1890
 4879SOL     OW26269   1.657   3.661   4.297 -0.0454  0.4561  0.4476
 4879SOL    HW126270   1.640   3.567   4.306  0.6504  0.4567  1.8256
 4879SOL    HW226271   1.587   3.680   4.235 -0.4327 -1.6255  0.2655
 4880SOL     OW26272   0.494   2.888  11.770  0.6538  0.0213  0.5151
 4880SOL    HW126273   0.571   2.908  11.823  0.4973  1.5574  0.1533
 4880SOL    HW226274   0.486   2.794  11.786  2.1697  0.0840  1.5600
 4881SOL     OW26275   2.948   2.244   9.412  0.5036 -0.2964 -0.1036
 4881SOL    HW126276   3.007   2.230   9.338  0.5177 -1.4296  0.1135
 4881SOL    HW226277   2.865   2.244   9.365 -0.0536  0.1997  0.8808
 4882SOL     OW26278   3.873   2.814  10.622 -0.2081 -0.8299  0.2782
 4882SOL    HW126279   3.783   2.835  10.598 -1.3916 -5.0112  1.0912
 4882SOL    HW226280   3.852   2.770  10.705 -1.2505 -2.4549 -0.8546
 4883SOL     OW26281   4.353   4.416   8.908 -0.3400  0.0176  0.6453
 4883SOL    HW126282   4.336   4.349   8.842 -2.9069  1.7423 -0.4464
 4883SOL    HW226283   4.300   4.487   8.871  0.4879  0.7722  0.9114
 4884SOL     OW26284   1.079   3.436   1.485 -0.3807 -0.1048  0.2368
 4884SOL    HW126285   0.987   3.416   1.467 -0.5410  1.8866 -1.2209
 4884SOL    HW226286   1.096   3.529   1.499  1.1937 -0.4641  0.6816
 4885SOL     OW26287   1.659   4.375  10.251  0.2216  1.0115  0.0719
 4885SOL    HW126288   1.593   4.387  10.319  0.2069 -1.4435  0.4791
 4885SOL    HW226289   1.678   4.281  10.246  1.9408  1.4161 -1.0958
 4886SOL     OW26290   4.197   0.293   6.208 -0.2613  0.7509 -0.9852
 4886SOL    HW126291   4.192   0.389   6.204 -0.3000  0.7684 -0.5198
 4886SOL    HW226292   4.128   0.259   6.150 -0.6361 -0.9171  0.4564
 4887SOL     OW26293   3.873   4.452   8.246 -0.4349 -0.0977 -0.1623
 4887SOL    HW126294   3.835   4.529   8.289 -0.6426 -0.2630 -0.0467
 4887SOL    HW226295   3.806   4.384   8.250 -0.4554  0.0069  1.3370
 4888SOL     OW26296   1.526   3.326  10.512 -0.0430  0.6023  0.2174
 4888SOL    HW126297   1.559   3.351  10.598 -0.0728  0.4406  0.2766
 4888SOL    HW226298   1.430   3.322  10.512 -0.0539  0.8674 -0.8682
 4889SOL     OW26299   4.218   3.020   6.890  0.2332  0.0084  0.3992
 4889SOL    HW126300   4.311   3.042   6.903  0.9490 -1.8611 -1.5057
 4889SOL    HW226301   4.183   3.043   6.976 -2.2317 -0.6908 -0.4376
 4890SOL     OW26302   2.005   2.856   4.511  0.8587  0.4350 -0.0564
 4890SOL    HW126303   2.100   2.852   4.527  0.6804 -1.2627  0.5530
 4890SOL    HW226304   2.011   2.818   4.423  1.1672 -2.4725  1.2393
 4891SOL     OW26305   1.202   1.544  14.047  0.5255 -0.4475  0.7922
 4891SOL    HW126306   1.268   1.476  14.059 -0.9889 -1.6006  2.6078
 4891SOL    HW226307   1.246   1.615  14.095 -0.4821  1.9608 -1.8920
 4892SOL     OW26308   0.215   2.980  16.900  0.5780  0.1602 -0.1923
 4892SOL    HW126309   0.149   3.045  16.924 -1.2107 -1.1243 -1.6018
 4892SOL    HW226310   0.198   2.964  16.807  1.7038  0.9419 -0.5402
 4893SOL     OW26311   3.806   4.381   5.617 -0.3427  0.1640 -0.4169
 4893SOL    HW126312   3.830   4.471   5.591 -1.0520  0.9986  1.8574
 4893SOL    HW226313   3.888   4.355   5.659 -0.4565 -0.0293 -0.3194
 4894SOL     OW26314   0.952   1.459  12.278 -0.1386 -0.0513 -0.1632
 4894SOL    HW126315   0.934   1.534  12.334  0.5781  1.4971 -1.9784
 4894SOL    HW226316   0.975   1.504  12.196  0.9965 -0.2666  0.0392
 4895SOL     OW26317   3.470   0.147   8.355 -0.6372 -0.2709  0.2549
 4895SOL    HW126318   3.540   0.135   8.420  1.1641 -1.0082 -1.8370
 4895SOL    HW226319   3.394   0.166   8.411 -1.3054  1.8320 -1.3962
 4896SOL     OW26320   2.730   3.244  14.815 -0.4163  0.1261 -0.3136
 4896SOL    HW126321   2.798   3.309  14.799  0.5941 -0.5499  1.2661
 4896SOL    HW226322   2.782   3.165  14.826 -0.8493 -0.0208  0.6785
 4897SOL     OW26323   4.334   2.547   3.427  0.4642  0.1696  0.3931
 4897SOL    HW126324   4.398   2.552   3.355 -1.9008 -0.7089 -1.7760
 4897SOL    HW226325   4.382   2.478   3.473  4.2303  1.8737 -0.9223
 4898SOL     OW26326   3.642   0.603  11.394  0.5250 -0.0870  0.2187
 4898SOL    HW126327   3.603   0.677  11.347 -0.2808 -1.1544 -0.8003
 4898SOL    HW226328   3.624   0.530  11.334  0.5434  0.0974 -0.0118
 4899SOL     OW26329   4.057   4.026   8.135  0.1514  0.1689 -0.0114
 4899SOL    HW126330   3.978   4.080   8.130  0.2311  0.0254 -2.6507
 4899SOL    HW226331   4.034   3.946   8.088  1.5570  0.3261 -0.9595
 4900SOL     OW26332   1.361   0.496   3.918 -0.4928 -0.0973 -0.5178
 4900SOL    HW126333   1.372   0.529   4.007  1.0987 -2.0968  0.0421
 4900SOL    HW226334   1.318   0.411   3.934  0.2455 -0.3266  0.2337
 4901SOL     OW26335   1.801   0.570   7.960 -0.5002 -0.0165  0.2404
 4901SOL    HW126336   1.737   0.518   8.008 -0.8930  0.5761  0.3597
 4901SOL    HW226337   1.749   0.579   7.879  1.1762  1.8112 -0.6478
 4902SOL     OW26338   4.252   2.315   4.721  0.3190  0.0695  0.0191
 4902SOL    HW126339   4.237   2.365   4.801  1.3101 -1.6105  1.2431
 4902SOL    HW226340   4.180   2.253   4.711 -0.5491  0.6247  2.7033
 4903SOL     OW26341   3.255   3.401  14.113 -1.0243 -0.0914 -0.1641
 4903SOL    HW126342   3.184   3.465  14.121 -0.1605  1.0964 -2.0411
 4903SOL    HW226343   3.243   3.350  14.193 -0.4439  0.9417  0.5755
 4904SOL     OW26344   3.991   3.690   0.670 -0.0749  0.5616  0.1760
 4904SOL    HW126345   4.043   3.714   0.593 -0.8426  0.1143 -0.4908
 4904SOL    HW226346   4.010   3.771   0.716  1.1469 -1.0454  2.5191
 4905SOL     OW26347   1.910   4.038   2.208 -0.3244  0.1584  0.0946
 4905SOL    HW126348   1.942   4.000   2.290 -1.4362 -1.6015 -0.2804
 4905SOL    HW226349   1.824   4.069   2.234  0.5124  0.6393  2.2395
 4906SOL     OW26350   3.989   1.848  13.607 -0.0994  0.5336  0.2663
 4906SOL    HW126351   3.901   1.881  13.591  0.9086  2.5931 -0.9713
 4906SOL    HW226352   3.995   1.759  13.571  0.6385  0.4796  0.5093
 4907SOL     OW26353   1.989   2.471   9.148 -0.4073  1.2575 -0.2618
 4907SOL    HW126354   2.059   2.505   9.204  0.9405 -0.0828 -1.1427
 4907SOL    HW226355   2.013   2.379   9.138 -1.3271  1.0853 -0.8987
 4908SOL     OW26356   4.232   3.304   8.691 -0.1115 -0.6541 -0.3559
 4908SOL    HW126357   4.224   3.261   8.605 -1.4523 -0.9220 -0.0952
 4908SOL    HW226358   4.197   3.392   8.676 -0.8766 -0.8019  0.6072
 4909SOL     OW26359   4.180   4.718  11.521 -0.1209  0.0333 -0.0221
 4909SOL    HW126360   4.133   0.001  11.602  0.3794  0.0241  0.2740
 4909SOL    HW226361   4.176   0.064  11.471 -0.1076 -0.5501 -0.9888
 4910SOL     OW26362   1.241   2.935   7.285  0.3432  0.2841  0.0475
 4910SOL    HW126363   1.302   2.916   7.213 -1.0543 -0.0697 -1.0391
 4910SOL    HW226364   1.301   2.936   7.360  0.4804 -1.9202 -0.0314
 4911SOL     OW26365   2.937   0.049   3.990  0.2990  0.2877  0.0273
 4911SOL    HW126366   2.894   4.722   4.048 -0.1350  1.1598  0.6714
 4911SOL    HW226367   3.019   0.010   3.962 -0.2016 -0.5525 -0.2528
 4912SOL     OW26368   1.250   3.018   6.973 -0.5524 -0.0264 -0.3174
 4912SOL    HW126369   1.213   3.106   6.974 -1.4467 -0.4093 -0.3395
 4912SOL    HW226370   1.175   2.976   7.014 -0.7987  1.7663  1.0601
 4913SOL     OW26371   0.487   3.647   6.106 -0.2953  0.0556 -0.0756
 4913SOL    HW126372   0.569   3.694   6.125 -1.0997  0.2647  2.9036
 4913SOL    HW226373   0.517   3.573   6.053  1.8510  0.6946  0.2479
 4914SOL     OW26374   3.825   1.576  11.481  0.2337  0.5571 -0.4423
 4914SOL    HW126375   3.771   1.513  11.528  0.4944  1.7365  1.4206
 4914SOL    HW226376   3.911   1.535  11.490  0.0354  0.9023  3.0642
 4915SOL     OW26377   1.259   4.615   1.923 -0.5696 -0.2476  0.1564
 4915SOL    HW126378   1.210   4.694   1.946  0.7879  0.0969  1.8441
 4915SOL    HW226379   1.255   4.619   1.827 -0.1759 -0.6890  0.1245
 4916SOL     OW26380   1.667   4.360   3.138 -0.2941  0.3100 -0.2825
 4916SOL    HW126381   1.696   4.450   3.121 -1.7770  1.0400  0.9399
 4916SOL    HW226382   1.574   4.360   3.113 -0.6537  1.9901  1.0046
 4917SOL     OW26383   0.659   3.328   3.362 -0.0768 -0.1607  0.1528
 4917SOL    HW126384   0.600   3.259   3.392  0.2425 -0.0540  1.0378
 4917SOL    HW226385   0.681   3.282   3.281 -1.4617  1.9613 -1.4291
 4918SOL     OW26386   4.265   1.883   6.475  0.6825  0.3764 -0.3486
 4918SOL    HW126387   4.296   1.916   6.391  1.1382 -0.1215 -0.3722
 4918SOL    HW226388   4.216   1.807   6.442  1.1315 -1.0843  2.3436
 4919SOL     OW26389   3.556   1.657   2.050 -0.2899 -0.1944 -0.4961
 4919SOL    HW126390   3.631   1.629   2.103 -0.2388 -1.0490 -1.0111
 4919SOL    HW226391   3.559   1.595   1.977 -0.5706 -1.9522  0.9863
 4920SOL     OW26392   2.644   2.468   6.197  0.0497 -0.7348  0.3053
 4920SOL    HW126393   2.625   2.559   6.216 -1.4001 -0.4111 -2.8885
 4920SOL    HW226394   2.560   2.442   6.160 -1.0845  2.1864  0.8575
 4921SOL     OW26395   1.024   3.198   7.278  0.0150 -0.6489  0.3192
 4921SOL    HW126396   1.081   3.266   7.314 -1.4471  0.4316  0.5866
 4921SOL    HW226397   1.079   3.120   7.273  0.9862  0.0470  0.2438
 4922SOL     OW26398   4.257   3.922   4.479 -0.1109  0.0197  0.7449
 4922SOL    HW126399   4.326   3.872   4.434 -2.4771 -1.8320 -0.8383
 4922SOL    HW226400   4.294   4.008   4.497  0.8181 -0.2368  0.0906
 4923SOL     OW26401   3.459   1.592  13.614  0.0404  0.0897 -0.1504
 4923SOL    HW126402   3.455   1.687  13.602 -0.0573  0.3489  1.9281
 4923SOL    HW226403   3.395   1.585  13.686  2.1059 -0.9479  1.5947
 4924SOL     OW26404   1.200   4.021   2.196  0.5728  0.1786 -0.0622
 4924SOL    HW126405   1.187   3.928   2.212 -0.3341  0.3302  0.1080
 4924SOL    HW226406   1.136   4.059   2.256  0.9339  1.2332 -0.3389
 4925SOL     OW26407   4.337   4.691   5.007 -0.2109 -0.1831  0.2243
 4925SOL    HW126408   4.385   4.735   4.937  1.3676 -3.1746 -0.5646
 4925SOL    HW226409   4.334   0.026   5.072  0.5153 -0.4542  0.5530
 4926SOL     OW26410   2.096   3.709   6.915  0.5010  0.6778 -0.0706
 4926SOL    HW126411   2.121   3.748   6.832 -0.8519 -1.4699 -1.4848
 4926SOL    HW226412   2.125   3.618   6.913  0.4855  0.6529  0.8576
 4927SOL     OW26413   2.358   4.209  17.038 -0.5664 -0.3592 -0.4927
 4927SOL    HW126414   2.270   4.208  17.000 -1.5087  0.4890  1.6148
 4927SOL    HW226415   2.349   4.152  17.114 -2.2058  1.0182  0.3614
 4928SOL     OW26416   1.975   2.504   8.146  0.2311 -0.1768  0.0844
 4928SOL    HW126417   1.976   2.410   8.162  2.2248 -0.1017  0.3375
 4928SOL    HW226418   2.045   2.529   8.206 -0.6312  0.3581  0.8799
 4929SOL     OW26419   2.862   1.342  11.152 -0.7754 -0.4890  0.0029
 4929SOL    HW126420   2.953   1.333  11.122 -0.6089 -0.4958  0.5176
 4929SOL    HW226421   2.858   1.300  11.237  0.3495  0.0881  0.3350
 4930SOL     OW26422   1.642   0.792   2.518 -0.2469  0.4133 -0.4508
 4930SOL    HW126423   1.589   0.712   2.520  0.6226 -0.0896  2.6563
 4930SOL    HW226424   1.577   0.846   2.563  0.3803 -0.8548  2.0021
 4931SOL     OW26425   4.220   2.522   4.479  0.0120 -0.2384  0.4604
 4931SOL    HW126426   4.251   2.465   4.408  0.7793  3.1952 -1.9787
 4931SOL    HW226427   4.245   2.468   4.554  0.0059 -0.1463  0.5275
 4932SOL     OW26428   0.465   3.949   2.196  0.0819 -0.4064 -0.1276
 4932SOL    HW126429   0.464   3.857   2.171 -0.2860 -0.7171  1.0444
 4932SOL    HW226430   0.554   3.974   2.171 -0.4897  2.5343  0.7736
 4933SOL     OW26431   3.287   0.398   6.729  0.2239 -0.0778  0.0093
 4933SOL    HW126432   3.304   0.453   6.806  2.4415 -1.7135  0.7027
 4933SOL    HW226433   3.231   0.323   6.748 -1.1570  0.8221 -0.5637
 4934SOL     OW26434   4.134   4.723   3.730  0.1981  0.3942  0.1810
 4934SOL    HW126435   4.196   0.048   3.771 -1.8378  1.6100  1.4145
 4934SOL    HW226436   4.065   4.732   3.795  1.5327 -2.3788  1.9540
 4935SOL     OW26437   3.145   0.014   6.280 -0.1884 -0.4407 -0.2945
 4935SOL    HW126438   3.148   0.008   6.375 -1.4005  2.8983 -0.0569
 4935SOL    HW226439   3.196   4.672   6.256 -1.3764 -1.0443 -0.9065
 4936SOL     OW26440   2.970   2.271   7.244  0.9555 -0.3169  0.2619
 4936SOL    HW126441   3.016   2.342   7.288  2.0470 -1.5062  1.0215
 4936SOL    HW226442   3.002   2.195   7.293  1.1681 -0.3789  0.0337
 4937SOL     OW26443   1.095   0.897   3.769  0.1463  0.3708  0.3205
 4937SOL    HW126444   1.120   0.845   3.692 -1.4467  2.2922 -1.4984
 4937SOL    HW226445   1.009   0.928   3.742  0.5836  1.2646 -0.0503
 4938SOL     OW26446   3.325   0.533   9.590 -0.3616 -0.1511 -0.3046
 4938SOL    HW126447   3.304   0.590   9.516 -0.2448  0.7579  0.3627
 4938SOL    HW226448   3.313   0.599   9.658 -0.9584  0.1643 -0.7143
 4939SOL     OW26449   2.683   3.953   6.683 -0.6609 -0.1694 -0.8887
 4939SOL    HW126450   2.736   3.876   6.700 -1.1347 -0.5585 -1.1749
 4939SOL    HW226451   2.752   4.019   6.685  0.3193 -1.2300  0.1177
 4940SOL     OW26452   0.006   3.616   1.815 -0.0972 -0.3838 -0.3494
 4940SOL    HW126453   0.039   3.640   1.728  0.8889  1.1013  0.4542
 4940SOL    HW226454   4.679   3.687   1.826 -1.4190 -1.6035 -0.0509
 4941SOL     OW26455   1.065   2.157   8.621 -0.3084 -0.3751  0.0663
 4941SOL    HW126456   1.012   2.235   8.637  0.1060 -0.6985  3.1021
 4941SOL    HW226457   0.990   2.112   8.583 -0.3093 -0.1140 -0.2424
 4942SOL     OW26458   1.830   3.245   7.579  0.0475 -0.3071 -0.1104
 4942SOL    HW126459   1.851   3.160   7.618  1.6313  0.9655  1.7989
 4942SOL    HW226460   1.784   3.278   7.657  1.1138 -1.1068  0.8649
 4943SOL     OW26461   3.205   1.369   7.507 -0.0142 -0.0292 -0.0521
 4943SOL    HW126462   3.125   1.405   7.546  0.5888  0.3163  0.8640
 4943SOL    HW226463   3.256   1.447   7.486  0.3912 -0.9366 -2.5027
 4944SOL     OW26464   4.334   0.484  15.260 -0.4419 -0.2255  0.4707
 4944SOL    HW126465   4.352   0.408  15.205  2.7243  0.4372  0.6332
 4944SOL    HW226466   4.405   0.541  15.231  1.1451 -2.0875  0.6778
 4945SOL     OW26467   3.726   0.176   5.291 -0.2584 -0.1375  0.8160
 4945SOL    HW126468   3.796   0.124   5.331 -0.1578  0.2498  1.1384
 4945SOL    HW226469   3.653   0.117   5.309 -1.1645  0.3410 -1.2975
 4946SOL     OW26470   2.863   3.646   7.582 -0.3958  0.2055 -0.0563
 4946SOL    HW126471   2.805   3.655   7.658  1.1370 -0.4929  1.1934
 4946SOL    HW226472   2.806   3.593   7.527 -0.3563 -0.1472  0.2458
 4947SOL     OW26473   0.366   3.169  17.602 -0.4891 -0.3401 -1.0343
 4947SOL    HW126474   0.308   3.127  17.539 -0.2790  0.9343 -2.0868
 4947SOL    HW226475   0.435   3.211  17.550 -0.5208 -0.9353 -1.5515
 4948SOL     OW26476   3.992   4.683   2.395  0.2982 -0.3521 -0.5761
 4948SOL    HW126477   4.045   0.001   2.336  0.9166  1.0563  1.2677
 4948SOL    HW226478   3.906   4.724   2.392  0.1810 -0.6600 -1.6091
 4949SOL     OW26479   2.504   3.150  11.841 -0.1201 -0.6710  0.2926
 4949SOL    HW126480   2.488   3.172  11.750 -2.7174  0.0372  0.9191
 4949SOL    HW226481   2.433   3.093  11.872  0.0963 -0.7856  0.5834
 4950SOL     OW26482   3.063   0.073   2.734  0.1719  0.6575 -0.5398
 4950SOL    HW126483   3.059   0.095   2.641  0.4322 -2.1109 -1.2060
 4950SOL    HW226484   2.974   0.037   2.732  0.6409 -0.4827 -1.3441
 4951SOL     OW26485   1.524   3.633   6.778  0.4401 -0.6659 -0.2170
 4951SOL    HW126486   1.588   3.591   6.721  1.3743  0.3423  0.0950
 4951SOL    HW226487   1.454   3.644   6.714  0.2212  0.7628  0.2458
 4952SOL     OW26488   1.363   0.394  10.695 -0.0970  0.1688 -0.4245
 4952SOL    HW126489   1.309   0.433  10.764  1.2999 -0.0663  0.8022
 4952SOL    HW226490   1.444   0.401  10.745 -1.7357 -3.1072  2.6026
 4953SOL     OW26491   3.248   1.947  11.225  0.8589 -0.7020  0.5575
 4953SOL    HW126492   3.332   1.923  11.186  0.8421 -0.2581  0.2426
 4953SOL    HW226493   3.223   2.010  11.158  0.7447 -0.5830  0.7115
 4954SOL     OW26494   4.641   1.299   0.127  0.2658  0.3865  0.3882
 4954SOL    HW126495   4.707   1.366   0.144  0.0415  0.5173  0.7521
 4954SOL    HW226496   4.633   1.259   0.214 -0.7454  1.8793  0.9737
 4955SOL     OW26497   3.961   4.620   4.379 -0.1472  0.1036 -0.2742
 4955SOL    HW126498   3.887   4.664   4.422 -0.0196  1.4049 -1.3958
 4955SOL    HW226499   4.031   4.661   4.429  1.6255 -0.7790 -2.0414
 4956SOL     OW26500   1.851   0.956   3.241 -0.0103 -0.2316 -0.1277
 4956SOL    HW126501   1.899   1.000   3.311 -0.0050  1.0003 -0.9216
 4956SOL    HW226502   1.820   0.872   3.276  0.6107 -0.0833  0.7754
 4957SOL     OW26503   2.921   1.536   7.141  0.4862  0.0594  0.4928
 4957SOL    HW126504   2.879   1.612   7.102 -1.6374 -0.8065  1.1110
 4957SOL    HW226505   2.841   1.485   7.155  1.3531 -1.6833 -0.8318
 4958SOL     OW26506   1.117   0.586   4.630 -0.1158 -0.0704  0.0366
 4958SOL    HW126507   1.057   0.519   4.599 -1.2476 -0.0679  2.2058
 4958SOL    HW226508   1.131   0.621   4.542 -2.5092 -0.1424 -0.3873
 4959SOL     OW26509   3.166   1.651   4.992 -0.0185 -0.2793 -0.2462
 4959SOL    HW126510   3.139   1.604   5.070  2.2326 -0.3117  0.5205
 4959SOL    HW226511   3.239   1.697   5.033 -0.2887  0.4885 -0.6270
 4960SOL     OW26512   2.048   1.434   4.430  0.0014 -0.0610 -0.0885
 4960SOL    HW126513   2.053   1.393   4.344  0.5209 -0.0081 -0.0811
 4960SOL    HW226514   2.075   1.524   4.412  1.0100 -0.7933 -2.1388
 4961SOL     OW26515   4.183   2.569  17.195  0.1166 -0.5398  0.0226
 4961SOL    HW126516   4.223   2.499  17.247 -1.3707 -1.5831 -0.2347
 4961SOL    HW226517   4.246   2.582  17.125 -0.4369  0.4425 -0.2770
 4962SOL     OW26518   0.907   2.476   1.303 -0.6567  0.5018  0.8600
 4962SOL    HW126519   0.914   2.529   1.224 -0.2703  2.8652  2.4981
 4962SOL    HW226520   0.905   2.544   1.370  0.8234  1.8065 -0.4343
 4963SOL     OW26521   0.009   4.249  10.603  0.1229 -0.3360 -0.1184
 4963SOL    HW126522   0.026   4.248  10.698 -0.8992 -0.0732  0.0585
 4963SOL    HW226523   4.675   4.185  10.595  0.1515 -0.6083  1.6561
 4964SOL     OW26524   1.019   0.423   8.609 -0.1886  0.0530 -0.3882
 4964SOL    HW126525   0.993   0.431   8.701 -2.0139 -1.2794 -0.7813
 4964SOL    HW226526   1.114   0.426   8.622 -0.2973  1.5538  0.0720
 4965SOL     OW26527   2.195   3.295  11.911  0.1146  0.0696 -0.2782
 4965SOL    HW126528   2.178   3.376  11.959  0.5375  1.6702 -2.8810
 4965SOL    HW226529   2.242   3.248  11.981 -1.0993 -1.4319 -0.4802
 4966SOL     OW26530   1.108   0.191   9.163 -0.1682  0.1328 -0.1044
 4966SOL    HW126531   1.042   0.238   9.214  2.3024  2.5091  0.8984
 4966SOL    HW226532   1.193   0.224   9.193 -0.1342 -2.7613  2.9223
 4967SOL     OW26533   3.182   2.474   3.979  0.0407 -0.6099  0.7458
 4967SOL    HW126534   3.113   2.486   4.045 -1.6878 -1.4270 -0.9070
 4967SOL    HW226535   3.134   2.462   3.897 -1.7469  1.1498  1.5505
 4968SOL     OW26536   4.146   2.598   2.148 -0.3505 -0.0207  0.2100
 4968SOL    HW126537   4.134   2.692   2.137  5.2664  0.3766 -2.7917
 4968SOL    HW226538   4.209   2.590   2.076 -1.4281 -3.1362 -0.4229
 4969SOL     OW26539   4.291   3.908   8.661  0.0477  0.4770  0.2957
 4969SOL    HW126540   4.201   3.939   8.677 -0.2748 -0.1222 -0.3228
 4969SOL    HW226541   4.277   3.885   8.569 -0.7477  0.2079  0.4770
 4970SOL     OW26542   0.957   2.248   5.537  0.0531  0.1566  0.2946
 4970SOL    HW126543   0.890   2.289   5.483 -0.1248 -1.1351 -0.4699
 4970SOL    HW226544   0.938   2.155   5.523 -0.7038  0.4164 -0.3734
 4971SOL     OW26545   0.380   2.493   7.143 -0.0519 -0.0799  0.1114
 4971SOL    HW126546   0.373   2.493   7.048  0.1735  0.7449  0.1006
 4971SOL    HW226547   0.463   2.538   7.155  0.4185 -0.8655 -0.2233
 4972SOL     OW26548   0.836   4.387  16.917  0.6415  0.2650  0.0811
 4972SOL    HW126549   0.853   4.452  16.849  0.6591 -1.0073 -1.1184
 4972SOL    HW226550   0.775   4.338  16.862  2.7503 -0.3867 -1.6463
 4973SOL     OW26551   4.463   3.828   4.253  0.8666 -0.1650 -0.5561
 4973SOL    HW126552   4.464   3.909   4.203  2.0908  0.3051  0.2418
 4973SOL    HW226553   4.555   3.812   4.270  1.1572  0.8008 -1.2507
 4974SOL     OW26554   1.419   1.276  10.841  0.1279 -0.3660 -0.0401
 4974SOL    HW126555   1.462   1.355  10.873 -0.5792 -0.5124  1.2548
 4974SOL    HW226556   1.333   1.316  10.856  0.0245 -1.1006  1.2757
 4975SOL     OW26557   1.829   3.702   7.825 -0.2526 -0.0442 -0.1064
 4975SOL    HW126558   1.799   3.774   7.770  1.5884  0.5406 -0.3389
 4975SOL    HW226559   1.831   3.621   7.774  0.8211 -0.3499  0.4247
 4976SOL     OW26560   3.489   3.821   8.593 -0.6152 -0.1547  0.3782
 4976SOL    HW126561   3.404   3.792   8.624 -0.2435 -1.7620 -0.1084
 4976SOL    HW226562   3.527   3.734   8.580 -2.0579 -0.9231  1.3249
 4977SOL     OW26563   1.600   1.858   8.914  0.5008  0.0388 -0.4269
 4977SOL    HW126564   1.508   1.842   8.933  0.8946 -0.2496  1.2594
 4977SOL    HW226565   1.583   1.947   8.883 -2.3462 -0.5720 -0.5756
 4978SOL     OW26566   3.658   3.936   9.638 -0.4984 -0.4136 -0.1581
 4978SOL    HW126567   3.588   3.872   9.653 -0.4250 -0.6763 -0.9145
 4978SOL    HW226568   3.604   4.010   9.614  0.4263  0.9816  2.0326
 4979SOL     OW26569   3.224   0.300   7.638  0.5100  0.2883 -0.6331
 4979SOL    HW126570   3.177   0.357   7.578 -0.5169 -0.4689 -0.5534
 4979SOL    HW226571   3.150   0.272   7.692  1.7478 -1.3144  0.2639
 4980SOL     OW26572   1.719   4.580   6.460  0.0913 -0.4985  0.2420
 4980SOL    HW126573   1.665   4.547   6.388  1.7057 -0.3019 -1.0771
 4980SOL    HW226574   1.811   4.577   6.434  0.2387  2.2306  0.4715
 4981SOL     OW26575   3.662   1.071  17.722  0.0302  0.2510 -1.0420
 4981SOL    HW126576   3.600   1.115  17.664  1.0176  1.8132 -0.8865
 4981SOL    HW226577   3.728   1.052  17.656  0.9484  1.4280 -0.4615
 4982SOL     OW26578   0.317   4.497   4.223 -0.1825  0.1444 -0.1237
 4982SOL    HW126579   0.224   4.501   4.245 -0.1002  0.8702  0.0848
 4982SOL    HW226580   0.357   4.508   4.309  0.6250  2.2668 -0.7739
 4983SOL     OW26581   3.518   2.333   9.106  0.4369 -0.0940 -0.3153
 4983SOL    HW126582   3.470   2.346   9.188  0.3074  1.2581 -0.6118
 4983SOL    HW226583   3.442   2.305   9.056  1.5657 -0.3007 -1.9134
 4984SOL     OW26584   4.066   1.044   6.848 -0.5991  0.0505  0.1045
 4984SOL    HW126585   4.013   1.094   6.910  0.5529 -0.0160  1.1580
 4984SOL    HW226586   3.998   1.001   6.796  0.9952 -0.7177 -1.3645
 4985SOL     OW26587   4.404   2.491   2.775 -0.0724 -0.1681 -0.1553
 4985SOL    HW126588   4.367   2.480   2.688 -0.0591 -0.4579 -0.1230
 4985SOL    HW226589   4.381   2.583   2.789 -1.2393 -0.5170  0.2247
 4986SOL     OW26590   0.573   2.957   2.521  0.2006 -0.1332 -0.5834
 4986SOL    HW126591   0.658   3.001   2.525 -0.7897  1.7042  0.1318
 4986SOL    HW226592   0.531   2.985   2.440 -0.7413 -0.9127 -0.3646
 4987SOL     OW26593   4.092   4.057   5.155 -0.0584 -0.4872  0.4891
 4987SOL    HW126594   4.022   4.090   5.099  1.4333  3.2496  0.8877
 4987SOL    HW226595   4.099   3.967   5.123 -0.0653 -0.5035  0.5333
 4988SOL     OW26596   3.101   1.335  13.510  0.3237  0.3842 -0.3845
 4988SOL    HW126597   3.040   1.279  13.463  0.3072  0.8810 -0.9536
 4988SOL    HW226598   3.052   1.416  13.524 -1.8258 -0.6489 -1.9600
 4989SOL     OW26599   1.128   2.124   2.148  0.0902 -0.0412  0.1752
 4989SOL    HW126600   1.074   2.152   2.222 -0.1359 -0.0324  0.0032
 4989SOL    HW226601   1.057   2.082   2.101 -0.5531  1.3824 -0.1336
 4990SOL     OW26602   1.552   3.238   8.693  0.0248 -0.2156  0.1053
 4990SOL    HW126603   1.490   3.292   8.743 -0.5421 -1.3703  0.6580
 4990SOL    HW226604   1.620   3.301   8.671  0.6489 -1.1179 -0.5350
 4991SOL     OW26605   3.203   1.271   6.361 -0.2033  0.2105  0.2304
 4991SOL    HW126606   3.268   1.308   6.420  0.1354  0.7348 -0.4704
 4991SOL    HW226607   3.205   1.336   6.291 -2.5446  1.5828  1.4212
 4992SOL     OW26608   0.950   3.709   0.883  0.1635 -0.5739  0.1008
 4992SOL    HW126609   1.019   3.664   0.835 -1.4752 -1.2920 -1.5925
 4992SOL    HW226610   0.960   3.652   0.960  0.4718 -2.1369 -1.0844
 4993SOL     OW26611   0.433   2.631   3.598  0.4886 -0.1869 -0.4846
 4993SOL    HW126612   0.489   2.559   3.626 -0.1247  0.4303  2.3400
 4993SOL    HW226613   0.448   2.629   3.503  1.4392  0.8269 -0.3635
 4994SOL     OW26614   0.812   0.769   4.724 -0.4045 -0.5288  0.2008
 4994SOL    HW126615   0.809   0.743   4.632  1.7838 -1.2609  0.3366
 4994SOL    HW226616   0.729   0.813   4.743  0.2351  0.6296  0.3203
 4995SOL     OW26617   3.497   1.201   8.764  0.0659 -0.2246  0.4812
 4995SOL    HW126618   3.494   1.290   8.798  0.2457  0.0721 -0.2922
 4995SOL    HW226619   3.492   1.153   8.847 -0.9603 -0.1900  0.4438
 4996SOL     OW26620   3.373   1.312   6.070  0.3106 -0.3514  0.2936
 4996SOL    HW126621   3.417   1.384   6.115 -1.5752  0.3429  0.9960
 4996SOL    HW226622   3.313   1.369   6.022 -1.0328  0.2950  2.7249
 4997SOL     OW26623   2.063   1.769   6.007  1.1643  0.0652  0.5267
 4997SOL    HW126624   2.105   1.684   5.994  2.0336  0.7251 -0.9432
 4997SOL    HW226625   2.041   1.803   5.920  2.2442  1.2164  0.6980
 4998SOL     OW26626   4.243   2.845   7.776 -0.1218 -0.4398  0.2624
 4998SOL    HW126627   4.332   2.829   7.807  0.0292  1.7577  0.9031
 4998SOL    HW226628   4.261   2.866   7.684  3.1762 -0.7863  0.8460
 4999SOL     OW26629   2.830   0.846  16.702  0.0748  0.0331 -0.0506
 4999SOL    HW126630   2.792   0.897  16.630 -0.6110 -0.8323 -0.3161
 4999SOL    HW226631   2.837   0.912  16.770  1.6179 -0.9813  0.7691
 5000SOL     OW26632   0.310   2.936   5.714 -0.2557 -0.1239 -0.0051
 5000SOL    HW126633   0.316   2.885   5.634 -2.3821  3.8457 -2.6627
 5000SOL    HW226634   0.401   2.966   5.717  1.1631 -4.4933 -0.5308
 5001SOL     OW26635   2.774   0.651   8.108  0.0976  0.0144  0.1879
 5001SOL    HW126636   2.722   0.724   8.074  1.5100  0.6819 -0.5499
 5001SOL    HW226637   2.701   0.606   8.150 -0.9852  0.0390 -1.6737
 5002SOL     OW26638   4.271   0.747  10.460  0.0502 -0.2542 -0.3463
 5002SOL    HW126639   4.296   0.698  10.538 -0.6154  0.9030  0.5919
 5002SOL    HW226640   4.312   0.692  10.393  1.2727  0.8058 -0.4699
 5003SOL     OW26641   2.645   2.445   4.182  0.1483 -0.4912 -0.1964
 5003SOL    HW126642   2.552   2.465   4.191  0.0050 -2.4189  2.7885
 5003SOL    HW226643   2.668   2.494   4.103 -1.7431 -0.2308 -0.5769
 5004SOL     OW26644   3.733   1.704   2.327  0.5115 -0.9736  0.0183
 5004SOL    HW126645   3.696   1.682   2.413  0.6608 -0.9304  0.0941
 5004SOL    HW226646   3.736   1.798   2.344 -0.6112 -1.0523  0.7139
 5005SOL     OW26647   4.475   0.427   7.623  0.5370  0.0550 -0.0955
 5005SOL    HW126648   4.528   0.406   7.700 -0.6973 -1.8850  0.2306
 5005SOL    HW226649   4.386   0.405   7.652  1.5150 -1.4808  1.7401
 5006SOL     OW26650   2.379   1.511   7.871  0.2202 -0.2677 -0.1626
 5006SOL    HW126651   2.322   1.551   7.805 -1.2127 -1.1104  0.5731
 5006SOL    HW226652   2.436   1.453   7.820 -0.1736 -0.7734 -0.0251
 5007SOL     OW26653   3.917   4.058   4.457 -0.7329  0.1786  0.8369
 5007SOL    HW126654   3.875   4.014   4.383 -0.7076  1.3063  0.1454
 5007SOL    HW226655   3.885   4.147   4.440  0.0439  0.2664 -0.1724
 5008SOL     OW26656   1.521   0.575  12.631  0.1452 -0.1128  0.0739
 5008SOL    HW126657   1.606   0.619  12.625 -0.8237  1.4986 -1.5475
 5008SOL    HW226658   1.460   0.643  12.658  1.8478  1.7295 -0.7487
 5009SOL     OW26659   0.259   1.444  11.536 -0.4911  0.2173 -0.2887
 5009SOL    HW126660   0.202   1.493  11.476  0.0420 -1.5718 -2.2424
 5009SOL    HW226661   0.305   1.387  11.476  1.3085  1.0137  0.3459
 5010SOL     OW26662   2.429   3.547   8.287 -0.0364 -0.4212 -0.4777
 5010SOL    HW126663   2.452   3.555   8.195 -2.0012 -0.1176 -0.9358
 5010SOL    HW226664   2.391   3.459   8.283  1.4105 -1.0827  0.2142
 5011SOL     OW26665   0.002   1.461  15.405  0.3695  0.7359  0.3640
 5011SOL    HW126666   4.661   1.433  15.356  1.8199  0.0827 -1.5343
 5011SOL    HW226667   0.060   1.384  15.408 -0.3629  0.1667  0.0575
 5012SOL     OW26668   3.405   0.796   5.049 -0.3276 -0.5925 -0.0762
 5012SOL    HW126669   3.352   0.741   5.107  0.4180 -1.5298 -0.2820
 5012SOL    HW226670   3.473   0.735   5.021  1.0445  0.1839  1.5650
 5013SOL     OW26671   2.171   2.583   8.648 -0.0658  0.4650  0.1061
 5013SOL    HW126672   2.239   2.647   8.627  1.0715 -0.4995  0.8755
 5013SOL    HW226673   2.147   2.606   8.738  4.1732  1.3848  1.0041
 5014SOL     OW26674   0.410   3.892   4.393  0.0154 -0.0202  0.2067
 5014SOL    HW126675   0.472   3.941   4.340  1.3481 -1.9332  0.0007
 5014SOL    HW226676   0.465   3.836   4.448 -0.5136 -0.2919  0.4538
 5015SOL     OW26677   1.817   3.070   7.019  0.1786 -0.4074 -0.2434
 5015SOL    HW126678   1.753   3.125   6.974 -1.2793 -1.1418  0.9312
 5015SOL    HW226679   1.865   3.143   7.057  2.7941 -0.7071 -2.9329
 5016SOL     OW26680   0.608   1.870   4.274  0.7099  0.1012  0.1654
 5016SOL    HW126681   0.639   1.820   4.198 -0.8441  1.0413 -1.0749
 5016SOL    HW226682   0.521   1.835   4.289  0.4503  1.3416  1.5878
 5017SOL     OW26683   0.608   2.315  17.341 -0.1467 -0.3687 -0.0278
 5017SOL    HW126684   0.670   2.278  17.278 -0.2383  0.1348 -0.4116
 5017SOL    HW226685   0.582   2.399  17.303  1.5840 -0.5115 -1.5106
 5018SOL     OW26686   4.198   3.085  12.263 -0.0877 -0.1051 -0.7733
 5018SOL    HW126687   4.289   3.078  12.233 -0.3734 -0.7884 -1.4656
 5018SOL    HW226688   4.193   3.000  12.307  1.5197 -0.9180 -2.1836
 5019SOL     OW26689   3.112   1.651   2.807 -0.7733 -0.0305  0.5936
 5019SOL    HW126690   3.021   1.665   2.831 -0.9077  1.5997 -0.8453
 5019SOL    HW226691   3.124   1.559   2.830  3.7424  0.7791  1.5287
 5020SOL     OW26692   1.699   3.656   4.713 -0.1329 -0.0875 -0.0695
 5020SOL    HW126693   1.720   3.690   4.800 -1.7106  0.6918  0.0036
 5020SOL    HW226694   1.714   3.562   4.717  0.5372 -0.0970 -2.9093
 5021SOL     OW26695   2.409   1.854   7.745 -0.4779  0.2978  0.3287
 5021SOL    HW126696   2.425   1.930   7.688  3.2620 -0.5353  0.2474
 5021SOL    HW226697   2.380   1.906   7.820 -0.0210  0.6409  0.2703
 5022SOL     OW26698   0.334   4.667   3.989  0.0071 -0.1358 -0.6476
 5022SOL    HW126699   0.373   0.013   4.021  0.0376 -0.1956 -0.5310
 5022SOL    HW226700   0.333   4.619   4.072  0.3828  1.3249  0.2131
 5023SOL     OW26701   0.528   4.524  15.744  0.2269  0.0836 -0.1638
 5023SOL    HW126702   0.582   4.598  15.717  0.3039 -0.1868 -0.7506
 5023SOL    HW226703   0.567   4.515  15.831  0.8834 -1.3005 -0.6012
 5024SOL     OW26704   1.748   3.982   3.948 -0.2891 -0.0380 -0.5337
 5024SOL    HW126705   1.762   3.902   3.998 -0.8975 -0.4193 -0.9702
 5024SOL    HW226706   1.813   4.035   3.995  0.0875  0.7987 -1.9922
 5025SOL     OW26707   3.428   3.926   6.494 -0.2625  0.2666 -0.0174
 5025SOL    HW126708   3.495   3.861   6.513 -1.6812 -0.5787  2.0878
 5025SOL    HW226709   3.417   3.923   6.399 -1.4588 -1.0600  0.1653
 5026SOL     OW26710   3.217   2.138   3.834  0.7677 -0.0464  0.2341
 5026SOL    HW126711   3.159   2.101   3.767 -0.6626  0.9027  0.9390
 5026SOL    HW226712   3.167   2.116   3.912 -1.0550 -3.0469 -1.7494
 5027SOL     OW26713   2.049   3.277   2.582 -0.5118  0.2941  0.4534
 5027SOL    HW126714   2.104   3.259   2.659  1.4025 -0.8146 -1.1740
 5027SOL    HW226715   1.970   3.230   2.611  0.7736 -0.1281  3.2516
 5028SOL     OW26716   3.012   1.064   1.369 -0.0978  0.1799  0.3702
 5028SOL    HW126717   3.011   1.049   1.274 -2.3854 -0.7864  0.5608
 5028SOL    HW226718   3.066   0.985   1.383  2.0849  1.2326 -2.0951
 5029SOL     OW26719   2.076   2.833  16.833  0.1109 -0.5703 -1.0243
 5029SOL    HW126720   2.032   2.848  16.749 -1.4380  0.3524 -0.0428
 5029SOL    HW226721   1.998   2.840  16.887  1.2315 -1.2854  0.6997
 5030SOL     OW26722   0.296   0.977   5.801  0.4928 -0.2542  0.2781
 5030SOL    HW126723   0.346   0.986   5.720  0.3406  0.2960  0.2496
 5030SOL    HW226724   0.354   1.027   5.857 -0.0772  0.7230 -0.0015
 5031SOL     OW26725   3.012   0.393   4.910  0.3972 -0.3278  0.5271
 5031SOL    HW126726   2.959   0.457   4.957  0.7446  0.2398  0.1468
 5031SOL    HW226727   2.986   0.386   4.818  3.1737  0.6386 -0.3434
 5032SOL     OW26728   1.640   2.343  13.086  0.7817  0.4772  0.5747
 5032SOL    HW126729   1.637   2.435  13.060 -1.7170  0.4353  0.6828
 5032SOL    HW226730   1.553   2.325  13.122 -0.5011  0.0297 -2.7131
 5033SOL     OW26731   3.882   1.054   8.410 -0.4378  0.3772  0.2368
 5033SOL    HW126732   3.958   1.003   8.440  0.1767 -0.0126 -1.9808
 5033SOL    HW226733   3.907   1.138   8.449  1.1007  0.4523 -0.9150
 5034SOL     OW26734   0.621   3.820  12.652 -0.0457  0.7957 -0.2465
 5034SOL    HW126735   0.715   3.802  12.660 -0.3018 -0.9588 -1.1775
 5034SOL    HW226736   0.628   3.914  12.637  0.1941  0.8427  0.1639
 5035SOL     OW26737   3.227   2.217  12.884 -0.5178  0.9342 -0.0763
 5035SOL    HW126738   3.201   2.150  12.946 -1.2172  1.9177  0.7006
 5035SOL    HW226739   3.214   2.164  12.805  0.5423 -0.6323  0.8286
 5036SOL     OW26740   2.814   3.419   6.713  0.3989 -0.2673  0.0376
 5036SOL    HW126741   2.744   3.421   6.648 -2.2777 -1.6084  2.8634
 5036SOL    HW226742   2.882   3.371   6.666 -1.5697 -1.5816 -1.4701
 5037SOL     OW26743   2.421   1.870   9.656  0.8661 -0.1952 -0.6219
 5037SOL    HW126744   2.346   1.832   9.701  1.4639  0.0021  0.5326
 5037SOL    HW226745   2.422   1.822   9.573 -0.3321  1.8985 -1.8576
 5038SOL     OW26746   2.627   0.547   3.559  0.0866  0.2633  0.4698
 5038SOL    HW126747   2.715   0.529   3.527  0.1059  0.9592  0.1306
 5038SOL    HW226748   2.602   0.461   3.592  0.0137 -1.0411 -3.0479
 5039SOL     OW26749   3.077   2.771   7.517  0.2254  0.7779  0.0250
 5039SOL    HW126750   3.112   2.856   7.488 -0.0898 -0.2887 -3.3929
 5039SOL    HW226751   3.156   2.721   7.536  0.1500  0.2598 -1.0563
 5040SOL     OW26752   4.591   3.753   0.211 -0.6257 -0.1477  0.0716
 5040SOL    HW126753   4.584   3.812   0.136 -0.2790 -2.2596 -1.6009
 5040SOL    HW226754   4.526   3.693   0.176 -0.3228  0.0512 -0.8403
 5041SOL     OW26755   3.891   1.707   1.388  0.5653  0.3188 -0.0998
 5041SOL    HW126756   3.950   1.781   1.399  0.9914  0.0507 -0.6244
 5041SOL    HW226757   3.926   1.663   1.466 -0.0031 -1.6117 -0.9394
 5042SOL     OW26758   4.236   4.077   0.522 -0.4294 -0.2614  0.4112
 5042SOL    HW126759   4.265   4.036   0.603 -1.4526  0.0397  0.9320
 5042SOL    HW226760   4.298   4.149   0.534  0.7357 -0.8495 -2.2976
 5043SOL     OW26761   3.565   3.252   5.081 -0.1548  0.2712 -0.1300
 5043SOL    HW126762   3.586   3.208   4.999 -1.2923  1.8585 -1.2858
 5043SOL    HW226763   3.470   3.237   5.079 -0.4991  2.9707 -3.5964
 5044SOL     OW26764   3.100   4.572   0.609 -0.3451  0.2179 -0.1051
 5044SOL    HW126765   3.130   4.663   0.615 -0.8781  0.3990 -0.1558
 5044SOL    HW226766   3.109   4.562   0.514 -0.7583  0.6839 -0.1974
 5045SOL     OW26767   1.275   0.157  10.606  0.2988 -0.0314  0.0434
 5045SOL    HW126768   1.309   0.242  10.633  2.6799 -1.1921  0.6761
 5045SOL    HW226769   1.317   0.096  10.668  2.3527  0.4147 -0.9262
 5046SOL     OW26770   3.285   3.798   3.291 -0.5684  0.3436  0.1937
 5046SOL    HW126771   3.282   3.755   3.206  0.0110  1.9414 -0.6422
 5046SOL    HW226772   3.362   3.852   3.273  0.4201 -0.4141  2.1124
 5047SOL     OW26773   3.684   2.033   6.739  0.1107 -0.2341 -0.3346
 5047SOL    HW126774   3.664   1.949   6.781  1.0655 -1.5101 -2.4104
 5047SOL    HW226775   3.751   2.001   6.679 -0.4075  0.3771 -1.2397
 5048SOL     OW26776   2.410   4.605   5.929 -0.1043 -0.4176  0.2476
 5048SOL    HW126777   2.477   4.673   5.925  0.3909 -0.9633 -0.7337
 5048SOL    HW226778   2.463   4.533   5.895 -0.3974  0.0037 -1.0813
 5049SOL     OW26779   4.129   3.955  13.560 -0.2346  0.2631  0.6962
 5049SOL    HW126780   4.097   4.045  13.564 -1.5004 -0.1999  0.9071
 5049SOL    HW226781   4.058   3.901  13.595 -0.1467 -0.1655  0.2153
 5050SOL     OW26782   0.045   1.722   8.782  0.0700  0.2415 -0.7008
 5050SOL    HW126783   0.059   1.640   8.736 -1.9130 -0.5763  0.1550
 5050SOL    HW226784   0.093   1.698   8.862 -0.9564 -0.7043 -0.3526
 5051SOL     OW26785   3.160   3.945   7.446  0.2360 -0.2523 -0.2833
 5051SOL    HW126786   3.115   3.874   7.400  1.3226 -2.1395  1.5586
 5051SOL    HW226787   3.085   4.005   7.448  2.0867  2.0858 -1.1826
 5052SOL     OW26788   3.613   2.435   1.853  0.2229 -0.3319 -0.2218
 5052SOL    HW126789   3.555   2.380   1.802 -0.2227  0.3799 -0.4818
 5052SOL    HW226790   3.645   2.384   1.927 -3.3027 -2.2285 -0.0204
 5053SOL     OW26791   2.536   3.749   7.456  0.4935 -0.3344 -0.6628
 5053SOL    HW126792   2.617   3.749   7.405  1.6238 -0.4768  1.1153
 5053SOL    HW226793   2.479   3.821   7.428  1.2854  0.5115 -0.0937
 5054SOL     OW26794   2.221   2.324   4.967  0.4394 -0.1122  0.3430
 5054SOL    HW126795   2.148   2.318   5.029  0.5587 -0.9446  0.3995
 5054SOL    HW226796   2.216   2.240   4.921  0.8813 -0.6262  1.2291
 5055SOL     OW26797   0.694   4.147   3.267 -0.0825  0.2397  0.0965
 5055SOL    HW126798   0.653   4.228   3.238 -1.4785 -0.5784 -0.2057
 5055SOL    HW226799   0.696   4.107   3.181  0.4029  1.7390 -0.5985
 5056SOL     OW26800   4.681   2.947   6.366  0.1190  0.2146  0.0410
 5056SOL    HW126801   4.653   2.988   6.284  2.8769  1.0146 -0.5199
 5056SOL    HW226802   4.719   3.019   6.416  1.3565 -0.2785 -0.1673
 5057SOL     OW26803   1.337   4.486   4.972  0.4477 -0.3918 -0.1814
 5057SOL    HW126804   1.361   4.410   5.026 -1.2965 -0.2664  0.7693
 5057SOL    HW226805   1.253   4.517   5.006  0.2418 -1.3799  0.2203
 5058SOL     OW26806   0.394   4.606   8.216 -0.0622 -0.3541  0.1504
 5058SOL    HW126807   0.320   4.623   8.158 -0.3542 -0.3017  0.5347
 5058SOL    HW226808   0.391   4.680   8.277  0.2529 -0.9942  0.9409
 5059SOL     OW26809   4.103   0.167  17.026 -0.3851 -1.1118  0.2323
 5059SOL    HW126810   4.124   0.079  17.057 -1.4642 -0.9725  1.3539
 5059SOL    HW226811   4.191   0.206  17.022 -0.5331 -0.6728  1.3120
 5060SOL     OW26812   0.816   3.556  17.092  0.8385  0.3169  0.0182
 5060SOL    HW126813   0.888   3.613  17.064 -0.2660  0.4354 -2.5423
 5060SOL    HW226814   0.774   3.527  17.012  1.4146 -1.6752  0.4456
 5061SOL     OW26815   2.907   2.184   8.959 -0.1635  0.4413 -0.0470
 5061SOL    HW126816   2.923   2.124   8.887  4.3869  0.6764  0.7750
 5061SOL    HW226817   2.892   2.124   9.032  2.0353 -0.9006 -0.6982
 5062SOL     OW26818   0.476   0.609  16.667 -0.1505 -0.0811  0.2716
 5062SOL    HW126819   0.464   0.600  16.761 -2.3411 -0.7856 -0.0849
 5062SOL    HW226820   0.385   0.606  16.640 -0.7865  0.1806  2.4530
 5063SOL     OW26821   1.155   3.101   9.142  0.1693 -0.2421  0.0141
 5063SOL    HW126822   1.104   3.020   9.148  0.6164 -0.5775 -0.8773
 5063SOL    HW226823   1.242   3.069   9.123 -0.5391 -0.3672 -3.0189
 5064SOL     OW26824   0.865   4.419   7.537 -1.3647  0.0957  0.0480
 5064SOL    HW126825   0.954   4.393   7.562 -1.7350 -0.2142  1.0702
 5064SOL    HW226826   0.851   4.492   7.598 -0.9394 -0.3413  0.6727
 5065SOL     OW26827   0.291   2.664   3.105 -0.2351  0.0356 -0.6046
 5065SOL    HW126828   0.342   2.649   3.185 -0.3912 -0.5956 -0.6220
 5065SOL    HW226829   0.277   2.575   3.072 -0.5367 -0.7375  1.5757
 5066SOL     OW26830   3.013   0.078   9.619 -0.0337  0.1945 -0.2875
 5066SOL    HW126831   3.049   0.150   9.670 -0.8646  0.2055  0.2865
 5066SOL    HW226832   3.080   0.047   9.558  0.0215 -0.3489  0.0494
 5067SOL     OW26833   3.656   0.126   5.967 -0.1156 -0.9248 -0.7121
 5067SOL    HW126834   3.566   0.120   5.935 -0.2926 -1.4158 -0.1132
 5067SOL    HW226835   3.670   0.043   6.012  0.2797  0.1379  1.0993
 5068SOL     OW26836   3.996   2.544  12.328  0.1145  0.1423 -0.0606
 5068SOL    HW126837   3.923   2.492  12.294 -0.8500  1.0547  0.6309
 5068SOL    HW226838   4.044   2.473  12.370 -1.2070 -1.3647 -1.1083
 5069SOL     OW26839   2.461   0.692  13.191 -0.1227  0.1024 -0.3334
 5069SOL    HW126840   2.434   0.606  13.157 -4.5879  1.2546  0.3060
 5069SOL    HW226841   2.392   0.741  13.146 -0.8006 -0.9105 -0.3992
 5070SOL     OW26842   4.082   2.352   9.143  0.7164 -0.4574 -0.1161
 5070SOL    HW126843   3.991   2.363   9.170  1.0538  2.1172 -0.0403
 5070SOL    HW226844   4.105   2.274   9.194 -0.8227 -1.1395 -0.4678
 5071SOL     OW26845   4.491   3.817   3.257 -0.2590 -0.3086  0.2876
 5071SOL    HW126846   4.419   3.758   3.283  1.4512 -2.5217  0.0345
 5071SOL    HW226847   4.567   3.765   3.284  0.4288  0.3776 -0.3452
 5072SOL     OW26848   1.602   2.734   2.812  0.7497 -0.2019 -0.1699
 5072SOL    HW126849   1.636   2.766   2.896 -3.9004 -0.9193  1.9912
 5072SOL    HW226850   1.545   2.807   2.788 -1.6565 -2.5435 -1.5356
 5073SOL     OW26851   3.555   0.012  15.477 -0.0225 -0.1056  0.2926
 5073SOL    HW126852   3.626   0.068  15.507 -0.4845 -0.5540  2.1757
 5073SOL    HW226853   3.609   4.685  15.429 -1.9075 -1.7610  0.3653
 5074SOL     OW26854   0.800   4.274  16.008 -0.2385  0.4022  0.5885
 5074SOL    HW126855   0.728   4.263  16.070  0.0558 -2.4360  0.4525
 5074SOL    HW226856   0.762   4.287  15.921 -0.6730  0.7765  0.8368
 5075SOL     OW26857   3.035   3.243   8.703  0.9493  0.0362  0.4870
 5075SOL    HW126858   2.975   3.268   8.633  1.0749 -0.7317  0.1050
 5075SOL    HW226859   3.031   3.148   8.694  2.1246 -0.1036  1.3972
 5076SOL     OW26860   2.144   1.699  13.451  0.0199  0.3670  0.2428
 5076SOL    HW126861   2.137   1.715  13.545 -0.5673  3.7673 -0.3826
 5076SOL    HW226862   2.155   1.791  13.425  1.3217  0.5074  1.3412
 5077SOL     OW26863   4.555   2.764   4.019  0.0132  0.1957 -0.1956
 5077SOL    HW126864   4.500   2.789   4.093  0.4938 -2.3375  1.0241
 5077SOL    HW226865   4.643   2.778   4.054 -0.2257  0.9593  0.1050
 5078SOL     OW26866   0.857   0.706  13.811  0.4080  0.6768  0.2344
 5078SOL    HW126867   0.920   0.673  13.874  0.5368 -0.0388 -0.2725
 5078SOL    HW226868   0.876   0.663  13.727 -0.4152  0.3292  0.2282
 5079SOL     OW26869   0.991   4.640   6.221 -0.2553 -0.1468 -0.3678
 5079SOL    HW126870   1.024   4.625   6.132 -0.0798 -0.0105 -0.3266
 5079SOL    HW226871   0.999   4.553   6.261 -0.1986 -0.1388 -0.3624
 5080SOL     OW26872   3.348   1.427   2.188  0.1416 -0.7420  0.7249
 5080SOL    HW126873   3.342   1.475   2.106 -1.7896  1.3316  2.0652
 5080SOL    HW226874   3.259   1.407   2.216  0.1088 -0.0242  1.1416
 5081SOL     OW26875   0.752   3.947   9.596 -0.2420  0.1453 -0.0853
 5081SOL    HW126876   0.720   3.859   9.579  1.4190 -0.7904  1.6125
 5081SOL    HW226877   0.834   3.929   9.550  1.3657 -0.7314  3.1451
 5082SOL     OW26878   1.139   4.657   2.960 -0.3196  0.3478 -0.6702
 5082SOL    HW126879   1.045   4.652   2.978 -0.1735  0.5827  0.1702
 5082SOL    HW226880   1.163   4.564   2.964  0.6575  0.7381  2.7715
 5083SOL     OW26881   0.830   2.280   8.747 -0.0940 -0.5658 -0.2220
 5083SOL    HW126882   0.752   2.333   8.763  0.5230  0.3203 -0.1532
 5083SOL    HW226883   0.872   2.296   8.831 -0.2512 -0.8434 -0.0900
 5084SOL     OW26884   1.237   1.188   5.123  0.7381  0.6337  0.5257
 5084SOL    HW126885   1.184   1.127   5.071  1.5346 -1.4635  2.1702
 5084SOL    HW226886   1.203   1.274   5.100 -3.5101 -1.6706 -1.9597
 5085SOL     OW26887   3.913   0.277  16.313  0.4081  0.2193 -0.2496
 5085SOL    HW126888   3.954   0.205  16.361 -0.0796  1.7829  2.5170
 5085SOL    HW226889   3.975   0.349  16.327 -0.3152  0.1721  3.2511
 5086SOL     OW26890   1.170   3.660   5.550 -0.1413 -0.1099  0.2552
 5086SOL    HW126891   1.169   3.707   5.467 -1.0708 -1.7565 -0.6686
 5086SOL    HW226892   1.087   3.693   5.585  1.6821  1.8976  2.6367
 5087SOL     OW26893   3.750   2.411   5.033  0.4216  0.1222  0.4014
 5087SOL    HW126894   3.678   2.460   4.993 -0.2529 -1.4620 -0.3304
 5087SOL    HW226895   3.803   2.392   4.956  2.6435  1.3967  1.6022
 5088SOL     OW26896   3.477   2.400   6.496 -0.0719 -0.5114 -0.1064
 5088SOL    HW126897   3.439   2.443   6.573 -2.3167  2.6106 -2.9722
 5088SOL    HW226898   3.565   2.437   6.501  0.5204 -1.6535 -2.0769
 5089SOL     OW26899   1.527   4.139  14.677  0.1517 -0.0247 -0.0562
 5089SOL    HW126900   1.564   4.199  14.613  1.4397 -1.7657 -0.9320
 5089SOL    HW226901   1.525   4.052  14.637 -0.7141  0.0850 -0.2494
 5090SOL     OW26902   1.209   1.608   5.835  0.0649 -0.7352 -0.2214
 5090SOL    HW126903   1.243   1.555   5.763 -1.5192 -1.1602 -0.6480
 5090SOL    HW226904   1.215   1.688   5.783  0.0182 -0.9996 -0.6360
 5091SOL     OW26905   2.383   1.678   9.445 -0.2633  0.2871  0.4204
 5091SOL    HW126906   2.457   1.618   9.435 -2.3407 -1.6693 -2.8207
 5091SOL    HW226907   2.317   1.613   9.466  1.2917 -0.8053  1.9515
 5092SOL     OW26908   0.684   1.581   2.578 -0.0067 -0.1496 -0.0944
 5092SOL    HW126909   0.595   1.547   2.590 -0.8250  1.2223 -2.4032
 5092SOL    HW226910   0.701   1.606   2.669 -0.7489  1.0083 -0.2719
 5093SOL     OW26911   3.638   0.260   6.925  0.5352  0.7121 -0.5562
 5093SOL    HW126912   3.581   0.333   6.949  2.1941  2.1267 -0.8846
 5093SOL    HW226913   3.692   0.315   6.868  1.2333 -0.5245 -1.0946
 5094SOL     OW26914   1.542   4.615   7.670  0.0112 -0.2046  0.2495
 5094SOL    HW126915   1.458   4.584   7.705  0.5266 -2.6820 -0.7223
 5094SOL    HW226916   1.515   4.668   7.595  0.4234 -0.6105 -0.1860
 5095SOL     OW26917   1.714   1.080  14.133 -0.5574  0.2299  1.0469
 5095SOL    HW126918   1.634   1.028  14.141  0.1908 -1.0474  0.1820
 5095SOL    HW226919   1.782   1.020  14.102 -0.6055  0.6953  0.0200
 5096SOL     OW26920   1.480   1.798   8.588 -0.0652 -0.0570 -0.0829
 5096SOL    HW126921   1.554   1.849   8.622 -0.5833  1.0405 -0.6204
 5096SOL    HW226922   1.527   1.717   8.567  1.2245  1.0394 -1.4334
 5097SOL     OW26923   1.379   3.415   7.974  0.2400 -0.2761  0.5394
 5097SOL    HW126924   1.334   3.487   8.018 -0.1463  0.4499 -1.0466
 5097SOL    HW226925   1.453   3.462   7.936 -1.3433 -0.3742 -2.6473
 5098SOL     OW26926   3.942   4.444   7.019 -0.5134  0.2421  0.0118
 5098SOL    HW126927   4.014   4.506   7.008 -0.6154  0.0854 -1.6290
 5098SOL    HW226928   3.931   4.449   7.114 -1.8683  1.2766 -0.2113
 5099SOL     OW26929   3.176   2.178  16.173  0.0774  0.5271 -0.6334
 5099SOL    HW126930   3.109   2.123  16.133 -0.1012  0.3291 -0.0534
 5099SOL    HW226931   3.258   2.164  16.125  0.9436 -1.0797  1.3459
 5100SOL     OW26932   3.579   3.719  15.905 -1.0601 -0.0025 -0.5225
 5100SOL    HW126933   3.582   3.788  15.971 -0.4852  0.4257 -0.9948
 5100SOL    HW226934   3.659   3.672  15.926 -0.8997  1.4039  2.0323
 5101SOL     OW26935   4.411   4.008   2.220  0.0752 -0.3215 -0.1497
 5101SOL    HW126936   4.413   3.924   2.175 -1.5170  0.9629 -2.6286
 5101SOL    HW226937   4.454   4.057   2.150 -0.5642  1.7408  0.8938
 5102SOL     OW26938   4.392   1.639   6.307  0.1282 -0.3014  0.1409
 5102SOL    HW126939   4.310   1.632   6.355  0.6958 -1.4667  0.9492
 5102SOL    HW226940   4.434   1.559   6.338 -2.1825 -0.8916  1.7146
 5103SOL     OW26941   3.535   3.908  17.352  0.5671 -0.7202  0.1563
 5103SOL    HW126942   3.496   3.841  17.409 -0.9356  0.6930  0.7837
 5103SOL    HW226943   3.537   3.970  17.425  0.0261  2.3413 -2.4620
 5104SOL     OW26944   2.473   1.806  16.789  0.2075  0.1855 -0.2513
 5104SOL    HW126945   2.539   1.778  16.853  0.2914  0.7915 -0.0716
 5104SOL    HW226946   2.517   1.783  16.707 -0.5351  0.0072 -0.5984
 5105SOL     OW26947   3.082   0.475  13.285 -0.1466 -1.0144 -0.4337
 5105SOL    HW126948   3.055   0.527  13.361  3.1097 -0.2612  0.2201
 5105SOL    HW226949   3.018   0.503  13.219 -2.0230 -0.2492  1.7063
 5106SOL     OW26950   4.398   4.520   8.217  0.2954 -0.0627 -0.2172
 5106SOL    HW126951   4.465   4.587   8.203  1.1897 -0.4911  2.0272
 5106SOL    HW226952   4.364   4.509   8.128 -0.0994  1.5886 -0.2746
 5107SOL     OW26953   3.415   1.005   9.169  0.0515 -0.7101  0.0388
 5107SOL    HW126954   3.423   0.995   9.264  1.0451 -1.7753 -0.1546
 5107SOL    HW226955   3.320   1.004   9.166 -0.0066  2.8421  1.4487
 5108SOL     OW26956   0.252   3.906   9.363 -0.1987 -0.2075  0.3269
 5108SOL    HW126957   0.272   3.877   9.275 -1.5387 -2.8613  0.9149
 5108SOL    HW226958   0.341   3.913   9.397 -0.6855 -1.2946  1.8209
 5109SOL     OW26959   0.018   3.301  16.181 -0.1816  0.2412 -0.1784
 5109SOL    HW126960   0.103   3.333  16.151  0.0970 -0.9638 -0.6578
 5109SOL    HW226961   0.037   3.243  16.254 -3.0071 -0.0360  0.3392
 5110SOL     OW26962   2.529   2.704   4.616 -0.2414 -0.0352  0.0925
 5110SOL    HW126963   2.614   2.717   4.574 -0.4513 -0.2027 -0.3798
 5110SOL    HW226964   2.486   2.653   4.547  0.3802 -1.5128  0.7872
 5111SOL     OW26965   3.076   1.231   8.725  0.1274  0.1105  0.1805
 5111SOL    HW126966   3.086   1.142   8.760  0.8206  0.0432 -0.1919
 5111SOL    HW226967   3.149   1.239   8.663 -0.1949 -1.5876 -0.4307
 5112SOL     OW26968   2.228   0.560  12.619  0.0025 -0.1773 -0.0103
 5112SOL    HW126969   2.308   0.612  12.626 -0.1857  0.2267 -0.8528
 5112SOL    HW226970   2.200   0.585  12.531 -3.8910 -0.7490  1.0773
 5113SOL     OW26971   0.806   4.615  10.735 -0.1980  0.3438 -0.2822
 5113SOL    HW126972   0.850   4.695  10.765  0.2766  0.3564 -1.0100
 5113SOL    HW226973   0.808   4.565  10.816  1.6119 -0.4163 -0.7980
 5114SOL     OW26974   0.701   2.292  13.091 -0.2896 -0.5140  0.9452
 5114SOL    HW126975   0.671   2.207  13.059 -0.5119 -0.0181 -0.1616
 5114SOL    HW226976   0.750   2.325  13.016 -1.7304 -0.9225 -0.1662
 5115SOL     OW26977   1.144   3.169   0.530 -0.1702  0.2291  0.5439
 5115SOL    HW126978   1.228   3.179   0.485  0.3837 -0.7128  1.3770
 5115SOL    HW226979   1.173   3.121   0.608  0.0742  0.2586  0.4691
 5116SOL     OW26980   0.090   3.450   7.478  0.1419 -0.3167 -0.4145
 5116SOL    HW126981   0.017   3.478   7.423  0.9941  1.9456 -0.3823
 5116SOL    HW226982   0.163   3.448   7.417 -0.3729 -1.8290 -0.9779
 5117SOL     OW26983   2.685   0.124   2.929 -0.0190  0.4673 -0.5590
 5117SOL    HW126984   2.718   0.042   2.966  1.2964  1.0432 -0.4470
 5117SOL    HW226985   2.761   0.183   2.930  0.3414 -0.0071  0.2079
 5118SOL     OW26986   0.622   1.481   7.345 -0.7768 -0.0429 -0.0047
 5118SOL    HW126987   0.638   1.549   7.411  0.1978 -2.3530  2.1501
 5118SOL    HW226988   0.539   1.445   7.374 -0.2373 -2.3009 -1.2774
 5119SOL     OW26989   2.901   0.877  17.051 -0.0158  0.1736 -0.7530
 5119SOL    HW126990   2.990   0.876  17.017 -0.2109  1.8194 -1.3082
 5119SOL    HW226991   2.897   0.782  17.060  0.0067  0.0926 -1.6370
 5120SOL     OW26992   0.034   2.088   2.858 -0.0018  0.0042  0.0772
 5120SOL    HW126993   0.100   2.047   2.913  2.2964  0.4055 -2.3622
 5120SOL    HW226994   0.095   2.123   2.793 -1.4456  1.0602 -0.7206
 5121SOL     OW26995   1.891   2.907   8.917  0.3373 -0.5214  0.3219
 5121SOL    HW126996   1.850   2.930   9.001 -3.0854 -0.2749 -1.4330
 5121SOL    HW226997   1.813   2.923   8.865  1.8082 -0.0517 -1.7502
 5122SOL     OW26998   2.557   3.525  11.845  0.5493 -0.4107 -0.4054
 5122SOL    HW126999   2.502   3.461  11.891  1.2822 -0.0907  0.9005
 5122SOL    HW227000   2.610   3.565  11.913  2.9578 -2.1658 -1.2338
 5123SOL     OW27001   1.952   0.763   6.911 -0.1585 -0.1892 -0.7278
 5123SOL    HW127002   2.026   0.824   6.904 -0.0480 -0.2827 -0.4092
 5123SOL    HW227003   1.932   0.728   6.825 -0.7898  0.1627 -0.7257
 5124SOL     OW27004   1.895   2.500   5.512  0.3049  0.1216  0.4967
 5124SOL    HW127005   1.932   2.571   5.564  1.5119 -0.1053 -0.0620
 5124SOL    HW227006   1.958   2.484   5.442 -1.3248 -0.8678 -0.7384
 5125SOL     OW27007   2.631   3.684   8.439  0.2268  0.4723  0.2089
 5125SOL    HW127008   2.692   3.610   8.445 -0.1328  0.2143  0.6953
 5125SOL    HW227009   2.564   3.648   8.382  1.0133  1.5188 -1.3660
 5126SOL     OW27010   0.897   1.947   6.598  0.4497  0.1261 -0.1811
 5126SOL    HW127011   0.808   1.942   6.632  0.6832 -2.9203 -0.0101
 5126SOL    HW227012   0.908   2.042   6.601  3.1316 -0.1456 -1.3571
 5127SOL     OW27013   2.345   1.440   2.830 -0.0276  0.2338 -0.2318
 5127SOL    HW127014   2.267   1.385   2.837 -0.1951  0.8712  2.9414
 5127SOL    HW227015   2.372   1.446   2.922  2.3030  2.2945 -1.0829
 5128SOL     OW27016   2.871   3.759   6.709 -0.3478 -0.2618  0.1272
 5128SOL    HW127017   2.827   3.674   6.700 -1.5478  0.2686  1.0999
 5128SOL    HW227018   2.954   3.723   6.741  0.5712  0.2593 -1.6248
 5129SOL     OW27019   1.538   3.317   3.509 -0.3465 -0.0209  0.0528
 5129SOL    HW127020   1.499   3.378   3.572 -0.7450 -3.0009  2.7093
 5129SOL    HW227021   1.462   3.264   3.484 -0.3032  0.9012 -2.0330
 5130SOL     OW27022   1.913   3.218  11.870  0.4275 -0.3473  0.0356
 5130SOL    HW127023   2.001   3.247  11.895  0.6047 -0.5085 -0.3927
 5130SOL    HW227024   1.869   3.238  11.953  1.2818 -0.6031  0.5518
 5131SOL     OW27025   4.201   1.671  15.378  0.3001  0.1849 -0.1274
 5131SOL    HW127026   4.246   1.658  15.295 -2.6670  0.0036 -1.7185
 5131SOL    HW227027   4.156   1.587  15.385 -2.2703  1.5017 -0.8613
 5132SOL     OW27028   2.269   1.662   1.554 -0.1387  0.4400  0.2114
 5132SOL    HW127029   2.282   1.729   1.621 -0.1138 -0.4258  1.0804
 5132SOL    HW227030   2.247   1.587   1.609  1.5290  0.1256  0.4558
 5133SOL     OW27031   3.568   3.760   0.430  0.4196 -0.0671  0.0900
 5133SOL    HW127032   3.576   3.690   0.366  1.1714 -1.7606  2.0162
 5133SOL    HW227033   3.655   3.765   0.470  0.0400  0.3085  0.8635
 5134SOL     OW27034   2.017   0.974   6.383  0.3960  0.2764  0.3118
 5134SOL    HW127035   2.059   1.053   6.417  0.6503  0.3178 -0.1057
 5134SOL    HW227036   2.086   0.919   6.348  0.5552  0.3535  0.5089
 5135SOL     OW27037   2.764   0.215  16.232  0.0820 -0.0799  0.0693
 5135SOL    HW127038   2.766   0.138  16.289  0.2822  1.7103  2.4739
 5135SOL    HW227039   2.781   0.276  16.304 -0.6042  0.3849 -0.1613
 5136SOL     OW27040   0.531   4.424   9.271 -0.3741  0.4689 -0.1114
 5136SOL    HW127041   0.519   4.329   9.271 -0.1270  0.4360  1.5851
 5136SOL    HW227042   0.493   4.444   9.186  0.9941  1.7400 -0.4161
 5137SOL     OW27043   1.676   0.490   9.725  0.4079  0.4612  0.5089
 5137SOL    HW127044   1.626   0.555   9.675  1.8255 -0.0584 -1.5835
 5137SOL    HW227045   1.763   0.522   9.701  1.4038 -0.6810  2.5705
 5138SOL     OW27046   1.487   0.079   4.877  0.3816  0.4729  0.1770
 5138SOL    HW127047   1.423   0.009   4.870 -0.9123  1.9779 -3.3368
 5138SOL    HW227048   1.544   0.054   4.804  0.7340  3.3105 -0.5389
 5139SOL     OW27049   2.331   3.984   7.411 -1.0684 -0.1500  0.2113
 5139SOL    HW127050   2.332   4.072   7.449  2.4832 -0.8873  1.8361
 5139SOL    HW227051   2.303   3.937   7.489 -0.0075 -2.3979 -0.7582
 5140SOL     OW27052   0.661   4.365  15.026  0.3729 -0.1223  0.4440
 5140SOL    HW127053   0.679   4.458  15.038  0.4190 -0.1786  0.8203
 5140SOL    HW227054   0.568   4.378  15.048  0.6819  0.8114  1.1916
 5141SOL     OW27055   3.788   1.053   0.819 -0.2610  0.1808 -0.3309
 5141SOL    HW127056   3.845   1.037   0.895 -0.3063  1.5396 -0.0174
 5141SOL    HW227057   3.753   1.139   0.841 -0.1941  0.5743 -1.7680
 5142SOL     OW27058   0.061   3.739  14.689 -0.4373 -0.0940  0.4469
 5142SOL    HW127059   0.098   3.652  14.699 -1.8737 -0.5172  1.9314
 5142SOL    HW227060   0.133   3.788  14.649  2.2607 -4.3929  0.0284
 5143SOL     OW27061   2.443   4.475   4.615  0.1533  0.2217  0.2309
 5143SOL    HW127062   2.397   4.476   4.531  1.5886  1.9509 -0.5395
 5143SOL    HW227063   2.402   4.542   4.668  4.0839  1.6137  1.5426
 5144SOL     OW27064   2.955   3.359   3.098  0.6262 -0.2375 -0.6052
 5144SOL    HW127065   3.050   3.354   3.096  0.6387 -1.1489  2.3236
 5144SOL    HW227066   2.949   3.445   3.055 -0.3880  1.3378  2.6422
 5145SOL     OW27067   3.386   2.931  11.824  0.7434 -0.1305  0.2202
 5145SOL    HW127068   3.361   3.018  11.794  0.5076 -0.6718 -1.1399
 5145SOL    HW227069   3.323   2.924  11.895  0.9541 -3.0561  0.1611
 5146SOL     OW27070   1.770   3.881   0.899  0.3687 -0.7263  0.5786
 5146SOL    HW127071   1.785   3.813   0.834  1.7500  1.5438 -1.4565
 5146SOL    HW227072   1.676   3.880   0.914  0.5213 -0.6493  1.5461
 5147SOL     OW27073   1.339   0.085   3.416  0.2131 -0.2962  0.0614
 5147SOL    HW127074   1.355   0.174   3.449  0.0677  0.4699 -1.9463
 5147SOL    HW227075   1.258   0.057   3.458 -0.0033  0.5213  0.1986
 5148SOL     OW27076   2.051   3.094  10.820 -0.1663  0.0697 -0.6035
 5148SOL    HW127077   2.070   3.047  10.739  0.5560  1.7065 -1.3719
 5148SOL    HW227078   1.975   3.148  10.801 -0.5729 -0.5713 -0.8161
 5149SOL     OW27079   3.240   4.424   4.697 -1.0540  0.0880  0.4128
 5149SOL    HW127080   3.267   4.459   4.611  0.2706 -3.6387 -0.6687
 5149SOL    HW227081   3.147   4.406   4.682 -0.8764 -0.9032  0.5632
 5150SOL     OW27082   2.286   1.738   0.360 -0.3500  0.1405  0.0721
 5150SOL    HW127083   2.253   1.670   0.418  1.0894  1.3660  2.3476
 5150SOL    HW227084   2.294   1.817   0.414  3.7162 -1.6337  2.1000
 5151SOL     OW27085   0.535   2.694   1.785 -0.0430  0.7973 -0.2578
 5151SOL    HW127086   0.555   2.692   1.879 -1.1611  0.8931 -0.0211
 5151SOL    HW227087   0.440   2.694   1.794 -0.0462 -0.4274 -0.3910
 5152SOL     OW27088   0.847   3.250  11.961 -0.6516 -0.3028 -0.0034
 5152SOL    HW127089   0.814   3.324  12.012 -1.3480 -0.6831  0.1061
 5152SOL    HW227090   0.938   3.274  11.945 -0.5899  0.0894  0.9443
 5153SOL     OW27091   0.217   0.028   1.709  0.2547 -0.2627  0.1589
 5153SOL    HW127092   0.231   0.088   1.636 -1.5956 -0.2136 -0.1453
 5153SOL    HW227093   0.213   4.677   1.670  2.0574 -1.3670  2.3960
 5154SOL     OW27094   1.004   3.059   3.965  0.2560  0.1526 -0.3614
 5154SOL    HW127095   1.011   3.006   3.886  0.2722 -0.5195  0.0934
 5154SOL    HW227096   1.084   3.109   3.950  0.6552 -0.2174  0.5578
 5155SOL     OW27097   1.918   0.335   7.301  0.0358 -0.5538 -0.1839
 5155SOL    HW127098   2.014   0.331   7.309  0.0039 -1.1397 -0.1381
 5155SOL    HW227099   1.914   0.417   7.251  4.7501 -0.3714 -0.3430
 5156SOL     OW27100   0.241   1.587   9.791  0.2156  0.4878  0.4822
 5156SOL    HW127101   0.220   1.652   9.858 -0.6714 -0.3030  0.9730
 5156SOL    HW227102   0.180   1.520   9.821  1.7547  0.0390  2.6221
 5157SOL     OW27103   3.386   4.698   3.484  0.3664  0.2341 -0.1915
 5157SOL    HW127104   3.468   0.005   3.507 -0.4357  2.5470 -1.5097
 5157SOL    HW227105   3.410   4.682   3.393  1.2943  0.5257 -0.0017
 5158SOL     OW27106   0.753   2.847  12.859 -0.0397  0.1209 -0.2452
 5158SOL    HW127107   0.792   2.898  12.788 -0.9952 -0.2635 -1.0403
 5158SOL    HW227108   0.764   2.902  12.936  0.8864  2.9597 -2.4078
 5159SOL     OW27109   0.621   1.423  14.716 -0.0957 -0.2240  0.4272
 5159SOL    HW127110   0.527   1.410  14.707 -0.1069  0.6200 -0.7047
 5159SOL    HW227111   0.632   1.485  14.644 -0.6041 -3.9128 -2.7663
 5160SOL     OW27112   2.385   0.807   4.914  0.1336  0.0428 -0.0403
 5160SOL    HW127113   2.365   0.899   4.932  0.4896  0.2573 -0.7508
 5160SOL    HW227114   2.419   0.803   4.825  0.6366 -2.4272  0.2648
 5161SOL     OW27115   1.273   0.419   5.405  0.3736 -0.1281 -0.2288
 5161SOL    HW127116   1.224   0.384   5.331 -2.8791 -1.3453  2.5169
 5161SOL    HW227117   1.200   0.436   5.463 -0.1772  0.4417 -1.0958
 5162SOL     OW27118   1.997   0.323   6.478  0.7192  0.1596 -0.1478
 5162SOL    HW127119   1.927   0.381   6.448 -0.4499 -0.8085  0.7106
 5162SOL    HW227120   1.986   0.251   6.416  0.2149 -2.7715  3.3842
 5163SOL     OW27121   1.471   1.665   3.394 -0.4914 -0.3056 -0.0561
 5163SOL    HW127122   1.427   1.582   3.417 -0.5331  0.0928  1.3389
 5163SOL    HW227123   1.389   1.714   3.395  0.2941  0.9945 -2.6213
 5164SOL     OW27124   1.338   3.011  17.107  0.0082  0.0630  0.9794
 5164SOL    HW127125   1.265   3.043  17.055  1.9174  1.2027 -0.9588
 5164SOL    HW227126   1.397   3.085  17.092 -0.2922  0.3736  1.3305
 5165SOL     OW27127   0.707   4.128   6.367 -0.3339  0.0336  0.8512
 5165SOL    HW127128   0.786   4.075   6.377 -0.0016  0.6927  1.7562
 5165SOL    HW227129   0.687   4.149   6.459 -2.0024 -0.7640  0.6769
 5166SOL     OW27130   2.614   0.653  14.247 -0.1210 -0.0825 -0.2243
 5166SOL    HW127131   2.654   0.595  14.311 -0.3765 -1.4702 -1.3125
 5166SOL    HW227132   2.571   0.717  14.303 -1.3444  0.1001 -1.3757
 5167SOL     OW27133   3.730   4.406   8.925 -0.5485  0.0296 -0.0273
 5167SOL    HW127134   3.654   4.363   8.885  0.3671  0.0424 -1.7543
 5167SOL    HW227135   3.740   4.357   9.007  1.4025  0.8688  0.2266
 5168SOL     OW27136   1.800   0.900  14.998 -0.3138  0.0935 -0.5596
 5168SOL    HW127137   1.802   0.919  15.092  0.5967 -3.3631  0.1035
 5168SOL    HW227138   1.861   0.826  15.002  0.0807  0.5770  2.6401
 5169SOL     OW27139   3.787   2.854  16.477 -0.6848  0.8044  0.3851
 5169SOL    HW127140   3.706   2.867  16.526 -1.9889 -1.9725 -1.0039
 5169SOL    HW227141   3.783   2.930  16.419 -2.3309  0.8538  0.5545
 5170SOL     OW27142   1.328   4.654   2.507  0.4156  0.3800  0.2370
 5170SOL    HW127143   1.273   4.659   2.430 -0.3504 -1.2770  0.6571
 5170SOL    HW227144   1.383   4.728   2.483  0.6901  0.7169  1.9110
 5171SOL     OW27145   0.629   0.742   9.573 -0.5734  0.8265  0.0991
 5171SOL    HW127146   0.721   0.759   9.593 -0.4555  1.6967 -1.1821
 5171SOL    HW227147   0.607   0.823   9.527  0.4656  1.7673  1.2667
 5172SOL     OW27148   4.139   0.653   3.971 -0.7166 -0.1170  0.1312
 5172SOL    HW127149   4.117   0.606   4.052 -1.9047  1.1910  0.5689
 5172SOL    HW227150   4.214   0.707   3.994 -2.3631  0.7218  3.5369
 5173SOL     OW27151   0.384   0.664  15.949  0.0686 -0.3275  0.1632
 5173SOL    HW127152   0.378   0.697  15.860 -1.2689  1.8966  1.0585
 5173SOL    HW227153   0.427   0.735  15.996 -2.6494 -0.4929  2.9199
 5174SOL     OW27154   0.213   3.881  10.556 -0.1307  0.0877  0.2834
 5174SOL    HW127155   0.139   3.922  10.512  0.8353 -0.2159 -1.6360
 5174SOL    HW227156   0.185   3.790  10.540  0.9999 -0.0739 -0.7710
 5175SOL     OW27157   3.612   1.924  15.751  0.0408  0.0495 -0.2387
 5175SOL    HW127158   3.546   1.865  15.716  0.5401 -0.3756 -0.4623
 5175SOL    HW227159   3.650   1.870  15.821 -0.3018 -0.3913 -0.3989
 5176SOL     OW27160   3.842   4.616   9.432  0.1683 -0.4690 -0.3228
 5176SOL    HW127161   3.830   4.629   9.338  0.1881  0.7423 -0.1606
 5176SOL    HW227162   3.935   4.593   9.436  0.2317  0.2581  2.5046
 5177SOL     OW27163   0.887   3.694   7.842  0.3759  0.1064 -0.1159
 5177SOL    HW127164   0.889   3.749   7.921 -0.2716 -2.7433  1.8635
 5177SOL    HW227165   0.798   3.663   7.827 -0.2359  1.8067 -0.0241
 5178SOL     OW27166   3.272   2.631  10.252 -0.5460  0.1634  0.8594
 5178SOL    HW127167   3.246   2.703  10.195  1.2209 -0.6828 -1.0169
 5178SOL    HW227168   3.206   2.563  10.239 -0.9417  0.8510 -0.6165
 5179SOL     OW27169   4.257   0.458  16.000 -0.0051  0.0973  0.0619
 5179SOL    HW127170   4.170   0.422  16.013  0.4355 -0.8392  0.3556
 5179SOL    HW227171   4.257   0.552  16.021  1.7687  0.5285 -1.7914
 5180SOL     OW27172   0.114   2.068  15.421 -0.0028  0.6212  0.4629
 5180SOL    HW127173   0.046   2.059  15.353  0.3388  1.2913  0.0319
 5180SOL    HW227174   0.066   2.054  15.502 -0.8478  2.0062  0.1923
 5181SOL     OW27175   4.157   4.207   5.985  0.4657  0.3907 -0.0716
 5181SOL    HW127176   4.202   4.271   5.930  1.4594 -1.2716 -1.1977
 5181SOL    HW227177   4.065   4.217   5.958  0.3224 -1.3701 -0.2527
 5182SOL     OW27178   4.054   1.601   9.186  0.3592 -0.0953  0.7475
 5182SOL    HW127179   4.074   1.532   9.123 -1.6567  0.4233 -0.4900
 5182SOL    HW227180   3.962   1.579   9.198  0.6024  0.1334  3.0034
 5183SOL     OW27181   1.361   0.542  13.541 -0.4515 -0.4138 -0.7475
 5183SOL    HW127182   1.404   0.627  13.546 -1.5429  0.1028 -0.1090
 5183SOL    HW227183   1.410   0.476  13.590 -0.7323 -0.0342  0.0438
 5184SOL     OW27184   4.275   1.868   5.624  0.1367 -0.1973 -0.8070
 5184SOL    HW127185   4.207   1.897   5.685  2.1480  2.0013  0.3713
 5184SOL    HW227186   4.235   1.799   5.571  1.3227 -0.6571 -1.0956
 5185SOL     OW27187   1.625   1.520   0.310 -0.4536  0.1047  0.1671
 5185SOL    HW127188   1.659   1.432   0.327 -0.6383  0.1933  0.9716
 5185SOL    HW227189   1.702   1.576   0.296 -2.3733  2.6568 -0.1211
 5186SOL     OW27190   0.931   1.614   9.977 -0.0679  0.3993  0.2128
 5186SOL    HW127191   0.891   1.529   9.960  0.7668 -0.3080  1.7629
 5186SOL    HW227192   0.974   1.594  10.060 -2.8632 -0.1774  1.5107
 5187SOL     OW27193   0.257   2.126   9.367 -0.3497 -0.0411 -0.1469
 5187SOL    HW127194   0.163   2.106   9.367 -0.9657  2.8583  0.8545
 5187SOL    HW227195   0.294   2.042   9.393 -2.9761 -1.4745 -1.0271
 5188SOL     OW27196   0.637   3.252   1.855 -0.2834  0.2344  0.4456
 5188SOL    HW127197   0.719   3.224   1.895  0.9156  0.4042 -1.9020
 5188SOL    HW227198   0.605   3.173   1.812  0.6042  0.6724 -1.0042
 5189SOL     OW27199   1.696   0.474   5.792  0.0017 -0.6419 -0.1030
 5189SOL    HW127200   1.755   0.405   5.821 -0.3805 -0.1100  1.9884
 5189SOL    HW227201   1.717   0.478   5.699  2.3471 -1.7543  0.3921
 5190SOL     OW27202   3.529   4.066  17.602  0.3182  0.1004  0.1990
 5190SOL    HW127203   3.549   4.132  17.669 -3.0821  1.3972 -0.0058
 5190SOL    HW227204   3.465   4.120  17.554  0.4745 -0.0990 -0.2312
 5191SOL     OW27205   0.638   1.161   7.234  0.0013  0.6262  1.0780
 5191SOL    HW127206   0.725   1.120   7.232  0.4214  1.5517 -0.7389
 5191SOL    HW227207   0.650   1.213   7.313  2.4356 -0.0619  1.1730
 5192SOL     OW27208   2.985   0.918  11.773  0.1454  0.1699 -0.1588
 5192SOL    HW127209   2.944   0.903  11.688 -1.1393 -2.7489  1.0115
 5192SOL    HW227210   3.035   0.997  11.751  1.0289 -0.6559 -1.1240
 5193SOL     OW27211   1.745   3.798   8.678  0.2764 -0.6163 -0.1494
 5193SOL    HW127212   1.726   3.890   8.657  1.6902 -0.0041  1.1573
 5193SOL    HW227213   1.738   3.796   8.774  0.8502  0.7260 -0.0788
 5194SOL     OW27214   0.372   1.406   7.010  0.2992  0.5045 -0.2591
 5194SOL    HW127215   0.386   1.399   6.915 -1.4741  3.3079 -0.7263
 5194SOL    HW227216   0.431   1.480   7.025 -0.6920  1.3447 -0.4976
 5195SOL     OW27217   0.010   1.697   5.383 -0.1099 -0.4529  0.0922
 5195SOL    HW127218   0.052   1.634   5.324 -0.7736  1.2350 -2.2034
 5195SOL    HW227219   4.709   1.752   5.313  1.1324 -0.4294 -0.5466
 5196SOL     OW27220   4.662   4.111   0.320  0.3229 -0.1786 -0.2117
 5196SOL    HW127221   4.586   4.062   0.289 -0.0413 -0.5245  1.2342
 5196SOL    HW227222   4.663   4.190   0.266  0.7640 -0.4515 -0.6108
 5197SOL     OW27223   2.616   3.888   4.184 -0.2553 -0.5274 -0.8737
 5197SOL    HW127224   2.564   3.873   4.263  0.7754 -0.5527 -0.1961
 5197SOL    HW227225   2.550   3.886   4.115 -0.0479 -0.7133 -1.0666
 5198SOL     OW27226   0.323   2.171   6.953 -0.1199 -0.1913 -0.2922
 5198SOL    HW127227   0.328   2.264   6.931 -0.2068  0.1457  1.1109
 5198SOL    HW227228   0.374   2.122   6.889  1.0376 -1.7217  1.7982
 5199SOL     OW27229   2.376   1.402   6.422  0.3195  0.3608  0.0402
 5199SOL    HW127230   2.431   1.326   6.438  0.5269  0.2334 -1.2409
 5199SOL    HW227231   2.400   1.425   6.332 -1.9212  1.3898 -0.3102
 5200SOL     OW27232   2.571   2.192   7.913 -0.0756  0.1151 -0.9680
 5200SOL    HW127233   2.618   2.110   7.927  0.7115  0.9081  1.1818
 5200SOL    HW227234   2.601   2.223   7.828  1.1502  0.5383 -0.3918
 5201SOL     OW27235   4.593   2.436   9.263 -0.3516  0.1052  0.3329
 5201SOL    HW127236   4.537   2.457   9.337 -2.2955  0.3938 -1.2236
 5201SOL    HW227237   4.655   2.508   9.246  0.2328 -0.3457  0.5444
 5202SOL     OW27238   4.634   0.467   5.029 -0.2946  0.5344 -0.4059
 5202SOL    HW127239   4.665   0.554   5.005 -1.4215  1.4762  1.6066
 5202SOL    HW227240   4.670   0.458   5.117 -0.9170  1.7575 -0.0345
 5203SOL     OW27241   0.919   2.689  14.692  0.4418  0.0409  0.2892
 5203SOL    HW127242   0.983   2.753  14.723 -0.8584  1.5284 -0.1004
 5203SOL    HW227243   0.941   2.663  14.603  0.4040 -0.5385  0.4452
 5204SOL     OW27244   0.987   2.840   6.101 -0.3292  0.3647 -0.7775
 5204SOL    HW127245   1.027   2.921   6.131  0.0927  0.4581 -1.5754
 5204SOL    HW227246   0.899   2.837   6.137  0.0819 -0.4182  0.1761
 5205SOL     OW27247   0.781   1.090   8.554 -0.0667 -0.4089  0.0617
 5205SOL    HW127248   0.705   1.123   8.602 -2.8533 -2.6589 -2.8026
 5205SOL    HW227249   0.827   1.035   8.617 -0.4432  0.7413  1.3170
 5206SOL     OW27250   3.857   3.071   7.650  0.3966  0.4589  0.3011
 5206SOL    HW127251   3.882   3.085   7.559 -0.3650  0.1599  0.0420
 5206SOL    HW227252   3.936   3.099   7.695 -0.1747  1.3471  0.7463
 5207SOL     OW27253   3.604   1.847   1.644 -0.2869  0.0288 -0.0409
 5207SOL    HW127254   3.581   1.880   1.730  4.0032 -0.9881  1.4456
 5207SOL    HW227255   3.687   1.891   1.628 -0.5592 -0.4347 -2.8776
 5208SOL     OW27256   3.849   3.528   6.848 -0.0062 -0.6169 -0.3018
 5208SOL    HW127257   3.921   3.468   6.871  1.9562  1.9183  0.1901
 5208SOL    HW227258   3.813   3.544   6.935  1.6120 -0.1159  0.2879
 5209SOL     OW27259   1.867   4.478   4.258 -0.1493  0.4882 -0.1391
 5209SOL    HW127260   1.861   4.568   4.225 -0.3753  0.8986  1.0368
 5209SOL    HW227261   1.947   4.476   4.310  0.1424  0.0792 -0.6031
 5210SOL     OW27262   3.740   3.836  12.303  0.2912  0.2210  0.0100
 5210SOL    HW127263   3.667   3.876  12.256  2.1080  0.8693 -2.2659
 5210SOL    HW227264   3.803   3.898  12.265  0.1531  0.3839  0.0452
 5211SOL     OW27265   2.096   2.568   8.382  0.3380 -0.4982  0.4996
 5211SOL    HW127266   2.168   2.630   8.380  0.6697 -0.9133 -0.2325
 5211SOL    HW227267   2.107   2.519   8.464  3.4305  1.9458  1.5168
 5212SOL     OW27268   3.734   1.398   6.805 -0.0150 -0.0229  0.0957
 5212SOL    HW127269   3.681   1.402   6.885 -0.0281  0.0270  0.0843
 5212SOL    HW227270   3.820   1.431   6.830 -0.3420  0.7771  0.1461
 5213SOL     OW27271   0.172   2.720   4.798 -0.1576  0.3403 -0.4144
 5213SOL    HW127272   0.216   2.782   4.740 -1.0844 -0.0679 -1.5575
 5213SOL    HW227273   0.223   2.724   4.878  0.6167  2.6004 -1.0480
 5214SOL     OW27274   1.641   1.246   1.334  0.0860 -0.0592 -0.1623
 5214SOL    HW127275   1.721   1.194   1.340  1.4965  2.3716  1.7497
 5214SOL    HW227276   1.658   1.281   1.246 -0.0523 -1.2830 -0.6792
 5215SOL     OW27277   2.866   0.533   9.426 -0.4952  0.1271  0.1029
 5215SOL    HW127278   2.907   0.606   9.470 -0.7977 -1.5529  3.1436
 5215SOL    HW227279   2.932   0.504   9.363  0.0039 -0.0033  0.6917
 5216SOL     OW27280   1.136   4.663  16.218  0.3319 -0.1709  0.0949
 5216SOL    HW127281   1.166   4.582  16.258 -1.8401 -0.6941  0.6989
 5216SOL    HW227282   1.085   4.637  16.141  0.2682 -1.1903  0.4849
 5217SOL     OW27283   4.129   1.548   8.283 -0.0617  0.0764  0.0321
 5217SOL    HW127284   4.187   1.480   8.318 -0.5734 -0.6174 -0.4819
 5217SOL    HW227285   4.113   1.599   8.363  0.8164 -1.1672  1.0074
 5218SOL     OW27286   0.451   1.482   6.104 -0.0645 -0.2878 -0.3495
 5218SOL    HW127287   0.461   1.391   6.075 -3.2897 -0.7950  0.0647
 5218SOL    HW227288   0.443   1.543   6.030 -0.4339 -0.0633 -0.1292
 5219SOL     OW27289   0.954   1.942   4.835 -0.1370  0.3130 -0.2601
 5219SOL    HW127290   0.866   1.946   4.797 -0.3702 -0.7539  0.1796
 5219SOL    HW227291   1.006   1.973   4.761  1.8269  0.0143  0.9955
 5220SOL     OW27292   3.854   1.045  15.255  0.5239  0.1682  0.3338
 5220SOL    HW127293   3.936   1.003  15.228  0.8305 -0.0458  1.5929
 5220SOL    HW227294   3.872   1.047  15.349  1.3889  0.2856  0.1632
 5221SOL     OW27295   2.055   4.537   8.043 -0.0114 -0.1909  1.1585
 5221SOL    HW127296   2.105   4.468   8.087 -1.5005 -1.5890  0.6461
 5221SOL    HW227297   1.990   4.482   7.999 -1.0513  1.5948  0.4497
 5222SOL     OW27298   1.145   1.836   8.135  0.0493  0.0413  0.0967
 5222SOL    HW127299   1.182   1.854   8.222  0.5793  1.6491 -0.4718
 5222SOL    HW227300   1.221   1.857   8.082  1.7349  0.6964  2.7696
 5223SOL     OW27301   0.862   1.028  11.347  0.4612 -0.7386 -0.0319
 5223SOL    HW127302   0.880   1.053  11.438  1.0848  1.0671 -0.6593
 5223SOL    HW227303   0.947   1.037  11.304 -0.8202 -0.3150 -2.4718
 5224SOL     OW27304   0.987   1.998   3.751 -0.0826  0.0178 -0.3891
 5224SOL    HW127305   0.917   1.964   3.807  0.9674 -0.2607  0.7603
 5224SOL    HW227306   0.948   2.085   3.740  4.1831  2.1918  1.6726
 5225SOL     OW27307   1.338   4.025   6.860 -0.3872  0.1413  0.6740
 5225SOL    HW127308   1.262   4.003   6.807 -0.8709  2.2785  0.4567
 5225SOL    HW227309   1.307   4.111   6.890 -0.3313  0.9403 -1.5271
 5226SOL     OW27310   3.510   3.353   7.565  0.1363  0.1650 -0.2858
 5226SOL    HW127311   3.551   3.267   7.564 -1.1159 -0.4069 -1.5145
 5226SOL    HW227312   3.595   3.393   7.582  0.6033 -1.7310  1.8426
 5227SOL     OW27313   0.843   3.395  15.456 -0.2052 -0.4862 -0.0988
 5227SOL    HW127314   0.892   3.314  15.471 -0.1173 -0.6034 -0.9924
 5227SOL    HW227315   0.751   3.370  15.450 -0.5476  0.9656 -0.9230
 5228SOL     OW27316   0.060   2.167   6.760  0.0299 -0.2017 -0.1357
 5228SOL    HW127317   4.727   2.123   6.710  0.5962 -2.1920  0.8396
 5228SOL    HW227318   0.117   2.185   6.685 -0.3498 -0.2152 -0.4298
 5229SOL     OW27319   2.058   3.599   3.386  0.6438  0.2538  0.0371
 5229SOL    HW127320   2.151   3.605   3.408  0.1922  0.6338  1.8545
 5229SOL    HW227321   2.023   3.676   3.430  2.1537  1.0446 -0.1417
 5230SOL     OW27322   0.891   2.973  17.615  0.2382  0.0553  0.2010
 5230SOL    HW127323   0.802   2.943  17.632 -0.4887  2.6574  0.8316
 5230SOL    HW227324   0.884   3.068  17.608 -1.0774 -0.0944 -0.5269
 5231SOL     OW27325   0.922   4.125   9.724  0.3749  0.5862  0.1559
 5231SOL    HW127326   0.862   4.069   9.676  0.5223 -0.7716  1.5455
 5231SOL    HW227327   0.981   4.158   9.656 -1.1663  2.6597 -0.1775
 5232SOL     OW27328   4.097   3.072   7.822  0.0561 -0.2942  0.1408
 5232SOL    HW127329   4.132   2.985   7.807 -1.3823 -0.6235 -1.3164
 5232SOL    HW227330   4.170   3.111   7.871 -0.3360 -0.3555  0.7811
 5233SOL     OW27331   0.114   4.182  10.851 -0.6368 -0.1321  0.2674
 5233SOL    HW127332   0.054   4.156  10.920 -2.3840  0.4821 -1.0241
 5233SOL    HW227333   0.177   4.244  10.887 -0.0955 -0.3051 -0.3587
 5234SOL     OW27334   0.014   1.358  17.386 -0.1840  0.5338  0.2040
 5234SOL    HW127335   4.699   1.363  17.467 -0.8106 -0.4473 -0.1359
 5234SOL    HW227336   0.052   1.271  17.376  1.2443  1.3104 -1.0432
 5235SOL     OW27337   0.627   3.771   8.522  0.2597  0.3866  0.4106
 5235SOL    HW127338   0.603   3.735   8.607 -0.2603  3.5315  1.6055
 5235SOL    HW227339   0.612   3.864   8.542 -2.7125  0.3279 -1.6244
 5236SOL     OW27340   0.201   3.371  16.903 -0.2438  0.1397  0.4176
 5236SOL    HW127341   0.145   3.387  16.827  0.2244  2.4198  0.5326
 5236SOL    HW227342   0.138   3.322  16.955 -0.0918  1.2129  1.6251
 5237SOL     OW27343   0.379   3.663   3.590 -0.1566  0.2730  0.3788
 5237SOL    HW127344   0.421   3.581   3.615 -0.5251  0.1693  0.6519
 5237SOL    HW227345   0.451   3.716   3.556 -0.4590 -0.1554 -0.9296
 5238SOL     OW27346   1.739   2.364  10.904  0.2691  0.2863  0.4675
 5238SOL    HW127347   1.776   2.294  10.850  1.0956  0.9169  0.2055
 5238SOL    HW227348   1.809   2.370  10.969  1.8785 -1.3132 -1.1200
 5239SOL     OW27349   2.381   4.585   6.661 -0.0804  0.0862  0.0396
 5239SOL    HW127350   2.383   4.492   6.636  1.3863 -0.2598  1.4889
 5239SOL    HW227351   2.378   4.589   6.757 -2.6468  0.0004 -0.0459
 5240SOL     OW27352   3.688   2.364   5.782 -0.0020  0.3276 -0.2198
 5240SOL    HW127353   3.693   2.374   5.877  1.0833  1.2976 -0.3806
 5240SOL    HW227354   3.685   2.268   5.773 -1.3944  0.1875  1.7047
 5241SOL     OW27355   3.826   1.425   4.232  0.1813 -0.2619 -0.1321
 5241SOL    HW127356   3.848   1.516   4.212 -1.6204 -0.3532 -2.5300
 5241SOL    HW227357   3.859   1.409   4.320  0.4049  1.9605  0.1881
 5242SOL     OW27358   0.355   4.581  16.335  0.0962 -0.0918 -0.0746
 5242SOL    HW127359   0.332   4.673  16.320 -0.6915 -0.4837 -1.2402
 5242SOL    HW227360   0.445   4.580  16.301  0.2628 -0.5248  0.3731
 5243SOL     OW27361   3.841   4.584   3.478  0.3381 -0.2022  0.2790
 5243SOL    HW127362   3.847   4.544   3.565 -0.2279 -2.6268 -0.7808
 5243SOL    HW227363   3.893   4.521   3.427 -0.9971 -1.4580  0.4402
 5244SOL     OW27364   3.465   3.339  11.151  0.0155  0.3045  0.0833
 5244SOL    HW127365   3.433   3.426  11.176  0.0066  0.0479  0.9523
 5244SOL    HW227366   3.514   3.318  11.230 -1.8384  2.5644  1.8230
 5245SOL     OW27367   1.347   2.021  12.150 -0.1719 -0.0499 -0.4314
 5245SOL    HW127368   1.311   1.985  12.231  0.1861  1.7974  0.5317
 5245SOL    HW227369   1.294   2.095  12.121 -1.3713 -1.5297 -2.0786
 5246SOL     OW27370   3.618   0.312   5.081 -0.0651  0.3668  0.2166
 5246SOL    HW127371   3.692   0.308   5.021 -0.6396 -0.6315 -0.4322
 5246SOL    HW227372   3.652   0.264   5.156 -1.8010 -0.1745  0.6594
 5247SOL     OW27373   1.307   1.228   4.769  0.2313 -0.2203 -0.3461
 5247SOL    HW127374   1.324   1.281   4.847 -0.3551 -2.5003  1.3450
 5247SOL    HW227375   1.359   1.148   4.779  1.0420  0.4046  0.3342
 5248SOL     OW27376   1.462   0.959   5.407 -0.1292 -0.6146  0.1123
 5248SOL    HW127377   1.502   0.949   5.493 -0.1012 -0.2119  0.1466
 5248SOL    HW227378   1.384   1.011   5.424 -0.5041 -1.0817 -0.1506
 5249SOL     OW27379   4.710   0.518   2.987 -0.3988 -0.5080 -0.0993
 5249SOL    HW127380   0.003   0.442   3.037  2.6292  1.3330  0.8876
 5249SOL    HW227381   0.009   0.483   2.904  1.3436  2.5098 -0.6133
 5250SOL     OW27382   2.660   0.578   6.839  0.1273 -0.5287  0.0579
 5250SOL    HW127383   2.662   0.673   6.822 -0.0200 -0.2032  1.8977
 5250SOL    HW227384   2.754   0.558   6.845 -0.0252 -1.2785 -0.1534
 5251SOL     OW27385   3.448   0.968   6.469  0.7927 -0.3867  0.1883
 5251SOL    HW127386   3.471   0.876   6.455  2.4201 -0.3205  2.3048
 5251SOL    HW227387   3.394   0.952   6.546 -2.2945 -2.0068 -2.3138
 5252SOL     OW27388   2.612   4.382   8.789 -0.2054 -0.3513 -0.2952
 5252SOL    HW127389   2.707   4.390   8.784 -0.2462  0.7968  0.6288
 5252SOL    HW227390   2.597   4.397   8.882  1.7416 -1.6746  0.2131
 5253SOL     OW27391   2.373   0.973  12.501  0.9926 -0.6507  0.8753
 5253SOL    HW127392   2.458   0.937  12.525  0.2827 -2.3927  0.8109
 5253SOL    HW227393   2.405   1.056  12.467 -0.8920 -0.6994 -0.9826
 5254SOL     OW27394   3.876   0.082   3.082  0.0078 -0.2870  0.5637
 5254SOL    HW127395   3.856   4.725   3.096  1.0450 -0.0728  3.2783
 5254SOL    HW227396   3.804   0.111   3.025 -0.6600 -1.8215  0.6124
 5255SOL     OW27397   1.467   1.989   6.761  1.0443  0.4107 -0.1609
 5255SOL    HW127398   1.518   1.941   6.826  0.1177 -0.3985 -0.0229
 5255SOL    HW227399   1.440   1.921   6.699  4.0307  0.0926 -1.1103
 5256SOL     OW27400   2.168   3.506   7.576 -0.7325 -0.1872  0.4310
 5256SOL    HW127401   2.174   3.483   7.483  0.1391  0.6384  0.2769
 5256SOL    HW227402   2.205   3.424   7.609  0.6224  0.7805  1.3416
 5257SOL     OW27403   4.148   0.808   1.905  0.2636 -0.4685 -0.7923
 5257SOL    HW127404   4.185   0.884   1.950 -0.6096 -1.1767  1.1024
 5257SOL    HW227405   4.140   0.743   1.974 -0.1861 -0.4446 -0.8176
 5258SOL     OW27406   2.885   0.429   1.454  0.4257 -0.2393 -0.0822
 5258SOL    HW127407   2.949   0.494   1.428  0.2197 -0.6682 -1.6776
 5258SOL    HW227408   2.812   0.463   1.402  1.7409  1.7168 -0.6452
 5259SOL     OW27409   1.401   2.383   7.609 -0.0079 -0.4334  0.2804
 5259SOL    HW127410   1.383   2.290   7.594  0.8493 -0.6930  0.8871
 5259SOL    HW227411   1.446   2.392   7.692 -0.3174 -0.2204  0.4256
 5260SOL     OW27412   0.011   3.298   5.160  0.8235 -0.3053 -0.0207
 5260SOL    HW127413   4.662   3.331   5.190 -0.0769 -2.5387 -0.1364
 5260SOL    HW227414   0.024   3.365   5.093 -2.8392  1.9086  1.4946
 5261SOL     OW27415   1.748   3.242  12.602 -0.0104 -0.1868  0.0686
 5261SOL    HW127416   1.733   3.259  12.695 -1.9530  0.5685 -0.3813
 5261SOL    HW227417   1.657   3.253  12.575 -0.2222 -1.5577  0.2388
 5262SOL     OW27418   3.864   4.352  17.595  0.0631 -0.1329  0.2674
 5262SOL    HW127419   3.932   4.362  17.661  0.3892 -3.8628  0.5202
 5262SOL    HW227420   3.864   4.256  17.606 -1.9195 -0.1672 -0.0777
 5263SOL     OW27421   2.272   0.109   7.499 -0.0714 -0.4844  0.2162
 5263SOL    HW127422   2.245   0.130   7.409 -0.9130 -1.7473  0.1757
 5263SOL    HW227423   2.293   0.018   7.479 -1.7818 -1.6236  3.7713
 5264SOL     OW27424   1.878   0.744  13.581 -0.2665  0.0321  0.3444
 5264SOL    HW127425   1.962   0.701  13.566  0.1666  1.0466 -0.0899
 5264SOL    HW227426   1.890   0.822  13.528  1.8746  0.8978  2.1003
 5265SOL     OW27427   3.647   0.274   9.888 -0.4030  0.3469 -0.1256
 5265SOL    HW127428   3.565   0.270   9.840 -1.0751  1.8265  0.9003
 5265SOL    HW227429   3.673   0.182   9.885  0.1830  0.5128 -0.2293
 5266SOL     OW27430   4.557   3.264   4.502  0.0007  0.1386  0.8810
 5266SOL    HW127431   4.619   3.337   4.505  1.9473 -1.4203 -0.9415
 5266SOL    HW227432   4.589   3.224   4.582  1.2615 -1.9885 -0.6998
 5267SOL     OW27433   3.956   3.131   8.876 -0.1032  0.5709  0.1436
 5267SOL    HW127434   3.996   3.081   8.805 -0.6629 -0.1710  0.3565
 5267SOL    HW227435   3.915   3.052   8.912 -1.9673  1.0253 -1.0246
 5268SOL     OW27436   2.616   4.524   8.140  0.3295  0.5045  0.0866
 5268SOL    HW127437   2.583   4.563   8.221 -0.9758  0.0976 -0.2651
 5268SOL    HW227438   2.552   4.526   8.069  0.0656 -2.2141  0.2292
 5269SOL     OW27439   4.390   2.873   4.569 -0.2058 -0.3035  0.6902
 5269SOL    HW127440   4.301   2.864   4.535  0.9679 -1.0032 -2.2098
 5269SOL    HW227441   4.375   2.949   4.625  3.2844  0.7982  0.1388
 5270SOL     OW27442   0.607   4.627  14.978  0.4830  0.0916 -0.3528
 5270SOL    HW127443   0.672   4.676  14.928  1.2425 -0.1173  0.4382
 5270SOL    HW227444   0.530   4.640  14.922 -0.7061  1.0758  1.5229
 5271SOL     OW27445   2.563   2.457  11.350  0.4139  0.2447 -0.2389
 5271SOL    HW127446   2.510   2.513  11.294 -2.1041 -0.8924  1.0289
 5271SOL    HW227447   2.631   2.515  11.384  2.6686 -0.9783 -2.6208
 5272SOL     OW27448   1.919   4.150  11.140  0.0841 -0.3417  0.5835
 5272SOL    HW127449   1.902   4.066  11.182 -2.2955 -0.2881 -0.2524
 5272SOL    HW227450   1.983   4.185  11.202 -0.6379  3.1982 -0.6270
 5273SOL     OW27451   4.584   1.488  12.421 -0.0978 -0.6227 -0.1504
 5273SOL    HW127452   4.545   1.432  12.488 -3.9986  1.0234 -1.0260
 5273SOL    HW227453   4.647   1.537  12.473 -0.7374 -0.3361  0.3623
 5274SOL     OW27454   3.896   3.604   8.079 -0.0260  0.2733  0.1519
 5274SOL    HW127455   3.954   3.623   8.005  0.6350 -1.7262  0.1282
 5274SOL    HW227456   3.814   3.624   8.035  1.0559  1.0397 -1.5064
 5275SOL     OW27457   2.785   2.265   5.448 -0.5997 -0.3073 -0.1658
 5275SOL    HW127458   2.733   2.340   5.478  0.1411  0.2059 -0.1775
 5275SOL    HW227459   2.716   2.200   5.432 -0.9626  0.0298  0.0101
 5276SOL     OW27460   4.733   3.639   5.617 -0.0163 -0.3562  0.0646
 5276SOL    HW127461   0.051   3.564   5.593 -0.8845 -1.2982  1.0541
 5276SOL    HW227462   0.010   3.700   5.545  0.7550  1.0108  1.3645
 5277SOL     OW27463   3.634   1.056  17.254  0.4365  0.3068  0.0016
 5277SOL    HW127464   3.616   1.025  17.165 -0.6952  1.4785 -0.1722
 5277SOL    HW227465   3.673   1.139  17.227  4.7166 -1.5333  0.5588
 5278SOL     OW27466   1.729   3.390   5.357  0.4368  0.3000  0.2371
 5278SOL    HW127467   1.727   3.296   5.373 -0.9716  0.0433 -1.3457
 5278SOL    HW227468   1.728   3.416   5.449 -0.5895  1.0818  0.0018
 5279SOL     OW27469   1.585   1.055   6.533  0.0301 -0.9922  0.0803
 5279SOL    HW127470   1.495   1.063   6.564  0.9708 -0.1567  2.5159
 5279SOL    HW227471   1.560   1.075   6.442  1.1035  0.8648  0.1944
 5280SOL     OW27472   0.072   0.340   5.227 -0.0088 -0.6363 -0.4157
 5280SOL    HW127473   0.095   0.372   5.314 -2.0113  0.2553 -0.2283
 5280SOL    HW227474   0.133   0.394   5.176  0.3206 -2.1156 -1.5683
 5281SOL     OW27475   3.836   0.339  10.648  0.7961  0.1835 -0.0359
 5281SOL    HW127476   3.743   0.321  10.642  0.1799  3.4397 -0.5542
 5281SOL    HW227477   3.861   0.292  10.728 -0.5875 -1.7279 -0.7440
 5282SOL     OW27478   2.254   0.150  13.150  0.1750  0.2475 -0.5032
 5282SOL    HW127479   2.294   0.196  13.076  0.9746 -0.0496 -0.2479
 5282SOL    HW227480   2.178   0.207  13.165  1.6383  1.7000  1.2231
 5283SOL     OW27481   1.456   1.626  11.555 -0.1363  0.5119 -0.0148
 5283SOL    HW127482   1.481   1.599  11.466  0.8706 -0.9051  0.6947
 5283SOL    HW227483   1.410   1.707  11.534 -0.9084 -0.3944 -1.7539
 5284SOL     OW27484   1.890   0.977   3.823  0.1963 -0.4084 -0.0747
 5284SOL    HW127485   1.860   0.936   3.742 -2.2801  1.4929 -0.1105
 5284SOL    HW227486   1.932   1.057   3.793  0.2939 -1.2524 -2.1514
 5285SOL     OW27487   2.725   2.110   6.819  0.3412 -0.3925  0.0220
 5285SOL    HW127488   2.723   2.131   6.913  0.8085  0.7015 -0.2099
 5285SOL    HW227489   2.747   2.195   6.781 -1.6479 -0.5555 -1.4851
 5286SOL     OW27490   3.943   4.621   2.850 -0.2326  0.0165 -0.0650
 5286SOL    HW127491   3.931   4.716   2.844  1.3001  0.1701 -0.7156
 5286SOL    HW227492   3.964   4.600   2.760  1.5558  1.9575 -0.1025
 5287SOL     OW27493   3.760   3.908   6.193  0.2920 -0.3745 -0.3539
 5287SOL    HW127494   3.853   3.918   6.169 -0.0615 -0.2320 -1.6525
 5287SOL    HW227495   3.755   3.813   6.204 -2.0940 -0.0041  1.7595
 5288SOL     OW27496   2.076   2.005   5.704  0.0442  0.0514  0.5815
 5288SOL    HW127497   2.002   1.952   5.674 -0.3836  1.0230 -0.1009
 5288SOL    HW227498   2.140   1.936   5.721 -0.8636 -1.1931 -0.9790
 5289SOL     OW27499   2.842   0.568   5.022 -0.3577 -0.1273 -0.8327
 5289SOL    HW127500   2.849   0.630   5.095  1.0745 -2.7789  1.2903
 5289SOL    HW227501   2.754   0.532   5.034  1.1377 -3.2413  0.7075
 5290SOL     OW27502   2.307   4.732   4.749  0.4604  0.0085  0.0785
 5290SOL    HW127503   2.236   4.728   4.684  1.8012  0.1233 -1.4021
 5290SOL    HW227504   2.363   0.065   4.715  0.2284  1.0303  1.7731
 5291SOL     OW27505   3.888   0.607   5.205  0.2633 -0.1694  0.3131
 5291SOL    HW127506   3.811   0.617   5.149 -2.0853 -0.6331  3.4304
 5291SOL    HW227507   3.886   0.693   5.248 -0.3624 -0.0684  0.0892
 5292SOL     OW27508   3.839   4.497   6.424 -0.5442  0.0449  0.5679
 5292SOL    HW127509   3.785   4.576   6.418  1.2427  1.1729 -0.6014
 5292SOL    HW227510   3.771   4.431   6.435 -1.3236  0.7254 -0.1315
 5293SOL     OW27511   4.055   3.642   6.496  0.8014  0.2286  0.7943
 5293SOL    HW127512   4.073   3.664   6.587  3.1406 -0.1355  0.4356
 5293SOL    HW227513   3.976   3.588   6.490  0.9763 -0.0315  0.8272
 5294SOL     OW27514   4.444   3.367  10.714  0.0769 -0.4422  0.0445
 5294SOL    HW127515   4.464   3.315  10.792  1.5460 -1.4058 -0.9817
 5294SOL    HW227516   4.364   3.323  10.687  0.2829 -0.5069 -0.4512
 5295SOL     OW27517   2.618   3.820  16.722  0.3275 -0.1915  0.2928
 5295SOL    HW127518   2.563   3.898  16.717  0.9492  0.1624 -1.1993
 5295SOL    HW227519   2.567   3.760  16.668  2.5373 -0.4950 -1.4681
 5296SOL     OW27520   3.162   2.385  14.722  0.4455  0.1211  0.2357
 5296SOL    HW127521   3.210   2.408  14.802 -0.0895  1.0189  0.2903
 5296SOL    HW227522   3.153   2.290  14.729 -1.1404  0.2237 -0.3865
 5297SOL     OW27523   0.314   2.123  11.534  0.0075 -0.5524 -0.6748
 5297SOL    HW127524   0.328   2.055  11.599 -0.5892 -1.0258 -1.0391
 5297SOL    HW227525   0.244   2.086  11.480 -0.6534  0.4154 -0.5001
 5298SOL     OW27526   1.651   0.487   8.439 -0.3934 -0.3342 -0.3562
 5298SOL    HW127527   1.658   0.422   8.508  3.1105  2.2322  1.7032
 5298SOL    HW227528   1.570   0.537   8.452 -0.7563 -0.4121 -2.2935
 5299SOL     OW27529   0.403   1.245   4.701  0.1329  0.3968 -0.4381
 5299SOL    HW127530   0.405   1.314   4.635  0.8266  0.6263 -0.1778
 5299SOL    HW227531   0.398   1.299   4.780 -0.5036  2.0224 -1.6123
 5300SOL     OW27532   3.268   1.459   4.738 -0.0163 -0.0927 -0.3932
 5300SOL    HW127533   3.323   1.384   4.718 -0.1026 -0.1691 -0.3468
 5300SOL    HW227534   3.264   1.466   4.834  0.5817 -2.5519 -0.1940
 5301SOL     OW27535   0.296   1.001   4.992 -0.1019  0.2905 -0.2161
 5301SOL    HW127536   0.309   0.907   5.002 -1.1001  0.2025  0.2519
 5301SOL    HW227537   0.231   1.000   4.923 -2.0301 -3.4701  1.6419
 5302SOL     OW27538   0.389   0.373   8.870 -0.2420  0.0894 -0.0550
 5302SOL    HW127539   0.353   0.290   8.899 -1.3010  0.0541 -1.4716
 5302SOL    HW227540   0.328   0.433   8.912  0.4868  0.7240  0.1063
 5303SOL     OW27541   1.242   0.480  10.942 -0.4943  0.0071  0.1194
 5303SOL    HW127542   1.178   0.544  10.911 -0.6702  2.0163  4.7155
 5303SOL    HW227543   1.197   0.396  10.929 -1.3326  0.8417 -2.3004
 5304SOL     OW27544   3.182   4.439   3.069  0.0676 -0.5442  0.1101
 5304SOL    HW127545   3.209   4.441   2.977 -2.9383 -2.1023 -0.8247
 5304SOL    HW227546   3.120   4.511   3.063 -1.8665 -1.9232  3.4776
 5305SOL     OW27547   2.865   3.186   3.903  0.1453 -0.6274 -0.0785
 5305SOL    HW127548   2.820   3.168   3.986 -1.5363 -1.1906 -1.1200
 5305SOL    HW227549   2.799   3.165   3.837 -0.9658 -0.2841  0.9166
 5306SOL     OW27550   1.071   2.732   0.319 -0.1043 -0.4234 -0.1792
 5306SOL    HW127551   0.983   2.763   0.340 -0.0870 -1.5435  1.5405
 5306SOL    HW227552   1.109   2.736   0.407  0.3185 -0.2809 -0.3705
 5307SOL     OW27553   2.536   3.904   3.758 -0.3699 -0.2801 -0.2582
 5307SOL    HW127554   2.519   3.877   3.848  2.2114 -0.2602  0.2223
 5307SOL    HW227555   2.463   3.965   3.742  1.2713  1.9710  0.9131
 5308SOL     OW27556   2.861   4.188   1.694 -0.3113  0.1789 -0.5034
 5308SOL    HW127557   2.849   4.170   1.788 -1.9134 -0.8851 -0.9193
 5308SOL    HW227558   2.862   4.283   1.700  2.0724  0.0737  0.7827
 5309SOL     OW27559   3.997   3.047  10.711  0.3252  0.2061 -0.2121
 5309SOL    HW127560   4.056   3.030  10.638 -1.1931  0.1943 -1.4480
 5309SOL    HW227561   3.933   2.978  10.689 -0.3294  1.1779 -1.3357
 5310SOL     OW27562   4.568   3.604  14.754  0.0335  0.3336 -0.0198
 5310SOL    HW127563   4.634   3.654  14.706  0.1956  1.0811  0.9958
 5310SOL    HW227564   4.601   3.585  14.841  0.6354  1.1994 -0.0547
 5311SOL     OW27565   2.024   0.300   5.212  0.1114 -0.0610  0.2546
 5311SOL    HW127566   1.975   0.364   5.263 -1.4642 -0.9618 -0.1257
 5311SOL    HW227567   2.111   0.337   5.199 -0.0101  0.4511  0.8954
 5312SOL     OW27568   3.710   2.705  16.254  0.0459 -0.6138  0.4615
 5312SOL    HW127569   3.758   2.750  16.323  1.4796 -0.8100 -0.4200
 5312SOL    HW227570   3.644   2.771  16.232  1.3571 -0.3493 -2.6277
 5313SOL     OW27571   2.917   1.474  16.873 -0.0821 -0.0196 -1.0413
 5313SOL    HW127572   2.904   1.543  16.808  2.1691  1.5305  0.1466
 5313SOL    HW227573   2.942   1.525  16.950 -1.2394 -0.9527 -0.0459
 5314SOL     OW27574   0.596   0.913   6.987  0.6697 -0.0417 -0.6899
 5314SOL    HW127575   0.515   0.863   6.997 -0.8602  2.7350  1.1172
 5314SOL    HW227576   0.575   1.006   7.003 -0.5479 -0.1359 -1.7918
 5315SOL     OW27577   0.178   3.895   0.565  0.7556 -0.3661  0.5815
 5315SOL    HW127578   0.126   3.836   0.510  0.6917  0.4151 -0.2046
 5315SOL    HW227579   0.264   3.853   0.562  0.7171 -0.5447  2.2695
 5316SOL     OW27580   3.567   1.651   2.535 -0.6146 -0.3586  0.0515
 5316SOL    HW127581   3.515   1.704   2.475 -0.8989 -1.3810 -0.6220
 5316SOL    HW227582   3.523   1.566   2.526 -1.0759 -0.2317  1.1980
 5317SOL     OW27583   2.251   2.465   4.441 -0.0014 -0.1563 -0.1727
 5317SOL    HW127584   2.307   2.396   4.476 -1.0192 -0.0041  1.7482
 5317SOL    HW227585   2.221   2.504   4.523  1.9684 -3.8331  2.2765
 5318SOL     OW27586   4.678   3.648   3.345  0.4872 -0.3764  0.3957
 5318SOL    HW127587   4.688   3.574   3.286 -0.7812 -0.1790 -0.0616
 5318SOL    HW227588   0.019   3.699   3.319 -1.4995  2.5137  0.1640
 5319SOL     OW27589   3.134   3.822   2.110  0.4401  0.0949  0.6541
 5319SOL    HW127590   3.055   3.790   2.153 -1.0171  0.5255 -1.7217
 5319SOL    HW227591   3.139   3.914   2.134  2.1773 -0.0064  0.7333
 5320SOL     OW27592   4.046   4.085   2.168  0.1014  0.0861 -0.5341
 5320SOL    HW127593   3.972   4.112   2.115 -0.0123  0.9106  0.0442
 5320SOL    HW227594   4.096   4.026   2.111  1.8598  1.4188 -0.3975
 5321SOL     OW27595   3.703   1.167   5.630 -0.2025 -0.0675 -0.2341
 5321SOL    HW127596   3.674   1.250   5.591  0.7668  1.2097  1.7539
 5321SOL    HW227597   3.763   1.128   5.566 -0.3053 -1.9047  0.8051
 5322SOL     OW27598   1.755   2.627   2.633 -0.9870  0.5027 -0.1284
 5322SOL    HW127599   1.838   2.662   2.665 -0.2650  0.3249 -1.8431
 5322SOL    HW227600   1.698   2.661   2.703  1.8536 -0.8837  2.8707
 5323SOL     OW27601   3.538   2.399   6.227 -0.2136 -0.3305 -0.2945
 5323SOL    HW127602   3.522   2.356   6.311 -0.5208 -0.0925 -0.2330
 5323SOL    HW227603   3.449   2.428   6.211 -0.2141 -0.4672 -0.5320
 5324SOL     OW27604   2.240   0.968   7.893 -0.3958 -0.2932  0.0642
 5324SOL    HW127605   2.171   1.010   7.842 -0.7549 -1.4413 -0.3941
 5324SOL    HW227606   2.206   0.880   7.906 -0.1969 -0.1080  1.8572
 5325SOL     OW27607   3.493   0.390   7.424 -1.0159  0.0956 -0.1169
 5325SOL    HW127608   3.480   0.296   7.437 -1.1409 -0.0884 -1.5226
 5325SOL    HW227609   3.586   0.389   7.444 -0.6186 -1.3323 -1.9295
 5326SOL     OW27610   4.696   2.176   5.143 -0.2987  0.3423  0.0704
 5326SOL    HW127611   4.608   2.213   5.133 -0.8470 -0.3522  2.3803
 5326SOL    HW227612   4.727   2.221   5.221  0.8043 -0.1703 -0.0790
 5327SOL     OW27613   2.200   4.470   3.130  0.4767 -0.1428 -0.1738
 5327SOL    HW127614   2.267   4.458   3.198  0.1575 -0.5252  0.0750
 5327SOL    HW227615   2.144   4.401   3.167 -0.3390  0.1317 -0.9201
 5328SOL     OW27616   4.567   3.641   1.267  0.1050 -0.5197  0.1905
 5328SOL    HW127617   4.533   3.632   1.178 -0.3182  0.6895  0.2302
 5328SOL    HW227618   4.661   3.650   1.256  0.0323 -0.0290 -0.0267
 5329SOL     OW27619   0.089   1.702   2.003 -0.5208  0.0677  0.4488
 5329SOL    HW127620   0.176   1.737   2.020 -1.3116  1.5590  1.5226
 5329SOL    HW227621   0.108   1.615   1.970 -1.4725  0.0120  0.0570
 5330SOL     OW27622   2.739   4.366   0.853  0.2813  0.0212  0.2377
 5330SOL    HW127623   2.828   4.394   0.877  0.4020 -0.2721  0.1383
 5330SOL    HW227624   2.697   4.367   0.939 -0.9579  0.2324 -0.3829
 5331SOL     OW27625   3.025   3.885  12.955 -0.1871 -0.3315 -0.3859
 5331SOL    HW127626   3.110   3.911  12.989  0.1443  0.0188 -1.5020
 5331SOL    HW227627   3.057   3.842  12.876 -0.4793 -0.2171 -0.5669
 5332SOL     OW27628   1.748   0.737   4.103 -0.1619  0.4902 -0.4803
 5332SOL    HW127629   1.837   0.768   4.086  0.4372  0.6835  3.0590
 5332SOL    HW227630   1.698   0.772   4.029  1.2396 -0.3309 -1.8116
 5333SOL     OW27631   3.769   1.965   9.300  0.3693  0.3361 -0.1060
 5333SOL    HW127632   3.788   2.045   9.251 -2.4425  0.5604 -0.8274
 5333SOL    HW227633   3.848   1.912   9.289  0.6231  0.7119 -0.0673
 5334SOL     OW27634   3.514   3.491   4.802 -0.5828  0.2080 -0.4694
 5334SOL    HW127635   3.433   3.470   4.755  0.3765 -0.5936 -1.7388
 5334SOL    HW227636   3.475   3.492   4.890 -0.2647 -0.5937 -0.3220
 5335SOL     OW27637   3.495   2.170  16.560 -0.0589 -0.2745  0.1991
 5335SOL    HW127638   3.546   2.212  16.492 -0.9155 -1.4271 -1.1567
 5335SOL    HW227639   3.560   2.118  16.607 -0.3304  0.8119  1.8000
 5336SOL     OW27640   3.280   1.160   2.833  0.4514  0.2259 -0.1436
 5336SOL    HW127641   3.243   1.113   2.759 -0.9058 -0.0546  0.7081
 5336SOL    HW227642   3.229   1.127   2.907  0.9003 -1.4268 -0.5703
 5337SOL     OW27643   1.106   1.798   7.410  0.5120  0.3869  0.6693
 5337SOL    HW127644   1.066   1.870   7.460  0.6788  2.1539 -1.7139
 5337SOL    HW227645   1.177   1.844   7.366  0.7679  0.3973  1.0954
 5338SOL     OW27646   0.971   0.037   5.733  0.2051 -0.0006 -0.2921
 5338SOL    HW127647   0.977   0.090   5.812 -1.1530  1.2358 -1.0161
 5338SOL    HW227648   1.052   0.039   5.682  0.5732  1.5953  0.3737
 5339SOL     OW27649   0.941   1.794  12.049  0.2941 -0.1416  0.4639
 5339SOL    HW127650   0.957   1.726  11.984 -2.3049 -0.8354  0.5382
 5339SOL    HW227651   0.906   1.867  11.999  1.7277  0.4950  0.3938
 5340SOL     OW27652   3.477   0.943   5.744 -0.2617  0.5694  0.0198
 5340SOL    HW127653   3.461   0.978   5.832 -4.1135 -2.1160  0.3271
 5340SOL    HW227654   3.551   1.002   5.726  1.1436 -0.8121  1.2641
 5341SOL     OW27655   1.774   0.447   3.144  0.3849 -0.2599  0.5308
 5341SOL    HW127656   1.689   0.411   3.170 -0.7553  1.1142 -1.2901
 5341SOL    HW227657   1.778   0.385   3.072 -1.7224 -0.3982  0.5372
 5342SOL     OW27658   4.560   4.257  15.295  0.1908  0.2107 -0.2674
 5342SOL    HW127659   4.581   4.168  15.266 -0.9721 -0.4963  1.0760
 5342SOL    HW227660   4.465   4.244  15.297  0.0724  1.4442  2.7413
 5343SOL     OW27661   4.676   4.076   2.453  0.5745  0.1758 -0.1324
 5343SOL    HW127662   4.655   4.165   2.478  0.1104 -0.0593  0.3095
 5343SOL    HW227663   4.714   4.096   2.367  1.8649 -0.2741  0.3222
 5344SOL     OW27664   1.925   0.480   2.846  0.1181 -0.5077  0.1246
 5344SOL    HW127665   1.878   0.539   2.904 -0.6616 -0.9519 -0.0417
 5344SOL    HW227666   1.912   0.392   2.882 -1.0471 -0.3037  0.2088
 5345SOL     OW27667   1.018   1.184  16.344  0.0473 -0.2562 -0.4237
 5345SOL    HW127668   1.094   1.178  16.401 -0.2929  1.1359  0.1825
 5345SOL    HW227669   0.999   1.101  16.300  2.9940 -1.3390  0.3907
 5346SOL     OW27670   4.125   4.658  10.484 -0.0280  0.1207  0.5034
 5346SOL    HW127671   4.099   4.714  10.558 -1.5106 -1.0114  0.8370
 5346SOL    HW227672   4.146   4.576  10.528  1.7980 -0.4672 -1.4774
 5347SOL     OW27673   2.664   3.080   3.726  0.2234 -0.6701 -0.0266
 5347SOL    HW127674   2.718   3.028   3.666 -1.6703 -2.1674 -0.3906
 5347SOL    HW227675   2.646   3.153   3.667 -0.0071  0.9889  2.0926
 5348SOL     OW27676   1.626   3.178   2.801 -0.1178 -0.1484 -0.5020
 5348SOL    HW127677   1.584   3.169   2.887  0.8712 -0.0689 -0.0126
 5348SOL    HW227678   1.645   3.272   2.797  0.6788 -0.2944 -0.1007
 5349SOL     OW27679   0.946   3.137  17.273 -0.4471 -0.4656 -0.0833
 5349SOL    HW127680   0.865   3.098  17.239 -1.0072  0.4121  0.2307
 5349SOL    HW227681   1.007   3.067  17.296 -1.9953 -2.0248 -0.7004
 5350SOL     OW27682   2.920   0.720   4.282 -0.6724  0.0583 -0.0444
 5350SOL    HW127683   2.862   0.706   4.356  0.5878  2.4563  1.3911
 5350SOL    HW227684   2.959   0.633   4.273 -1.5434 -0.4042  0.6927
 5351SOL     OW27685   0.110   0.052   7.093  0.3460 -0.1771 -0.0009
 5351SOL    HW127686   0.176   0.022   7.030  0.5720  1.0549 -0.3406
 5351SOL    HW227687   0.056   0.113   7.044  0.6561 -0.0758 -0.2163
 5352SOL     OW27688   4.250   1.106   8.246  0.0088 -0.0840  0.3317
 5352SOL    HW127689   4.179   1.130   8.186  0.0772  0.3601  0.4316
 5352SOL    HW227690   4.199   1.073   8.320 -0.2910 -1.1783 -0.3651
 5353SOL     OW27691   1.252   3.320  17.167 -0.1970  0.3328  0.5105
 5353SOL    HW127692   1.208   3.283  17.091 -0.9169  0.4713  0.8563
 5353SOL    HW227693   1.342   3.296  17.145 -0.3843 -0.9320  1.1423
 5354SOL     OW27694   2.015   1.329   5.747  0.4317 -0.3208 -0.0208
 5354SOL    HW127695   2.088   1.379   5.710  1.1361 -2.6983 -1.8276
 5354SOL    HW227696   2.067   1.258   5.785 -1.2558 -1.9993 -0.8626
 5355SOL     OW27697   0.330   0.437   9.234 -0.1984 -0.2611 -0.1243
 5355SOL    HW127698   0.306   0.357   9.280 -0.2269  0.1860  0.6254
 5355SOL    HW227699   0.423   0.437   9.255 -0.2743 -2.6677  0.1925
 5356SOL     OW27700   0.848   2.113   3.285 -0.0692  0.5320  0.2958
 5356SOL    HW127701   0.834   2.136   3.376 -0.2452  0.4900  0.2787
 5356SOL    HW227702   0.931   2.161   3.282  0.9209 -1.1870 -0.0387
 5357SOL     OW27703   3.151   3.918  15.070  0.0047  0.0096  0.1148
 5357SOL    HW127704   3.184   3.836  15.032 -0.9099 -1.2437  2.0072
 5357SOL    HW227705   3.056   3.920  15.056  0.0288  0.9103  0.1153
 5358SOL     OW27706   3.559   2.784   6.602 -0.4380  0.2346  0.0807
 5358SOL    HW127707   3.500   2.811   6.672 -0.7816 -0.8878  0.2247
 5358SOL    HW227708   3.629   2.752   6.658 -0.6248 -1.0416 -0.4072
 5359SOL     OW27709   1.497   4.149  12.934 -0.0737  0.2944  0.3622
 5359SOL    HW127710   1.552   4.140  12.856 -0.6610 -0.2746  0.0111
 5359SOL    HW227711   1.532   4.228  12.975  2.5146 -1.8712  2.3604
 5360SOL     OW27712   1.429   1.099   6.303 -0.7148 -0.0647 -0.1154
 5360SOL    HW127713   1.436   1.020   6.248  0.2180 -1.5590  2.1335
 5360SOL    HW227714   1.441   1.168   6.238 -0.6800  0.1480  0.1170
 5361SOL     OW27715   2.208   1.690   9.726  0.3487  0.1275 -0.3328
 5361SOL    HW127716   2.154   1.612   9.713 -2.1273  1.4191  2.1135
 5361SOL    HW227717   2.187   1.704   9.818  2.6567  1.2951  0.0113
 5362SOL     OW27718   3.859   2.931  15.757 -0.2847 -0.2850 -0.0110
 5362SOL    HW127719   3.908   2.862  15.801  0.0032 -0.3523 -0.4351
 5362SOL    HW227720   3.778   2.936  15.808  0.2094 -0.0072  0.7480
 5363SOL     OW27721   3.698   3.693   5.150  0.4263  0.6764  0.1227
 5363SOL    HW127722   3.661   3.707   5.063  0.9427  1.0655 -0.0333
 5363SOL    HW227723   3.751   3.615   5.131  0.7706  1.0546 -0.4591
 5364SOL     OW27724   2.357   0.661   7.073  0.3273  0.4246 -0.2112
 5364SOL    HW127725   2.452   0.661   7.085  0.0671  0.4004  1.7816
 5364SOL    HW227726   2.339   0.755   7.076  0.0729  0.3744 -0.1193
 5365SOL     OW27727   3.325   3.975   8.415  0.3566  0.0610  0.4790
 5365SOL    HW127728   3.387   3.941   8.480  1.5193  2.0142  0.4176
 5365SOL    HW227729   3.377   4.022   8.349 -0.8759  1.6971  0.6698
 5366SOL     OW27730   3.396   3.455  11.763  0.1324  0.0658  0.3287
 5366SOL    HW127731   3.472   3.430  11.814  1.2809 -1.0150 -1.9047
 5366SOL    HW227732   3.350   3.523  11.812  1.0713 -0.0619  1.3607
 5367SOL     OW27733   1.435   1.383  13.145 -0.5026  0.5039  0.2040
 5367SOL    HW127734   1.492   1.448  13.186  1.8486 -1.1692 -0.3931
 5367SOL    HW227735   1.367   1.382  13.212  0.6373 -0.9431  1.3384
 5368SOL     OW27736   3.453   3.568   7.724  0.3395  0.4662  0.6508
 5368SOL    HW127737   3.420   3.615   7.647  1.1488 -1.4724 -0.8927
 5368SOL    HW227738   3.482   3.488   7.679  1.7203  0.4158  1.6285
 5369SOL     OW27739   3.412   0.213   2.503  0.0018  0.2944 -0.2792
 5369SOL    HW127740   3.424   0.124   2.534  2.6835  0.3996 -1.0070
 5369SOL    HW227741   3.364   0.245   2.579  0.4724  1.9391 -0.6700
 5370SOL     OW27742   3.952   0.760   7.277 -0.0676 -0.2625 -0.9249
 5370SOL    HW127743   3.861   0.740   7.302  0.4794 -1.9114 -0.2264
 5370SOL    HW227744   3.954   0.855   7.276  0.6244 -0.2769 -0.9616
 5371SOL     OW27745   3.689   2.145   8.856  0.2912  0.4593 -0.3235
 5371SOL    HW127746   3.616   2.193   8.817  0.8284  2.1935  0.7994
 5371SOL    HW227747   3.752   2.142   8.784  1.5223 -1.2827  0.8310
 5372SOL     OW27748   3.045   0.548   5.591 -0.4880  0.7469 -0.4172
 5372SOL    HW127749   3.101   0.543   5.669 -1.7520 -1.4238  0.3427
 5372SOL    HW227750   2.968   0.589   5.631  0.7124 -0.8647  3.5799
 5373SOL     OW27751   2.027   2.311   8.667 -0.2899 -0.2279  0.8638
 5373SOL    HW127752   2.045   2.405   8.659  1.1264 -0.5963 -0.2542
 5373SOL    HW227753   2.111   2.287   8.705  0.7406  2.0457  0.0027
 5374SOL     OW27754   0.097   1.700  13.422  0.4661 -0.1209 -0.4804
 5374SOL    HW127755   0.059   1.688  13.509 -1.3291  1.7151 -1.0114
 5374SOL    HW227756   0.121   1.611  13.397  1.9388  0.9515 -2.8718
 5375SOL     OW27757   0.584   3.451   5.953 -0.0102 -0.4844 -0.0000
 5375SOL    HW127758   0.597   3.415   5.865  0.5140 -0.2980  0.0042
 5375SOL    HW227759   0.569   3.368   5.999  0.1329 -1.6566 -2.0432
 5376SOL     OW27760   3.915   0.004   6.842 -0.4993  0.0447  0.0908
 5376SOL    HW127761   3.842   0.021   6.782 -0.4675  1.4646  0.4536
 5376SOL    HW227762   3.991   0.025   6.788  1.0319 -0.9053  1.8878
 5377SOL     OW27763   0.100   2.327  16.404 -0.0861  0.1072  0.2534
 5377SOL    HW127764   0.054   2.276  16.470 -0.9746  1.9374  1.0588
 5377SOL    HW227765   0.102   2.263  16.332 -0.8690 -1.4708  1.6492
 5378SOL     OW27766   3.376   2.642   8.274 -0.9329 -0.0917  0.3849
 5378SOL    HW127767   3.292   2.637   8.229  0.9386  0.6233 -3.1764
 5378SOL    HW227768   3.350   2.671   8.362 -0.1261 -1.8364  1.1854
 5379SOL     OW27769   0.322   1.449   2.870 -0.3253  0.0932  0.1228
 5379SOL    HW127770   0.229   1.431   2.882 -0.4061  0.9793  0.8768
 5379SOL    HW227771   0.352   1.481   2.955 -1.2913  1.7911 -0.1710
 5380SOL     OW27772   2.673   1.605   4.831 -0.0312 -0.4108 -0.0018
 5380SOL    HW127773   2.686   1.523   4.879 -1.2425 -0.6270 -0.0534
 5380SOL    HW227774   2.586   1.634   4.858  0.0851 -1.2679  1.3105
 5381SOL     OW27775   0.966   1.548   0.437  0.4302 -0.3737 -0.2335
 5381SOL    HW127776   0.882   1.578   0.471  1.4478  1.8820  0.3404
 5381SOL    HW227777   0.967   1.458   0.469  0.0537 -0.1516  0.3989
 5382SOL     OW27778   0.710   1.683   4.060  0.5703  0.4646 -0.1306
 5382SOL    HW127779   0.630   1.651   4.019  0.8374 -0.1980 -0.1328
 5382SOL    HW227780   0.778   1.620   4.036 -0.1684 -0.5051  0.3447
 5383SOL     OW27781   3.925   4.264  16.797  0.5945  0.4355 -0.0855
 5383SOL    HW127782   3.851   4.203  16.797 -0.7352  2.0412 -2.1500
 5383SOL    HW227783   3.893   4.346  16.835  1.4483  0.3633  0.8101
 5384SOL     OW27784   0.250   1.960  14.073 -0.8709 -0.2600 -0.4016
 5384SOL    HW127785   0.190   1.952  14.147  0.4294 -0.0838  0.6605
 5384SOL    HW227786   0.181   1.942  14.009 -1.8750 -1.6678  1.0768
 5385SOL     OW27787   3.321   1.113   5.197  0.3048  0.3025 -0.7251
 5385SOL    HW127788   3.369   1.031   5.206 -1.0961 -0.1162  2.6116
 5385SOL    HW227789   3.229   1.089   5.202  0.3059 -0.1317 -2.6021
 5386SOL     OW27790   0.112   2.306   5.834 -0.0686 -0.0593 -0.3451
 5386SOL    HW127791   0.170   2.341   5.766 -0.2833 -1.3921 -1.2199
 5386SOL    HW227792   0.034   2.360   5.819 -0.2556 -0.8680 -2.2589
 5387SOL     OW27793   2.277   0.574   6.737  0.1606 -0.0904 -0.3007
 5387SOL    HW127794   2.336   0.590   6.663  0.7769 -0.1232  0.1910
 5387SOL    HW227795   2.230   0.501   6.697 -0.9744  1.3574 -1.6241
 5388SOL     OW27796   2.569   3.363   8.474  0.4751  0.2686 -0.6078
 5388SOL    HW127797   2.505   3.362   8.403 -1.7806 -3.5351  1.4696
 5388SOL    HW227798   2.641   3.415   8.437  0.8896 -0.8037 -1.3269
 5389SOL     OW27799   4.450   4.353   1.210 -0.3283  0.0284  0.3102
 5389SOL    HW127800   4.427   4.417   1.278 -3.4862 -1.2031  0.4219
 5389SOL    HW227801   4.542   4.334   1.228 -0.0211 -0.0220 -1.3569
 5390SOL     OW27802   4.140   0.947   5.403  0.0108  0.3521  0.4553
 5390SOL    HW127803   4.150   0.873   5.463 -0.2689 -0.2632 -0.2699
 5390SOL    HW227804   4.169   1.022   5.455  2.1692 -0.6338  0.6992
 5391SOL     OW27805   3.659   4.056   4.673  0.1342  0.0399 -0.5081
 5391SOL    HW127806   3.610   3.984   4.634 -0.3031 -0.9403  1.8561
 5391SOL    HW227807   3.622   4.058   4.761  1.3652 -2.5091  0.0695
 5392SOL     OW27808   4.071   2.809   6.065 -0.0148 -0.3250  0.0140
 5392SOL    HW127809   4.092   2.879   6.126  0.1281 -1.1934  0.9655
 5392SOL    HW227810   4.023   2.863   6.002  0.6360  2.0715  1.5680
 5393SOL     OW27811   3.593   1.463   1.517  0.3962  0.2403  0.1151
 5393SOL    HW127812   3.527   1.531   1.508 -0.8026 -1.2106 -1.9236
 5393SOL    HW227813   3.560   1.423   1.597 -2.9845  0.1290 -1.3650
 5394SOL     OW27814   4.507   0.495   8.510  0.4988  0.4163  0.1569
 5394SOL    HW127815   4.508   0.591   8.518 -1.9988  0.3159  1.8469
 5394SOL    HW227816   4.572   0.482   8.441 -1.9333 -0.1228 -2.0653
 5395SOL     OW27817   3.675   2.843  11.968 -0.3392  0.6004 -0.3224
 5395SOL    HW127818   3.611   2.913  11.958  1.9960  2.7810  0.1275
 5395SOL    HW227819   3.622   2.774  12.008  1.1873  0.2678  1.1606
 5396SOL     OW27820   1.202   2.472   8.855  0.1265  0.5532 -0.5440
 5396SOL    HW127821   1.208   2.557   8.898 -0.2812  0.4176 -0.2123
 5396SOL    HW227822   1.109   2.453   8.872  0.0351  1.0054 -0.5249
 5397SOL     OW27823   2.706   1.507  16.470 -0.0527 -0.1698  0.1860
 5397SOL    HW127824   2.702   1.575  16.537  0.8993 -0.7355  0.8118
 5397SOL    HW227825   2.622   1.462  16.466 -1.0708  1.9914 -2.4298
 5398SOL     OW27826   3.684   3.441   1.382  0.0528  0.1952 -0.0892
 5398SOL    HW127827   3.696   3.522   1.430  0.1044  0.3714 -0.3958
 5398SOL    HW227828   3.605   3.465   1.333 -0.5697  0.1737  0.9230
 5399SOL     OW27829   3.296   3.222   3.336 -0.0585 -0.1807  0.7310
 5399SOL    HW127830   3.343   3.238   3.254  1.4579  2.9737  2.2459
 5399SOL    HW227831   3.352   3.264   3.401 -0.3240 -0.6474  1.2594
 5400SOL     OW27832   0.023   1.232   6.607 -0.0988  0.5101  0.0678
 5400SOL    HW127833   0.054   1.210   6.519  0.9047 -0.5293  0.6665
 5400SOL    HW227834   4.709   1.155   6.633  1.7059 -1.2294 -1.6054
 5401SOL     OW27835   2.772   4.596   4.059  0.5438 -0.2250  0.1670
 5401SOL    HW127836   2.688   4.595   4.013  0.7900 -1.7364 -0.2416
 5401SOL    HW227837   2.731   4.617   4.143  0.8974 -1.3282  0.6057
 5402SOL     OW27838   3.147   2.727   4.655 -0.1681  0.4867  0.7246
 5402SOL    HW127839   3.201   2.799   4.624 -0.4426  1.2411  1.9708
 5402SOL    HW227840   3.066   2.744   4.607  0.3640  0.2276 -0.2438
 5403SOL     OW27841   3.867   1.590   0.719 -0.3747 -0.4912 -0.0437
 5403SOL    HW127842   3.907   1.521   0.666 -1.9774 -0.2522 -1.5594
 5403SOL    HW227843   3.823   1.640   0.650 -0.4587  0.1489  0.4792
 5404SOL     OW27844   0.787   2.641   0.205  0.0698  0.0202  0.1556
 5404SOL    HW127845   0.770   2.577   0.274 -0.3836 -0.1551 -0.1152
 5404SOL    HW227846   0.880   2.662   0.212 -0.1062  0.8557 -0.0664
 5405SOL     OW27847   3.281   0.362   4.557 -0.4402 -0.3863  0.3834
 5405SOL    HW127848   3.276   0.327   4.646 -2.4232 -0.5087  0.2118
 5405SOL    HW227849   3.227   0.440   4.569  1.9356  1.1604  1.1796
 5406SOL     OW27850   1.657   1.100   2.633  0.1832  0.0799  1.0981
 5406SOL    HW127851   1.664   1.097   2.537  1.9141 -0.0864  1.2291
 5406SOL    HW227852   1.626   1.190   2.637 -2.7346 -0.9264  1.5226
 5407SOL     OW27853   1.096   1.004   4.942  0.1149 -0.6646 -0.2136
 5407SOL    HW127854   1.032   1.065   4.906  0.1388  0.5260  1.7427
 5407SOL    HW227855   1.103   0.954   4.861  1.5683 -1.8372  0.6281
 5408SOL     OW27856   0.125   3.984   5.155 -0.0630 -0.1903 -0.2164
 5408SOL    HW127857   0.078   4.059   5.191  0.1414  0.0493 -0.4499
 5408SOL    HW227858   0.072   3.947   5.085  1.3869  0.9285 -1.9077
 5409SOL     OW27859   2.595   0.088   9.485  0.3574 -0.0531 -0.4224
 5409SOL    HW127860   2.624   0.173   9.519 -0.8542  0.3876 -0.4907
 5409SOL    HW227861   2.673   0.040   9.512 -0.5083 -0.4249  1.3854
 5410SOL     OW27862   3.079   1.873  16.320 -0.6830  0.0518  0.0883
 5410SOL    HW127863   3.089   1.913  16.233 -1.3550 -2.1220 -0.9921
 5410SOL    HW227864   3.144   1.919  16.373 -0.4766  0.8429 -0.8560
 5411SOL     OW27865   2.467   2.423   5.056  0.4664  0.4168  0.2109
 5411SOL    HW127866   2.523   2.352   5.025 -0.8739 -0.5240 -0.0416
 5411SOL    HW227867   2.388   2.406   5.005 -0.6803  2.4433  1.2925
 5412SOL     OW27868   4.120   3.056   0.473 -0.3409  0.1930 -0.3689
 5412SOL    HW127869   4.200   3.104   0.495  0.1313 -1.1389  0.8037
 5412SOL    HW227870   4.085   3.037   0.560 -0.2728  1.3013 -0.1079
 5413SOL     OW27871   0.531   1.905   1.816  0.1064  0.2027  0.6663
 5413SOL    HW127872   0.583   1.986   1.818  0.3822  0.0730 -1.9818
 5413SOL    HW227873   0.554   1.859   1.736  0.2713 -0.3080  1.0095
 5414SOL     OW27874   3.434   1.614  14.010 -0.7277 -0.4000 -0.4585
 5414SOL    HW127875   3.512   1.574  13.971 -1.3102  0.3653 -2.4122
 5414SOL    HW227876   3.454   1.617  14.103 -0.1933 -0.7190 -0.5659
 5415SOL     OW27877   4.357   1.886  15.480  0.5820 -0.0689 -0.1592
 5415SOL    HW127878   4.297   1.959  15.470 -0.0343 -0.8540 -2.0626
 5415SOL    HW227879   4.305   1.818  15.438 -1.2827  1.6603 -0.6334
 5416SOL     OW27880   2.541   0.185   6.181 -0.6594  0.0329 -0.3496
 5416SOL    HW127881   2.479   0.112   6.190  0.4332 -0.7564  0.7918
 5416SOL    HW227882   2.497   0.240   6.245 -0.2944 -0.8690  0.6740
 5417SOL     OW27883   0.724   1.036   4.958 -0.2599  0.4684 -0.5220
 5417SOL    HW127884   0.758   1.008   5.043  2.3832 -0.9676 -2.0671
 5417SOL    HW227885   0.800   1.069   4.910 -1.3214 -0.3191 -2.7296
 5418SOL     OW27886   2.010   4.666   5.501 -0.2580  0.3279  0.1090
 5418SOL    HW127887   1.926   4.707   5.519 -1.2557 -1.1248 -1.2914
 5418SOL    HW227888   2.051   4.647   5.586  3.0814 -0.1101 -1.6143
 5419SOL     OW27889   0.334   2.811   9.859 -0.0953 -0.0334  0.0520
 5419SOL    HW127890   0.349   2.726   9.900 -0.6581 -0.9661 -1.6971
 5419SOL    HW227891   0.418   2.816   9.813  0.8366  0.7798  1.8475
 5420SOL     OW27892   3.471   0.160  11.207 -0.4266 -0.1009 -0.1345
 5420SOL    HW127893   3.511   0.093  11.151 -1.1667  0.9086 -1.8630
 5420SOL    HW227894   3.463   0.124  11.296 -1.8567  0.9268  0.1607
 5421SOL     OW27895   2.355   1.920   5.740 -0.2369  0.2810 -0.1709
 5421SOL    HW127896   2.358   1.962   5.826 -1.9818  1.6239 -0.7582
 5421SOL    HW227897   2.359   1.829   5.770 -0.8682 -0.1568 -1.4175
 5422SOL     OW27898   3.178   3.421   8.934  0.0278  0.2502  0.8226
 5422SOL    HW127899   3.255   3.422   8.878 -0.3126  1.4041  0.3682
 5422SOL    HW227900   3.106   3.406   8.872 -0.4431  1.2612  1.1274
 5423SOL     OW27901   2.088   1.485  13.801 -0.1977 -0.0201  0.2604
 5423SOL    HW127902   2.172   1.450  13.830 -0.7570 -2.6817 -1.3177
 5423SOL    HW227903   2.096   1.580  13.794  2.6479 -0.2131  1.0283
 5424SOL     OW27904   2.729   1.202   4.496  0.0201 -0.2520  0.5519
 5424SOL    HW127905   2.738   1.204   4.592  1.5101 -1.0777  0.4267
 5424SOL    HW227906   2.820   1.185   4.472  0.3769 -0.1161  1.7865
 5425SOL     OW27907   4.594   4.472   9.941 -0.2743  0.0990  0.3728
 5425SOL    HW127908   4.644   4.515   9.871 -2.8937  1.0637 -0.9007
 5425SOL    HW227909   4.655   4.460  10.013  2.4621  1.3102 -1.7461
 5426SOL     OW27910   4.020   2.118   6.253 -0.2898 -0.1343 -0.6001
 5426SOL    HW127911   4.069   2.078   6.182  2.3119  1.8779  0.0712
 5426SOL    HW227912   4.016   2.209   6.224 -0.3794  0.2960  0.7255
 5427SOL     OW27913   0.533   3.357  15.434  0.7528  0.4869  1.0854
 5427SOL    HW127914   0.499   3.288  15.491  1.2568 -1.5322 -1.1101
 5427SOL    HW227915   0.479   3.433  15.460 -1.9265 -1.3796  0.9828
 5428SOL     OW27916   1.823   2.402   0.657 -0.3771  0.0078  0.0660
 5428SOL    HW127917   1.915   2.401   0.630 -0.6903 -1.8033 -0.9278
 5428SOL    HW227918   1.791   2.356   0.579  1.2455  1.3384 -1.4004
 5429SOL     OW27919   1.942   1.312   3.317  0.1881  0.4750  0.6237
 5429SOL    HW127920   1.979   1.312   3.405  1.3401 -0.5362  0.1476
 5429SOL    HW227921   1.846   1.311   3.315  0.2122 -1.0336 -0.0520
 5430SOL     OW27922   1.710   4.331  13.972 -0.0518  0.5481  0.0969
 5430SOL    HW127923   1.673   4.249  13.937  0.3337  0.4309 -0.0293
 5430SOL    HW227924   1.633   4.369  14.014 -1.7857 -0.7838 -1.8720
 5431SOL     OW27925   0.291   0.383  16.992  0.2946  0.6429  0.2279
 5431SOL    HW127926   0.263   0.319  16.926  0.8586 -0.3017  0.8952
 5431SOL    HW227927   0.343   0.448  16.946  2.6588  0.1003  2.1028
 5432SOL     OW27928   3.108   2.481  12.563  0.1616  0.3334  0.4414
 5432SOL    HW127929   3.161   2.442  12.494 -0.1832  0.8100 -0.0995
 5432SOL    HW227930   3.166   2.477  12.640  1.7540 -1.9465 -0.9096
 5433SOL     OW27931   0.968   1.684  17.230  0.5740 -0.5349 -0.1995
 5433SOL    HW127932   1.001   1.618  17.169  3.6447 -1.8671  2.9125
 5433SOL    HW227933   1.004   1.763  17.190 -1.8298  0.6277 -0.0771
 5434SOL     OW27934   0.600   2.441   3.468 -0.5249  0.1453  0.2707
 5434SOL    HW127935   0.667   2.453   3.535 -0.3814 -0.0825  0.1700
 5434SOL    HW227936   0.598   2.346   3.456  1.3853  0.0122  1.1255
 5435SOL     OW27937   2.910   4.366   8.781 -0.3572  0.0291  0.6602
 5435SOL    HW127938   2.972   4.312   8.829  1.0340  2.0106  1.0925
 5435SOL    HW227939   2.948   4.361   8.693 -0.0915  1.0756  0.7115
 5436SOL     OW27940   3.202   4.490  16.980 -0.0418  0.9350 -0.3460
 5436SOL    HW127941   3.160   4.572  17.006  0.0889  1.8016 -2.9208
 5436SOL    HW227942   3.199   4.487  16.884 -1.3084 -0.2977 -0.2739
 5437SOL     OW27943   3.070   4.197   6.839 -0.6321 -0.3497  0.2034
 5437SOL    HW127944   3.127   4.172   6.767 -1.1101  1.0007 -0.6213
 5437SOL    HW227945   3.131   4.253   6.886 -1.0907  0.5673 -0.2970
 5438SOL     OW27946   4.288   1.846   1.991  0.0011  0.4416  0.1961
 5438SOL    HW127947   4.365   1.880   2.037  0.5628 -1.7479  0.8639
 5438SOL    HW227948   4.250   1.786   2.055  0.0532 -0.0070 -0.1908
 5439SOL     OW27949   0.760   3.017   0.373 -0.1429  0.1083  0.1471
 5439SOL    HW127950   0.724   3.026   0.285  0.1685 -1.6312 -0.1657
 5439SOL    HW227951   0.853   3.014   0.348 -0.1147 -1.6413  0.4492
 5440SOL     OW27952   4.670   3.998   5.972 -0.2007 -0.0134  0.3237
 5440SOL    HW127953   4.690   3.947   5.894 -0.2891 -0.1102  0.3650
 5440SOL    HW227954   4.603   3.949   6.020  0.0755 -1.8086 -1.1393
 5441SOL     OW27955   2.588   2.890   7.912  0.2122 -0.5561 -0.6829
 5441SOL    HW127956   2.657   2.920   7.971 -1.1522 -0.7014  0.9875
 5441SOL    HW227957   2.500   2.905   7.945  0.8696 -0.6503  1.1063
 5442SOL     OW27958   2.216   3.061   1.826  0.0589 -0.1583 -0.3765
 5442SOL    HW127959   2.204   3.024   1.914 -1.3481  0.2073 -0.4135
 5442SOL    HW227960   2.235   3.151   1.852  1.8292 -0.5010 -0.4494
 5443SOL     OW27961   0.564   1.676   7.941 -0.3809 -0.1140  0.2941
 5443SOL    HW127962   0.573   1.742   7.872  1.0633 -1.0401 -0.4095
 5443SOL    HW227963   0.563   1.597   7.888  1.5473 -0.2124  0.4262
 5444SOL     OW27964   2.096   0.189   0.304 -0.3325 -0.0010 -0.0066
 5444SOL    HW127965   2.041   0.112   0.292  0.8262 -1.1091  1.8312
 5444SOL    HW227966   2.143   0.197   0.220 -0.8846 -0.4144 -0.3477
 5445SOL     OW27967   2.152   4.064   1.895 -0.5130  0.2276  0.8216
 5445SOL    HW127968   2.132   3.970   1.898  0.9488 -0.0655  1.4946
 5445SOL    HW227969   2.072   4.107   1.926 -1.1528  0.5918 -1.3873
 5446SOL     OW27970   1.658   1.149   4.641  0.9400  0.6106  0.0781
 5446SOL    HW127971   1.599   1.098   4.697  1.5452 -0.9934 -0.7452
 5446SOL    HW227972   1.743   1.119   4.674 -0.0303 -0.9323  1.1706
 5447SOL     OW27973   2.122   2.631  11.014  0.2607  0.0157  0.0057
 5447SOL    HW127974   2.165   2.643  10.929 -0.2424 -3.1870 -0.7076
 5447SOL    HW227975   2.073   2.713  11.014  0.2899  0.0274  2.0587
 5448SOL     OW27976   4.138   3.903   0.112  0.2065 -0.2836  0.6226
 5448SOL    HW127977   4.171   3.816   0.087 -0.8891 -0.7976  0.9887
 5448SOL    HW227978   4.057   3.873   0.153  0.4469 -3.2104 -1.0066
 5449SOL     OW27979   1.275   2.851  11.555 -0.5555  0.3787 -1.0375
 5449SOL    HW127980   1.320   2.879  11.634 -0.2373 -0.9954 -0.7264
 5449SOL    HW227981   1.220   2.928  11.544 -2.7465 -1.0197  0.0847
 5450SOL     OW27982   3.732   2.494   7.552 -0.5961 -0.1500 -0.1518
 5450SOL    HW127983   3.782   2.493   7.471  1.8494  2.0921  1.3334
 5450SOL    HW227984   3.670   2.567   7.544 -0.5191 -0.1822 -1.0384
 5451SOL     OW27985   2.784   2.886   1.443 -1.0019  0.5517 -0.8325
 5451SOL    HW127986   2.743   2.966   1.474  3.3744  2.3925  0.1785
 5451SOL    HW227987   2.876   2.912   1.440 -0.7648 -0.5407 -3.0660
 5452SOL     OW27988   3.281   2.666   0.320 -0.0959  0.6053  0.0734
 5452SOL    HW127989   3.366   2.651   0.277 -0.2988  1.3313 -0.5986
 5452SOL    HW227990   3.229   2.618   0.255  0.3586  1.6651 -1.0894
 5453SOL     OW27991   0.553   0.315   3.593 -0.0191 -0.1013 -0.1359
 5453SOL    HW127992   0.502   0.291   3.516 -0.1231  1.2402 -0.4805
 5453SOL    HW227993   0.494   0.289   3.664  1.3889 -0.6606  0.8219
 5454SOL     OW27994   0.606   0.818  11.989 -0.0572 -0.0559  0.0321
 5454SOL    HW127995   0.542   0.762  11.945  0.4452 -1.0312  0.5561
 5454SOL    HW227996   0.684   0.815  11.934 -1.3996 -1.5613 -1.8305
 5455SOL     OW27997   3.992   0.932   4.919 -0.3519 -0.5922 -0.6690
 5455SOL    HW127998   3.989   0.856   4.978  1.6893  0.7577  1.1552
 5455SOL    HW227999   4.086   0.949   4.915 -0.5676  1.0581  1.5466
 5456SOL     OW28000   2.689   4.242   2.554 -0.9742 -0.0839  0.5190
 5456SOL    HW128001   2.637   4.272   2.628  0.0205 -0.7302  1.4889
 5456SOL    HW228002   2.626   4.210   2.488 -1.6535 -0.2625  1.2594
 5457SOL     OW28003   3.787   3.596   6.583  0.0102 -0.4938 -0.1025
 5457SOL    HW128004   3.718   3.538   6.552  0.7362 -1.0683 -0.6284
 5457SOL    HW228005   3.783   3.579   6.677  3.0427 -2.3976 -0.3031
 5458SOL     OW28006   2.790   4.356   3.260  0.1551  0.0191  0.0040
 5458SOL    HW128007   2.750   4.425   3.312  1.2595  0.5900  0.1108
 5458SOL    HW228008   2.873   4.355   3.308  0.1739  2.8979  0.0282
 5459SOL     OW28009   3.381   0.015  16.913  0.2259 -0.1876  0.4010
 5459SOL    HW128010   3.473   0.025  16.889 -0.1765  0.5481 -0.8386
 5459SOL    HW228011   3.356   4.662  16.888 -1.1485  0.0182  1.0220
 5460SOL     OW28012   1.243   2.515   5.340  0.4870 -0.5842 -0.0002
 5460SOL    HW128013   1.331   2.477   5.328  0.3433 -1.4710  1.7882
 5460SOL    HW228014   1.192   2.434   5.348 -1.0976  0.4344  0.1921
 5461SOL     OW28015   0.430   3.633   1.040 -0.0804 -0.4349 -0.4493
 5461SOL    HW128016   0.391   3.700   1.095  1.3888  0.9672 -1.1311
 5461SOL    HW228017   0.509   3.678   1.012 -0.8763  0.4969 -1.2229
 5462SOL     OW28018   2.035   4.364   7.158  0.1978  0.0253 -0.0030
 5462SOL    HW128019   2.040   4.401   7.246  0.0511 -1.3416  0.5728
 5462SOL    HW228020   2.051   4.444   7.108 -3.3433  1.2765  0.9009
 5463SOL     OW28021   0.998   0.670   9.715 -0.0860  0.2436  0.4502
 5463SOL    HW128022   0.957   0.634   9.794 -0.1057 -0.3817  0.1549
 5463SOL    HW228023   1.088   0.663   9.746 -0.7332 -3.2231  1.5252
 5464SOL     OW28024   0.747   2.963   4.802  0.3205  0.0151 -0.6358
 5464SOL    HW128025   0.748   2.899   4.873 -0.2554 -1.6984 -2.1742
 5464SOL    HW228026   0.653   2.984   4.804  0.4837  0.7244 -0.3261
 5465SOL     OW28027   0.718   1.324   6.297  0.1479  0.6931  0.2855
 5465SOL    HW128028   0.776   1.398   6.315  0.9014 -0.0405  0.8750
 5465SOL    HW228029   0.637   1.370   6.317  0.5273  1.1218  0.8372
 5466SOL     OW28030   2.246   1.986   2.226  0.4833 -0.3195 -0.1611
 5466SOL    HW128031   2.205   1.918   2.280 -0.3804  0.3397  0.0078
 5466SOL    HW228032   2.330   2.004   2.268  0.8472  0.2401 -1.1303
 5467SOL     OW28033   1.051   4.670   2.148 -0.1489 -0.4232 -0.0728
 5467SOL    HW128034   0.978   4.721   2.181 -1.1820 -1.0006 -1.4806
 5467SOL    HW228035   1.118   0.002   2.147  0.2952 -0.8516  0.1633
 5468SOL     OW28036   0.473   2.733  14.957  0.0144 -0.0928 -0.2295
 5468SOL    HW128037   0.427   2.649  14.967 -1.4305  0.5415 -1.4552
 5468SOL    HW228038   0.483   2.758  14.865 -1.2048 -0.2226 -0.4066
 5469SOL     OW28039   2.213   3.140   4.691 -0.2651 -0.3962 -0.7954
 5469SOL    HW128040   2.304   3.164   4.702  0.0858 -1.8758 -0.3862
 5469SOL    HW228041   2.219   3.056   4.646  0.0504 -0.8410  0.0636
 5470SOL     OW28042   0.798   1.882   1.614  0.3785 -0.0785 -0.4791
 5470SOL    HW128043   0.773   1.910   1.526 -2.3561 -1.2095 -0.0385
 5470SOL    HW228044   0.873   1.942   1.621  0.5679  0.0633 -3.6685
 5471SOL     OW28045   1.850   2.063   4.577 -0.2220 -0.0866  0.2221
 5471SOL    HW128046   1.924   2.124   4.574 -0.4849  0.2630  0.8449
 5471SOL    HW228047   1.804   2.099   4.501 -0.4684 -0.0109  0.4044
 5472SOL     OW28048   4.496   0.873   0.002 -0.3134 -0.0717  0.1777
 5472SOL    HW128049   4.585   0.870   0.037  0.1872 -1.7318 -1.2433
 5472SOL    HW228050   4.503   0.798  17.687 -3.2581 -0.8512  0.8102
 5473SOL     OW28051   1.456   3.453  14.667 -0.1328 -0.2694  0.0156
 5473SOL    HW128052   1.424   3.543  14.656  1.0867 -0.0283 -1.5415
 5473SOL    HW228053   1.394   3.420  14.732 -1.1619  2.6952  0.5299
 5474SOL     OW28054   4.421   4.366   6.873 -0.2195 -0.1516 -0.3950
 5474SOL    HW128055   4.498   4.415   6.901 -0.5409  0.0223  0.1825
 5474SOL    HW228056   4.389   4.332   6.956  0.7232  1.0408  0.4490
 5475SOL     OW28057   0.393   1.428   7.524 -0.2622  0.0633  0.0000
 5475SOL    HW128058   0.341   1.480   7.462  1.2282  3.3103  1.5122
 5475SOL    HW228059   0.323   1.407   7.585 -2.6581  0.1078 -2.7346
 5476SOL     OW28060   3.048   1.635   6.508 -0.6245  0.2324  0.4175
 5476SOL    HW128061   2.973   1.653   6.451 -2.4391 -0.9282  2.4177
 5476SOL    HW228062   3.117   1.641   6.441 -0.9995 -0.7986 -0.0615
 5477SOL     OW28063   4.353   4.252  14.551  0.1951  0.1654  0.3261
 5477SOL    HW128064   4.314   4.299  14.476 -0.5952  1.1634  1.3699
 5477SOL    HW228065   4.311   4.304  14.619 -0.6053  3.0461 -2.3426
 5478SOL     OW28066   1.960   0.035   5.156 -0.4677 -0.0471  0.0925
 5478SOL    HW128067   2.038   0.035   5.100  0.3089  4.0871  1.1283
 5478SOL    HW228068   1.980   0.108   5.214 -0.7015  0.8862 -0.9853
 5479SOL     OW28069   3.334   4.540  16.710 -0.2615 -0.6287 -0.0598
 5479SOL    HW128070   3.378   4.466  16.751  1.1973  0.8068  0.9482
 5479SOL    HW228071   3.246   4.509  16.690 -0.2752 -0.2492 -0.5944
 5480SOL     OW28072   3.595   0.584   8.735  0.2742  0.3006  0.1761
 5480SOL    HW128073   3.555   0.671   8.728 -0.0354  0.1973  0.6462
 5480SOL    HW228074   3.615   0.570   8.828  1.2274 -1.5232 -0.2908
 5481SOL     OW28075   2.247   0.864   9.569  0.1281  0.1913  0.1134
 5481SOL    HW128076   2.234   0.781   9.615  0.4508  0.0433 -0.0627
 5481SOL    HW228077   2.196   0.848   9.490 -1.7095 -0.0661  1.3482
 5482SOL     OW28078   4.426   1.864  16.378  0.3396 -0.0394  0.1156
 5482SOL    HW128079   4.381   1.815  16.308  1.9751  1.9509 -2.3445
 5482SOL    HW228080   4.490   1.915  16.329 -0.7711  1.2246 -0.0297
 5483SOL     OW28081   2.051   4.104   2.665 -0.4444  0.0692  0.5259
 5483SOL    HW128082   2.120   4.062   2.614  1.2664  1.4954  1.7048
 5483SOL    HW228083   2.068   4.065   2.751 -2.2212 -0.0982  0.8078
 5484SOL     OW28084   2.402   0.381   8.878 -0.1135 -0.8819  0.1200
 5484SOL    HW128085   2.427   0.413   8.791 -0.9161 -1.9407 -0.4961
 5484SOL    HW228086   2.452   0.300   8.889 -0.3255 -1.3004 -2.0046
 5485SOL     OW28087   0.686   3.642  13.080 -0.0087  0.3528 -0.0924
 5485SOL    HW128088   0.626   3.601  13.018  0.5873  0.3830 -0.6841
 5485SOL    HW228089   0.727   3.565  13.119  0.2015  0.4280 -0.1676
 5486SOL     OW28090   4.242   2.694   4.172 -0.2562  0.4353  0.4647
 5486SOL    HW128091   4.217   2.731   4.257  1.2630  0.4258  0.9244
 5486SOL    HW228092   4.156   2.692   4.130 -0.2575 -0.8263  0.5452
 5487SOL     OW28093   2.204   1.481   5.618  0.3831 -0.3258  0.0072
 5487SOL    HW128094   2.293   1.515   5.610  0.3511 -0.3766 -0.5556
 5487SOL    HW228095   2.161   1.547   5.563 -0.9414 -2.7497 -1.8560
 5488SOL     OW28096   3.565   2.518   4.872 -0.1882  0.3772  0.3275
 5488SOL    HW128097   3.540   2.516   4.780  1.9423  0.3111 -0.2337
 5488SOL    HW228098   3.527   2.605   4.887 -0.8282 -0.1299  1.6640
 5489SOL     OW28099   4.728   1.878   0.823  0.6981 -0.5188  0.3280
 5489SOL    HW128100   0.010   1.789   0.793 -1.0597 -0.7403 -0.0841
 5489SOL    HW228101   0.068   1.909   0.872 -1.4875  4.6155  0.4497
 5490SOL     OW28102   1.563   4.579   5.605 -0.8882  0.1899  0.0981
 5490SOL    HW128103   1.505   4.650   5.632 -0.1297  1.1091 -0.7298
 5490SOL    HW228104   1.640   4.616   5.648 -1.2860  0.3713  0.6527
 5491SOL     OW28105   3.819   2.962   5.019 -0.0188 -0.1986 -0.4125
 5491SOL    HW128106   3.755   2.962   4.948  0.1520 -1.5750 -0.5757
 5491SOL    HW228107   3.883   3.026   4.987  0.4217 -0.0248  0.8164
 5492SOL     OW28108   1.532   4.482   8.064  0.7571  0.1532 -0.0186
 5492SOL    HW128109   1.584   4.494   8.144  0.9988 -0.8362 -0.0302
 5492SOL    HW228110   1.539   4.387   8.055  0.8111  0.2546 -1.0864
 5493SOL     OW28111   3.272   0.973   8.551 -0.1392 -0.4493  0.6032
 5493SOL    HW128112   3.306   1.059   8.577  1.4278  0.5135 -4.5963
 5493SOL    HW228113   3.235   0.996   8.466  2.8125  0.1050 -0.5405
 5494SOL     OW28114   1.926   4.657   3.556  0.5197  0.2456  0.0484
 5494SOL    HW128115   1.913   4.569   3.590  0.5208 -0.1015 -0.8356
 5494SOL    HW228116   1.906   4.651   3.462  2.2293 -0.2956 -0.2954
 5495SOL     OW28117   4.550   1.552   4.935 -0.7351 -0.2951 -0.3586
 5495SOL    HW128118   4.630   1.598   4.960 -1.8968 -0.2768  3.2988
 5495SOL    HW228119   4.492   1.580   5.006  0.2639  0.7280  0.0492
 5496SOL     OW28120   2.918   2.692   3.801 -0.3167 -0.6969 -0.2400
 5496SOL    HW128121   2.931   2.603   3.766 -0.7723 -1.1351  0.6888
 5496SOL    HW228122   2.906   2.745   3.723  0.0042 -0.6910 -0.2846
 5497SOL     OW28123   3.714   4.163   2.453  0.2408  0.3258  0.6744
 5497SOL    HW128124   3.750   4.247   2.423  1.1236 -0.7402 -1.2475
 5497SOL    HW228125   3.668   4.197   2.530 -0.1785 -0.4892  0.7821
 5498SOL     OW28126   3.504   2.869   5.838  0.0693  0.1215  0.0610
 5498SOL    HW128127   3.526   2.783   5.803  0.1510  0.5130 -0.8363
 5498SOL    HW228128   3.492   2.844   5.930  0.7206 -1.5685 -0.3244
 5499SOL     OW28129   0.578   4.291   2.190  0.5035  0.0901  0.1825
 5499SOL    HW128130   0.524   4.281   2.112 -0.6501  0.2697  0.9497
 5499SOL    HW228131   0.550   4.377   2.221 -0.2937  0.2747 -1.0485
 5500SOL     OW28132   1.385   3.619  15.739 -0.3516  0.0839 -0.0213
 5500SOL    HW128133   1.399   3.649  15.829  1.6010  0.1074 -0.3248
 5500SOL    HW228134   1.296   3.583  15.740  0.0727 -0.9551  0.5805
 5501SOL     OW28135   1.134   2.918   7.949 -0.1121 -0.8613 -0.0789
 5501SOL    HW128136   1.220   2.878   7.935  0.3191  0.2376 -0.5783
 5501SOL    HW228137   1.123   2.991   7.888  0.6586  0.8712  1.8409
 5502SOL     OW28138   0.549   4.049   0.650 -0.5054 -0.3714  0.1299
 5502SOL    HW128139   0.607   3.973   0.654  0.0124 -0.0905 -2.3637
 5502SOL    HW228140   0.610   4.123   0.643  0.9539 -1.3507  2.5844
 5503SOL     OW28141   0.015   3.774   5.388  0.5673  0.1566  0.3862
 5503SOL    HW128142   0.012   3.850   5.330 -0.3300  0.9391  1.4483
 5503SOL    HW228143   0.060   3.718   5.325 -0.0406 -1.2300  1.1874
 5504SOL     OW28144   0.631   1.683   5.772 -0.9228 -0.0596 -0.3071
 5504SOL    HW128145   0.557   1.680   5.833  0.4739 -0.4689  1.3759
 5504SOL    HW228146   0.696   1.725   5.829 -1.4291 -0.2892  0.4405
 5505SOL     OW28147   3.630   4.052  10.755 -0.1369  0.3681 -0.3428
 5505SOL    HW128148   3.716   4.015  10.738  0.4148  2.0746 -1.2084
 5505SOL    HW228149   3.633   4.087  10.844  1.5812 -2.5842  0.7512
 5506SOL     OW28150   0.530   0.262   2.080 -0.3334  0.3003  0.0434
 5506SOL    HW128151   0.436   0.282   2.088 -0.3469 -0.0046  0.6717
 5506SOL    HW228152   0.549   0.306   1.998 -2.2477 -2.4708 -1.8979
 5507SOL     OW28153   1.715   3.044   8.763 -0.7515 -0.0674  0.1709
 5507SOL    HW128154   1.748   3.051   8.673 -1.5887  1.4559 -0.0154
 5507SOL    HW228155   1.669   3.127   8.772  1.2439  1.1971 -1.0410
 5508SOL     OW28156   3.467   0.279   3.245 -0.0726  0.1532 -0.0900
 5508SOL    HW128157   3.521   0.358   3.236 -2.3824  1.7735  0.3509
 5508SOL    HW228158   3.403   0.300   3.313  1.8982 -1.4804  2.2819
 5509SOL     OW28159   3.181   1.272   3.224  0.5708 -0.7231  0.0779
 5509SOL    HW128160   3.269   1.276   3.261 -0.1025  1.8339  1.3893
 5509SOL    HW228161   3.163   1.366   3.223 -3.2344 -1.4613 -0.9617
 5510SOL     OW28162   0.548   4.563   2.836  0.2649 -0.1325 -0.2478
 5510SOL    HW128163   0.561   4.474   2.803  0.3248  0.2519 -1.2605
 5510SOL    HW228164   0.628   4.573   2.888  0.4109  2.9076 -1.0573
 5511SOL     OW28165   2.404   0.653   6.160 -0.8594  0.2873 -0.4864
 5511SOL    HW128166   2.453   0.599   6.098 -2.2165 -1.2351 -0.2494
 5511SOL    HW228167   2.331   0.595   6.183 -0.7476  0.9892  1.6120
 5512SOL     OW28168   2.582   4.660  16.559  0.2026  0.2924  0.1970
 5512SOL    HW128169   2.660   4.657  16.504  0.6254  1.3461  0.7462
 5512SOL    HW228170   2.584   0.009  16.603 -0.2419  0.9325 -1.0366
 5513SOL     OW28171   3.546   3.865   1.214 -0.6928  0.3260  0.0057
 5513SOL    HW128172   3.511   3.943   1.257  1.8674  0.1457  2.4841
 5513SOL    HW228173   3.590   3.909   1.141 -1.1737  2.4481  0.9767
 5514SOL     OW28174   0.310   2.005  13.343  0.0586 -1.0419  0.2710
 5514SOL    HW128175   0.377   1.976  13.281 -0.3844  0.4225 -0.8707
 5514SOL    HW228176   0.292   2.093  13.311 -0.5616 -0.6954  1.5525
 5515SOL     OW28177   3.850   2.077  17.593 -0.2110  0.2330 -0.3899
 5515SOL    HW128178   3.830   2.167  17.621  0.1551 -0.2294  1.3368
 5515SOL    HW228179   3.769   2.053  17.549 -0.4458 -0.7153  0.5556
 5516SOL     OW28180   4.260   3.179  13.989  0.4424 -0.4343  0.4616
 5516SOL    HW128181   4.305   3.262  13.999  1.2748 -0.5132 -2.5231
 5516SOL    HW228182   4.191   3.182  14.055 -0.8534 -0.5160 -0.8898
 5517SOL     OW28183   1.519   2.321   4.472  0.1635  0.2284  0.3630
 5517SOL    HW128184   1.529   2.274   4.389  0.1171  1.2960 -0.2477
 5517SOL    HW228185   1.522   2.245   4.531 -0.0418 -0.1666 -0.1397
 5518SOL     OW28186   0.311   4.004   8.292 -0.1778  0.0383 -0.0862
 5518SOL    HW128187   0.313   3.992   8.387  0.9101 -1.8480 -0.3425
 5518SOL    HW228188   0.347   3.926   8.249  0.8266 -0.1636  1.1147
 5519SOL     OW28189   2.658   3.108   7.439  0.0054  0.3860  0.2525
 5519SOL    HW128190   2.726   3.049   7.472  1.1496  2.0780  0.8870
 5519SOL    HW228191   2.664   3.092   7.345 -2.2678  0.9631  0.0022
 5520SOL     OW28192   2.761   3.599   1.774 -0.2826  0.1305  0.3594
 5520SOL    HW128193   2.752   3.673   1.835  1.6262  0.0350  0.7591
 5520SOL    HW228194   2.794   3.651   1.700 -0.5450 -3.3186 -2.1597
 5521SOL     OW28195   0.471   3.187   8.185 -0.1236  0.4608  0.2813
 5521SOL    HW128196   0.416   3.114   8.216 -0.7869  0.5286 -0.7371
 5521SOL    HW228197   0.502   3.222   8.268  2.1196 -2.6940  0.7679
 5522SOL     OW28198   4.286   0.729   5.504 -0.2114  0.4045 -0.1140
 5522SOL    HW128199   4.348   0.719   5.577 -2.3203  0.4635  1.6991
 5522SOL    HW228200   4.342   0.744   5.428  0.9420  0.9044  0.8487
 5523SOL     OW28201   4.503   2.668   8.977 -0.1238  0.5733 -0.4701
 5523SOL    HW128202   4.428   2.640   9.029 -0.7737 -0.2663 -1.8856
 5523SOL    HW228203   4.566   2.683   9.048 -0.7006  0.1743  0.1223
 5524SOL     OW28204   0.251   2.133   4.453 -0.2360  0.3268  0.3996
 5524SOL    HW128205   0.198   2.069   4.405 -1.3482  1.0073  0.7246
 5524SOL    HW228206   0.193   2.149   4.527  0.9530 -2.4080  1.9228
 5525SOL     OW28207   0.790   1.516  17.321 -0.4450  0.0312 -0.1910
 5525SOL    HW128208   0.853   1.586  17.334  0.6150 -0.7958 -0.9265
 5525SOL    HW228209   0.742   1.555  17.248 -1.8877 -0.6627  0.3729
 5526SOL     OW28210   0.663   4.445   8.825 -0.3052 -0.8579  0.2946
 5526SOL    HW128211   0.705   4.383   8.884  0.9919 -0.8916 -0.6507
 5526SOL    HW228212   0.728   4.515   8.815 -0.8182 -0.7124 -2.2128
 5527SOL     OW28213   2.888   3.604  16.690  0.1235 -0.4933  0.0302
 5527SOL    HW128214   2.865   3.599  16.597 -1.8806 -2.6781  0.6328
 5527SOL    HW228215   2.894   3.699  16.700  1.5715 -0.5315 -0.4649
 5528SOL     OW28216   2.817   4.615   5.998  0.0763 -0.0369  0.1059
 5528SOL    HW128217   2.872   4.674   6.050  1.8591  0.6987 -2.6027
 5528SOL    HW228218   2.737   4.666   5.987  0.6636  0.5544 -1.4671
 5529SOL     OW28219   1.873   1.492   1.960 -0.5036 -0.9573  0.4852
 5529SOL    HW128220   1.884   1.539   1.878  0.4027 -1.9581  0.0322
 5529SOL    HW228221   1.959   1.457   1.984 -0.3665 -1.1575 -0.2964
 5530SOL     OW28222   0.753   0.445   3.914 -0.0267  0.5653  0.3351
 5530SOL    HW128223   0.664   0.411   3.924  1.7550 -4.0983  0.4946
 5530SOL    HW228224   0.739   0.524   3.861 -1.3064  0.3623  0.3807
 5531SOL     OW28225   1.919   2.318   2.930 -0.3709  0.4692 -0.2966
 5531SOL    HW128226   2.012   2.299   2.925 -0.6598 -0.6888 -1.2621
 5531SOL    HW228227   1.891   2.317   2.839  1.2929 -2.9742 -0.7471
 5532SOL     OW28228   1.413   3.077   9.843  0.2848  0.0167  0.3595
 5532SOL    HW128229   1.382   3.032   9.765 -1.3732  0.2345  0.8901
 5532SOL    HW228230   1.481   3.018   9.875 -1.0628 -1.4338  0.5475
 5533SOL     OW28231   4.494   4.205   1.881  0.0681 -0.3011  0.0488
 5533SOL    HW128232   4.534   4.119   1.893 -0.8851 -0.7711 -0.1950
 5533SOL    HW228233   4.565   4.269   1.885 -1.8438  1.8896 -1.2785
 5534SOL     OW28234   1.260   0.580   7.274 -0.0549  0.0217 -0.0985
 5534SOL    HW128235   1.282   0.603   7.365  0.8992  0.7399 -0.5187
 5534SOL    HW228236   1.301   0.658   7.236  1.8367  0.3108  2.4823
 5535SOL     OW28237   4.385   4.450   9.531  0.3420 -0.2533  0.0245
 5535SOL    HW128238   4.310   4.414   9.579 -0.6006  0.7319 -0.7082
 5535SOL    HW228239   4.444   4.375   9.520  0.9370 -0.0948  2.2900
 5536SOL     OW28240   3.296   2.351   1.893 -0.0908  0.1516 -0.4285
 5536SOL    HW128241   3.294   2.397   1.810  1.0585 -0.9491 -1.0738
 5536SOL    HW228242   3.374   2.296   1.880 -0.1471  1.1645 -4.7718
 5537SOL     OW28243   1.311   0.874   3.203  0.1823 -0.6331  0.3005
 5537SOL    HW128244   1.276   0.796   3.160 -2.5511  0.6289  0.2833
 5537SOL    HW228245   1.396   0.837   3.227  1.1962  0.0669 -2.1970
 5538SOL     OW28246   3.815   3.880  16.634  0.4631 -0.6276 -0.1197
 5538SOL    HW128247   3.897   3.920  16.664 -0.9367  1.0469  1.4759
 5538SOL    HW228248   3.757   3.902  16.707  1.0791 -0.1010  0.2104
 5539SOL     OW28249   2.841   3.970   2.134 -0.1584 -0.6366  0.5282
 5539SOL    HW128250   2.927   4.009   2.148 -0.7442 -0.3274  3.1422
 5539SOL    HW228251   2.824   3.976   2.040 -0.3203 -1.6175  0.4966
 5540SOL     OW28252   4.009   0.790   3.400  0.2907  0.7107 -0.3542
 5540SOL    HW128253   3.984   0.776   3.491 -1.0017 -2.3987 -1.1815
 5540SOL    HW228254   4.051   0.707   3.378 -0.3548  0.0211  1.0384
 5541SOL     OW28255   2.926   3.606   0.819 -0.3737 -0.1952 -0.2463
 5541SOL    HW128256   2.960   3.540   0.880 -0.5158 -2.2053 -2.3643
 5541SOL    HW228257   2.844   3.628   0.863  0.0367 -1.5032  1.1975
 5542SOL     OW28258   3.120   1.296   2.187 -0.2581 -0.3931 -0.1439
 5542SOL    HW128259   3.101   1.227   2.124  0.6128  0.7233 -1.6241
 5542SOL    HW228260   3.063   1.367   2.157  1.9827  1.4828  0.0623
 5543SOL     OW28261   4.671   2.748   9.208  0.2396  0.0536 -0.7114
 5543SOL    HW128262   4.721   2.739   9.289 -1.0552  1.0012  0.1962
 5543SOL    HW228263   4.626   2.831   9.224 -0.5216 -0.4318 -0.3115
 5544SOL     OW28264   3.820   2.810   7.769  0.1851  0.1187  0.2743
 5544SOL    HW128265   3.841   2.901   7.748  1.8762 -0.6960 -1.5051
 5544SOL    HW228266   3.776   2.800   7.685 -1.2221 -0.7644  1.1147
 5545SOL     OW28267   0.398   3.547   7.814  0.2732  0.5428 -0.3680
 5545SOL    HW128268   0.314   3.592   7.802  1.0845  1.4945 -2.3819
 5545SOL    HW228269   0.364   3.458   7.818  1.3177  0.0187 -3.4764
 5546SOL     OW28270   1.633   0.331   9.018  0.0974 -0.4824 -0.1323
 5546SOL    HW128271   1.695   0.259   9.023 -0.3881 -0.9061 -0.2530
 5546SOL    HW228272   1.563   0.308   8.957  1.4491 -1.5176 -1.2693
 5547SOL     OW28273   4.440   1.928   7.578 -0.5328  0.1837 -0.1514
 5547SOL    HW128274   4.364   1.870   7.566 -1.0867  1.4808 -2.8261
 5547SOL    HW228275   4.472   1.901   7.664 -0.3101 -0.7789 -0.5353
 5548SOL     OW28276   0.691   3.470   1.192 -0.4729 -0.7473 -0.6381
 5548SOL    HW128277   0.683   3.456   1.098  0.7346  1.7960 -1.1282
 5548SOL    HW228278   0.772   3.420   1.205 -1.7965 -2.6189  0.3927
 5549SOL     OW28279   2.443   2.493   7.923  0.8076  0.1009 -0.2541
 5549SOL    HW128280   2.463   2.498   7.829  1.3739  0.0331 -0.1375
 5549SOL    HW228281   2.457   2.400   7.940 -2.2114 -0.3470 -0.1231
 5550SOL     OW28282   3.909   0.823   7.764  0.1279  0.4497 -0.0057
 5550SOL    HW128283   3.939   0.913   7.750 -0.2237  0.6261  0.3784
 5550SOL    HW228284   3.864   0.854   7.843  2.7841 -1.6165  2.3406
 5551SOL     OW28285   3.043   0.538  12.782 -0.0334 -0.1163 -0.3040
 5551SOL    HW128286   2.965   0.507  12.828 -0.2710 -1.7050 -1.8040
 5551SOL    HW228287   3.030   0.510  12.692 -0.0579  0.9050 -0.6226
 5552SOL     OW28288   2.147   2.380  11.124 -0.0561 -0.7924  0.0851
 5552SOL    HW128289   2.241   2.365  11.126  0.4935  2.6590 -0.9330
 5552SOL    HW228290   2.141   2.470  11.091 -2.8643 -2.1676 -3.1619
 5553SOL     OW28291   0.563   1.226  15.616  0.1201 -0.0424 -0.2403
 5553SOL    HW128292   0.569   1.261  15.527 -2.3470  0.2916 -0.2837
 5553SOL    HW228293   0.629   1.157  15.608  0.1117 -0.1554  0.6489
 5554SOL     OW28294   2.206   4.604   5.689 -0.0500 -0.5830 -0.0587
 5554SOL    HW128295   2.242   4.544   5.623  1.8595 -0.6512  1.0547
 5554SOL    HW228296   2.243   4.576   5.773  1.3022  0.3257 -0.3605
 5555SOL     OW28297   1.829   2.625   8.671  0.2834 -0.1643 -0.0093
 5555SOL    HW128298   1.753   2.662   8.715  0.8360 -0.0487  0.8474
 5555SOL    HW228299   1.892   2.622   8.744  0.4613  1.2687 -0.0978
 5556SOL     OW28300   1.443   0.962  14.244  0.1299  0.0548  0.0793
 5556SOL    HW128301   1.413   1.049  14.271 -0.6879  0.2523 -1.4600
 5556SOL    HW228302   1.373   0.941  14.183 -0.5093  1.7891  0.1947
 5557SOL     OW28303   4.170   1.608   1.520 -0.0429  0.2363 -0.2044
 5557SOL    HW128304   4.152   1.702   1.529 -1.2599  0.2077 -2.1934
 5557SOL    HW228305   4.261   1.605   1.550  0.6040  0.5075 -2.1089
 5558SOL     OW28306   3.546   1.001   8.163 -1.0107  0.0669 -0.0093
 5558SOL    HW128307   3.587   1.075   8.207 -2.0596  0.3474  0.4936
 5558SOL    HW228308   3.462   1.041   8.138  0.3198  1.5497 -2.0382
 5559SOL     OW28309   4.494   2.769  16.210  0.4227  0.1276 -0.6615
 5559SOL    HW128310   4.503   2.858  16.176  0.7517  0.7013  0.8933
 5559SOL    HW228311   4.548   2.766  16.289 -1.1109  0.7006  0.4121
 5560SOL     OW28312   1.663   1.623   4.947  0.4874 -0.1668 -0.3020
 5560SOL    HW128313   1.630   1.672   5.022  1.2164 -0.1767  0.0224
 5560SOL    HW228314   1.752   1.599   4.974  0.2915  0.3213  0.7774
 5561SOL     OW28315   3.101   3.830   9.540 -0.0046 -0.2336  0.0040
 5561SOL    HW128316   3.178   3.885   9.553 -0.8520  1.0559 -0.3682
 5561SOL    HW228317   3.034   3.890   9.573  1.4137  0.7778  1.0299
 5562SOL     OW28318   1.598   1.291  11.179  0.7458 -0.4568  0.5472
 5562SOL    HW128319   1.622   1.380  11.154  1.5580 -1.1216 -1.0740
 5562SOL    HW228320   1.502   1.293  11.173  0.8286  1.7659 -0.0660
 5563SOL     OW28321   0.860   4.024   5.132 -0.4809  0.0491  0.5980
 5563SOL    HW128322   0.888   3.996   5.219  0.3224 -2.0067 -0.3336
 5563SOL    HW228323   0.774   3.982   5.127 -0.3869  0.0407 -1.1261
 5564SOL     OW28324   2.282   2.415   8.212 -0.2977 -0.0006 -0.4342
 5564SOL    HW128325   2.357   2.469   8.237 -1.2779  0.9854  0.4110
 5564SOL    HW228326   2.311   2.338   8.260 -1.2352  0.8359  1.4835
 5565SOL     OW28327   0.481   2.349   1.397 -0.2179  0.1498 -0.4583
 5565SOL    HW128328   0.471   2.444   1.403 -2.0237 -0.1085  0.9039
 5565SOL    HW228329   0.392   2.330   1.366 -0.6164  2.9731 -1.0626
 5566SOL     OW28330   0.107   0.471  17.567 -0.4281  0.0348  0.4996
 5566SOL    HW128331   0.078   0.382  17.548 -0.7762 -0.0627  1.4828
 5566SOL    HW228332   0.185   0.459  17.622 -0.0341  2.1376  0.4066
 5567SOL     OW28333   3.546   3.206   6.475  0.0656 -0.4349  0.2244
 5567SOL    HW128334   3.458   3.177   6.499 -0.9311 -0.4214 -3.4519
 5567SOL    HW228335   3.581   3.125   6.436 -1.8556 -0.8196 -0.6918
 5568SOL     OW28336   0.734   2.888   1.078  0.2838  0.2009  0.5136
 5568SOL    HW128337   0.667   2.844   1.026  0.9237 -2.0632  1.6312
 5568SOL    HW228338   0.731   2.837   1.159  1.1422 -1.2399 -0.3700
 5569SOL     OW28339   3.368   2.746   8.538 -0.1561  0.2421 -0.2452
 5569SOL    HW128340   3.386   2.802   8.613  0.9483 -0.3236 -0.0915
 5569SOL    HW228341   3.303   2.685   8.572  0.0484  0.1120 -0.0896
 5570SOL     OW28342   1.477   4.553   2.107 -0.9033 -0.3171  0.4784
 5570SOL    HW128343   1.486   4.647   2.096 -1.6882 -0.2521  0.3719
 5570SOL    HW228344   1.411   4.537   2.039  0.5617 -0.5597 -0.8937
 5571SOL     OW28345   2.008   4.419  10.202  0.2721  0.0496  0.2710
 5571SOL    HW128346   1.987   4.427  10.295 -0.7184  2.0097 -0.1323
 5571SOL    HW228347   1.974   4.495  10.155  1.4174 -1.0506 -2.3657
 5572SOL     OW28348   0.908   2.615   7.158 -0.4064 -0.5342  0.3165
 5572SOL    HW128349   1.000   2.627   7.134 -1.1192 -0.0061 -2.1492
 5572SOL    HW228350   0.873   2.704   7.169  0.8254 -0.1449  1.0784
 5573SOL     OW28351   2.971   1.720   3.582  0.1713 -0.1603  0.5799
 5573SOL    HW128352   3.011   1.633   3.586  2.1703  0.6343 -2.3494
 5573SOL    HW228353   2.989   1.758   3.668  2.3502  0.4315 -0.1371
 5574SOL     OW28354   3.861   3.463   1.708  0.6537 -0.4114  0.3728
 5574SOL    HW128355   3.772   3.445   1.676  0.6087 -0.3877  0.4843
 5574SOL    HW228356   3.908   3.505   1.636 -1.2228  1.8706  0.4681
 5575SOL     OW28357   3.394   4.338  10.089 -0.5945  0.7817 -0.0272
 5575SOL    HW128358   3.343   4.290  10.154 -0.7942  1.7579  0.5458
 5575SOL    HW228359   3.466   4.353  10.151  0.4590 -0.6356 -0.9196
 5576SOL     OW28360   3.070   0.757   7.752 -0.1379  0.0494 -0.6293
 5576SOL    HW128361   3.047   0.666   7.734  0.8028 -0.0307 -1.4433
 5576SOL    HW228362   3.165   0.746   7.758 -0.0285  0.6273 -1.3280
 5577SOL     OW28363   3.959   3.576   3.593  0.2854  1.1809 -0.5278
 5577SOL    HW128364   3.990   3.652   3.643  1.3867  0.3670  0.0291
 5577SOL    HW228365   3.949   3.514   3.665  0.6088 -0.4668 -1.9054
 5578SOL     OW28366   2.473   0.230   8.548  0.2631  0.7333 -0.0744
 5578SOL    HW128367   2.450   0.265   8.462  2.2930  2.5237  0.1101
 5578SOL    HW228368   2.566   0.209   8.539  0.4311  0.1159  3.2892
 5579SOL     OW28369   4.555   3.233   4.213  0.3697  0.8186 -0.4617
 5579SOL    HW128370   4.559   3.190   4.298  1.5491  0.8004 -0.5233
 5579SOL    HW228371   4.545   3.319   4.252  2.1201 -0.2978  2.4148
 5580SOL     OW28372   3.299   2.257   2.618 -0.1497 -0.3173 -0.5618
 5580SOL    HW128373   3.297   2.350   2.640 -1.0306 -0.6352  0.7067
 5580SOL    HW228374   3.298   2.216   2.705  1.6080  1.6980  0.3965
 5581SOL     OW28375   0.728   2.144   1.895  0.0667 -0.1538  0.5774
 5581SOL    HW128376   0.720   2.192   1.813 -0.6295 -0.2906  0.5611
 5581SOL    HW228377   0.750   2.221   1.948  0.2932  1.4987 -1.9320
 5582SOL     OW28378   2.586   3.087  12.255 -0.4996  0.3462 -0.1537
 5582SOL    HW128379   2.660   3.042  12.213  1.5593  1.9363  1.7685
 5582SOL    HW228380   2.625   3.099  12.341 -0.3120  1.0287 -0.3339
 5583SOL     OW28381   0.105   4.458   7.215 -0.0975  0.5921  0.0209
 5583SOL    HW128382   0.157   4.526   7.256 -0.8076  1.8844 -1.2139
 5583SOL    HW228383   0.141   4.379   7.255  0.0257  0.4120 -0.4445
 5584SOL     OW28384   3.818   0.669   4.480 -0.3694  0.1936 -0.1263
 5584SOL    HW128385   3.767   0.738   4.437  1.8320  0.6981 -1.9073
 5584SOL    HW228386   3.803   0.591   4.426  0.1661 -0.6056  0.8709
 5585SOL     OW28387   1.982   3.332   5.677 -0.4710 -0.1199 -0.1483
 5585SOL    HW128388   2.039   3.358   5.749  1.2531 -3.8391 -0.1542
 5585SOL    HW228389   1.966   3.413   5.628 -0.9448 -1.1010 -1.6134
 5586SOL     OW28390   1.794   2.000  10.293  0.7398  0.2290  0.5710
 5586SOL    HW128391   1.740   2.069  10.255 -2.6993 -2.2927  0.9007
 5586SOL    HW228392   1.726   1.938  10.320  0.5474  0.3009  0.2590
 5587SOL     OW28393   3.429   2.748  12.563 -0.6394  0.3364 -0.0357
 5587SOL    HW128394   3.477   2.691  12.503 -0.9417 -1.1867  1.1839
 5587SOL    HW228395   3.495   2.815  12.579  0.9762 -1.4775  0.7845
 5588SOL     OW28396   0.642   0.537   2.326  0.0119  0.1690  0.3372
 5588SOL    HW128397   0.726   0.548   2.371  0.3455  0.3270 -0.3382
 5588SOL    HW228398   0.656   0.451   2.289 -1.2364  0.0524  0.1207
 5589SOL     OW28399   3.693   1.513  14.729  0.2168  0.3184 -0.1822
 5589SOL    HW128400   3.766   1.469  14.684 -0.2024 -1.4862  0.8791
 5589SOL    HW228401   3.625   1.490  14.666 -1.7438 -0.4944  2.2014
 5590SOL     OW28402   1.445   2.208  11.123 -0.0849  0.4489  0.6435
 5590SOL    HW128403   1.437   2.302  11.106  0.9452  0.0357 -1.9773
 5590SOL    HW228404   1.533   2.204  11.159  0.5786 -0.9835 -1.1558
 5591SOL     OW28405   3.988   0.355   9.248 -0.1510 -0.1932 -0.1983
 5591SOL    HW128406   4.028   0.276   9.285  0.4315  0.2671  0.1519
 5591SOL    HW228407   3.925   0.386   9.312  1.7037  1.0684  0.9946
 5592SOL     OW28408   2.863   1.750   2.643  0.2047 -0.7141 -0.0841
 5592SOL    HW128409   2.839   1.659   2.625  0.0269 -0.6198 -0.3281
 5592SOL    HW228410   2.849   1.756   2.738  0.2828  1.7569 -0.2318
 5593SOL     OW28411   3.098   0.116   0.590  0.2215  0.4035  0.5340
 5593SOL    HW128412   3.188   0.150   0.594  1.2120 -2.2421  0.6444
 5593SOL    HW228413   3.063   0.167   0.664 -0.1263  0.1237  0.5608
 5594SOL     OW28414   1.843   3.153   9.822  0.1891 -0.4755 -0.2557
 5594SOL    HW128415   1.926   3.113   9.796  0.6496  0.2330  0.1504
 5594SOL    HW228416   1.843   3.123   9.913  0.8874  3.0649  0.8841
 5595SOL     OW28417   4.352   3.674   5.570 -0.3870  0.1465 -0.0899
 5595SOL    HW128418   4.421   3.650   5.632  0.2474  4.5532  0.9017
 5595SOL    HW228419   4.287   3.707   5.633  0.4380  0.6636  0.4923
 5596SOL     OW28420   4.020   1.377   3.018  0.5698 -0.2920  0.6350
 5596SOL    HW128421   4.055   1.289   3.029 -1.5211 -1.5743 -2.6612
 5596SOL    HW228422   3.938   1.370   2.969  0.7636 -1.3944  0.4737
 5597SOL     OW28423   3.581   4.001   3.490  0.3242 -0.2302 -0.1104
 5597SOL    HW128424   3.569   4.085   3.533  0.4952 -0.7185  0.9066
 5597SOL    HW228425   3.646   3.963   3.550 -0.0965  1.7689  1.6110
 5598SOL     OW28426   3.889   1.087   5.119  0.7703  0.5933 -0.0702
 5598SOL    HW128427   3.903   1.043   5.035 -0.0357  0.0435  0.0831
 5598SOL    HW228428   3.851   1.016   5.171 -1.8354  1.0667 -1.3543
 5599SOL     OW28429   0.133   0.634   9.329 -0.0467 -0.2394  0.3620
 5599SOL    HW128430   0.225   0.648   9.351 -0.0390 -0.4272  0.4503
 5599SOL    HW228431   0.133   0.549   9.286 -1.3610 -0.8390  1.5365
 5600SOL     OW28432   2.722   2.328  17.695  0.6407 -0.5132 -0.0275
 5600SOL    HW128433   2.766   2.244  17.699 -0.7514 -1.3104 -1.0743
 5600SOL    HW228434   2.701   2.322  17.601  1.1394 -1.5088 -0.0653
 5601SOL     OW28435   2.721   4.666   3.166  0.6084 -0.2429  0.8722
 5601SOL    HW128436   2.689   4.651   3.255 -0.8037 -1.1348  0.1980
 5601SOL    HW228437   2.645   4.647   3.112  1.8495 -1.4929 -0.4237
 5602SOL     OW28438   4.360   4.430   7.331  0.2161  0.5028 -0.5610
 5602SOL    HW128439   4.442   4.477   7.348 -0.8501  2.0130  0.4657
 5602SOL    HW228440   4.293   4.482   7.375 -0.5873 -1.1551  0.1739
 5603SOL     OW28441   2.547   2.973   8.496 -0.0113  0.1883  0.4109
 5603SOL    HW128442   2.636   3.006   8.512  0.8940 -0.9730 -2.3205
 5603SOL    HW228443   2.570   2.942   8.409  0.4718  0.2562  0.5135
 5604SOL     OW28444   1.583   1.002   4.884  1.2659 -0.2124 -0.5504
 5604SOL    HW128445   1.651   1.069   4.875 -0.2280  1.1777 -1.4533
 5604SOL    HW228446   1.552   1.024   4.971  0.3884 -0.0540 -0.9021
 5605SOL     OW28447   1.525   3.221   5.623  0.1311  0.5701 -0.0413
 5605SOL    HW128448   1.481   3.189   5.701 -0.6026 -0.9423 -1.0704
 5605SOL    HW228449   1.613   3.185   5.636  0.2958  0.9793 -0.0336
 5606SOL     OW28450   2.548   1.920   4.146 -0.0024  0.5893  0.2889
 5606SOL    HW128451   2.541   1.861   4.070 -0.2318  0.2914  0.5394
 5606SOL    HW228452   2.628   1.966   4.123  1.3913 -1.7571  0.4480
 5607SOL     OW28453   2.827   0.702   3.377  0.1816  0.0688 -0.2040
 5607SOL    HW128454   2.874   0.634   3.329 -0.4975 -0.6424  0.1331
 5607SOL    HW228455   2.755   0.701   3.314 -1.1294 -1.0573  1.3307
 5608SOL     OW28456   1.304   1.142   4.492  0.1952  0.5574 -0.4891
 5608SOL    HW128457   1.276   1.199   4.564  0.0190  0.2088 -0.2786
 5608SOL    HW228458   1.348   1.205   4.436  1.2607 -0.0915 -0.3662
 5609SOL     OW28459   1.202   0.671   3.068 -0.3702 -0.2019 -0.0642
 5609SOL    HW128460   1.133   0.607   3.085 -0.5419 -0.3630 -1.3529
 5609SOL    HW228461   1.175   0.714   2.987 -1.1809  0.0995  0.3669
 5610SOL     OW28462   0.513   3.266   7.564 -0.1219 -0.0933  0.5795
 5610SOL    HW128463   0.509   3.263   7.468 -1.7694 -1.2822  0.6971
 5610SOL    HW228464   0.596   3.222   7.582  0.2551  0.7799  0.9729
 5611SOL     OW28465   2.479   2.050   2.990  0.5192  0.4737 -0.4907
 5611SOL    HW128466   2.439   2.099   2.918  0.0171  0.5199 -0.1795
 5611SOL    HW228467   2.555   2.022   2.940  1.0209  1.1021 -0.0870
 5612SOL     OW28468   2.401   0.743  13.468 -0.4133  0.2016  0.5230
 5612SOL    HW128469   2.444   0.739  13.383 -0.3623  1.7045  0.4823
 5612SOL    HW228470   2.417   0.650  13.484 -0.4764  0.3523  1.4453
 5613SOL     OW28471   4.563   2.427   1.681  0.4373  0.0624 -1.0024
 5613SOL    HW128472   4.615   2.420   1.761 -2.3106 -1.9057  0.6487
 5613SOL    HW228473   4.612   2.479   1.617 -0.9962  1.1576 -1.2207
 5614SOL     OW28474   1.511   3.034   4.577  0.2906 -0.1669  0.7648
 5614SOL    HW128475   1.525   3.126   4.558  2.2808 -0.7045 -0.3732
 5614SOL    HW228476   1.601   3.003   4.572  0.1634 -0.6541  1.6079
 5615SOL     OW28477   3.019   1.190   5.422 -0.8272  0.6049  0.1140
 5615SOL    HW128478   3.051   1.273   5.387  1.7275 -0.4880 -0.1763
 5615SOL    HW228479   3.014   1.214   5.514  1.6230 -0.8926  0.6544
 5616SOL     OW28480   4.019   4.435   1.619  0.3762 -0.0054 -0.1947
 5616SOL    HW128481   4.016   4.380   1.697 -0.0218 -0.4673 -0.5353
 5616SOL    HW228482   4.007   4.369   1.550  1.1403 -0.4794  0.1294
 5617SOL     OW28483   3.797   2.014  17.135 -0.3192 -0.2596 -0.2630
 5617SOL    HW128484   3.855   1.995  17.062  0.6869 -1.4719  0.8363
 5617SOL    HW228485   3.856   2.033  17.209 -0.0460 -1.3919 -0.1930
 5618SOL     OW28486   0.280   3.203  12.337  0.2304  0.1654 -0.0553
 5618SOL    HW128487   0.301   3.159  12.255  0.0773 -1.7853  0.9599
 5618SOL    HW228488   0.326   3.287  12.334 -1.1938  0.9351 -0.2435
 5619SOL     OW28489   0.880   0.472  14.725 -0.6625 -0.0662  0.0757
 5619SOL    HW128490   0.923   0.545  14.682  1.7243 -0.8081  1.1688
 5619SOL    HW228491   0.856   0.517  14.806  1.9324 -0.7721  1.2479
 5620SOL     OW28492   2.037   0.895  13.357 -0.2087 -0.7847  0.0036
 5620SOL    HW128493   2.080   0.814  13.384 -0.2389 -0.2448  1.7154
 5620SOL    HW228494   2.076   0.964  13.412  1.7641 -0.8574 -1.3022
 5621SOL     OW28495   0.082   2.508   7.556  0.2327  0.1924 -0.0053
 5621SOL    HW128496   0.037   2.509   7.640  0.3453 -0.5178  0.0650
 5621SOL    HW228497   0.174   2.527   7.574  0.2192 -1.3250  1.6254
 5622SOL     OW28498   1.891   3.825   7.218 -0.3867 -0.3641 -0.3891
 5622SOL    HW128499   1.803   3.850   7.189 -0.1459 -0.0689 -0.8540
 5622SOL    HW228500   1.884   3.731   7.204 -1.4159 -0.7669  2.7078
 5623SOL     OW28501   0.429   0.982   3.378 -0.0789 -0.4468  0.3159
 5623SOL    HW128502   0.372   1.036   3.323  1.1228  2.6446  2.1331
 5623SOL    HW228503   0.429   1.025   3.463 -0.0372  0.5909 -0.2037
 5624SOL     OW28504   3.417   3.078   8.558  0.4432  0.3812  0.2851
 5624SOL    HW128505   3.488   3.140   8.574 -0.0432  1.2518 -0.9720
 5624SOL    HW228506   3.454   2.989   8.558  1.3915  0.7674  2.3458
 5625SOL     OW28507   2.266   1.561   6.851 -0.2610  0.1205  0.2188
 5625SOL    HW128508   2.323   1.566   6.775 -1.0216  0.3303 -0.3376
 5625SOL    HW228509   2.316   1.595   6.925  2.6169 -2.1009 -0.7227
 5626SOL     OW28510   3.563   0.402   2.371  0.0392  0.7149 -0.1001
 5626SOL    HW128511   3.521   0.332   2.421  0.0585 -0.0936 -1.2134
 5626SOL    HW228512   3.502   0.474   2.392  0.3820  1.0570 -0.2739
 5627SOL     OW28513   0.849   2.938   3.005 -0.1708 -0.1410  0.0677
 5627SOL    HW128514   0.851   3.006   2.939 -1.3586  0.3171  0.5168
 5627SOL    HW228515   0.930   2.889   2.989  1.6943  1.9871  3.0420
 5628SOL     OW28516   3.386   0.609   0.213  0.2598 -0.2175 -0.6377
 5628SOL    HW128517   3.341   0.678   0.262 -0.0008 -0.2256 -0.8692
 5628SOL    HW228518   3.320   0.541   0.200 -0.6484  0.7731 -1.2772
 5629SOL     OW28519   3.577   1.256   4.908  0.2833  0.2293 -0.7202
 5629SOL    HW128520   3.656   1.205   4.895  2.1282  2.7310  0.7367
 5629SOL    HW228521   3.505   1.194   4.895  0.3029 -0.4594  2.3550
 5630SOL     OW28522   0.067   0.747   5.249  0.2121  0.0891 -0.4873
 5630SOL    HW128523   0.087   0.788   5.333  0.2745 -0.3233 -0.2970
 5630SOL    HW228524   0.144   0.690   5.239 -1.6933 -3.3790  4.2570
 5631SOL     OW28525   0.918   0.351   2.792  0.7073 -0.0383 -0.2689
 5631SOL    HW128526   0.895   0.324   2.703 -0.5837 -0.6255  0.2369
 5631SOL    HW228527   1.003   0.314   2.813  0.0900  0.1104  2.4937
 5632SOL     OW28528   0.198   4.498   5.145 -0.4119  0.4451  0.1990
 5632SOL    HW128529   0.112   4.494   5.187 -0.2090  0.1216  0.5921
 5632SOL    HW228530   0.179   4.449   5.065  3.4401  3.6055 -2.6527
 5633SOL     OW28531   0.625   1.037   4.622  0.4135  0.1066  0.1603
 5633SOL    HW128532   0.587   0.966   4.674 -1.8991  1.7084  0.6358
 5633SOL    HW228533   0.562   1.106   4.643 -0.9584 -0.9841 -0.3517
 5634SOL     OW28534   4.730   2.627   6.106 -0.0027  0.0248  0.6658
 5634SOL    HW128535   0.064   2.660   6.050 -0.5060  1.3718  0.8189
 5634SOL    HW228536   4.676   2.706   6.115  2.2897  1.6281  0.3725
 5635SOL     OW28537   1.136   3.934  17.046 -0.1630  0.1291 -0.3401
 5635SOL    HW128538   1.083   3.957  17.122 -0.5501 -0.1581 -0.5218
 5635SOL    HW228539   1.227   3.936  17.076  0.1629  1.1249 -1.4255
 5636SOL     OW28540   1.545   2.784   9.153 -0.3251 -0.1432 -0.0501
 5636SOL    HW128541   1.493   2.708   9.177  0.5751 -1.1257 -1.1815
 5636SOL    HW228542   1.628   2.736   9.156 -1.8427 -2.5576  2.3837
 5637SOL     OW28543   4.010   3.992   1.579  0.2573  0.0422  0.3882
 5637SOL    HW128544   4.102   4.003   1.556  0.1260 -0.2058 -0.2510
 5637SOL    HW228545   3.971   3.951   1.502  2.9691 -2.0876  0.1865
 5638SOL     OW28546   2.712   1.424   7.334 -0.2648 -0.7988  0.3739
 5638SOL    HW128547   2.630   1.452   7.375  0.8563  0.5544  1.7191
 5638SOL    HW228548   2.761   1.413   7.416  1.0955 -2.2228 -0.6182
 5639SOL     OW28549   3.101   0.401   6.407  0.0225  0.6898 -0.5825
 5639SOL    HW128550   3.030   0.371   6.351  0.8488 -0.0954 -1.2160
 5639SOL    HW228551   3.134   0.474   6.355  2.9834  0.2859  0.7298
 5640SOL     OW28552   3.036   2.351   7.978 -0.1754  0.3424 -0.3209
 5640SOL    HW128553   3.098   2.325   8.046 -1.2390 -1.1389  0.0598
 5640SOL    HW228554   2.972   2.280   7.977 -1.7082  1.7633 -2.6318
 5641SOL     OW28555   3.130   2.786   5.595  0.3953 -0.3120 -0.4005
 5641SOL    HW128556   3.214   2.754   5.628 -0.0817 -1.7036 -0.5453
 5641SOL    HW228557   3.165   2.856   5.539  0.1228  0.6282  0.6276
 5642SOL     OW28558   1.409   3.157   7.702  0.3561 -0.0813 -0.3018
 5642SOL    HW128559   1.449   3.175   7.787  1.7450 -1.2771 -0.6924
 5642SOL    HW228560   1.427   3.245   7.669  1.1183 -0.6355 -1.3322
 5643SOL     OW28561   0.200   3.184   3.523 -0.5012 -0.0759 -0.8361
 5643SOL    HW128562   0.107   3.203   3.518 -0.1098  1.7295 -1.2564
 5643SOL    HW228563   0.243   3.251   3.470 -0.3390  1.2040  0.8990
 5644SOL     OW28564   0.384   2.720   6.563 -0.2798 -0.1973 -0.2187
 5644SOL    HW128565   0.358   2.762   6.481 -2.3822 -0.6069  0.2355
 5644SOL    HW228566   0.467   2.680   6.539 -1.1421  0.1022 -3.6171
 5645SOL     OW28567   3.829   3.494  10.638 -0.9100 -0.3417  0.6007
 5645SOL    HW128568   3.909   3.547  10.632 -1.4989  0.5014  0.1395
 5645SOL    HW228569   3.802   3.508  10.729  0.5856 -0.3220  1.0345
 5646SOL     OW28570   4.600   3.505   4.366 -0.7804 -0.4428 -0.0893
 5646SOL    HW128571   4.639   3.586   4.332 -2.3179  0.8367  1.1770
 5646SOL    HW228572   4.510   3.537   4.366 -0.9337 -0.8803 -0.4297
 5647SOL     OW28573   4.609   0.408   4.295 -0.2687 -0.0439  0.7946
 5647SOL    HW128574   4.700   0.390   4.272 -0.1216  2.1680 -0.3590
 5647SOL    HW228575   4.627   0.391   4.387  2.0087  0.3393  0.4239
 5648SOL     OW28576   3.366   3.657   2.730 -0.0455  0.5563 -0.0199
 5648SOL    HW128577   3.403   3.583   2.682 -0.2244 -0.4418  1.3749
 5648SOL    HW228578   3.401   3.727   2.675  0.0755 -0.1780 -0.8854
 5649SOL     OW28579   1.686   1.247   3.067 -0.6255 -0.3600 -0.0717
 5649SOL    HW128580   1.674   1.155   3.089  0.7030 -0.0647  1.8687
 5649SOL    HW228581   1.607   1.293   3.094 -0.7786  1.0524 -2.8588
 5650SOL     OW28582   4.598   3.402   1.701  1.0867 -0.2373 -0.0974
 5650SOL    HW128583   4.633   3.459   1.769 -0.1376 -1.8306  1.8706
 5650SOL    HW228584   4.635   3.319   1.730  1.6429  0.7533  2.0003
 5651SOL     OW28585   2.167   4.016   2.936 -0.5094 -0.2148  0.0451
 5651SOL    HW128586   2.248   4.063   2.956 -0.7780  0.6929 -1.0031
 5651SOL    HW228587   2.150   3.978   3.022  2.0249 -0.0693  0.6127
 5652SOL     OW28588   4.403   3.127   5.125  0.3762 -0.2163 -0.7117
 5652SOL    HW128589   4.465   3.192   5.094  0.3754  0.5604  0.9255
 5652SOL    HW228590   4.329   3.177   5.159 -0.6453 -1.4879 -1.0405
 5653SOL     OW28591   4.003   2.116  14.383  0.1230  0.6776  0.4180
 5653SOL    HW128592   4.039   2.191  14.335  3.8770 -1.4401 -0.1183
 5653SOL    HW228593   4.077   2.066  14.416 -0.1342 -1.2916 -1.9136
 5654SOL     OW28594   2.560   0.269   0.444  0.6574  0.1931 -0.0695
 5654SOL    HW128595   2.619   0.194   0.439  1.6623  0.8418  2.1949
 5654SOL    HW228596   2.572   0.297   0.354  2.0406 -1.0833 -0.2681
 5655SOL     OW28597   3.997   2.482  13.465 -0.1277 -0.2073  0.6449
 5655SOL    HW128598   3.997   2.449  13.555 -1.0070 -0.8571  0.4152
 5655SOL    HW228599   3.937   2.415  13.432 -0.8466  1.0968 -0.6728
 5656SOL     OW28600   1.582   4.080   5.771  0.1787 -0.1436  0.5355
 5656SOL    HW128601   1.488   4.076   5.751  0.0810  2.1069  0.5503
 5656SOL    HW228602   1.613   3.993   5.749  1.2039 -0.0716  1.6730
 5657SOL     OW28603   2.709   1.702   3.676 -0.1170  0.1272  0.2385
 5657SOL    HW128604   2.796   1.706   3.637 -0.5455  1.2452 -0.6025
 5657SOL    HW228605   2.681   1.610   3.671  1.2137 -0.2903  0.4553
 5658SOL     OW28606   2.790   0.328   1.683  0.4608 -0.0574 -0.1299
 5658SOL    HW128607   2.844   0.358   1.610  1.3396 -0.6343  0.2976
 5658SOL    HW228608   2.736   0.261   1.642  0.6089 -0.5626  0.5012
 5659SOL     OW28609   3.001   1.301   8.216 -0.0948  0.1278  0.5789
 5659SOL    HW128610   2.945   1.236   8.172  1.0702  1.4520 -2.8878
 5659SOL    HW228611   3.044   1.344   8.142 -1.0545  0.1131  0.0023
 5660SOL     OW28612   3.214   0.291   6.042 -0.2536  0.7740 -0.1761
 5660SOL    HW128613   3.283   0.269   6.104  0.2238  0.1056 -0.9424
 5660SOL    HW228614   3.184   0.371   6.085  0.9170  1.5128 -0.7664
 5661SOL     OW28615   4.210   4.110  17.676  0.4588 -0.4140  0.1668
 5661SOL    HW128616   4.132   4.104  17.621  0.7179 -0.3536 -0.2109
 5661SOL    HW228617   4.181   4.053   0.005 -0.4817  0.4040  0.4365
 5662SOL     OW28618   1.284   3.492   4.621  0.1090  0.4226 -0.1579
 5662SOL    HW128619   1.224   3.535   4.682 -0.1189 -0.3120  0.1317
 5662SOL    HW228620   1.217   3.442   4.575  0.9347 -0.9964  0.1798
 5663SOL     OW28621   1.442   1.243   2.433 -0.6893  0.2729 -0.3727
 5663SOL    HW128622   1.482   1.321   2.470 -2.9746  0.5453  1.5733
 5663SOL    HW228623   1.371   1.287   2.386  1.7975  0.9270 -3.4699
 5664SOL     OW28624   4.558   3.694  10.322  0.5752  0.3014 -0.0482
 5664SOL    HW128625   4.651   3.672  10.330 -0.1965 -2.4322  1.5061
 5664SOL    HW228626   4.521   3.637  10.390 -1.8283  1.4851 -0.3594
 5665SOL     OW28627   2.892   0.109   0.097  0.1997  0.1003  0.1839
 5665SOL    HW128628   2.965   0.168   0.077  0.6163 -0.3195  0.4937
 5665SOL    HW228629   2.923   0.052   0.167  1.4471 -0.0944 -0.5291
 5666SOL     OW28630   2.823   4.473   5.291 -0.6978 -0.4465 -0.2710
 5666SOL    HW128631   2.823   4.396   5.348  0.4299  0.7135  1.2909
 5666SOL    HW228632   2.912   4.506   5.300 -1.0381 -0.2929  2.5884
 5667SOL     OW28633   2.759   4.185   7.042 -0.1071 -0.6642  0.1104
 5667SOL    HW128634   2.792   4.131   7.114 -1.9408  1.7678  2.7401
 5667SOL    HW228635   2.669   4.198   7.071 -0.2705 -0.3156 -0.5560
 5668SOL     OW28636   4.547   1.875  11.268 -0.1215  0.2451 -0.1256
 5668SOL    HW128637   4.486   1.857  11.197 -0.0842  2.2152 -0.6468
 5668SOL    HW228638   4.627   1.876  11.216 -0.7292  0.8381 -1.0292
 5669SOL     OW28639   2.398   0.982  17.167  0.4335 -0.0751 -0.4228
 5669SOL    HW128640   2.492   0.975  17.188  0.0510  1.0163  1.6103
 5669SOL    HW228641   2.386   0.890  17.143 -0.3916  0.4445 -1.9872
 5670SOL     OW28642   2.142   2.076  16.835  0.2715  0.1945  0.1927
 5670SOL    HW128643   2.191   2.010  16.885 -1.9098 -1.7725 -0.2292
 5670SOL    HW228644   2.060   2.030  16.819  0.2578  0.3044 -0.0454
 5671SOL     OW28645   4.712   0.341   5.720  0.4087  0.1601  0.0265
 5671SOL    HW128646   4.717   0.260   5.770  0.0931  0.9006  1.2530
 5671SOL    HW228647   4.664   0.393   5.785  2.1887  1.5610  0.2198
 5672SOL     OW28648   1.671   2.913   6.728  0.1960  0.2291  0.7233
 5672SOL    HW128649   1.609   2.970   6.774 -1.1871 -1.6427  1.1927
 5672SOL    HW228650   1.612   2.839   6.711 -0.2844  0.3504  1.8648
 5673SOL     OW28651   4.532   3.856   3.575  0.0942  0.0411  0.4188
 5673SOL    HW128652   4.505   3.922   3.512  1.1633  0.9205  0.8787
 5673SOL    HW228653   4.597   3.821   3.515 -3.8733 -1.6851 -2.8763
 5674SOL     OW28654   2.805   4.224   1.966  0.2869 -0.1054 -0.0890
 5674SOL    HW128655   2.717   4.252   1.991 -0.5552 -0.6707 -2.4479
 5674SOL    HW228656   2.866   4.273   2.022  0.8071 -1.9143  0.9386
 5675SOL     OW28657   2.824   4.166   6.731 -0.3562  0.2659  0.1807
 5675SOL    HW128658   2.918   4.150   6.728 -0.6664 -1.8459  1.9519
 5675SOL    HW228659   2.809   4.167   6.825  1.5143 -0.2433  0.4832
 5676SOL     OW28660   0.426   0.255   3.087 -0.0362 -0.2342 -0.1071
 5676SOL    HW128661   0.496   0.238   3.024  1.6690 -0.4731  1.8787
 5676SOL    HW228662   0.368   0.315   3.040  0.6889 -1.1274 -2.1432
 5677SOL     OW28663   0.404   0.571   0.758 -0.6537 -0.0292 -0.0387
 5677SOL    HW128664   0.428   0.643   0.817  0.7696  0.0847 -0.7352
 5677SOL    HW228665   0.309   0.579   0.768 -0.3928  0.7667  1.8397
 5678SOL     OW28666   1.584   3.276   2.085 -0.3932 -0.1032  0.7064
 5678SOL    HW128667   1.616   3.331   2.014 -0.7365 -2.2029 -1.0399
 5678SOL    HW228668   1.520   3.338   2.122 -1.5067  0.4460 -2.1167
 5679SOL     OW28669   0.361   2.924   7.926  0.2251  0.0364 -0.3153
 5679SOL    HW128670   0.423   2.963   7.865  0.4212 -0.4469 -0.4289
 5679SOL    HW228671   0.275   2.933   7.885 -0.1526 -0.6584  0.3273
 5680SOL     OW28672   3.621   1.699  14.349 -0.2040 -0.4669 -0.2323
 5680SOL    HW128673   3.574   1.762  14.295  0.4622  0.2548  0.0248
 5680SOL    HW228674   3.565   1.679  14.424  0.8682  0.1908  0.7415
 5681SOL     OW28675   1.573   2.366  14.235 -0.0803  0.0811 -0.3694
 5681SOL    HW128676   1.575   2.376  14.140 -1.0849 -1.1713 -0.5328
 5681SOL    HW228677   1.640   2.429  14.260 -1.3601  0.4877  2.0628
 5682SOL     OW28678   2.088   0.997  12.526  0.1615  0.0086  0.7641
 5682SOL    HW128679   2.066   0.968  12.615 -4.1935  2.7476  0.6093
 5682SOL    HW228680   2.182   1.012  12.533 -0.2064  0.6884  4.6845
 5683SOL     OW28681   0.591   4.309   4.666  0.2485 -0.8245 -0.3725
 5683SOL    HW128682   0.589   4.311   4.762 -0.1660 -0.8838 -0.3803
 5683SOL    HW228683   0.630   4.224   4.648  1.8557 -0.6719  2.4213
 5684SOL     OW28684   4.446   2.137  15.228 -0.4740  0.1287  0.0714
 5684SOL    HW128685   4.515   2.077  15.255 -0.0799  1.6300  2.3988
 5684SOL    HW228686   4.495   2.198  15.172  1.0852  0.8699  2.2522
 5685SOL     OW28687   0.889   3.156   8.127 -0.3619 -0.4224  0.0781
 5685SOL    HW128688   0.971   3.110   8.142  0.2459  0.0737 -1.8358
 5685SOL    HW228689   0.899   3.228   8.190 -0.5107 -1.6295  1.4927
 5686SOL     OW28690   0.501   1.050   2.303  0.3120 -0.6179 -0.0583
 5686SOL    HW128691   0.491   1.120   2.239  0.9477 -0.7858 -0.3406
 5686SOL    HW228692   0.535   1.100   2.377  0.8433 -1.9288  0.5817
 5687SOL     OW28693   0.867   2.491   4.417 -0.1344  0.0313  0.0825
 5687SOL    HW128694   0.945   2.451   4.454  0.0549 -0.0595 -0.4092
 5687SOL    HW228695   0.864   2.457   4.327  0.8953 -1.0764  0.4679
 5688SOL     OW28696   0.593   3.982   5.130 -0.1642 -0.4876 -0.4345
 5688SOL    HW128697   0.498   3.986   5.129 -0.1606  0.0894  0.7209
 5688SOL    HW228698   0.602   4.012   5.040 -0.0879 -0.7051 -0.5001
 5689SOL     OW28699   3.048   3.446   4.076 -0.1291 -0.0143 -0.3249
 5689SOL    HW128700   3.003   3.374   4.032  1.5384 -0.5358 -1.1478
 5689SOL    HW228701   3.126   3.395   4.097  1.5977  2.9238  0.3725
 5690SOL     OW28702   2.573   3.966   8.440 -0.0370 -0.2439  0.1165
 5690SOL    HW128703   2.619   3.883   8.436 -0.2054 -0.3224 -0.2069
 5690SOL    HW228704   2.481   3.942   8.425 -0.4342  1.4423 -0.1900
 5691SOL     OW28705   2.716   2.841   2.759 -0.1965  0.4026 -0.0466
 5691SOL    HW128706   2.650   2.826   2.692 -1.3336 -3.1297  1.8837
 5691SOL    HW228707   2.731   2.936   2.752  1.2290  0.2080  0.2452
 5692SOL     OW28708   1.616   2.197   8.007  0.3142 -0.1995 -0.7116
 5692SOL    HW128709   1.565   2.119   7.987 -0.4974 -0.3474  1.9157
 5692SOL    HW228710   1.570   2.212   8.090 -0.8241 -3.1017 -0.8407
 5693SOL     OW28711   4.479   1.224  11.428 -0.1980  0.0521  0.2083
 5693SOL    HW128712   4.513   1.253  11.343 -1.4360 -1.1627 -0.7058
 5693SOL    HW228713   4.539   1.266  11.490  0.2247 -2.1694  1.3141
 5694SOL     OW28714   0.272   0.530   8.435  0.4556 -0.4811 -0.1176
 5694SOL    HW128715   0.351   0.577   8.410 -1.2834  2.1602 -0.6553
 5694SOL    HW228716   0.267   0.544   8.530  2.0492 -1.0421  0.0487
 5695SOL     OW28717   0.777   1.250   9.380  0.0349  0.2136  0.1275
 5695SOL    HW128718   0.818   1.195   9.313  0.0687  1.4872 -0.9078
 5695SOL    HW228719   0.822   1.214   9.457  1.5816  2.1322  0.1513
 5696SOL     OW28720   3.458   2.441  15.962 -0.1321 -0.2874 -0.0223
 5696SOL    HW128721   3.475   2.526  15.921  0.0946  0.6640  2.0420
 5696SOL    HW228722   3.364   2.460  15.966  0.4908  2.4622  2.1477
 5697SOL     OW28723   4.043   0.340   7.636  0.1501 -0.2250 -0.2496
 5697SOL    HW128724   4.116   0.357   7.697  1.4762  1.6515 -2.3724
 5697SOL    HW228725   3.967   0.336   7.694  0.8435 -2.8363  0.4960
 5698SOL     OW28726   0.123   1.772   0.286 -0.0119  0.0211  0.1794
 5698SOL    HW128727   0.066   1.845   0.261  0.1813  0.7083  1.6771
 5698SOL    HW228728   0.195   1.774   0.224  1.6589 -0.4653  2.1242
 5699SOL     OW28729   4.396   2.066  12.108 -0.2120  0.2616 -0.4640
 5699SOL    HW128730   4.381   2.151  12.149 -1.4840 -1.1970  2.0786
 5699SOL    HW228731   4.451   2.086  12.032 -0.7991  0.3800 -0.8514
 5700SOL     OW28732   1.409   0.573   4.740  0.4358  0.5396 -0.2116
 5700SOL    HW128733   1.322   0.581   4.701  0.0199  0.6579  0.7324
 5700SOL    HW228734   1.387   0.506   4.804  0.7861 -1.3261 -2.0762
 5701SOL     OW28735   2.626   1.368   4.289  0.3214 -0.3579 -0.2580
 5701SOL    HW128736   2.714   1.378   4.251  0.2158 -0.1881 -0.4597
 5701SOL    HW228737   2.644   1.308   4.361  1.6937  1.1396  0.6492
 5702SOL     OW28738   0.244   4.658  14.123 -0.2002  0.7347  0.2571
 5702SOL    HW128739   0.188   4.583  14.103  0.1732  0.8027 -1.0325
 5702SOL    HW228740   0.212   4.731  14.070  0.3102 -1.2550 -2.7725
 5703SOL     OW28741   3.351   4.167   7.632 -0.0253  0.2720  0.3812
 5703SOL    HW128742   3.354   4.072   7.643  1.0856  0.3845  1.1132
 5703SOL    HW228743   3.393   4.177   7.546 -1.0549  0.1794 -0.1258
 5704SOL     OW28744   2.989   2.752   8.266 -0.2988 -0.5579  0.7243
 5704SOL    HW128745   3.061   2.713   8.217 -0.8255 -0.5748 -0.0335
 5704SOL    HW228746   3.031   2.823   8.315  1.5978 -1.5930  0.5774
 5705SOL     OW28747   4.270   3.646  11.634  0.3855  0.2828 -0.0377
 5705SOL    HW128748   4.215   3.585  11.584 -0.4939  0.0768  1.1911
 5705SOL    HW228749   4.222   3.654  11.716 -0.5919  2.7361 -0.8315
 5706SOL     OW28750   1.910   2.807   6.591  0.4507  0.2166 -0.2551
 5706SOL    HW128751   1.829   2.826   6.640  0.8270  0.9055  0.1004
 5706SOL    HW228752   1.888   2.726   6.545  0.1535  0.0908  0.1070
 5707SOL     OW28753   2.400   4.684   9.033 -0.5761 -0.6178  0.0671
 5707SOL    HW128754   2.486   4.651   9.057 -0.7008 -1.0254 -0.0583
 5707SOL    HW228755   2.423   0.040   9.016  2.6065 -1.1484  1.4314
 5708SOL     OW28756   4.400   0.013  13.757 -0.3063 -0.3911  0.0363
 5708SOL    HW128757   4.478   0.042  13.709 -1.3755  0.1900 -1.3378
 5708SOL    HW228758   4.421   4.665  13.798  1.3273 -0.5285 -1.0731
 5709SOL     OW28759   0.333   4.238   7.208  0.3771 -0.1973 -0.2757
 5709SOL    HW128760   0.305   4.147   7.201 -0.5184  0.0062  0.7992
 5709SOL    HW228761   0.348   4.234   7.302  1.1125  2.5998 -0.2584
 5710SOL     OW28762   4.009   4.229   1.048 -0.3616 -0.4608 -0.1521
 5710SOL    HW128763   4.001   4.297   1.115  3.3864 -1.0828  0.9098
 5710SOL    HW228764   4.079   4.178   1.089  0.2100 -0.3728 -1.0223
 5711SOL     OW28765   1.710   3.598   5.847 -0.1281  0.0735  0.0256
 5711SOL    HW128766   1.758   3.535   5.901  1.4993  0.6447 -0.7537
 5711SOL    HW228767   1.694   3.543   5.770  0.1488 -0.3830  0.2953
 5712SOL     OW28768   2.652   1.337   5.020 -0.1268 -0.4399  0.3080
 5712SOL    HW128769   2.731   1.338   5.075 -0.5999  0.4658  0.9723
 5712SOL    HW228770   2.598   1.389   5.080 -1.6040  2.4333 -3.5599
 5713SOL     OW28771   2.348   4.700  10.683  0.5885 -0.1465 -0.0664
 5713SOL    HW128772   2.336   4.607  10.701 -0.0327 -0.1158 -0.3226
 5713SOL    HW228773   2.420   4.716  10.744 -0.9276  1.1430  1.3863
 5714SOL     OW28774   3.567   1.283   4.267  0.2229  0.7271  0.0277
 5714SOL    HW128775   3.513   1.356   4.237 -1.8393  0.0347  2.0479
 5714SOL    HW228776   3.637   1.271   4.202  1.8719  1.5017  1.6711
 5715SOL     OW28777   2.219   4.658   9.232 -0.5015  0.3139  0.2271
 5715SOL    HW128778   2.227   4.563   9.237  1.4950  0.6198  2.6455
 5715SOL    HW228779   2.291   4.674   9.170  0.6370 -0.6999  1.2799
 5716SOL     OW28780   3.939   0.383   2.059  0.6093 -0.1332 -0.4056
 5716SOL    HW128781   3.865   0.414   2.110  1.6415  3.2198 -0.9318
 5716SOL    HW228782   3.895   0.332   1.991  2.1296  1.3374 -2.5331
 5717SOL     OW28783   3.661   3.127  10.705 -0.1638  0.1508 -0.1436
 5717SOL    HW128784   3.676   3.185  10.631 -3.1802  0.3606 -0.6178
 5717SOL    HW228785   3.638   3.044  10.663 -0.9590 -1.6773  3.8144
 5718SOL     OW28786   2.609   1.970  10.456 -0.0856  0.2083 -0.7165
 5718SOL    HW128787   2.612   2.025  10.534  1.5760 -0.7172 -0.1168
 5718SOL    HW228788   2.596   2.029  10.382 -1.1341  0.8227 -0.0357
 5719SOL     OW28789   3.510   0.085  10.893  0.4003  0.2523 -0.0323
 5719SOL    HW128790   3.536   0.152  10.830 -2.0098 -0.2256 -1.5563
 5719SOL    HW228791   3.457   0.130  10.958 -0.3027  1.2135 -1.2870
 5720SOL     OW28792   0.276   3.662   8.211 -0.4848  0.4290  0.5737
 5720SOL    HW128793   0.275   3.579   8.163 -0.6417  1.5558 -1.3932
 5720SOL    HW228794   0.216   3.643   8.283  0.6790  1.2715  1.7462
 5721SOL     OW28795   1.176   1.051   5.727  0.0230 -0.3219  0.1438
 5721SOL    HW128796   1.166   0.965   5.686  1.5470  0.2994 -1.5385
 5721SOL    HW228797   1.236   1.098   5.669 -0.0680 -0.9878 -0.4903
 5722SOL     OW28798   0.329   0.308  10.103 -0.0493  0.6227  0.0844
 5722SOL    HW128799   0.305   0.216  10.100  0.5525  0.3856  2.6858
 5722SOL    HW228800   0.290   0.337  10.186  0.4417  1.3457  0.0662
 5723SOL     OW28801   1.670   3.984  11.393 -0.0328  0.1247 -0.1734
 5723SOL    HW128802   1.685   4.064  11.444  0.6373  0.6242 -1.1647
 5723SOL    HW228803   1.575   3.974  11.395 -0.0909  0.5450 -1.0730
 5724SOL     OW28804   3.248   3.128  14.886  0.2064  0.2862  0.3204
 5724SOL    HW128805   3.341   3.114  14.872 -0.0375 -1.1417  0.0577
 5724SOL    HW228806   3.259   3.201  14.946 -1.6080  0.5257  0.3778
 5725SOL     OW28807   2.832   1.184  16.760 -0.4542 -0.4345 -0.6351
 5725SOL    HW128808   2.886   1.262  16.772  1.3449 -1.8199  0.1519
 5725SOL    HW228809   2.824   1.184  16.665  0.0138  2.0681 -0.6867
 5726SOL     OW28810   1.727   2.088   1.623  0.4683 -0.4687 -0.1229
 5726SOL    HW128811   1.648   2.033   1.623 -1.4351  2.2627  2.4196
 5726SOL    HW228812   1.733   2.105   1.717  1.0300  3.0812 -0.7882
 5727SOL     OW28813   0.937   4.300   6.109 -0.2331 -0.9473  0.2766
 5727SOL    HW128814   1.002   4.348   6.160 -0.1588  2.2069 -2.7869
 5727SOL    HW228815   0.913   4.227   6.166 -1.7474 -1.0293 -0.4571
 5728SOL     OW28816   0.206   4.050   1.715  0.0659  0.3424  0.6737
 5728SOL    HW128817   0.300   4.057   1.701  0.0055 -2.3280 -0.9558
 5728SOL    HW228818   0.201   4.018   1.805 -3.3378 -1.8841 -0.2820
 5729SOL     OW28819   2.234   2.098   4.780 -0.4983 -0.1606 -0.2526
 5729SOL    HW128820   2.327   2.103   4.756 -0.1513  0.3365  1.1402
 5729SOL    HW228821   2.202   2.046   4.707  0.1079  1.2676 -1.5346
 5730SOL     OW28822   3.878   2.064   5.909 -0.0317  0.0283  0.2718
 5730SOL    HW128823   3.877   2.159   5.917 -1.1990  0.0818 -0.4301
 5730SOL    HW228824   3.808   2.040   5.969  1.7011 -1.7436  1.6006
 5731SOL     OW28825   4.610   3.212   2.482 -0.2093 -0.5950  0.2716
 5731SOL    HW128826   4.630   3.119   2.490 -0.4591 -0.6174  0.6531
 5731SOL    HW228827   4.520   3.224   2.452 -0.0210  1.1589  0.3694
 5732SOL     OW28828   2.690   4.517   2.771 -0.9480 -0.0078 -0.1105
 5732SOL    HW128829   2.736   4.473   2.842 -0.6076  2.1964  1.0252
 5732SOL    HW228830   2.618   4.460   2.745 -0.8243 -0.4564  0.5445
 5733SOL     OW28831   3.210   0.319   3.402 -0.2595 -0.3978  0.1807
 5733SOL    HW128832   3.125   0.364   3.393  1.4464  2.5225 -1.2941
 5733SOL    HW228833   3.203   0.279   3.488 -0.2380 -0.7144  0.0345
 5734SOL     OW28834   3.002   1.547   7.639 -0.3756 -0.0204  0.2407
 5734SOL    HW128835   3.063   1.614   7.607 -0.8342  0.2043 -0.1632
 5734SOL    HW228836   2.971   1.587   7.720 -0.9330  0.2337 -0.0979
 5735SOL     OW28837   1.261   4.341   6.900 -0.2219 -0.5174  0.1463
 5735SOL    HW128838   1.166   4.328   6.903 -0.5225  1.9253  1.9412
 5735SOL    HW228839   1.263   4.430   6.864  2.7060 -0.9181 -0.6741
 5736SOL     OW28840   0.617   2.950   1.736  0.5029 -0.2123 -0.3073
 5736SOL    HW128841   0.533   2.975   1.774  0.8501  2.2289 -1.1291
 5736SOL    HW228842   0.614   2.860   1.768  2.1650 -1.3517 -3.3269
 5737SOL     OW28843   3.615   2.002  17.465  0.4469 -0.5521 -0.0076
 5737SOL    HW128844   3.638   1.916  17.432  0.3991 -0.9443  0.9916
 5737SOL    HW228845   3.576   2.044  17.388 -0.7150 -1.7057 -0.0356
 5738SOL     OW28846   0.050   0.724   8.164  0.6516 -0.0606 -1.3305
 5738SOL    HW128847   4.701   0.734   8.122  1.4548  2.6818 -2.3082
 5738SOL    HW228848   0.080   0.813   8.180  1.8104 -0.6638 -0.0777
 5739SOL     OW28849   0.106   1.456   1.925  0.0270  0.0806 -0.5759
 5739SOL    HW128850   0.155   1.403   1.988  0.9051  1.7144  0.1203
 5739SOL    HW228851   0.028   1.401   1.921 -0.7095  0.9668  1.5159
 5740SOL     OW28852   0.523   4.396  14.339 -0.1202 -0.0549 -0.0902
 5740SOL    HW128853   0.497   4.441  14.259  1.4705 -0.0974 -0.6194
 5740SOL    HW228854   0.437   4.356  14.355 -0.0887  0.0763  0.4152
 5741SOL     OW28855   0.942   1.426   7.267  0.3991  0.4419  0.4664
 5741SOL    HW128856   0.924   1.482   7.343  2.6753  0.8816  0.6902
 5741SOL    HW228857   0.861   1.422   7.218 -0.7516 -1.1769  2.5280
 5742SOL     OW28858   2.152   4.569   5.301  0.2899 -0.5259  0.1815
 5742SOL    HW128859   2.213   4.511   5.345  0.9709 -0.6733 -0.9548
 5742SOL    HW228860   2.108   4.612   5.375 -1.7303  2.6257 -2.8481
 5743SOL     OW28861   1.700   0.125   4.336  0.1209 -0.4488  0.3976
 5743SOL    HW128862   1.699   0.046   4.282  0.7378 -1.4364  1.8260
 5743SOL    HW228863   1.658   0.090   4.414 -2.1302  1.8994  0.2350
 5744SOL     OW28864   4.647   0.754   8.726  0.1140  0.1047 -0.3562
 5744SOL    HW128865   4.705   0.800   8.787 -0.4055 -0.6328  0.7001
 5744SOL    HW228866   4.623   0.675   8.775  1.3259 -0.5418 -0.7913
 5745SOL     OW28867   0.726   4.629   4.262 -0.5929 -0.0673 -0.0608
 5745SOL    HW128868   0.737   4.536   4.242 -0.9644  0.5983 -3.3274
 5745SOL    HW228869   0.655   4.624   4.326  0.8907 -0.8636  1.5261
 5746SOL     OW28870   0.737   0.717  14.685 -0.0626 -0.6116 -0.6326
 5746SOL    HW128871   0.673   0.651  14.709  0.1693 -1.0480 -1.2012
 5746SOL    HW228872   0.683   0.794  14.664  0.8056  0.1475 -0.1074
 5747SOL     OW28873   1.643   2.867  10.196 -0.2918 -0.4037  0.0976
 5747SOL    HW128874   1.665   2.909  10.279 -1.1774 -1.1791  0.7235
 5747SOL    HW228875   1.609   2.784  10.230 -2.4125  0.4027 -0.0760
 5748SOL     OW28876   0.257   3.177   3.226 -0.8109 -0.0016  0.9903
 5748SOL    HW128877   0.259   3.261   3.271  0.8508  0.4692  0.0740
 5748SOL    HW228878   0.166   3.161   3.202 -0.6612  0.6423 -0.0008
 5749SOL     OW28879   1.603   4.557   4.818 -0.3983 -0.3203  0.6140
 5749SOL    HW128880   1.533   4.562   4.882  0.3589 -1.4993  1.5269
 5749SOL    HW228881   1.653   4.478   4.840  1.8471  1.0425  0.4442
 5750SOL     OW28882   4.151   0.952  16.011  0.1656 -0.1002  0.0061
 5750SOL    HW128883   4.221   1.016  16.026  1.1108 -0.3333 -3.3738
 5750SOL    HW228884   4.080   1.001  16.054  3.1392  2.6012  1.8814
 5751SOL     OW28885   3.643   0.704  11.661  0.2428  0.0425 -0.3946
 5751SOL    HW128886   3.629   0.673  11.571  0.9294  0.9629 -0.8201
 5751SOL    HW228887   3.699   0.638  11.703 -0.3486 -1.5986 -2.1606
 5752SOL     OW28888   1.947   0.929   4.257 -0.0546 -0.5225  0.0237
 5752SOL    HW128889   2.042   0.940   4.266 -0.2189  0.6325  0.4602
 5752SOL    HW228890   1.934   0.904   4.165  1.0593 -4.0190  0.8276
 5753SOL     OW28891   3.661   1.601   8.578  0.2145 -0.8488 -0.2617
 5753SOL    HW128892   3.732   1.571   8.521 -1.1313 -0.9011 -1.9370
 5753SOL    HW228893   3.645   1.527   8.636 -4.1764 -0.7741 -1.3946
 5754SOL     OW28894   0.730   0.660   3.716 -0.5293 -0.2894 -0.2926
 5754SOL    HW128895   0.668   0.648   3.644 -1.3057 -3.3857  0.8632
 5754SOL    HW228896   0.795   0.597   3.686 -1.2612 -0.8835 -0.6323
 5755SOL     OW28897   4.516   1.921   7.324  0.3694  0.0801  0.1899
 5755SOL    HW128898   4.603   1.959   7.334  0.4011 -0.0005  0.2177
 5755SOL    HW228899   4.498   1.913   7.418  0.4135 -0.0622  0.1868
 5756SOL     OW28900   3.761   1.610   7.904 -0.6591  0.4257  0.1156
 5756SOL    HW128901   3.821   1.684   7.915 -1.0196  0.6102  0.8543
 5756SOL    HW228902   3.823   1.550   7.863 -0.4634 -0.1082  1.2062
 5757SOL     OW28903   0.380   0.205  13.415 -0.5538  0.2254  0.0768
 5757SOL    HW128904   0.292   0.231  13.441 -1.0614  0.1186 -1.6052
 5757SOL    HW228905   0.360   0.124  13.368  2.0880 -0.9624  0.9471
 5758SOL     OW28906   2.029   2.966   8.370  0.5174 -0.3421  0.4417
 5758SOL    HW128907   1.965   2.895   8.379 -0.0323 -0.2117 -2.2709
 5758SOL    HW228908   2.049   2.985   8.461  1.2227 -1.9151  0.6112
 5759SOL     OW28909   1.290   0.468   8.657 -0.4917  0.1048  0.4592
 5759SOL    HW128910   1.316   0.522   8.582  2.4116 -1.9819 -0.0394
 5759SOL    HW228911   1.311   0.532   8.724  2.1533 -0.6122  0.2953
 5760SOL     OW28912   1.764   3.352   0.609 -0.0425 -0.4467  0.1507
 5760SOL    HW128913   1.699   3.423   0.614  0.0793 -0.2384 -1.0671
 5760SOL    HW228914   1.741   3.329   0.519 -3.0564  2.1130  0.2692
 5761SOL     OW28915   2.765   2.259   7.060 -0.0368  0.1344  0.3127
 5761SOL    HW128916   2.835   2.268   7.124 -0.3335  0.0197  0.6516
 5761SOL    HW228917   2.728   2.347   7.048 -0.2711  0.3916  3.1128
 5762SOL     OW28918   1.999   1.823   7.627  0.7496 -0.0472  0.3445
 5762SOL    HW128919   1.970   1.775   7.550 -1.2585 -0.2583  1.2117
 5762SOL    HW228920   1.917   1.860   7.662 -0.3128 -0.6906 -1.4752
 5763SOL     OW28921   0.989   2.214   6.584 -0.0468 -0.0340  0.2317
 5763SOL    HW128922   1.047   2.183   6.653  0.5666  0.0674 -0.2431
 5763SOL    HW228923   0.981   2.302   6.623  0.2252 -0.8045  2.0281
 5764SOL     OW28924   4.411   3.432   3.589 -0.0709 -0.3232 -0.3506
 5764SOL    HW128925   4.349   3.447   3.518  0.8587  0.7477 -0.9429
 5764SOL    HW228926   4.405   3.513   3.639 -0.7529 -0.8212  0.3770
 5765SOL     OW28927   4.481   3.756  10.069 -0.0524 -0.2688  0.4654
 5765SOL    HW128928   4.519   3.754  10.157 -2.0893  0.4672  1.3640
 5765SOL    HW228929   4.406   3.812  10.090  0.4494  0.8981 -0.8959
 5766SOL     OW28930   2.708   3.228   6.452  0.5275 -0.5836 -0.0151
 5766SOL    HW128931   2.634   3.191   6.404  1.4946 -1.2048 -1.0281
 5766SOL    HW228932   2.669   3.315   6.460  2.2048  0.4873 -3.6106
 5767SOL     OW28933   2.551   4.712   5.181 -0.0925  0.1779 -0.6030
 5767SOL    HW128934   2.544   4.652   5.107 -0.6647 -1.3379  0.6765
 5767SOL    HW228935   2.529   4.663   5.260 -0.6466 -0.1877 -0.9894
 5768SOL     OW28936   3.046   4.327   8.548 -0.6889 -0.3629  0.3641
 5768SOL    HW128937   3.048   4.301   8.455  1.5083  0.6295  0.1380
 5768SOL    HW228938   3.037   4.422   8.543  0.0494 -0.5128 -4.2061
 5769SOL     OW28939   1.989   0.800   7.612 -0.4545 -0.6090  0.7794
 5769SOL    HW128940   1.963   0.820   7.522  0.8648  0.1336  0.5483
 5769SOL    HW228941   2.085   0.803   7.612 -0.4652 -0.2902 -2.0647
 5770SOL     OW28942   3.624   3.636   3.516  0.3976 -0.1304  0.5908
 5770SOL    HW128943   3.659   3.565   3.570 -0.9709 -0.4801  1.0195
 5770SOL    HW228944   3.664   3.708   3.565 -1.2544  1.9168 -1.0860
 5771SOL     OW28945   0.418   1.893   5.716  0.0273 -0.1175 -0.2611
 5771SOL    HW128946   0.462   1.928   5.793 -0.8836  2.2898 -0.8400
 5771SOL    HW228947   0.350   1.957   5.696  0.1450 -0.1111 -0.6591
 5772SOL     OW28948   1.387   3.910  11.422  0.2214  0.1614  0.2327
 5772SOL    HW128949   1.335   3.831  11.406  0.7129 -0.0867 -0.1116
 5772SOL    HW228950   1.423   3.901  11.510 -0.1185 -1.1596  0.2413
 5773SOL     OW28951   1.512   0.944   2.834  0.2288  0.5650  0.0253
 5773SOL    HW128952   1.445   0.933   2.766  1.7223 -0.6375 -1.2553
 5773SOL    HW228953   1.551   1.028   2.812  1.6356 -0.9776 -3.3758
 5774SOL     OW28954   0.625   3.848   4.024 -0.2418 -0.4347  0.1550
 5774SOL    HW128955   0.659   3.793   4.095  1.3250 -2.2930 -2.0158
 5774SOL    HW228956   0.540   3.878   4.057  0.3570 -0.4577  1.7014
 5775SOL     OW28957   2.248   4.235   7.550 -0.4231 -0.0142  0.1148
 5775SOL    HW128958   2.181   4.272   7.492 -0.9649 -1.0040  0.1193
 5775SOL    HW228959   2.202   4.242   7.634 -0.6423 -1.7338  0.1350
 5776SOL     OW28960   4.145   1.192   5.565 -0.4900 -0.1488 -0.4067
 5776SOL    HW128961   4.211   1.243   5.613  0.6556 -1.6917 -0.3183
 5776SOL    HW228962   4.083   1.179   5.636 -0.8482 -0.8882 -0.8642
 5777SOL     OW28963   3.123   0.806   2.928  0.6611  0.6555 -0.2826
 5777SOL    HW128964   3.123   0.868   3.001 -0.4105  0.5158 -0.1592
 5777SOL    HW228965   3.146   0.866   2.858  0.1479  1.9257  0.6349
 5778SOL     OW28966   1.865   4.230  15.933 -0.0557  0.0448  0.3649
 5778SOL    HW128967   1.889   4.253  16.023  1.1890  0.1106  0.0012
 5778SOL    HW228968   1.927   4.278  15.879 -0.1014  2.1038  2.1415
 5779SOL     OW28969   4.597   2.283  10.577 -0.0977 -0.3449  0.0744
 5779SOL    HW128970   4.557   2.199  10.554  0.1351 -0.2758 -0.5941
 5779SOL    HW228971   4.531   2.321  10.635  0.3344  1.3466 -0.5234
 5780SOL     OW28972   3.515   1.604   8.026  0.0626  0.6091 -0.4281
 5780SOL    HW128973   3.489   1.692   7.998 -1.5899 -0.1777 -1.3739
 5780SOL    HW228974   3.601   1.591   7.986  0.0537  1.9526 -0.8869
 5781SOL     OW28975   3.077   1.549   7.948 -0.4647 -0.4840 -0.5755
 5781SOL    HW128976   3.028   1.618   7.902  1.3571  0.9439 -0.3481
 5781SOL    HW228977   3.033   1.565   8.031 -1.6519 -0.4286 -1.2113
 5782SOL     OW28978   0.164   0.341   4.290  0.1560  0.2229 -0.1050
 5782SOL    HW128979   0.186   0.255   4.327 -1.5600 -0.2680 -0.2037
 5782SOL    HW228980   0.213   0.396   4.351  1.0930 -0.4554 -0.2477
 5783SOL     OW28981   3.615   0.446   7.896  0.3492  1.2644 -0.2182
 5783SOL    HW128982   3.562   0.431   7.974 -0.3664  0.1074 -0.9266
 5783SOL    HW228983   3.555   0.460   7.822 -0.5881 -0.0946  0.2859
 5784SOL     OW28984   3.059   1.060   2.021  0.4158 -0.1029 -0.0091
 5784SOL    HW128985   2.987   1.004   2.050  0.6729 -0.4894 -0.1112
 5784SOL    HW228986   3.117   0.991   1.988  0.7870 -0.1615  0.7588
 5785SOL     OW28987   1.083   4.075   6.615  0.6272 -0.2093  0.3366
 5785SOL    HW128988   1.022   4.149   6.623  1.7337  1.0928 -3.5216
 5785SOL    HW228989   1.162   4.119   6.585 -0.1383 -0.4829 -2.0508
 5786SOL     OW28990   1.427   4.013   8.119 -0.1253  0.5020  0.4713
 5786SOL    HW128991   1.340   4.046   8.143  0.0432 -1.2302  3.4518
 5786SOL    HW228992   1.459   3.998   8.208 -0.0994  0.0717  0.3897
 5787SOL     OW28993   0.361   1.712   6.691 -0.3945 -0.3343  0.0456
 5787SOL    HW128994   0.271   1.682   6.700 -0.0797 -1.5480 -0.7922
 5787SOL    HW228995   0.367   1.750   6.778 -1.2449  1.0708 -0.5047
 5788SOL     OW28996   0.292   0.394   1.972 -0.0130  0.1275 -0.0960
 5788SOL    HW128997   0.277   0.400   2.067  0.2720 -1.2748  0.0373
 5788SOL    HW228998   0.208   0.354   1.950 -0.1001 -0.2046  0.8226
 5789SOL     OW28999   2.311   0.892   3.021  0.3358  0.6788 -0.1670
 5789SOL    HW129000   2.286   0.962   2.960 -0.7227  1.0771  0.7322
 5789SOL    HW229001   2.263   0.921   3.099 -0.5503  0.3398 -0.5938
 5790SOL     OW29002   4.726   0.928   7.496  0.3663  0.2805 -0.4057
 5790SOL    HW129003   0.018   0.849   7.543 -1.4059  0.8187  1.5746
 5790SOL    HW229004   0.073   0.972   7.478 -1.4819  3.4959 -0.9402
 5791SOL     OW29005   2.763   4.631   4.901 -0.0931  0.7556 -0.0090
 5791SOL    HW129006   2.807   4.696   4.956  1.7733 -1.4604  1.0682
 5791SOL    HW229007   2.738   4.568   4.968  1.0571  0.6271  0.3003
 5792SOL     OW29008   2.506   4.228   4.698  0.2800  0.0612 -0.7456
 5792SOL    HW129009   2.486   4.320   4.682 -1.7583  0.1124  2.1779
 5792SOL    HW229010   2.541   4.190   4.617 -0.0717 -1.1027 -0.3536
 5793SOL     OW29011   2.928   1.577   1.832  0.2669  0.4276 -0.1865
 5793SOL    HW129012   2.959   1.498   1.876 -1.5020 -0.7036 -0.9657
 5793SOL    HW229013   2.920   1.648   1.895  0.1618  0.3436 -0.1046
 5794SOL     OW29014   1.320   0.794  15.850  0.0981  0.0545  0.6107
 5794SOL    HW129015   1.274   0.710  15.859  1.1553 -0.4197  1.4707
 5794SOL    HW229016   1.268   0.849  15.908 -1.4138 -0.3069 -0.3846
 5795SOL     OW29017   4.419   1.950   5.957 -0.1235 -0.3495 -0.1307
 5795SOL    HW129018   4.367   1.986   5.885 -1.2310  1.4868  1.5916
 5795SOL    HW229019   4.451   1.867   5.922  1.7036  0.4032 -0.2440
 5796SOL     OW29020   2.737   2.597   4.396  0.5921  0.3906  0.8541
 5796SOL    HW129021   2.718   2.526   4.334  1.3519  0.6639  0.3108
 5796SOL    HW229022   2.703   2.668   4.342 -0.2688 -0.8629 -0.2490
 5797SOL     OW29023   2.235   4.049   4.702  0.4548  0.0990 -0.2042
 5797SOL    HW129024   2.214   3.958   4.718  1.1815 -0.2582 -1.2663
 5797SOL    HW229025   2.230   4.093   4.787  1.1661  1.1092 -0.6781
 5798SOL     OW29026   3.669   1.373   4.518  0.3272  0.4146  0.0525
 5798SOL    HW129027   3.761   1.357   4.498  0.1285  0.7103 -1.0906
 5798SOL    HW229028   3.624   1.349   4.437  0.7971 -0.2328 -0.0134
 5799SOL     OW29029   2.755   0.316   9.552 -0.1168  0.1305 -0.8770
 5799SOL    HW129030   2.775   0.402   9.515 -1.2424  0.8495  0.1882
 5799SOL    HW229031   2.828   0.300   9.612 -0.4988  0.4145 -0.3377
 5800SOL     OW29032   1.814   2.147   4.853  0.2179 -0.3433  0.1151
 5800SOL    HW129033   1.872   2.221   4.834  1.1130 -1.4057 -1.2232
 5800SOL    HW229034   1.808   2.108   4.766  1.5966 -0.0150 -0.1160
 5801SOL     OW29035   2.729   2.057   2.069  0.6124  0.4697  0.3822
 5801SOL    HW129036   2.686   2.099   1.994 -0.7146 -1.9976 -0.2319
 5801SOL    HW229037   2.820   2.086   2.060  0.2489  1.6033  0.3680
 5802SOL     OW29038   0.635   3.581  16.573  0.1209  0.5225  0.4360
 5802SOL    HW129039   0.639   3.575  16.477  2.2648 -1.9608  0.6896
 5802SOL    HW229040   0.723   3.603  16.602  0.5716  1.1816 -1.4642
 5803SOL     OW29041   0.980   1.804   7.152  0.3234  0.1142 -0.0476
 5803SOL    HW129042   1.014   1.892   7.137 -1.9959  0.6756 -2.2120
 5803SOL    HW229043   1.012   1.795   7.242 -1.1508  0.0611  0.4796
 5804SOL     OW29044   0.624   0.112  12.849 -0.3528  0.5098  0.0172
 5804SOL    HW129045   0.700   0.155  12.809 -1.2973  1.8639 -0.3322
 5804SOL    HW229046   0.648   0.021  12.837  1.6283  1.0849 -0.4216
 5805SOL     OW29047   1.239   1.086  13.111  0.4981 -0.5265  0.3778
 5805SOL    HW129048   1.160   1.059  13.157 -1.5812  0.4763 -2.5385
 5805SOL    HW229049   1.273   1.152  13.171  0.7158  0.0310 -0.3455
 5806SOL     OW29050   3.314   4.434   8.675 -0.2494 -0.5186  0.4060
 5806SOL    HW129051   3.255   4.507   8.655  1.0308  0.3468 -0.1676
 5806SOL    HW229052   3.281   4.375   8.606 -3.5026  1.7361  0.0237
 5807SOL     OW29053   1.602   0.435   4.550 -0.4750 -0.3149 -0.5941
 5807SOL    HW129054   1.519   0.395   4.524 -0.1570 -2.0964  1.1639
 5807SOL    HW229055   1.600   0.402   4.640 -1.3140 -1.6025 -1.0873
 5808SOL     OW29056   1.030   2.208  15.119 -0.5176  0.4228  0.2450
 5808SOL    HW129057   0.965   2.179  15.184  1.3883 -1.3609  1.3549
 5808SOL    HW229058   1.084   2.129  15.110 -0.4276  0.4575  0.4793
 5809SOL     OW29059   3.885   3.349   7.125  0.2982  0.0774 -0.4977
 5809SOL    HW129060   3.816   3.307   7.073 -1.8986  1.8055  1.0367
 5809SOL    HW229061   3.863   3.311   7.210  1.2883  0.3934 -0.1063
 5810SOL     OW29062   2.558   3.566   1.126  0.2495 -0.2723 -0.1427
 5810SOL    HW129063   2.479   3.545   1.177  0.8211  0.7550  1.1710
 5810SOL    HW229064   2.630   3.517   1.167  0.9952  0.7678 -0.2224
 5811SOL     OW29065   2.964   0.612  16.716  0.2745 -0.0676 -0.2773
 5811SOL    HW129066   2.911   0.690  16.701  0.0309 -0.3645 -0.9944
 5811SOL    HW229067   3.042   0.639  16.764 -0.2569  0.3996  0.3142
 5812SOL     OW29068   0.685   3.173   3.136  0.2574 -0.1011  0.3037
 5812SOL    HW129069   0.754   3.117   3.098  1.5592  2.0432 -0.4893
 5812SOL    HW229070   0.600   3.138   3.109  0.0170  0.0744  0.8408
 5813SOL     OW29071   1.736   1.098   6.113 -0.2717  0.0799 -0.3751
 5813SOL    HW129072   1.653   1.062   6.081 -1.0355  0.2826  1.3793
 5813SOL    HW229073   1.705   1.160   6.179 -3.1275 -0.6942 -0.9624
 5814SOL     OW29074   4.599   3.279  17.240 -0.0770 -0.3210  0.5292
 5814SOL    HW129075   4.535   3.227  17.288 -0.2941 -0.3430  0.2167
 5814SOL    HW229076   4.646   3.328  17.308 -0.4637  0.3329  0.3255
 5815SOL     OW29077   0.824   4.290   5.068 -0.0456  0.2291 -0.3547
 5815SOL    HW129078   0.811   4.284   4.974 -0.7597  0.4525 -0.2654
 5815SOL    HW229079   0.779   4.212   5.098  2.0709 -1.9407 -2.8069
 5816SOL     OW29080   3.526   0.413  11.244  0.6543  0.1008  0.1678
 5816SOL    HW129081   3.444   0.439  11.202  1.0990  2.2188  0.6065
 5816SOL    HW229082   3.525   0.318  11.228 -1.6676  0.3983 -1.4516
 5817SOL     OW29083   2.637   1.038  16.867 -0.2977 -0.1200 -0.1750
 5817SOL    HW129084   2.696   1.104  16.830 -1.0007  1.2674  1.1668
 5817SOL    HW229085   2.633   1.071  16.957  3.5695 -0.5683  0.1733
 5818SOL     OW29086   0.704   0.519   2.779 -0.0560  0.0203  0.2047
 5818SOL    HW129087   0.764   0.451   2.811  2.5617  2.7422  1.0683
 5818SOL    HW229088   0.751   0.602   2.769 -2.4201  1.4633  0.9706
 5819SOL     OW29089   4.432   0.678   2.706  0.2215 -0.3134  0.2122
 5819SOL    HW129090   4.420   0.594   2.750  0.4063  0.6909  2.1798
 5819SOL    HW229091   4.359   0.727   2.744 -0.9601 -1.0257 -1.1212
 5820SOL     OW29092   3.472   3.191  13.123  0.1955 -0.6909 -0.2290
 5820SOL    HW129093   3.468   3.144  13.040  4.2510 -2.0759  0.4037
 5820SOL    HW229094   3.558   3.165  13.155 -0.3926 -1.6995  0.5258
 5821SOL     OW29095   1.120   0.024   7.631  0.2888  0.6504 -0.0874
 5821SOL    HW129096   1.196   0.066   7.592 -1.5891  3.4645 -0.6985
 5821SOL    HW229097   1.073   0.100   7.665  0.6864  0.1604  1.5901
 5822SOL     OW29098   2.473   1.753   6.089  0.1557  0.1002  0.0929
 5822SOL    HW129099   2.437   1.838   6.063 -1.1119 -0.7800 -1.0125
 5822SOL    HW229100   2.409   1.738   6.158 -0.4770  0.8966 -0.3179
 5823SOL     OW29101   3.092   1.605   1.575  0.4799 -0.0722 -0.9268
 5823SOL    HW129102   3.016   1.608   1.633  1.2745 -1.6122  0.1911
 5823SOL    HW229103   3.109   1.512   1.588  0.6644  0.2823  1.2702
 5824SOL     OW29104   3.171   3.979   5.161 -0.0084  0.2966  0.8373
 5824SOL    HW129105   3.251   3.936   5.194  1.5593  1.2899 -1.6764
 5824SOL    HW229106   3.153   3.919   5.089  1.1732  0.8062  0.1141
 5825SOL     OW29107   3.902   2.664   6.518 -0.6886 -0.4997  0.1299
 5825SOL    HW129108   3.911   2.759   6.517  0.3702 -0.6069 -1.2442
 5825SOL    HW229109   3.986   2.629   6.548 -0.1710 -0.0414 -0.7794
 5826SOL     OW29110   0.522   3.401   3.605  0.0020 -0.7095 -0.2486
 5826SOL    HW129111   0.554   3.368   3.521  0.4369  3.1617 -1.6462
 5826SOL    HW229112   0.597   3.460   3.614 -0.5984  0.1208 -0.5921
 5827SOL     OW29113   0.175   2.884   4.176 -0.2162  0.2622 -0.3586
 5827SOL    HW129114   0.210   2.911   4.260 -0.7756  0.4649 -0.1891
 5827SOL    HW229115   0.166   2.963   4.123  0.0323  0.2756 -0.3787
 5828SOL     OW29116   3.541   1.944   5.109 -0.4987  0.4091 -0.5283
 5828SOL    HW129117   3.596   2.008   5.154  0.4388 -0.2430 -0.7396
 5828SOL    HW229118   3.526   1.990   5.027  0.5825 -1.3246 -1.6867
 5829SOL     OW29119   1.406   2.890   0.365  0.1018  0.0485 -0.0435
 5829SOL    HW129120   1.328   2.900   0.311  0.0613  1.4559  0.2758
 5829SOL    HW229121   1.383   2.824   0.430 -0.2557 -1.8510 -2.1100
 5830SOL     OW29122   3.318   2.215   7.834 -0.3765 -0.2528  0.1547
 5830SOL    HW129123   3.265   2.227   7.913  0.2912 -0.3370  0.6144
 5830SOL    HW229124   3.398   2.253   7.870 -2.2072  2.7315  1.0856
 5831SOL     OW29125   0.230   1.332   2.146  0.1220  0.2502 -0.3393
 5831SOL    HW129126   0.257   1.408   2.197  1.3870 -0.8728  0.6366
 5831SOL    HW229127   0.315   1.314   2.106 -0.4572 -1.7049 -0.6806
 5832SOL     OW29128   2.866   0.121   3.736 -0.0121 -0.0347 -0.4021
 5832SOL    HW129129   2.881   0.108   3.830  1.7158 -1.8195 -0.9139
 5832SOL    HW229130   2.902   0.039   3.702  2.4819  1.3031 -0.9074
 5833SOL     OW29131   0.386   0.164   6.096 -0.5386  0.0316 -0.2960
 5833SOL    HW129132   0.436   0.142   6.018 -1.1415  0.3180 -0.7593
 5833SOL    HW229133   0.386   0.260   6.090  1.6140 -0.0693 -1.9142
 5834SOL     OW29134   3.877   2.100   7.098 -0.2508 -0.1501  0.0153
 5834SOL    HW129135   3.859   2.039   7.170  0.1663  1.3822  1.4283
 5834SOL    HW229136   3.962   2.074   7.061 -0.0891 -0.8061  0.8428
 5835SOL     OW29137   3.745   0.340   7.536  0.2178 -0.2333 -0.0044
 5835SOL    HW129138   3.748   0.311   7.627 -2.2238 -0.1592  0.0997
 5835SOL    HW229139   3.824   0.394   7.523  0.2248 -0.1219  0.4808
 5836SOL     OW29140   1.580   3.909  14.112  0.4545 -0.3525  0.2017
 5836SOL    HW129141   1.570   3.949  14.026  0.7388 -0.0583  0.3050
 5836SOL    HW229142   1.647   3.950  14.167  0.6851  0.0447 -0.3842
 5837SOL     OW29143   0.083   0.262   2.423 -0.2505  0.7678  0.5816
 5837SOL    HW129144   0.152   0.197   2.431 -2.0162 -1.1197  0.4550
 5837SOL    HW229145   0.054   0.228   2.339 -1.3856 -1.0036  1.7061
 5838SOL     OW29146   2.164   2.057   9.373  0.2935 -0.0267 -0.2415
 5838SOL    HW129147   2.244   2.029   9.330  0.1967 -2.8514  1.4243
 5838SOL    HW229148   2.133   1.977   9.415  0.6459 -0.5281 -0.9537
 5839SOL     OW29149   4.521   2.626   3.212 -0.4007 -0.1125 -0.4325
 5839SOL    HW129150   4.534   2.584   3.127 -0.6650 -1.3901  0.1589
 5839SOL    HW229151   4.606   2.667   3.228 -1.1789  0.6045  1.8268
 5840SOL     OW29152   3.373   3.819   6.755 -0.9794  0.0500 -0.0087
 5840SOL    HW129153   3.281   3.791   6.757 -0.9724 -0.0178 -0.5709
 5840SOL    HW229154   3.379   3.848   6.664  5.0150 -0.7123  0.1905
 5841SOL     OW29155   2.446   3.144   2.870  0.3256 -0.0854 -0.2093
 5841SOL    HW129156   2.496   3.225   2.862  0.4337 -0.3901 -2.7363
 5841SOL    HW229157   2.513   3.076   2.866 -0.9351 -1.2624 -1.4394
 5842SOL     OW29158   1.237   4.291   2.075 -0.9028  0.0742 -0.3633
 5842SOL    HW129159   1.208   4.222   2.015 -1.2091  1.0257 -1.3052
 5842SOL    HW229160   1.145   4.318   2.079 -0.6652  1.2905 -3.0879
 5843SOL     OW29161   1.050   3.579   1.091 -0.0432  0.1996  0.1954
 5843SOL    HW129162   1.006   3.499   1.117 -0.3101  0.1578 -0.3811
 5843SOL    HW229163   1.133   3.567   1.138 -0.0711 -3.7173 -0.7447
 5844SOL     OW29164   4.326   2.444  10.383  0.2678 -0.1977 -0.0986
 5844SOL    HW129165   4.319   2.361  10.337 -1.8263 -1.8060  3.1483
 5844SOL    HW229166   4.399   2.483  10.334  0.7752  0.6436  1.3118
 5845SOL     OW29167   1.082   1.254   2.172 -0.1757  0.1722 -0.4338
 5845SOL    HW129168   1.105   1.319   2.105  1.2697 -0.6107 -0.6976
 5845SOL    HW229169   1.119   1.170   2.143 -1.6530 -0.9449  0.9825
 5846SOL     OW29170   3.836   2.133  15.484  0.0596 -0.4316  0.3723
 5846SOL    HW129171   3.762   2.159  15.539 -0.4170  0.8613 -0.8673
 5846SOL    HW229172   3.825   2.037  15.485 -0.7092 -0.3100  3.2151
 5847SOL     OW29173   3.804   4.057   7.274 -0.5623  0.1887  0.0971
 5847SOL    HW129174   3.765   4.142   7.255  0.0371  0.2805 -0.7260
 5847SOL    HW229175   3.828   4.068   7.366 -0.8764 -0.7848  0.2979
 5848SOL     OW29176   1.199   3.779   4.047 -0.1303 -0.1243  0.7483
 5848SOL    HW129177   1.117   3.784   3.997 -0.8905  1.1446  2.1235
 5848SOL    HW229178   1.166   3.724   4.118 -0.4530  0.8044  1.3153
 5849SOL     OW29179   0.828   1.783   2.849 -0.4033 -0.5227 -0.2427
 5849SOL    HW129180   0.804   1.834   2.927  0.4724  1.1396 -1.0544
 5849SOL    HW229181   0.862   1.703   2.888  0.9935 -0.0790 -0.5706
 5850SOL     OW29182   4.301   4.499   3.873 -0.2780  0.3832 -0.1507
 5850SOL    HW129183   4.379   4.543   3.840  0.9725 -0.7501  1.3275
 5850SOL    HW229184   4.252   4.578   3.894  1.1659  0.8389  1.4412
 5851SOL     OW29185   3.540   2.436   2.926  0.0558 -0.1094  0.0037
 5851SOL    HW129186   3.610   2.383   2.888 -1.8496 -2.8571  0.3294
 5851SOL    HW229187   3.525   2.507   2.863 -1.9542  0.0905  0.7039
 5852SOL     OW29188   0.298   3.391   2.001 -0.3270  0.2865 -0.2897
 5852SOL    HW129189   0.298   3.345   2.084 -2.0205 -1.3949 -1.2152
 5852SOL    HW229190   0.264   3.322   1.944 -1.6891  0.0357  0.8428
 5853SOL     OW29191   0.410   0.435   2.888  0.6676  0.1095 -0.2873
 5853SOL    HW129192   0.464   0.485   2.949 -2.0310  0.3075  1.9517
 5853SOL    HW229193   0.369   0.505   2.837  0.1906 -0.1242 -0.2200
 5854SOL     OW29194   2.781   1.460   5.596  0.4870 -0.0555  0.3701
 5854SOL    HW129195   2.807   1.370   5.615  1.5524 -0.0255 -0.9772
 5854SOL    HW229196   2.701   1.441   5.546  1.4972  0.7774 -1.5605
 5855SOL     OW29197   4.411   1.744  16.097  0.0867  0.1896 -0.0289
 5855SOL    HW129198   4.348   1.672  16.087  2.4479 -1.9649  0.5063
 5855SOL    HW229199   4.496   1.706  16.074  0.5180  1.4141 -0.4640
 5856SOL     OW29200   3.081   3.775   0.592 -0.6224 -0.3033 -0.1494
 5856SOL    HW129201   3.160   3.721   0.588 -0.6492 -0.2184 -1.7844
 5856SOL    HW229202   3.036   3.740   0.669 -0.7953 -2.2408 -1.1151
 5857SOL     OW29203   2.191   3.520  12.849 -0.1853  0.3382  0.6203
 5857SOL    HW129204   2.262   3.462  12.875  0.6419  1.6722  1.3078
 5857SOL    HW229205   2.207   3.588  12.914 -0.5923 -0.2776  1.3606
 5858SOL     OW29206   3.039   0.717  15.052  0.2832  0.3195 -0.2558
 5858SOL    HW129207   2.991   0.635  15.064  0.8462 -0.0113 -0.2630
 5858SOL    HW229208   3.125   0.692  15.087 -1.0701 -1.1151  2.0638
 5859SOL     OW29209   2.858   4.553   0.042  0.2715  0.0738 -0.1725
 5859SOL    HW129210   2.862   4.648   0.053 -0.0831  0.1305 -0.5232
 5859SOL    HW229211   2.786   4.534   0.101  1.2582 -0.5432  0.8241
 5860SOL     OW29212   3.457   1.758   4.004  0.0958 -0.0082  0.0742
 5860SOL    HW129213   3.490   1.716   4.084  0.2856 -0.7783 -0.4119
 5860SOL    HW229214   3.392   1.695   3.972 -2.1304  1.2594  2.1199
 5861SOL     OW29215   3.459   4.240  10.373  0.4742  0.5470  0.0370
 5861SOL    HW129216   3.453   4.173  10.441  2.5187 -2.0851 -2.3480
 5861SOL    HW229217   3.379   4.285  10.400 -1.0597 -2.1257 -0.0252
 5862SOL     OW29218   1.744   0.193   2.117 -0.0407 -0.4920 -0.6110
 5862SOL    HW129219   1.778   0.278   2.091  1.1085 -1.1182 -1.1452
 5862SOL    HW229220   1.742   0.205   2.212  1.0124  1.4054 -0.8255
 5863SOL     OW29221   4.025   2.969   3.914 -0.7192  0.4386 -0.3214
 5863SOL    HW129222   3.962   2.919   3.965  1.0830  0.4141  1.9130
 5863SOL    HW229223   4.057   3.043   3.966  0.3069 -0.3172  0.1313
 5864SOL     OW29224   2.355   2.413   2.310  0.1278  0.2343 -0.1683
 5864SOL    HW129225   2.375   2.499   2.274 -1.3752  0.4349 -0.5086
 5864SOL    HW229226   2.390   2.354   2.243  0.5591 -0.6829  0.8602
 5865SOL     OW29227   0.909   4.353   2.528 -0.1989 -0.1311  0.7404
 5865SOL    HW129228   0.941   4.417   2.464 -2.1231  0.9303  0.8382
 5865SOL    HW229229   0.823   4.332   2.491 -0.4887  0.8970  0.8371
 5866SOL     OW29230   4.410   0.345   5.999 -0.2804  0.1924  0.2188
 5866SOL    HW129231   4.437   0.259   6.030  2.3420  0.3070 -1.7862
 5866SOL    HW229232   4.324   0.345   6.042  2.2322  0.2661  5.2554
 5867SOL     OW29233   0.975   4.009   0.744  0.1735  0.5145  0.0192
 5867SOL    HW129234   0.959   3.920   0.712  0.0282  0.3874  0.4386
 5867SOL    HW229235   0.959   4.008   0.839  0.8249  0.5129  0.1240
 5868SOL     OW29236   4.687   4.522   0.831 -0.0821 -0.2756 -0.1548
 5868SOL    HW129237   4.735   4.521   0.749  1.1644 -1.1027  0.5956
 5868SOL    HW229238   4.665   4.429   0.843  0.2166 -0.0636  2.0633
 5869SOL     OW29239   0.262   1.668   8.952  0.1801 -0.4118  0.4148
 5869SOL    HW129240   0.340   1.720   8.970  1.4646 -2.1973  0.0863
 5869SOL    HW229241   0.266   1.603   9.022  0.2640 -0.7592  0.0913
 5870SOL     OW29242   1.827   3.324   0.165  0.0363 -0.7615  0.1239
 5870SOL    HW129243   1.829   3.359   0.076  0.5486  1.1615  0.8870
 5870SOL    HW229244   1.827   3.231   0.142  2.0822 -0.0978 -2.5207
 5871SOL     OW29245   0.835   0.949   3.695 -0.0246 -0.1438  0.2570
 5871SOL    HW129246   0.831   0.961   3.600  1.1003  1.4706  0.4221
 5871SOL    HW229247   0.762   0.889   3.711  0.5241 -0.5198  1.3168
 5872SOL     OW29248   4.615   2.935  17.442  0.4187  0.8214 -0.5480
 5872SOL    HW129249   4.550   2.872  17.471  0.7851  0.3240 -0.8056
 5872SOL    HW229250   4.626   2.926  17.348 -0.4812  0.3884 -0.6056
 5873SOL     OW29251   3.142   2.127   2.427  0.2969 -0.6284  0.0687
 5873SOL    HW129252   3.216   2.153   2.483  0.3643  1.2934 -0.9010
 5873SOL    HW229253   3.166   2.036   2.414 -1.1837 -1.3965  2.7841
 5874SOL     OW29254   1.933   3.542  15.120  0.1161  0.1669 -0.1187
 5874SOL    HW129255   1.974   3.567  15.037 -0.6643 -0.7542 -0.7735
 5874SOL    HW229256   1.841   3.557  15.097 -0.1244  1.6958  1.8408
 5875SOL     OW29257   3.162   0.698   8.435  0.4911  0.7643 -0.2144
 5875SOL    HW129258   3.095   0.765   8.449 -1.5015 -1.0871 -0.8562
 5875SOL    HW229259   3.240   0.752   8.427  0.3713  0.6324 -2.2873
 5876SOL     OW29260   1.710   3.028   5.666 -0.2608 -0.0905  0.2572
 5876SOL    HW129261   1.660   2.956   5.628  1.1039 -1.3369  0.8073
 5876SOL    HW229262   1.798   2.991   5.661 -0.5679 -1.0099  1.5969
 5877SOL     OW29263   2.306   2.953   3.753 -0.1405 -0.2277  0.4425
 5877SOL    HW129264   2.286   3.019   3.686  3.1374  1.1089  0.7717
 5877SOL    HW229265   2.362   2.891   3.707 -0.2105  0.7017 -0.9043
 5878SOL     OW29266   0.833   0.251   6.224 -0.4120 -0.1083  0.1757
 5878SOL    HW129267   0.749   0.268   6.267  0.5378  2.1523  1.0871
 5878SOL    HW229268   0.820   0.307   6.147  2.4822  1.3310  0.7458
 5879SOL     OW29269   1.483   1.335   5.820  0.1997  0.0812  0.1952
 5879SOL    HW129270   1.463   1.305   5.731 -1.4119  0.1113  0.5428
 5879SOL    HW229271   1.535   1.414   5.805 -0.9737  0.5443 -1.4346
 5880SOL     OW29272   3.491   2.652   0.141  0.2758 -0.4064  0.2540
 5880SOL    HW129273   3.550   2.582   0.170  0.8277 -0.2581 -0.5143
 5880SOL    HW229274   3.553   2.712   0.101  2.3101 -1.6989  1.4932
 5881SOL     OW29275   3.360   4.691  16.503 -0.0837 -1.1781  0.5600
 5881SOL    HW129276   3.449   4.656  16.494  0.6122  0.1701  2.1715
 5881SOL    HW229277   3.339   4.650  16.587  0.5494 -2.2160  0.2209
 5882SOL     OW29278   1.366   0.565   9.130  0.2688 -0.1525  0.3004
 5882SOL    HW129279   1.364   0.661   9.136 -0.0401 -0.0698 -1.0884
 5882SOL    HW229280   1.287   0.543   9.181 -1.5946  1.9140 -1.7169
 5883SOL     OW29281   2.702   2.289   7.678  0.9080 -0.3278  0.0554
 5883SOL    HW129282   2.652   2.368   7.661  0.5408 -0.9289 -1.6661
 5883SOL    HW229283   2.711   2.259   7.587 -0.8327 -1.6042  0.2969
 5884SOL     OW29284   2.420   0.899   6.068 -0.5506  0.0480 -0.5326
 5884SOL    HW129285   2.420   0.803   6.078  0.1243  0.0852 -0.2126
 5884SOL    HW229286   2.405   0.895   5.973  1.4666 -3.6460 -0.7094
 5885SOL     OW29287   4.388   1.537   5.999  0.2685  0.4355 -0.3717
 5885SOL    HW129288   4.397   1.571   6.088 -0.4404  1.5782 -0.7206
 5885SOL    HW229289   4.403   1.443   6.001  1.6454  0.6609 -0.2171
 5886SOL     OW29290   2.134   2.552   6.990 -0.0451 -0.9294  0.3394
 5886SOL    HW129291   2.219   2.517   7.015  0.4268  1.0498  1.5458
 5886SOL    HW229292   2.145   2.644   7.016 -2.6307 -0.5723  0.1659
 5887SOL     OW29293   0.541   2.196   8.000  0.3403 -0.5587 -0.1360
 5887SOL    HW129294   0.631   2.165   8.003  0.5775  0.2037  0.5475
 5887SOL    HW229295   0.549   2.283   7.961  0.8387 -0.6715 -0.2819
 5888SOL     OW29296   1.353   2.231   4.786 -0.2404 -0.0003 -0.4231
 5888SOL    HW129297   1.418   2.179   4.739  0.7859  1.7165 -0.9136
 5888SOL    HW229298   1.380   2.318   4.755  0.7413 -0.6214 -1.3341
 5889SOL     OW29299   2.385   2.408   6.104 -0.0602  0.0549  0.0457
 5889SOL    HW129300   2.306   2.463   6.100  1.1212  1.5960 -1.9644
 5889SOL    HW229301   2.379   2.373   6.193 -1.3221 -2.7028 -1.1110
 5890SOL     OW29302   3.263   2.696   5.888 -0.0874 -0.4674  0.3499
 5890SOL    HW129303   3.220   2.781   5.882 -0.2853 -0.4388  2.1820
 5890SOL    HW229304   3.214   2.661   5.962 -0.7968 -1.8826 -0.8007
 5891SOL     OW29305   0.168   1.730  15.153 -0.3371  0.5315  0.1388
 5891SOL    HW129306   0.216   1.793  15.099 -1.0967  0.1409 -1.0095
 5891SOL    HW229307   0.228   1.656  15.161 -1.0449 -0.1044 -0.3254
 5892SOL     OW29308   1.842   3.478  14.084  0.5792  0.4355 -0.4552
 5892SOL    HW129309   1.776   3.542  14.058  1.6072  1.5324 -0.3801
 5892SOL    HW229310   1.835   3.420  14.008  0.4066 -0.0541 -0.0602
 5893SOL     OW29311   0.609   2.405  17.734  0.5451 -0.5281 -0.4853
 5893SOL    HW129312   0.699   2.436  17.721 -0.5288  2.0155 -1.6853
 5893SOL    HW229313   0.609   2.323  17.683  1.5109 -0.0057 -1.3313
 5894SOL     OW29314   3.482   1.727   1.431  0.0465  0.0099 -0.3695
 5894SOL    HW129315   3.394   1.764   1.425  0.5246  1.1072 -0.6618
 5894SOL    HW229316   3.530   1.794   1.481  0.1285 -0.3529  0.0335
 5895SOL     OW29317   1.709   4.384   2.175  0.1852  0.4862  0.6120
 5895SOL    HW129318   1.651   4.457   2.155  0.3963  0.9480  1.6695
 5895SOL    HW229319   1.762   4.410   2.250  1.5568 -2.8639  0.8077
 5896SOL     OW29320   2.178   1.623   0.672 -0.8208 -0.8639 -0.0871
 5896SOL    HW129321   2.235   1.546   0.679  0.1311 -0.0403  1.1263
 5896SOL    HW229322   2.212   1.684   0.737 -1.6956  2.5035 -2.8017
 5897SOL     OW29323   1.719   3.365   4.646  0.4257  0.5110 -0.4245
 5897SOL    HW129324   1.640   3.340   4.597  0.2985 -2.0042  1.0131
 5897SOL    HW229325   1.784   3.315   4.598  0.6154  0.8994 -0.5704
 5898SOL     OW29326   2.430   1.803   7.225 -0.2064 -0.2148 -0.3073
 5898SOL    HW129327   2.494   1.808   7.295 -0.0432 -1.2566 -0.3758
 5898SOL    HW229328   2.467   1.752   7.152  0.4506  0.0766 -0.1712
 5899SOL     OW29329   0.082   1.346  13.829  0.2753  0.1922  0.6105
 5899SOL    HW129330   0.033   1.329  13.748 -2.3144  0.9987  2.0118
 5899SOL    HW229331   0.037   1.424  13.862 -2.4245  0.3258 -3.3886
 5900SOL     OW29332   3.951   4.100   5.827  0.3774 -0.0738  0.6226
 5900SOL    HW129333   3.866   4.119   5.868  1.0903  3.5517  0.4052
 5900SOL    HW229334   3.921   4.029   5.769 -0.9127 -2.0484  3.6934
 5901SOL     OW29335   3.269   4.533   9.627  0.2831  0.3633  0.1433
 5901SOL    HW129336   3.185   4.497   9.655 -1.3330  3.6158 -0.4347
 5901SOL    HW229337   3.319   4.503   9.703 -0.4685  0.1706  0.5564
 5902SOL     OW29338   2.619   4.162   8.034 -0.0602 -0.0262 -0.5446
 5902SOL    HW129339   2.674   4.084   8.036 -0.4550 -0.2998 -0.2147
 5902SOL    HW229340   2.554   4.142   7.966 -1.8254 -1.4256  1.5504
 5903SOL     OW29341   1.009   3.238  13.794  0.2670  0.4669 -0.0302
 5903SOL    HW129342   1.093   3.261  13.835  0.5538 -1.1435  0.2610
 5903SOL    HW229343   1.025   3.144  13.788  1.0209  0.3960  2.8186
 5904SOL     OW29344   4.039   0.693   1.048  0.0197 -0.1002  0.1432
 5904SOL    HW129345   4.059   0.600   1.039 -1.8436 -0.7035  2.1895
 5904SOL    HW229346   4.118   0.699   1.101 -0.3791  1.6548  0.5586
 5905SOL     OW29347   2.310   3.768   5.999  0.4517 -0.0601 -0.3113
 5905SOL    HW129348   2.368   3.809   5.935 -0.0343 -0.8356 -1.2378
 5905SOL    HW229349   2.325   3.830   6.071  1.2228  1.5306 -1.8416
 5906SOL     OW29350   2.413   2.307   5.868  0.1406 -0.5621 -0.1434
 5906SOL    HW129351   2.430   2.309   5.962 -3.4007 -0.0999  0.4854
 5906SOL    HW229352   2.402   2.400   5.847  0.8336 -0.7332 -1.2722
 5907SOL     OW29353   3.247   4.150   8.618 -0.1937 -0.0862  0.1643
 5907SOL    HW129354   3.166   4.194   8.592 -0.7362 -0.5665  1.0351
 5907SOL    HW229355   3.256   4.103   8.535 -0.8910 -0.7549  0.4576
 5908SOL     OW29356   1.242   0.469  17.365  0.0894  0.0370  0.4949
 5908SOL    HW129357   1.336   0.471  17.381 -0.2265 -0.6892  2.4350
 5908SOL    HW229358   1.238   0.432  17.277  1.4811  0.8069  0.1056
 5909SOL     OW29359   4.590   0.033   9.684  0.0700 -0.5686 -0.2037
 5909SOL    HW129360   4.667   4.729   9.726  1.9808  2.6253 -0.6561
 5909SOL    HW229361   4.546   0.076   9.757  2.4670 -0.9758  1.5201
 5910SOL     OW29362   2.218   4.211  16.402  0.3585  0.2910 -0.1485
 5910SOL    HW129363   2.290   4.180  16.458  0.1515  1.7527  0.9468
 5910SOL    HW229364   2.217   4.304  16.426  2.6862 -0.7062  3.9269
 5911SOL     OW29365   1.592   2.795   8.722 -0.2376  0.0759 -0.7775
 5911SOL    HW129366   1.550   2.778   8.807  0.9802 -0.0222 -0.1982
 5911SOL    HW229367   1.616   2.887   8.734 -2.3160  0.4201  0.8952
 5912SOL     OW29368   0.957   2.425   8.323 -0.0514  0.1298  0.3193
 5912SOL    HW129369   1.033   2.461   8.369  0.7083 -2.0289  0.7248
 5912SOL    HW229370   0.881   2.456   8.373 -0.6542  0.2303 -0.6604
 5913SOL     OW29371   4.570   1.356   7.602 -0.3574  0.5005 -0.0979
 5913SOL    HW129372   4.550   1.263   7.613  0.3043  0.3718  0.0040
 5913SOL    HW229373   4.503   1.377   7.536 -1.0257 -0.8989  0.1356
 5914SOL     OW29374   0.140   1.320   7.573  0.5440 -0.3387  0.4289
 5914SOL    HW129375   0.127   1.399   7.626  0.3881 -0.4588  0.5672
 5914SOL    HW229376   0.058   1.318   7.525  1.2656 -0.3599 -0.7937
 5915SOL     OW29377   0.615   4.674  16.642 -0.6342 -0.5633 -0.0290
 5915SOL    HW129378   0.526   4.650  16.616 -1.6657  1.6051  1.5460
 5915SOL    HW229379   0.608   0.032  16.625  2.5602 -0.4507 -0.8462
 5916SOL     OW29380   4.595   2.242   4.349 -0.3977 -0.0616 -0.1066
 5916SOL    HW129381   4.587   2.335   4.327 -1.2377 -0.8125 -2.9969
 5916SOL    HW229382   4.652   2.222   4.276  0.4794 -0.6781  0.7476
 5917SOL     OW29383   4.731   3.673   3.911 -0.3187  0.4841  0.4944
 5917SOL    HW129384   0.059   3.670   3.840 -1.6025  0.6134 -0.6691
 5917SOL    HW229385   0.052   3.702   3.982 -0.9463  0.1508  1.1333
 5918SOL     OW29386   4.288   1.979   6.196  0.0957  0.3198  0.0212
 5918SOL    HW129387   4.347   1.972   6.120  1.5623 -2.5527  1.4559
 5918SOL    HW229388   4.225   1.909   6.179  1.7969 -1.0036 -0.8263
 5919SOL     OW29389   2.020   1.467  11.486  0.2116 -0.2789  0.3261
 5919SOL    HW129390   1.956   1.536  11.470  0.0654 -0.1320  1.5598
 5919SOL    HW229391   2.099   1.517  11.467 -0.0277 -0.3570 -0.8934
 5920SOL     OW29392   0.782   2.965   7.097 -0.5912  0.1533  0.2706
 5920SOL    HW129393   0.781   3.060   7.086  0.5411  0.2587  1.1359
 5920SOL    HW229394   0.826   2.954   7.181  1.1743 -0.7909 -0.7735
 5921SOL     OW29395   1.072   2.094   6.842 -0.0633  0.2552  0.6481
 5921SOL    HW129396   1.002   2.065   6.900 -1.3226 -1.1699 -1.5993
 5921SOL    HW229397   1.095   2.174   6.890  1.8151  0.9481 -1.4263
 5922SOL     OW29398   4.543   4.444  13.702  0.4609 -0.2522 -0.4404
 5922SOL    HW129399   4.514   4.487  13.782 -1.4236 -0.5120 -0.9913
 5922SOL    HW229400   4.614   4.393  13.743  0.4171  0.9682  1.1692
 5923SOL     OW29401   3.903   0.842  17.310  0.0462 -0.3393  0.2984
 5923SOL    HW129402   3.879   0.917  17.363 -0.9753 -0.8175  0.5159
 5923SOL    HW229403   3.985   0.875  17.273  1.2441 -0.6395  2.6985
 5924SOL     OW29404   2.120   2.562   6.077  0.0344 -0.4479  0.3502
 5924SOL    HW129405   2.048   2.621   6.056 -0.2374 -0.5155  1.0949
 5924SOL    HW229406   2.178   2.627   6.116 -0.0690  0.2081 -0.5912
 5925SOL     OW29407   0.973   3.072   4.366  0.6946  0.3568  0.7993
 5925SOL    HW129408   0.898   3.022   4.396  0.7530 -0.3833 -0.3094
 5925SOL    HW229409   1.016   3.085   4.451  1.3898 -0.1579  0.5324
 5926SOL     OW29410   2.427   3.154   6.440  0.1020 -0.4911  0.7624
 5926SOL    HW129411   2.338   3.119   6.435 -0.0845  0.1560 -0.6305
 5926SOL    HW229412   2.406   3.238   6.399 -0.1687 -0.3320  1.2294
 5927SOL     OW29413   0.980   0.848   8.767  0.1416 -0.1468 -0.3284
 5927SOL    HW129414   0.932   0.778   8.723 -1.1054  0.6889 -0.2918
 5927SOL    HW229415   1.041   0.796   8.819 -0.0581  1.9219  1.9920
 5928SOL     OW29416   0.803   0.145   7.635 -0.0974  0.6111 -0.2465
 5928SOL    HW129417   0.843   0.226   7.666  0.4967  0.6472 -1.0968
 5928SOL    HW229418   0.752   0.182   7.564 -3.2606 -0.7558  1.3132
 5929SOL     OW29419   3.839   2.677   2.187  0.6188 -0.0636  0.8806
 5929SOL    HW129420   3.774   2.747   2.174 -1.1960 -2.3308 -2.2813
 5929SOL    HW229421   3.921   2.723   2.172  0.3415  0.4414  0.8992
 5930SOL     OW29422   0.604   2.657   3.025  0.4441  1.2117  0.0235
 5930SOL    HW129423   0.659   2.684   3.098  0.1992 -0.5756  0.8681
 5930SOL    HW229424   0.541   2.596   3.063  3.0606 -1.7311 -0.3301
 5931SOL     OW29425   1.623   2.334   1.201  0.3608 -0.4179 -0.3406
 5931SOL    HW129426   1.700   2.379   1.165  0.4619 -0.1404  0.2106
 5931SOL    HW229427   1.664   2.288   1.275  1.8985  1.7299  0.1463
 5932SOL     OW29428   4.535   2.212   1.524  0.0427  0.1702  0.0525
 5932SOL    HW129429   4.539   2.280   1.591 -0.3762  0.0929  0.1552
 5932SOL    HW229430   4.475   2.146   1.560  1.3710 -0.6345  0.8321
 5933SOL     OW29431   2.503   0.742  10.331  0.4988  0.0221  0.4114
 5933SOL    HW129432   2.436   0.674  10.337  1.5656 -1.0065  0.5459
 5933SOL    HW229433   2.491   0.778  10.243 -1.6254  0.1566  0.7677
 5934SOL     OW29434   3.993   0.823   2.536  0.0033 -0.1646  0.9680
 5934SOL    HW129435   3.943   0.904   2.536 -1.2853 -0.9804 -1.5058
 5934SOL    HW229436   4.056   0.842   2.606  0.2749  1.4192  0.2964
 5935SOL     OW29437   3.550   1.813   5.417 -0.2764  0.0579 -0.0566
 5935SOL    HW129438   3.517   1.761   5.344 -0.7442 -1.1697  1.0302
 5935SOL    HW229439   3.635   1.847   5.386 -1.5227  0.9981 -2.4351
 5936SOL     OW29440   2.634   2.802   7.222 -0.3735 -0.4432 -0.5219
 5936SOL    HW129441   2.711   2.747   7.204  0.0169 -0.7339  2.0340
 5936SOL    HW229442   2.669   2.885   7.188  1.1608 -1.8461 -2.3924
 5937SOL     OW29443   1.278   3.789  11.813  0.0392  0.2525  1.2143
 5937SOL    HW129444   1.249   3.742  11.736  1.9862  2.5365 -0.9374
 5937SOL    HW229445   1.258   3.722  11.879 -0.3581  0.8078  1.6681
 5938SOL     OW29446   2.927   2.406   2.150 -0.1953 -0.2578 -0.4276
 5938SOL    HW129447   2.858   2.468   2.128 -1.2930 -1.3712 -0.0987
 5938SOL    HW229448   3.013   2.447   2.161  0.1682 -0.9004 -0.8902
 5939SOL     OW29449   4.734   1.958   5.848  0.2115 -0.1085 -0.3215
 5939SOL    HW129450   4.679   1.880   5.860  0.2310 -0.1659 -0.6108
 5939SOL    HW229451   4.694   2.002   5.772 -1.1789  1.1520  1.1165
 5940SOL     OW29452   4.031   1.964   5.159 -0.7036 -0.2503  0.4243
 5940SOL    HW129453   3.935   1.965   5.157 -0.7068 -1.4788  0.0109
 5940SOL    HW229454   4.038   1.949   5.253  0.0214  1.4017  0.6172
 5941SOL     OW29455   3.490   2.767   3.948  0.4638 -1.1070  0.3206
 5941SOL    HW129456   3.570   2.727   3.913  2.5894  1.9547  1.6149
 5941SOL    HW229457   3.429   2.756   3.876  1.2831 -1.1132 -0.3663
 5942SOL     OW29458   3.676   1.428   3.419  0.7261  0.0454  0.2392
 5942SOL    HW129459   3.695   1.462   3.507 -1.3622  0.3977  0.5651
 5942SOL    HW229460   3.659   1.511   3.375  0.4933  0.2324  0.6763
 5943SOL     OW29461   0.229   3.324   4.215 -0.3465 -0.1227 -0.7898
 5943SOL    HW129462   0.251   3.375   4.293 -3.1475  0.9206 -0.6960
 5943SOL    HW229463   0.161   3.380   4.178 -1.7291 -0.5989  1.0148
 5944SOL     OW29464   0.922   0.490   6.748 -0.2696 -0.6977  0.1643
 5944SOL    HW129465   0.933   0.471   6.655 -0.6401 -1.3057  0.2437
 5944SOL    HW229466   0.828   0.486   6.763 -0.1438 -0.4520  1.0312
 5945SOL     OW29467   0.920   2.466  17.040 -0.3301  0.0949 -0.8862
 5945SOL    HW129468   1.006   2.451  17.000  0.6115  1.2947  0.6265
 5945SOL    HW229469   0.919   2.557  17.010  0.6925  0.1136 -0.8657
 5946SOL     OW29470   1.395   2.920  11.794  0.2824 -0.1478  0.8136
 5946SOL    HW129471   1.474   2.924  11.740 -0.1569  0.5653  0.2377
 5946SOL    HW229472   1.435   2.935  11.880  0.4104 -0.6297  0.8417
 5947SOL     OW29473   3.333   3.289   8.422  0.1151 -0.1412  0.4040
 5947SOL    HW129474   3.360   3.212   8.471  1.7365  0.4601  0.4495
 5947SOL    HW229475   3.408   3.300   8.364 -0.7657 -0.9673 -0.9077
 5948SOL     OW29476   1.978   2.970   5.691 -0.4519  0.4299  0.0409
 5948SOL    HW129477   2.025   3.026   5.753 -1.7006  0.1723  1.2296
 5948SOL    HW229478   2.051   2.955   5.631 -1.7722 -1.5051 -1.0889
 5949SOL     OW29479   4.621   2.279  11.346 -0.6120 -0.3069  0.1734
 5949SOL    HW129480   4.569   2.237  11.414  0.7722 -1.5340  0.4706
 5949SOL    HW229481   4.558   2.267  11.276 -2.8367  1.7041  1.8434
 5950SOL     OW29482   1.259   0.858   6.571  0.1225 -0.1884  0.0846
 5950SOL    HW129483   1.328   0.803   6.536  0.0359 -0.3791  0.2174
 5950SOL    HW229484   1.174   0.838   6.532 -0.2946 -0.3213  1.0542
 5951SOL     OW29485   2.934   3.041  14.838  0.0042  0.5071  0.1080
 5951SOL    HW129486   3.006   3.070  14.894  0.1267 -0.3858  0.4065
 5951SOL    HW229487   2.983   3.039  14.755 -1.7168  3.7455 -0.9877
 5952SOL     OW29488   0.510   2.040   5.960 -0.4464  0.1530 -0.5278
 5952SOL    HW129489   0.520   2.135   5.956 -2.2885  0.5372  3.7717
 5952SOL    HW229490   0.445   2.033   6.030  0.2174  2.3433  0.2924
 5953SOL     OW29491   4.723   0.974   0.762 -0.5170  0.1216  0.2318
 5953SOL    HW129492   0.011   1.065   0.776  0.2970 -0.1293  0.4332
 5953SOL    HW229493   0.070   0.927   0.758  0.1878  1.2773  1.3679
 5954SOL     OW29494   2.006   0.907  14.592 -0.3014 -0.0384  0.1513
 5954SOL    HW129495   2.062   0.876  14.663  1.3634 -0.5221 -1.3946
 5954SOL    HW229496   1.974   0.824  14.557  0.2829 -0.6233  1.0138
 5955SOL     OW29497   0.215   3.793  12.492  0.3836  0.0969 -0.3499
 5955SOL    HW129498   0.260   3.826  12.413  1.2977  0.3099  0.2613
 5955SOL    HW229499   0.283   3.748  12.542  1.8063  3.9325  1.2030
 5956SOL     OW29500   1.039   3.312   2.519 -0.2518 -0.6573 -0.4362
 5956SOL    HW129501   1.094   3.299   2.596  0.4837 -1.1469 -1.0488
 5956SOL    HW229502   1.053   3.231   2.469  1.6538  0.2400 -1.3218
 5957SOL     OW29503   2.459   0.713   1.619 -0.8190 -0.0875  0.6258
 5957SOL    HW129504   2.424   0.625   1.631  1.5776 -1.0222  0.5930
 5957SOL    HW229505   2.376   0.757   1.638 -1.7333 -2.2893  1.6968
 5958SOL     OW29506   3.995   3.307   7.428  0.6758 -0.0774  0.5582
 5958SOL    HW129507   4.067   3.271   7.479 -0.1827 -0.1004  1.7644
 5958SOL    HW229508   4.041   3.365   7.367  0.3739  0.1934  0.5925
 5959SOL     OW29509   0.976   2.730  17.226  0.0528 -0.1273  0.2408
 5959SOL    HW129510   1.020   2.724  17.141 -0.7647 -0.6609 -0.1472
 5959SOL    HW229511   1.010   2.812  17.260 -0.0779  0.8469 -1.9587
 5960SOL     OW29512   0.614   4.149  15.196  0.6971 -0.0651  0.0503
 5960SOL    HW129513   0.684   4.112  15.142 -1.0321 -0.0018 -2.1744
 5960SOL    HW229514   0.595   4.224  15.140  0.1312  0.4215  0.8917
 5961SOL     OW29515   4.576   3.601   2.724  0.7128  0.4012 -0.4395
 5961SOL    HW129516   4.589   3.530   2.787 -3.7122  1.3779  1.5326
 5961SOL    HW229517   4.482   3.617   2.733  0.1306 -2.6258 -1.0945
 5962SOL     OW29518   4.716   1.715  16.118  0.1702  0.8939  0.3392
 5962SOL    HW129519   4.683   1.750  16.035  0.3970  0.7979  0.2083
 5962SOL    HW229520   4.712   1.797  16.167  1.1320  0.4778  1.1077
 5963SOL     OW29521   2.995   2.430   3.761 -0.6139  0.2422 -0.4491
 5963SOL    HW129522   2.998   2.395   3.672 -1.8827  0.3977 -0.5608
 5963SOL    HW229523   2.976   2.355   3.818 -0.8145 -0.4388 -1.4087
 5964SOL     OW29524   4.635   1.907   3.797  0.4234  0.1964 -0.2410
 5964SOL    HW129525   4.576   1.957   3.853  1.4561  0.7890  0.3100
 5964SOL    HW229526   4.679   1.980   3.753  1.3945 -0.6346 -0.6444
 5965SOL     OW29527   3.239   2.066  16.453 -0.0980  0.1865 -0.2828
 5965SOL    HW129528   3.314   2.115  16.484 -0.2972 -0.8189  1.7508
 5965SOL    HW229529   3.209   2.118  16.378 -0.9042  0.4909  0.2497
 5966SOL     OW29530   0.194   1.413  15.643  0.2038 -0.3208 -0.1572
 5966SOL    HW129531   0.267   1.471  15.663 -0.9057  1.7143 -2.0108
 5966SOL    HW229532   0.118   1.462  15.674  0.3476  0.2484 -0.6995
 5967SOL     OW29533   1.745   2.171   1.364  0.2409  0.3600  0.1678
 5967SOL    HW129534   1.731   2.152   1.457  1.9780  2.3185  0.8075
 5967SOL    HW229535   1.770   2.085   1.329 -0.6861  0.7023 -1.3751
 5968SOL     OW29536   1.253   0.367  14.967 -0.0528  0.1873  0.1228
 5968SOL    HW129537   1.235   0.392  14.877 -1.0142 -1.2507 -0.0838
 5968SOL    HW229538   1.294   0.282  14.950  1.9290  1.1036  0.2480
 5969SOL     OW29539   3.218   3.955   8.097 -0.4356 -0.2855 -0.6311
 5969SOL    HW129540   3.151   3.994   8.042 -1.3316 -3.2617 -1.6797
 5969SOL    HW229541   3.164   3.955   8.177 -0.3830 -1.3440 -0.5909
 5970SOL     OW29542   3.883   3.799   9.933  0.2061  0.4463 -0.5416
 5970SOL    HW129543   3.807   3.857   9.930  0.1798  0.3763 -1.1650
 5970SOL    HW229544   3.942   3.834   9.999  2.7546 -1.5708 -1.7504
 5971SOL     OW29545   1.216   3.115   4.954  0.6176  0.5213  0.1221
 5971SOL    HW129546   1.261   3.079   5.030  0.5700 -0.1188 -0.1462
 5971SOL    HW229547   1.200   3.205   4.981  1.7424  0.9682 -0.7079
 5972SOL     OW29548   2.412   0.283   4.144 -0.4883  0.2191  0.2680
 5972SOL    HW129549   2.469   0.207   4.152 -0.1419  0.5591  1.0453
 5972SOL    HW229550   2.355   0.261   4.071  0.4149 -1.3940  0.0374
 5973SOL     OW29551   2.299   1.518   4.699  0.4868  0.3400 -0.5868
 5973SOL    HW129552   2.348   1.437   4.684 -2.9952 -1.8264 -0.4756
 5973SOL    HW229553   2.368   1.576   4.668  0.4486  0.9962  0.6003
 5974SOL     OW29554   0.381   1.514   3.138  0.3040 -0.4128 -0.0322
 5974SOL    HW129555   0.433   1.445   3.179  0.0597  0.4884  1.8112
 5974SOL    HW229556   0.422   1.594   3.172 -1.9606  0.0618  1.5606
 5975SOL     OW29557   0.249   2.636  13.744 -0.1444 -0.1697 -1.1610
 5975SOL    HW129558   0.254   2.724  13.782  0.1531  0.1685 -1.9753
 5975SOL    HW229559   0.275   2.588  13.822 -1.2647  3.4017  1.4306
 5976SOL     OW29560   0.939   4.011   2.714  0.1215  0.4853 -0.2087
 5976SOL    HW129561   0.950   4.105   2.725 -2.2384  0.7614 -0.1900
 5976SOL    HW229562   1.022   3.979   2.748  0.2021  1.8742  0.9057
 5977SOL     OW29563   0.515   4.327  10.754 -0.0114 -0.1042  0.1654
 5977SOL    HW129564   0.441   4.330  10.814  0.8751  2.4653  1.1297
 5977SOL    HW229565   0.521   4.235  10.729  2.6306  0.3202 -0.7543
 5978SOL     OW29566   1.296   4.355   0.543 -0.6246  0.0805  0.0233
 5978SOL    HW129567   1.240   4.279   0.556  1.3507 -1.0865  1.7360
 5978SOL    HW229568   1.382   4.312   0.541  0.0534  1.4706 -0.5809
 5979SOL     OW29569   1.260   1.063   6.748 -0.1767 -0.3174  0.1887
 5979SOL    HW129570   1.264   0.970   6.725 -0.4948 -0.2079 -0.3062
 5979SOL    HW229571   1.195   1.057   6.818 -0.2428 -0.6101  0.1043
 5980SOL     OW29572   0.761   2.519   6.468  0.4144 -0.4235  0.1324
 5980SOL    HW129573   0.737   2.612   6.469  3.0065  0.2216  1.8865
 5980SOL    HW229574   0.796   2.521   6.379 -0.1881  1.0934 -0.0746
 5981SOL     OW29575   0.963   1.828   2.613 -0.0152 -0.2607 -0.1766
 5981SOL    HW129576   0.914   1.776   2.676  1.6644 -1.1334  0.4169
 5981SOL    HW229577   1.003   1.882   2.681 -1.9005  0.2276  0.5187
 5982SOL     OW29578   1.958   0.342   8.947  0.1946 -0.2853 -0.1681
 5982SOL    HW129579   2.018   0.349   8.872  0.3928  1.1517  0.1351
 5982SOL    HW229580   1.888   0.290   8.908 -0.9304  1.0304  0.0834
 5983SOL     OW29581   1.792   3.148  13.604  0.0040 -0.4022  0.1938
 5983SOL    HW129582   1.706   3.189  13.616 -0.8531 -2.0217 -0.5333
 5983SOL    HW229583   1.848   3.219  13.573  1.5980 -1.5370  0.4660
 5984SOL     OW29584   1.925   1.989   7.986 -0.3886 -0.5178 -0.0416
 5984SOL    HW129585   1.976   2.049   7.931 -0.5704  2.1553  2.7158
 5984SOL    HW229586   1.969   1.909   7.957 -0.5501 -0.6507  0.0835
 5985SOL     OW29587   2.378   0.580   8.602  0.2844 -0.0850 -0.7834
 5985SOL    HW129588   2.310   0.537   8.550  0.0777  1.5016 -1.8310
 5985SOL    HW229589   2.349   0.670   8.587 -2.1872 -0.5597  1.3402
 5986SOL     OW29590   4.129   1.662   5.432 -0.2138  0.4403  0.2055
 5986SOL    HW129591   4.119   1.575   5.394 -1.6243 -0.6099  3.0070
 5986SOL    HW229592   4.224   1.673   5.425  0.0534 -1.3354  1.0034
 5987SOL     OW29593   3.142   1.988   3.603  0.0101  0.1838 -0.1862
 5987SOL    HW129594   3.086   1.952   3.534  0.0477 -0.4807  0.1292
 5987SOL    HW229595   3.137   1.922   3.672  0.7549  0.3482  0.0234
 5988SOL     OW29596   3.144   0.831   6.627 -0.3182 -0.1148  0.2952
 5988SOL    HW129597   3.063   0.839   6.677 -0.3188 -1.6464  0.5561
 5988SOL    HW229598   3.139   0.904   6.565 -3.5151 -0.0875  0.5911
 5989SOL     OW29599   4.067   3.166   1.298  0.5503 -0.0280  0.2100
 5989SOL    HW129600   4.074   3.186   1.391 -1.6955 -1.6870  0.7506
 5989SOL    HW229601   4.160   3.150   1.287  0.6630  1.8581 -1.5362
 5990SOL     OW29602   4.301   1.228  15.540 -0.6633  0.1511  0.4546
 5990SOL    HW129603   4.241   1.157  15.562 -1.8347  1.0269  0.1125
 5990SOL    HW229604   4.346   1.223  15.624 -3.5171  0.0281  1.9772
 5991SOL     OW29605   1.832   0.211   5.821  0.2351 -0.5009  0.4336
 5991SOL    HW129606   1.795   0.127   5.792  0.9059 -0.7955  0.4368
 5991SOL    HW229607   1.892   0.219   5.746 -0.3177 -0.0017  0.0438
 5992SOL     OW29608   1.531   0.274  13.293 -0.3973 -0.1192  0.4951
 5992SOL    HW129609   1.486   0.356  13.273  0.3481  0.9049  3.0564
 5992SOL    HW229610   1.606   0.290  13.235 -0.3116  1.4062  1.0141
 5993SOL     OW29611   0.030   4.382   4.003 -0.0880  0.3927 -0.0005
 5993SOL    HW129612   0.019   4.295   4.040  2.9140 -0.8395 -1.9921
 5993SOL    HW229613   0.126   4.380   4.006 -0.1091  0.3536  0.8372
 5994SOL     OW29614   2.348   2.523   4.180 -0.9329  0.2004 -0.7798
 5994SOL    HW129615   2.283   2.459   4.151 -0.5205 -2.0904  3.2742
 5994SOL    HW229616   2.341   2.503   4.274 -2.0618  1.3184 -0.6299
 5995SOL     OW29617   0.858   2.102  15.310 -0.0968  0.1730 -0.0055
 5995SOL    HW129618   0.848   2.012  15.341 -0.4738  0.1101 -0.3155
 5995SOL    HW229619   0.782   2.112  15.253 -0.4496 -0.2185  0.3993
 5996SOL     OW29620   2.375   3.301   0.184  0.7948 -0.4112 -0.0207
 5996SOL    HW129621   2.451   3.336   0.137  1.5649  1.8444  2.8960
 5996SOL    HW229622   2.337   3.384   0.213 -1.5468 -1.1282 -1.0943
 5997SOL     OW29623   3.634   2.538   9.485 -0.1207  0.0584  0.4271
 5997SOL    HW129624   3.661   2.446   9.478  0.6908  0.2869  0.6450
 5997SOL    HW229625   3.540   2.519   9.490  0.0449 -0.4774  1.5965
 5998SOL     OW29626   2.623   4.431   5.810 -0.3226 -0.1773  0.0308
 5998SOL    HW129627   2.594   4.343   5.787  2.2989 -1.0042 -0.2066
 5998SOL    HW229628   2.695   4.414   5.871 -0.1080 -0.3689 -0.2746
 5999SOL     OW29629   3.341   1.456   9.326 -0.0494 -0.6633  1.2152
 5999SOL    HW129630   3.316   1.483   9.414 -1.0362  0.3924  0.6075
 5999SOL    HW229631   3.252   1.434   9.298  0.2922  0.0493 -0.3963
 6000SOL     OW29632   0.998   3.733  16.940  0.2233 -0.1304  0.1293
 6000SOL    HW129633   1.043   3.816  16.955  1.0154 -0.1826 -1.9117
 6000SOL    HW229634   1.073   3.676  16.960  1.8567  2.3427  1.0885
 6001SOL     OW29635   2.035   0.255   8.235 -0.0541 -0.1268 -0.3628
 6001SOL    HW129636   2.041   0.181   8.295  1.6068  0.9304  0.8002
 6001SOL    HW229637   2.039   0.205   8.154 -0.4119 -1.0756  0.2146
 6002SOL     OW29638   1.114   4.244  16.194  0.4331 -0.1117 -0.2807
 6002SOL    HW129639   1.115   4.169  16.254  1.9333 -1.6658 -2.2533
 6002SOL    HW229640   1.158   4.310  16.248  0.3495  1.8199 -2.5901
 6003SOL     OW29641   1.783   1.738  10.836 -0.0846  0.2871  0.0812
 6003SOL    HW129642   1.846   1.736  10.908  1.3192  0.9472 -1.1299
 6003SOL    HW229643   1.841   1.717  10.763 -0.2247 -0.5909  0.2244
 6004SOL     OW29644   1.234   0.257   3.101 -0.2087  0.9680  0.4707
 6004SOL    HW129645   1.175   0.187   3.129 -1.0529  0.6073 -2.2068
 6004SOL    HW229646   1.249   0.306   3.181  0.9597  2.8641 -0.9038
 6005SOL     OW29647   1.883   2.773   4.941 -0.2542 -0.5185 -0.2275
 6005SOL    HW129648   1.926   2.850   4.903 -0.3683 -0.8203 -0.9669
 6005SOL    HW229649   1.816   2.814   4.995  0.9288  1.3774 -0.1856
 6006SOL     OW29650   2.017   3.172   8.804  0.1482 -0.5615  0.3170
 6006SOL    HW129651   1.949   3.106   8.787 -1.0957  0.6926  0.4590
 6006SOL    HW229652   1.994   3.218   8.885  1.4827 -0.5579  0.6876
 6007SOL     OW29653   4.297   0.125   8.187  0.1625 -0.4499  0.1073
 6007SOL    HW129654   4.276   0.061   8.255  0.1537 -2.4183 -1.7557
 6007SOL    HW229655   4.292   0.200   8.247  1.4371  2.2236 -3.1406
 6008SOL     OW29656   1.456   2.961   2.753  0.2643  0.3026 -0.0981
 6008SOL    HW129657   1.523   3.028   2.742  1.3970 -0.6176  1.1564
 6008SOL    HW229658   1.414   2.960   2.667  0.8682 -0.3328 -0.3960
 6009SOL     OW29659   1.728   4.579   2.797  0.3256  0.0069  0.2717
 6009SOL    HW129660   1.690   4.547   2.879 -0.4139  0.8725  0.2811
 6009SOL    HW229661   1.797   4.514   2.787 -1.1436 -1.7364  1.4458
 6010SOL     OW29662   3.207   4.147   6.337  0.3811 -0.1764  0.1353
 6010SOL    HW129663   3.275   4.081   6.325  0.0571 -1.1758  3.7326
 6010SOL    HW229664   3.138   4.110   6.282  0.1197 -0.0388  0.3665
 6011SOL     OW29665   3.020   4.074   7.947 -0.2020  0.1469  0.0442
 6011SOL    HW129666   2.963   4.131   7.999  0.0106  0.8855 -0.5278
 6011SOL    HW229667   2.956   4.045   7.881  0.2612 -0.5742 -0.0841
 6012SOL     OW29668   0.355   4.581   3.148 -0.4243 -0.0322  0.0393
 6012SOL    HW129669   0.420   4.600   3.080  1.1122  1.3806  1.8921
 6012SOL    HW229670   0.412   4.604   3.222 -2.0234 -2.2558  1.9631
 6013SOL     OW29671   3.748   2.565  15.770  0.5902  0.1586 -0.1350
 6013SOL    HW129672   3.837   2.536  15.749  0.3806  0.1235 -0.9983
 6013SOL    HW229673   3.744   2.520  15.854 -3.0455 -0.4424 -0.6123
 6014SOL     OW29674   1.325   0.681   8.810 -0.1924  0.4336  0.0491
 6014SOL    HW129675   1.303   0.755   8.866  2.5453  0.7258  0.7103
 6014SOL    HW229676   1.419   0.665   8.819 -0.3830  0.0424  1.3147
 6015SOL     OW29677   0.528   0.542   3.166 -0.5310 -0.3642  0.4388
 6015SOL    HW129678   0.552   0.450   3.173 -1.3789 -0.5160  1.3897
 6015SOL    HW229679   0.449   0.546   3.219  0.5800 -0.4447  2.0975
 6016SOL     OW29680   2.741   3.072   4.170  0.0187 -0.2775  0.6990
 6016SOL    HW129681   2.684   3.029   4.107  1.0406 -0.1043 -0.3322
 6016SOL    HW229682   2.681   3.134   4.212  0.9940  0.1706  1.4474
 6017SOL     OW29683   3.738   0.749   6.558  0.4778  0.6680 -0.4838
 6017SOL    HW129684   3.677   0.696   6.608 -0.4535  1.9200 -0.2779
 6017SOL    HW229685   3.682   0.784   6.488 -0.2376 -1.0345 -0.7494
 6018SOL     OW29686   0.877   4.048   3.499 -0.4187  0.4215  0.1656
 6018SOL    HW129687   0.831   4.103   3.435  2.2583 -1.0850 -3.0434
 6018SOL    HW229688   0.894   4.105   3.574 -2.2821  2.8827 -1.2650
 6019SOL     OW29689   4.138   0.885   6.356 -0.6534 -0.3770  0.2743
 6019SOL    HW129690   4.177   0.967   6.328 -2.1226 -0.5686 -2.3829
 6019SOL    HW229691   4.046   0.902   6.335 -0.1085  1.7709 -0.2856
 6020SOL     OW29692   2.490   3.351   3.813  0.3840  0.4313  0.0944
 6020SOL    HW129693   2.422   3.322   3.752  0.7539  0.9616 -0.5786
 6020SOL    HW229694   2.449   3.322   3.894  1.7417  1.6642  1.2331
 6021SOL     OW29695   4.119   3.229   6.421  0.0949 -0.0090  0.5562
 6021SOL    HW129696   4.173   3.172   6.367  0.0467  0.3197  0.1597
 6021SOL    HW229697   4.113   3.312   6.373 -0.8438 -0.1341  0.4576
 6022SOL     OW29698   1.444   2.712   1.974  0.7548  0.0449  0.0330
 6022SOL    HW129699   1.538   2.696   1.961  0.9677  1.7958 -0.6115
 6022SOL    HW229700   1.403   2.670   1.898  0.1771  0.6736  0.0013
 6023SOL     OW29701   4.572   4.413   3.120 -0.1187  0.6853  0.3323
 6023SOL    HW129702   4.491   4.361   3.115  0.3133 -0.0799  1.1310
 6023SOL    HW229703   4.552   4.461   3.201  1.2851  1.4441  0.2238
 6024SOL     OW29704   3.249   0.554   6.951  0.3044 -0.4117  0.0933
 6024SOL    HW129705   3.160   0.527   6.927 -0.2471 -1.0967  2.8659
 6024SOL    HW229706   3.240   0.638   6.996  1.8401  0.6833 -1.6801
 6025SOL     OW29707   4.319   3.310   1.686  0.1388  0.5095  0.6455
 6025SOL    HW129708   4.412   3.288   1.685  0.0123 -0.0197  0.6114
 6025SOL    HW229709   4.313   3.330   1.779 -0.8788 -0.8443  0.8752
 6026SOL     OW29710   4.668   0.987   2.390 -0.7399  0.1423  0.4441
 6026SOL    HW129711   4.734   1.056   2.386 -0.1073 -0.6328 -2.0091
 6026SOL    HW229712   4.716   0.905   2.393 -0.8733  0.0683  0.5529
 6027SOL     OW29713   2.140   2.352   4.149  0.8260 -0.2262  0.0488
 6027SOL    HW129714   2.196   2.276   4.166 -0.8861 -1.7350 -1.0388
 6027SOL    HW229715   2.050   2.326   4.167  0.7797 -0.9858 -1.3056
 6028SOL     OW29716   0.356   2.555   0.469  0.2143 -0.0773 -1.1946
 6028SOL    HW129717   0.443   2.536   0.435  0.7579 -0.7920  0.6193
 6028SOL    HW229718   0.330   2.463   0.477  0.4632  0.0237  0.9168
 6029SOL     OW29719   1.490   1.440   5.210  0.3835 -0.1680  0.3837
 6029SOL    HW129720   1.405   1.472   5.241  1.1068  2.6327 -0.5553
 6029SOL    HW229721   1.471   1.438   5.116 -0.7802 -0.7950  0.6298
 6030SOL     OW29722   4.699   1.492   1.147 -0.2316  0.0232  0.5364
 6030SOL    HW129723   4.682   1.472   1.055  0.3835  0.4476  0.3307
 6030SOL    HW229724   0.004   1.578   1.144 -0.5092  0.2210  2.3504
 6031SOL     OW29725   1.545   0.693  12.916  0.1051 -0.2728  0.1292
 6031SOL    HW129726   1.584   0.775  12.888 -1.4429 -0.3606 -2.2408
 6031SOL    HW229727   1.621   0.636  12.903  1.6534  1.6491  0.7891
 6032SOL     OW29728   0.729   3.403   5.451 -0.5421 -0.0420 -0.1645
 6032SOL    HW129729   0.812   3.449   5.466 -0.6272 -0.4136  1.3937
 6032SOL    HW229730   0.667   3.474   5.467 -1.2568 -0.7455  0.1621
 6033SOL     OW29731   1.518   1.809   2.082  0.0967 -0.6282  0.2117
 6033SOL    HW129732   1.549   1.719   2.073  1.3375 -0.2496  0.6241
 6033SOL    HW229733   1.465   1.806   2.161 -2.0688  0.9328 -1.1812
 6034SOL     OW29734   0.947   1.179  11.596  0.4629  0.5295  0.1004
 6034SOL    HW129735   1.007   1.181  11.671  1.3703  2.4713 -0.6758
 6034SOL    HW229736   0.883   1.126  11.643 -1.2602  1.5868 -1.0478
 6035SOL     OW29737   4.401   3.594   8.034  0.4416  0.4236 -0.4042
 6035SOL    HW129738   4.422   3.610   8.126  0.0870  0.1015 -0.2721
 6035SOL    HW229739   4.415   3.682   7.999  1.5958  0.1496 -0.6604
 6036SOL     OW29740   0.432   3.141   3.021  0.2711 -0.8840 -0.4022
 6036SOL    HW129741   0.423   3.235   3.039 -1.4322 -1.0135 -0.6128
 6036SOL    HW229742   0.363   3.103   3.074  0.7971  0.1217  1.0206
 6037SOL     OW29743   3.984   1.231   8.743  0.2127  0.0784  1.0558
 6037SOL    HW129744   3.924   1.270   8.805  0.1421  0.9307  0.4527
 6037SOL    HW229745   3.994   1.143   8.779 -1.1916 -0.4053  0.2610
 6038SOL     OW29746   0.488   1.264   2.118  0.2969 -0.2901  0.0332
 6038SOL    HW129747   0.516   1.228   2.034  2.7557  2.1557 -0.2407
 6038SOL    HW229748   0.569   1.291   2.161 -0.4417  0.3291  1.0335
 6039SOL     OW29749   0.508   1.404   6.769 -0.3425  0.3008  0.2223
 6039SOL    HW129750   0.569   1.478   6.766  0.1239 -0.0508  1.1056
 6039SOL    HW229751   0.563   1.341   6.724 -0.7446 -1.5584  2.3646
 6040SOL     OW29752   2.151   3.361  11.652  0.4890 -0.5006  0.0025
 6040SOL    HW129753   2.200   3.336  11.730 -0.6646 -3.4917 -0.2286
 6040SOL    HW229754   2.198   3.441  11.629  0.3718 -0.2854  0.5164
 6041SOL     OW29755   0.963   3.321   0.812 -0.3060  0.2294  0.3504
 6041SOL    HW129756   1.003   3.235   0.827 -0.5171  0.1024  0.1904
 6041SOL    HW229757   0.950   3.325   0.717  3.0349  2.7225 -0.0138
 6042SOL     OW29758   1.090   0.745   9.014 -0.0151  0.5211  0.4374
 6042SOL    HW129759   1.168   0.769   9.063  0.9765  0.8689 -1.3317
 6042SOL    HW229760   1.084   0.652   9.036  3.4776  0.0294 -0.7422
 6043SOL     OW29761   0.972   3.163  14.160  0.0998  0.2666 -0.1339
 6043SOL    HW129762   0.964   3.258  14.170  1.6875  0.3873 -0.0165
 6043SOL    HW229763   0.901   3.131  14.105  0.3855  2.0771 -1.5262
 6044SOL     OW29764   0.750   3.233   0.543  0.0798  0.1754  0.4842
 6044SOL    HW129765   0.824   3.276   0.500 -1.4352  2.3455  0.0680
 6044SOL    HW229766   0.735   3.155   0.490  1.0049  1.2027 -1.2820
 6045SOL     OW29767   2.732   0.505   7.814  0.6674 -0.4891  0.3854
 6045SOL    HW129768   2.638   0.493   7.823  0.4709  2.0868  1.9170
 6045SOL    HW229769   2.759   0.429   7.866  2.8364 -0.3717 -0.5454
 6046SOL     OW29770   0.076   1.734   6.746 -0.8020  0.3356 -0.3331
 6046SOL    HW129771   0.045   1.752   6.658 -1.6265 -1.6165 -0.4378
 6046SOL    HW229772   0.046   1.811   6.794 -1.4695  0.3313 -0.7419
 6047SOL     OW29773   0.650   0.653   5.087  0.1617  0.5857 -0.6324
 6047SOL    HW129774   0.579   0.623   5.143 -0.4460 -2.1166 -2.8593
 6047SOL    HW229775   0.713   0.697   5.144 -0.1194 -0.2286  0.3163
 6048SOL     OW29776   2.224   3.918   3.524 -0.2065  0.1110  0.7162
 6048SOL    HW129777   2.136   3.956   3.511  0.5777  1.3036 -1.1609
 6048SOL    HW229778   2.210   3.830   3.557 -3.2500 -0.0247 -0.8466
 6049SOL     OW29779   3.302   0.746   7.149  0.2634 -0.1988 -0.4353
 6049SOL    HW129780   3.307   0.697   7.232  1.7212  0.1319 -0.3194
 6049SOL    HW229781   3.253   0.820   7.184 -0.7504 -2.3108  2.6950
 6050SOL     OW29782   0.418   4.050   3.388 -0.0801  0.4140  0.1900
 6050SOL    HW129783   0.511   4.038   3.367  0.0835  0.0270  1.1504
 6050SOL    HW229784   0.376   4.051   3.302 -2.1872  0.2222  1.2236
 6051SOL     OW29785   1.295   4.020  14.118  0.1035  0.1300 -0.6574
 6051SOL    HW129786   1.382   3.980  14.113  1.1322  2.2489  0.4749
 6051SOL    HW229787   1.296   4.055  14.207  0.1007 -0.2853 -0.4926
 6052SOL     OW29788   0.201   4.551   5.454  0.0137 -0.2939  0.4596
 6052SOL    HW129789   0.174   4.640   5.431  1.1380  0.0197  0.3740
 6052SOL    HW229790   0.237   4.518   5.372 -0.2451  0.8687 -0.1190
 6053SOL     OW29791   3.056   1.503   8.673 -0.1988 -0.9124 -0.0025
 6053SOL    HW129792   3.070   1.418   8.716 -2.0621  0.0573  2.5554
 6053SOL    HW229793   3.095   1.479   8.589  0.7866 -0.2228  0.2526
 6054SOL     OW29794   0.766   1.847  13.148 -0.0018  0.2667 -0.1623
 6054SOL    HW129795   0.798   1.765  13.110 -0.0882  0.1760 -0.0363
 6054SOL    HW229796   0.812   1.908  13.090 -0.5527  0.1673 -0.6952
 6055SOL     OW29797   4.147   1.980   8.554  0.7262  0.1811 -0.2801
 6055SOL    HW129798   4.174   2.072   8.544 -2.1278  1.2519  1.9740
 6055SOL    HW229799   4.235   1.943   8.555  0.6302 -0.0096  0.6698
 6056SOL     OW29800   0.170   3.184   4.660  0.1654 -0.1308 -0.1142
 6056SOL    HW129801   0.093   3.135   4.689 -0.2894  0.3276 -0.5612
 6056SOL    HW229802   0.144   3.249   4.595 -3.9451 -1.2418  0.4342
 6057SOL     OW29803   1.386   2.884   9.391  0.4354  0.1923 -0.5568
 6057SOL    HW129804   1.456   2.842   9.342  0.9487 -1.7801  1.8350
 6057SOL    HW229805   1.349   2.950   9.332 -0.2823 -0.3826 -0.7502
 6058SOL     OW29806   2.866   2.138   5.799 -0.0231 -0.0931 -0.0064
 6058SOL    HW129807   2.921   2.166   5.872  0.1080 -2.9675  0.9800
 6058SOL    HW229808   2.866   2.216   5.743  0.6702  1.1088  1.6774
 6059SOL     OW29809   2.072   3.492  16.687  0.1060  0.0500  0.2571
 6059SOL    HW129810   1.987   3.512  16.728 -1.4635 -1.7456 -2.1404
 6059SOL    HW229811   2.116   3.576  16.681  0.3663  0.0052  1.5698
 6060SOL     OW29812   0.742   1.278   5.317 -0.5145  0.3822 -0.4779
 6060SOL    HW129813   0.814   1.335   5.343 -0.0762  0.0788 -1.0393
 6060SOL    HW229814   0.786   1.201   5.279 -0.4188  0.2011  0.0049
 6061SOL     OW29815   3.481   4.716   2.110 -0.9120  0.3840 -0.0457
 6061SOL    HW129816   3.438   0.046   2.165 -1.6467 -0.7359  0.7398
 6061SOL    HW229817   3.449   4.642   2.162 -0.1793  1.8220  2.4883
 6062SOL     OW29818   3.158   0.345   3.029 -0.1310  0.6710 -0.5424
 6062SOL    HW129819   3.077   0.388   3.001 -0.2100 -0.7137 -2.4037
 6062SOL    HW229820   3.202   0.413   3.081  1.5793 -0.6226 -0.2739
 6063SOL     OW29821   3.249   2.359  17.677  0.4551  0.0025  0.2845
 6063SOL    HW129822   3.175   2.421  17.678  0.9432  0.5753  0.5774
 6063SOL    HW229823   3.221   2.288  17.619  1.6664  0.7070 -1.1936
 6064SOL     OW29824   2.243   3.034   6.865  0.0291 -0.1119 -0.4847
 6064SOL    HW129825   2.236   2.957   6.808  0.9223 -0.7267  0.2413
 6064SOL    HW229826   2.197   3.103   6.817 -2.0408 -1.8138 -0.9449
 6065SOL     OW29827   0.140   0.053  16.895 -0.0857  0.5820 -0.1602
 6065SOL    HW129828   0.079   0.003  16.841 -0.4780  1.2388 -0.3239
 6065SOL    HW229829   0.137   0.138  16.851  0.6863  0.2633 -0.8183
 6066SOL     OW29830   2.267   2.817  16.579 -0.3409 -0.4381 -0.3858
 6066SOL    HW129831   2.197   2.827  16.514  1.6929  0.0063 -2.5050
 6066SOL    HW229832   2.316   2.741  16.548 -1.3920 -1.5401  0.6181
 6067SOL     OW29833   1.259   4.178   7.254  0.6175 -0.1131  0.1435
 6067SOL    HW129834   1.314   4.232   7.198  0.9186  1.3543  1.8623
 6067SOL    HW229835   1.311   4.099   7.270 -1.3672 -1.1247  1.6543
 6068SOL     OW29836   0.164   0.054   7.841 -0.0176  0.4515 -0.4966
 6068SOL    HW129837   0.105   0.110   7.789  1.0183  0.5757 -1.5425
 6068SOL    HW229838   0.224   0.123   7.869 -1.6856  1.0647  1.5775
 6069SOL     OW29839   3.102   1.094   0.590  0.1282 -0.2716  0.2301
 6069SOL    HW129840   3.158   1.098   0.513 -1.3980  0.7200 -0.8286
 6069SOL    HW229841   3.027   1.044   0.558  1.1566 -1.1682 -0.7259
 6070SOL     OW29842   4.621   2.902   3.039 -0.1649 -0.1872 -0.5007
 6070SOL    HW129843   4.704   2.936   3.005 -1.8451  3.0089 -1.3766
 6070SOL    HW229844   4.655   2.830   3.091 -1.2707  0.3919  1.0266
 6071SOL     OW29845   4.127   0.072  10.709 -0.1458  0.7608  0.3500
 6071SOL    HW129846   4.037   0.051  10.734 -0.5405 -0.0442 -1.7611
 6071SOL    HW229847   4.124   0.162  10.740  0.9230  0.2974  1.8053
 6072SOL     OW29848   3.333   1.209  12.931  0.2485  0.0393 -0.2891
 6072SOL    HW129849   3.251   1.183  12.889  1.2670 -2.8218 -0.5163
 6072SOL    HW229850   3.384   1.264  12.871  0.0620 -0.7686 -1.1902
 6073SOL     OW29851   2.390   2.635   1.932  0.0369  0.1551 -0.1081
 6073SOL    HW129852   2.380   2.680   2.016  2.4401 -0.5693  0.5724
 6073SOL    HW229853   2.382   2.712   1.876  2.0407  0.4360 -0.0178
 6074SOL     OW29854   4.583   1.640  11.483  0.4946  0.2016 -0.3138
 6074SOL    HW129855   4.654   1.611  11.425 -0.1274  2.0086 -1.9469
 6074SOL    HW229856   4.526   1.701  11.437  0.4897  2.2358  2.4028
 6075SOL     OW29857   2.442   3.180   5.071  0.7495  0.7416 -0.0519
 6075SOL    HW129858   2.356   3.192   5.112  1.1818  1.3429  0.6995
 6075SOL    HW229859   2.492   3.238   5.129  2.1115 -0.1740 -0.3138
 6076SOL     OW29860   3.632   3.068   3.652  0.1372 -0.0302 -0.0627
 6076SOL    HW129861   3.687   2.992   3.639  0.3199  0.0929 -0.0040
 6076SOL    HW229862   3.544   3.031   3.663 -0.2939  1.2406  0.7727
 6077SOL     OW29863   2.201   1.668  11.519 -0.1077 -0.0231  0.3560
 6077SOL    HW129864   2.241   1.752  11.498 -0.7980  0.1986 -0.0625
 6077SOL    HW229865   2.272   1.640  11.577  1.1325  1.6854 -0.3461
 6078SOL     OW29866   1.669   4.305  16.987  0.5788  0.1439 -0.6122
 6078SOL    HW129867   1.733   4.376  16.989  1.0160 -0.2779  0.2776
 6078SOL    HW229868   1.716   4.241  17.040 -0.3116 -0.3888 -0.4736
 6079SOL     OW29869   3.320   0.414  10.915  0.9336 -0.0157 -0.2387
 6079SOL    HW129870   3.325   0.432  11.009 -0.8849 -1.6006  0.1486
 6079SOL    HW229871   3.297   0.321  10.910  1.9406 -0.3371  0.8704
 6080SOL     OW29872   0.091   1.407   9.939 -0.7678  0.4726 -0.6750
 6080SOL    HW129873   0.061   1.321   9.910  1.4260 -1.0929  1.7277
 6080SOL    HW229874   0.059   1.421  10.028  0.7810  2.3924 -0.4230
 6081SOL     OW29875   0.342   4.676   6.979  0.5160 -0.1540  0.3949
 6081SOL    HW129876   0.396   4.614   6.930  0.8946 -0.9335  1.8043
 6081SOL    HW229877   0.353   4.635   7.065 -1.4871 -1.2727  0.1333
 6082SOL     OW29878   4.470   3.260   7.305 -0.0367 -0.5081 -0.0415
 6082SOL    HW129879   4.561   3.255   7.335  0.7357 -0.7485 -2.3728
 6082SOL    HW229880   4.479   3.186   7.244  0.3352 -1.6474  1.4001
 6083SOL     OW29881   1.143   4.583   5.211 -0.2665 -0.4655  0.2178
 6083SOL    HW129882   1.058   4.587   5.168 -2.2629 -0.8758  4.1383
 6083SOL    HW229883   1.172   4.671   5.187 -0.3092 -0.3612  0.5532
 6084SOL     OW29884   3.119   3.820   4.229  0.4386 -0.1316  0.5600
 6084SOL    HW129885   3.070   3.885   4.177 -1.5614 -1.3609  0.8937
 6084SOL    HW229886   3.198   3.866   4.256  1.0911 -0.3214 -1.0642
 6085SOL     OW29887   1.168   1.352  10.920  0.6529 -0.0197  0.4509
 6085SOL    HW129888   1.125   1.426  10.963  0.0366  0.1533 -0.4581
 6085SOL    HW229889   1.098   1.286  10.920  0.6069  0.0591 -1.7868
 6086SOL     OW29890   4.180   1.562   7.163 -0.0216  0.1614 -0.2215
 6086SOL    HW129891   4.245   1.624   7.197  0.9453 -1.2656  0.5407
 6086SOL    HW229892   4.229   1.481   7.181  1.4502  0.7693 -1.4704
 6087SOL     OW29893   2.599   3.502  15.832  0.6253  0.4840  0.0844
 6087SOL    HW129894   2.512   3.468  15.813  0.7500  0.2460 -0.0667
 6087SOL    HW229895   2.647   3.492  15.750 -0.9312 -0.4781 -0.6982
 6088SOL     OW29896   1.842   1.786   6.355 -0.5702 -0.0416  0.4391
 6088SOL    HW129897   1.927   1.802   6.313 -0.0056  2.4635  2.5428
 6088SOL    HW229898   1.870   1.785   6.447  0.6067 -1.1736  0.0769
 6089SOL     OW29899   3.677   3.551  16.282 -0.6960 -0.5924  0.2608
 6089SOL    HW129900   3.657   3.592  16.198 -1.2359  0.2390  0.8024
 6089SOL    HW229901   3.697   3.626  16.338  0.1564 -0.8597  0.3181
 6090SOL     OW29902   2.729   1.281  13.851 -0.1054 -0.1962  0.0297
 6090SOL    HW129903   2.688   1.268  13.936 -0.1009  0.6358  0.1665
 6090SOL    HW229904   2.810   1.230  13.854  0.9305  1.3010 -2.1659
 6091SOL     OW29905   4.349   2.808   8.779 -0.0793  0.1361  0.5367
 6091SOL    HW129906   4.401   2.884   8.806  1.9071 -0.9672 -0.1694
 6091SOL    HW229907   4.365   2.740   8.845  0.0599 -0.4823 -0.1354
 6092SOL     OW29908   0.634   2.832   7.701  0.0593  0.1504 -0.1092
 6092SOL    HW129909   0.684   2.810   7.780 -1.7830 -0.3353  0.9311
 6092SOL    HW229910   0.683   2.907   7.669  1.5826 -0.5209  0.6395
 6093SOL     OW29911   0.403   1.984   7.915  0.4576 -0.5586 -0.2412
 6093SOL    HW129912   0.462   2.054   7.942 -1.3671  0.7307  0.4017
 6093SOL    HW229913   0.397   1.933   7.996 -2.5714 -0.1008 -0.1926
 6094SOL     OW29914   3.617   0.514   3.615 -0.5125 -0.0007 -0.4030
 6094SOL    HW129915   3.542   0.531   3.559 -0.5115 -1.3700 -0.8331
 6094SOL    HW229916   3.678   0.505   3.541 -1.3978 -1.2932 -0.9757
 6095SOL     OW29917   0.853   2.759   2.562 -0.4465  0.5488 -0.1217
 6095SOL    HW129918   0.838   2.677   2.516 -3.7875  1.5928 -0.8736
 6095SOL    HW229919   0.774   2.771   2.615 -2.0931 -2.3434 -1.9264
 6096SOL     OW29920   4.578   3.039   3.748 -0.5485 -0.5156 -0.7577
 6096SOL    HW129921   4.618   3.078   3.826 -0.7107 -1.6233 -0.1207
 6096SOL    HW229922   4.510   3.105   3.733 -0.3895 -0.3825 -0.8839
 6097SOL     OW29923   4.702   2.763   2.664  0.1047 -0.1305 -0.0092
 6097SOL    HW129924   4.699   2.727   2.753 -1.3027  0.8516  0.3325
 6097SOL    HW229925   0.042   2.722   2.623  1.6731  2.2692  0.4779
 6098SOL     OW29926   4.444   3.234   2.798  0.3915  0.0749 -0.0660
 6098SOL    HW129927   4.507   3.290   2.844  0.0567  1.9348 -1.8477
 6098SOL    HW229928   4.480   3.146   2.795 -0.0163 -0.0780 -0.4800
 6099SOL     OW29929   0.914   1.878   8.333 -0.3546  0.3252  0.0175
 6099SOL    HW129930   0.966   1.946   8.289 -1.1086 -0.1152 -1.5422
 6099SOL    HW229931   0.861   1.840   8.263 -2.5883  2.1291  0.7085
 6100SOL     OW29932   4.212   1.450  12.894  1.0700 -0.1023  0.4054
 6100SOL    HW129933   4.282   1.514  12.908  1.4532 -0.9557  2.4107
 6100SOL    HW229934   4.228   1.429  12.802  0.0589 -1.8652  0.6270
 6101SOL     OW29935   2.104   0.498   5.466  0.5571 -0.0983 -0.3188
 6101SOL    HW129936   2.190   0.463   5.442  0.2412  1.5702 -4.0045
 6101SOL    HW229937   2.099   0.580   5.416  4.0642  1.1022  1.3272
 6102SOL     OW29938   2.407   1.902   5.331  0.7671 -0.0656 -0.2609
 6102SOL    HW129939   2.342   1.856   5.385  1.7938  0.3261  1.2871
 6102SOL    HW229940   2.399   1.852   5.249  0.2048  0.3820 -0.4786
 6103SOL     OW29941   1.926   3.896   7.987  0.5424  0.4406  0.6979
 6103SOL    HW129942   1.844   3.938   7.964  1.6361  2.2367  0.1067
 6103SOL    HW229943   1.912   3.816   7.936  1.2469  2.5195 -2.7406
 6104SOL     OW29944   1.863   2.756   7.986  0.3924  0.2260 -0.1308
 6104SOL    HW129945   1.906   2.721   8.064  0.0844 -0.2789 -0.1857
 6104SOL    HW229946   1.940   2.799   7.950  0.5630  0.5694  0.6530
 6105SOL     OW29947   1.259   0.115   2.183  0.6987  0.4956  0.1844
 6105SOL    HW129948   1.276   0.206   2.208 -0.9008  0.9813 -0.4681
 6105SOL    HW229949   1.348   0.101   2.150  0.8357 -0.1335  0.8211
 6106SOL     OW29950   0.889   4.729  13.367  0.5514  0.0902  0.4095
 6106SOL    HW129951   0.823   0.061  13.368  0.6713  0.2072  0.2868
 6106SOL    HW229952   0.839   4.647  13.372  0.3032  0.2440  0.4699
 6107SOL     OW29953   4.341   0.163   4.393 -0.6546 -0.1619  0.3835
 6107SOL    HW129954   4.270   0.211   4.436 -2.3581 -2.1304 -0.2221
 6107SOL    HW229955   4.338   0.199   4.304 -0.8563 -1.0474  0.0310
 6108SOL     OW29956   0.565   1.596   7.084 -0.4823 -0.3095  0.7132
 6108SOL    HW129957   0.659   1.593   7.072 -0.6049 -0.4124 -0.2816
 6108SOL    HW229958   0.564   1.547   7.166 -1.3176  0.4660  1.1594
 6109SOL     OW29959   4.286   4.292   8.497 -0.6076 -0.0698 -0.3138
 6109SOL    HW129960   4.360   4.319   8.442 -0.7408  0.4634 -0.2309
 6109SOL    HW229961   4.220   4.263   8.434 -2.4667  0.7666  1.2457
 6110SOL     OW29962   0.876   1.486   7.971 -0.0390 -0.8171 -0.5140
 6110SOL    HW129963   0.957   1.471   7.922  0.4932  1.6896 -0.4107
 6110SOL    HW229964   0.816   1.421   7.933 -0.8882 -1.2750  1.6000
 6111SOL     OW29965   1.776   0.815   8.585  0.1886 -0.4066  0.9039
 6111SOL    HW129966   1.867   0.816   8.615  0.4129  1.2178  0.1817
 6111SOL    HW229967   1.789   0.772   8.501 -0.1007 -1.5003  1.4283
 6112SOL     OW29968   0.271   0.804   6.757 -0.3279  0.0537  0.4781
 6112SOL    HW129969   0.293   0.893   6.784 -2.5978  0.6192  0.5286
 6112SOL    HW229970   0.189   0.827   6.714  0.8910  3.1515 -0.1606
 6113SOL     OW29971   2.381   4.654  15.273  0.0243 -0.3710 -0.3391
 6113SOL    HW129972   2.460   4.699  15.305 -0.8600  0.2309  0.9902
 6113SOL    HW229973   2.417   4.575  15.233  0.4173  0.1585 -1.0334
 6114SOL     OW29974   0.427   2.427   6.886  0.2783  0.3611  0.0867
 6114SOL    HW129975   0.474   2.391   6.811  0.1667  3.6042 -1.5324
 6114SOL    HW229976   0.391   2.509   6.853  0.1502 -0.6070 -2.1294
 6115SOL     OW29977   2.424   4.205   3.178  0.9857 -0.1019 -0.1563
 6115SOL    HW129978   2.408   4.279   3.237  5.3171 -0.8250  1.9506
 6115SOL    HW229979   2.422   4.133   3.242  1.0701 -0.5711 -0.6868
 6116SOL     OW29980   0.598   3.052   2.818  0.2885 -0.2258  0.0655
 6116SOL    HW129981   0.557   3.105   2.750  0.9163 -0.5526 -0.5644
 6116SOL    HW229982   0.526   3.059   2.880  1.8041 -0.7049  1.8879
 6117SOL     OW29983   3.129   0.505   8.788  0.0569  0.0606  0.2816
 6117SOL    HW129984   3.152   0.440   8.722  0.4657 -1.2878  1.7696
 6117SOL    HW229985   3.208   0.547   8.822  0.8170 -1.1128 -0.0224
 6118SOL     OW29986   3.723   3.187  13.382  0.3716  0.6263 -0.2159
 6118SOL    HW129987   3.747   3.238  13.305  3.2409 -2.1986 -1.1619
 6118SOL    HW229988   3.797   3.181  13.442  1.3179  0.2379 -1.4524
 6119SOL     OW29989   1.414   0.840   3.495 -0.2102 -0.2724  0.1653
 6119SOL    HW129990   1.414   0.897   3.418 -1.6960  0.7502  0.9183
 6119SOL    HW229991   1.320   0.821   3.505 -0.6602  1.2873 -1.0553
 6120SOL     OW29992   1.846   4.086   4.371  0.2330  0.3455 -0.2376
 6120SOL    HW129993   1.791   4.164   4.362 -1.0848 -0.7753 -1.7462
 6120SOL    HW229994   1.782   4.026   4.409  0.7563 -1.0223 -1.5474
 6121SOL     OW29995   3.928   3.553  16.534  0.1819 -0.0361  0.1709
 6121SOL    HW129996   3.888   3.632  16.497  0.0658  0.2468  0.9041
 6121SOL    HW229997   3.853   3.494  16.525  0.0945  0.1302 -0.2289
 6122SOL     OW29998   0.366   1.392   6.358 -0.3928  0.0760 -0.3209
 6122SOL    HW129999   0.369   1.471   6.413  0.4719  0.9149 -1.5604
 6122SOL    HW230000   0.393   1.432   6.275 -1.7810  2.8313  0.5352
 6123SOL     OW30001   1.140   0.122  13.302  0.0320  0.1168  0.4567
 6123SOL    HW130002   1.120   0.164  13.386 -5.4374  2.2325 -1.9651
 6123SOL    HW230003   1.064   0.064  13.295  0.5774 -0.7215  1.4132
 6124SOL     OW30004   1.582   0.217  16.922 -0.4857 -0.7192 -0.3688
 6124SOL    HW130005   1.617   0.148  16.977  1.2520  0.4617 -0.0141
 6124SOL    HW230006   1.655   0.278  16.916  0.4377 -1.8348 -0.2779
 6125SOL     OW30007   2.050   2.575  17.119 -0.1013 -0.7673  0.4473
 6125SOL    HW130008   2.036   2.494  17.069  2.2931 -1.7967  1.4634
 6125SOL    HW230009   2.144   2.579  17.134  0.3102 -0.3083 -2.2572
 6126SOL     OW30010   4.600   1.571   2.936 -0.1370  0.5753  0.4590
 6126SOL    HW130011   4.504   1.571   2.934 -0.1438  3.8248  0.1052
 6126SOL    HW230012   4.619   1.564   3.030 -1.0325  0.0266  0.5977
 6127SOL     OW30013   4.496   3.084   5.895  0.0146 -0.4592 -0.1410
 6127SOL    HW130014   4.516   3.053   5.983  0.3681  1.3785  0.4295
 6127SOL    HW230015   4.401   3.076   5.908  0.2942 -1.4623  1.2646
 6128SOL     OW30016   4.202   2.333   7.339 -0.5442 -0.0386  0.0173
 6128SOL    HW130017   4.259   2.365   7.409 -2.6299  1.4216  1.0535
 6128SOL    HW230018   4.257   2.268   7.295  1.9783  0.1438  2.8922
 6129SOL     OW30019   1.123   3.317  11.841 -0.5806 -0.0103 -0.6460
 6129SOL    HW130020   1.087   3.363  11.765  2.8555 -0.7693 -2.7680
 6129SOL    HW230021   1.132   3.382  11.911 -1.9105  0.2963 -0.7565
 6130SOL     OW30022   2.797   4.293   9.538  0.0893 -0.1670 -0.3673
 6130SOL    HW130023   2.729   4.227   9.524 -0.1734  0.0850 -0.2676
 6130SOL    HW230024   2.734   4.357   9.568  0.2104 -0.6066  0.8293
 6131SOL     OW30025   0.195   0.624   2.313  0.1503 -0.0320  0.2918
 6131SOL    HW130026   0.266   0.687   2.300  0.6086 -0.8275 -1.0635
 6131SOL    HW230027   0.114   0.673   2.328  0.4372  0.6069 -0.3145
 6132SOL     OW30028   2.928   0.630   5.997  0.1570 -0.6655 -0.1233
 6132SOL    HW130029   2.880   0.594   5.923 -3.2978  3.1771  0.2467
 6132SOL    HW230030   2.950   0.721   5.978  0.3784 -1.1999 -2.4729
 6133SOL     OW30031   4.700   3.510   0.370  0.1430  0.2283 -0.1778
 6133SOL    HW130032   4.617   3.558   0.377 -0.7788 -1.4060 -0.0201
 6133SOL    HW230033   0.019   3.585   0.345  0.8491 -0.1088  0.3828
 6134SOL     OW30034   3.927   2.546   7.725 -0.5596  0.0775 -0.1317
 6134SOL    HW130035   3.881   2.614   7.775 -1.0752  0.0409 -0.5626
 6134SOL    HW230036   3.859   2.503   7.673  0.3766 -1.5398  0.0120
 6135SOL     OW30037   3.247   3.046   8.806 -0.2346  0.1917  0.0076
 6135SOL    HW130038   3.247   3.084   8.718  1.4210 -0.2167 -0.1707
 6135SOL    HW230039   3.198   2.964   8.789  0.6414  0.3162 -3.2222
 6136SOL     OW30040   2.952   1.438   0.963  0.2301  0.5071 -0.0811
 6136SOL    HW130041   2.977   1.373   0.897 -0.1681  0.5182 -0.2402
 6136SOL    HW230042   3.027   1.431   1.022 -0.5619 -0.2029  0.8361
 6137SOL     OW30043   3.718   0.683   2.574 -0.3504 -0.3448 -0.0015
 6137SOL    HW130044   3.776   0.629   2.520 -1.9254 -0.5673 -1.4613
 6137SOL    HW230045   3.776   0.692   2.649 -0.1272 -3.7769  0.2656
 6138SOL     OW30046   4.345   1.519   2.462  0.3459 -0.3685  0.0508
 6138SOL    HW130047   4.434   1.488   2.476  0.9850  1.3818 -0.0951
 6138SOL    HW230048   4.296   1.438   2.445  1.0973 -0.2890 -2.4653
 6139SOL     OW30049   2.747   0.569   1.840  0.0594 -0.2913  0.9150
 6139SOL    HW130050   2.738   0.499   1.775 -2.1295 -1.4342  2.4498
 6139SOL    HW230051   2.790   0.628   1.778  0.2319 -0.5904  0.7472
 6140SOL     OW30052   2.036   0.175   7.053 -0.2033  0.7093  0.2418
 6140SOL    HW130053   1.968   0.159   7.117 -2.6024  1.4291 -2.1341
 6140SOL    HW230054   1.987   0.176   6.970 -1.7482 -2.1939  1.1498
 6141SOL     OW30055   1.424   1.232   5.552 -0.0568 -0.0838 -0.3250
 6141SOL    HW130056   1.344   1.238   5.501 -0.3148 -2.5980 -0.2055
 6141SOL    HW230057   1.501   1.216   5.497 -0.8598  0.3688 -1.5692
 6142SOL     OW30058   2.764   2.967   6.586 -0.4235 -0.1152 -0.0719
 6142SOL    HW130059   2.782   2.964   6.680  2.5348 -3.1152 -0.7120
 6142SOL    HW230060   2.752   3.061   6.577 -0.0109  0.1728  2.2825
 6143SOL     OW30061   3.444   3.903  11.118  0.0323  0.1201  0.3928
 6143SOL    HW130062   3.537   3.903  11.096 -0.3187  1.3431 -1.0691
 6143SOL    HW230063   3.432   3.829  11.177 -1.0636  0.2273  0.3142
 6144SOL     OW30064   2.054   2.751   2.802  0.1333 -0.2077  0.7264
 6144SOL    HW130065   2.092   2.686   2.862 -2.1389 -2.4952 -0.3046
 6144SOL    HW230066   2.037   2.822   2.864  0.1835  0.6202 -0.2142
 6145SOL     OW30067   1.669   0.979  13.777 -0.4724 -0.2724 -0.5516
 6145SOL    HW130068   1.735   0.949  13.840 -0.7046 -1.7902 -1.0196
 6145SOL    HW230069   1.700   1.070  13.777  0.8275 -0.7133 -1.9846
 6146SOL     OW30070   3.734   3.648  10.914 -0.5489 -0.3708 -0.3116
 6146SOL    HW130071   3.677   3.648  10.838 -1.6467 -1.3698  0.5090
 6146SOL    HW230072   3.725   3.556  10.941  2.4686 -0.6206 -0.0984
 6147SOL     OW30073   0.929   3.321   3.524  0.0497 -0.1420 -0.2020
 6147SOL    HW130074   0.883   3.397   3.560  0.2916  0.1232 -0.4567
 6147SOL    HW230075   0.899   3.323   3.434 -1.4273  2.5380  0.3666
 6148SOL     OW30076   3.539   0.509  13.582 -0.6152 -0.1137  0.0303
 6148SOL    HW130077   3.446   0.528  13.566 -0.8172 -1.8882 -0.9062
 6148SOL    HW230078   3.547   0.420  13.548 -1.4375 -0.2649  0.2247
 6149SOL     OW30079   2.099   1.983  11.689  0.1191 -0.3351 -0.4613
 6149SOL    HW130080   2.021   1.929  11.687 -1.4386  1.9312 -0.9869
 6149SOL    HW230081   2.149   1.942  11.619  0.4290  1.6112 -1.3946
 6150SOL     OW30082   0.275   0.261  16.555  0.4755  0.0018  0.3938
 6150SOL    HW130083   0.223   0.291  16.630  0.6636  0.8376  0.1893
 6150SOL    HW230084   0.272   0.335  16.494  1.5455 -0.9424 -0.8035
 6151SOL     OW30085   1.924   1.478   0.734 -0.4494  0.2376 -0.1279
 6151SOL    HW130086   1.926   1.536   0.657 -3.6871 -0.3524 -0.6580
 6151SOL    HW230087   1.866   1.407   0.709  1.3887 -0.8329 -1.4126
 6152SOL     OW30088   0.896   0.192  17.668  0.3573 -0.1564  0.8904
 6152SOL    HW130089   0.964   0.235  17.615 -0.2920 -0.1695  0.0412
 6152SOL    HW230090   0.915   0.222   0.014  0.4440  1.2067  0.4027
 6153SOL     OW30091   4.723   0.873   6.424 -0.5285 -0.1643 -0.5809
 6153SOL    HW130092   4.639   0.849   6.384 -0.3385  1.4014 -1.9269
 6153SOL    HW230093   4.697   0.882   6.516  0.6723 -0.4684 -0.2156
 6154SOL     OW30094   2.154   0.147   7.741 -0.1965  0.5185 -0.4213
 6154SOL    HW130095   2.072   0.098   7.743 -0.2511  0.5728 -1.2406
 6154SOL    HW230096   2.184   0.111   7.658  1.8879  1.1251  0.0726
 6155SOL     OW30097   0.405   2.182   6.460 -0.3288 -0.2020  0.3186
 6155SOL    HW130098   0.326   2.226   6.490 -0.1194  0.3750  0.0136
 6155SOL    HW230099   0.370   2.094   6.449 -0.4748 -0.2600  1.2332
 6156SOL     OW30100   1.135   3.819  16.096  0.3147  0.2012 -0.3468
 6156SOL    HW130101   1.131   3.856  16.007 -0.0087  1.1178  0.0488
 6156SOL    HW230102   1.142   3.901  16.145  1.9043  0.7627 -1.5327
 6157SOL     OW30103   1.741   3.892   7.630  0.4712  0.1943 -0.5391
 6157SOL    HW130104   1.822   3.890   7.579 -0.9846 -1.6002 -2.7870
 6157SOL    HW230105   1.683   3.836   7.578 -2.2880  1.2195  1.4681
 6158SOL     OW30106   0.614   2.234  13.377 -0.0304  0.5321  0.3856
 6158SOL    HW130107   0.525   2.245  13.412 -0.0899 -1.2243  0.7434
 6158SOL    HW230108   0.616   2.287  13.297 -1.8457  0.7487  0.4790
 6159SOL     OW30109   0.898   0.927   6.614 -0.2187  0.2111 -0.4730
 6159SOL    HW130110   0.814   0.957   6.651 -0.8592 -3.4165  1.0790
 6159SOL    HW230111   0.929   0.868   6.683 -1.8231 -1.9674 -1.5801
 6160SOL     OW30112   3.481   0.710  17.565  0.0185 -0.2156  0.1756
 6160SOL    HW130113   3.567   0.699  17.526  0.0979 -0.8926  0.5343
 6160SOL    HW230114   3.443   0.776  17.507 -0.9174  0.6415  1.7847
 6161SOL     OW30115   3.612   2.093   5.665  0.0540  0.0987 -0.7215
 6161SOL    HW130116   3.573   2.010   5.693  0.3571  0.3009  0.2804
 6161SOL    HW230117   3.696   2.061   5.633  0.6514 -0.3252  1.2719
 6162SOL     OW30118   4.659   2.862  17.187  0.2724 -0.3069 -0.4080
 6162SOL    HW130119   0.017   2.845  17.197  0.8717  2.3264 -1.5428
 6162SOL    HW230120   4.648   2.862  17.092  2.3159 -0.6913 -0.6405
 6163SOL     OW30121   0.956   2.112   2.346  0.0486 -0.2234  0.0326
 6163SOL    HW130122   0.885   2.054   2.372 -1.0457  0.4800 -1.4401
 6163SOL    HW230123   0.979   2.156   2.429 -1.2359  2.0382 -0.8141
 6164SOL     OW30124   4.264   3.615   2.748  0.2171  0.1938  0.5405
 6164SOL    HW130125   4.286   3.679   2.680 -1.3050  0.0592 -0.0748
 6164SOL    HW230126   4.174   3.635   2.773  1.2961  1.4070  3.4303
 6165SOL     OW30127   0.948   3.032   1.630 -0.9591  0.5781 -0.2020
 6165SOL    HW130128   0.916   3.106   1.579 -0.0863 -0.3738 -2.1011
 6165SOL    HW230129   0.876   2.968   1.625 -0.9906  0.8583 -3.0396
 6166SOL     OW30130   3.863   4.162   3.402 -0.0669 -0.2677 -0.1228
 6166SOL    HW130131   3.939   4.216   3.425 -0.1409 -0.7100  1.1674
 6166SOL    HW230132   3.805   4.236   3.386  0.2748 -0.1720 -0.8957
 6167SOL     OW30133   0.238   0.104   6.796  0.0161 -0.2168  0.2851
 6167SOL    HW130134   0.258   0.188   6.838  0.9620  0.2399 -1.0429
 6167SOL    HW230135   0.290   0.044   6.848  2.8531  0.7790 -1.3770
 6168SOL     OW30136   3.040   3.825  15.547  0.1956  0.1194 -0.0392
 6168SOL    HW130137   2.945   3.831  15.544  0.4436  3.4001 -1.6566
 6168SOL    HW230138   3.062   3.884  15.475 -1.1020 -0.3740 -0.8271
 6169SOL     OW30139   0.428   3.664   5.345 -1.1800 -0.5145  0.1578
 6169SOL    HW130140   0.378   3.651   5.425 -1.2461 -1.5625 -0.0629
 6169SOL    HW230141   0.358   3.659   5.281 -0.9376  0.4935 -0.2020
 6170SOL     OW30142   3.864   3.791  15.154  0.2433  0.3275  0.0495
 6170SOL    HW130143   3.842   3.751  15.238  2.0874 -0.0449  0.3527
 6170SOL    HW230144   3.834   3.882  15.161  0.5952  0.5215 -0.8687
 6171SOL     OW30145   2.123   2.440   5.352 -0.2092  0.4339  0.5712
 6171SOL    HW130146   2.144   2.365   5.295 -0.9146  1.9377 -1.6557
 6171SOL    HW230147   2.178   2.421   5.428  0.0685 -0.4268  0.1562
 6172SOL     OW30148   0.226   1.013   2.448  0.0799  0.1717 -0.3818
 6172SOL    HW130149   0.310   0.975   2.421 -0.1883 -1.9817  1.7704
 6172SOL    HW230150   0.251   1.103   2.468  0.6220 -0.3674  1.3949
 6173SOL     OW30151   2.407   4.616   6.921  0.7714 -0.7011  0.5515
 6173SOL    HW130152   2.461   4.648   6.993  1.4094 -0.9573  0.1864
 6173SOL    HW230153   2.351   4.554   6.968 -0.8212  1.5860  1.6849
 6174SOL     OW30154   0.447   2.895   3.563  0.0224 -0.1029 -0.5351
 6174SOL    HW130155   0.451   2.812   3.611 -0.6145 -0.3313 -0.8818
 6174SOL    HW230156   0.542   2.904   3.552  0.1635 -1.3228 -0.2911
 6175SOL     OW30157   4.611   3.896  17.728  0.1376  0.2363 -0.4551
 6175SOL    HW130158   4.701   3.904  17.698 -0.1157  1.1279 -0.9761
 6175SOL    HW230159   4.561   3.960  17.676 -0.9740 -1.3587 -1.3759
 6176SOL     OW30160   3.380   0.122  12.269  0.0483 -0.1243  0.2670
 6176SOL    HW130161   3.333   0.190  12.220  0.6702  0.3082  0.2693
 6176SOL    HW230162   3.456   0.171  12.302 -0.7652  1.0923  0.3212
 6177SOL     OW30163   4.283   3.651   3.312  0.0856  0.0432 -0.6283
 6177SOL    HW130164   4.188   3.653   3.298 -0.0336  1.5140  0.3076
 6177SOL    HW230165   4.285   3.682   3.403 -1.5712 -0.7310 -0.3236
 6178SOL     OW30166   4.723   4.375   3.733  0.4184 -0.7644 -0.2887
 6178SOL    HW130167   0.062   4.315   3.731  0.7943 -0.3440  1.0735
 6178SOL    HW230168   4.709   4.374   3.827  2.9123 -0.8170  0.0964
 6179SOL     OW30169   1.308   2.845   1.678  0.3925 -0.2156  0.3060
 6179SOL    HW130170   1.337   2.785   1.747  1.6579  1.5843  1.3513
 6179SOL    HW230171   1.309   2.787   1.602  0.7962 -0.2094  0.3056
 6180SOL     OW30172   1.046   0.176  14.807 -0.1784 -0.2285 -0.1688
 6180SOL    HW130173   1.084   0.171  14.719 -0.2054 -1.0490 -0.1378
 6180SOL    HW230174   1.080   0.258  14.843  0.2776  0.1734 -1.5091
 6181SOL     OW30175   1.690   2.336   2.269  0.5136 -0.2163  0.4506
 6181SOL    HW130176   1.755   2.298   2.327  0.8502 -0.5189 -0.1308
 6181SOL    HW230177   1.649   2.404   2.322  1.7629 -1.0951  2.5155
 6182SOL     OW30178   2.826   3.692  17.655  0.4444  0.3776  0.3061
 6182SOL    HW130179   2.801   3.614  17.705 -1.1918  1.8987  1.8476
 6182SOL    HW230180   2.899   3.718  17.711  1.8588  0.5605 -1.6247
 6183SOL     OW30181   4.491   0.739  15.054 -0.3068 -0.5862  0.0342
 6183SOL    HW130182   4.575   0.775  15.026 -0.1685 -0.9370 -0.0015
 6183SOL    HW230183   4.485   0.648  15.024 -1.0837 -0.2152 -0.9210
 6184SOL     OW30184   0.421   1.137   7.093 -0.1243 -0.1218 -0.1524
 6184SOL    HW130185   0.516   1.143   7.106 -0.0888 -0.9566  0.0106
 6184SOL    HW230186   0.405   1.228   7.118 -0.9363  0.2692 -2.1338
 6185SOL     OW30187   0.982   4.078   3.182  0.0023 -0.0177  0.1525
 6185SOL    HW130188   0.989   4.152   3.242  2.2307 -0.3502  0.2756
 6185SOL    HW230189   1.018   4.003   3.229 -0.3915  1.5654  2.9461
 6186SOL     OW30190   4.436   2.401   3.641  0.1937  0.2814  0.2243
 6186SOL    HW130191   4.457   2.493   3.656 -0.9032  0.4946  0.4567
 6186SOL    HW230192   4.485   2.370   3.718 -1.4144 -0.2664  1.0137
 6187SOL     OW30193   0.092   4.364   3.067  0.0046  0.4179  0.1012
 6187SOL    HW130194   0.000   4.380   3.087 -0.2578  0.5666 -1.2608
 6187SOL    HW230195   0.080   4.333   2.977 -1.0754 -0.2508  0.4717
 6188SOL     OW30196   4.098   2.028  11.643 -0.1317  0.6164  0.3189
 6188SOL    HW130197   4.137   1.978  11.715 -1.3252 -1.0428 -0.1717
 6188SOL    HW230198   4.094   2.116  11.681  2.0647  0.7098  0.2986
 6189SOL     OW30199   1.133   2.349  14.791 -0.5103  0.3805 -0.1166
 6189SOL    HW130200   1.179   2.305  14.719 -0.9596 -0.4684  0.1123
 6189SOL    HW230201   1.199   2.373  14.856 -2.6858  0.6131  2.0263
 6190SOL     OW30202   4.074   1.861   2.515 -0.9126 -1.2626  0.0293
 6190SOL    HW130203   4.057   1.789   2.576 -1.0909 -1.6836 -0.5175
 6190SOL    HW230204   4.086   1.932   2.577 -2.8586 -0.9910  0.0910
 6191SOL     OW30205   0.561   3.652  10.010  0.3608  0.4501 -0.1749
 6191SOL    HW130206   0.577   3.580   9.948  2.1253 -0.4816  1.3427
 6191SOL    HW230207   0.598   3.730   9.970  0.7903  0.9053  1.1297
 6192SOL     OW30208   2.730   2.288   9.270  0.0525 -0.3506  0.6554
 6192SOL    HW130209   2.659   2.295   9.333 -2.1487 -1.2364 -1.7035
 6192SOL    HW230210   2.703   2.353   9.205  0.5854 -1.2041 -0.4419
 6193SOL     OW30211   2.942   4.115   2.632  0.6370  0.3116  0.2195
 6193SOL    HW130212   2.850   4.090   2.632  1.0529 -1.2321  1.5161
 6193SOL    HW230213   2.962   4.181   2.566  1.7401  1.6251  1.8786
 6194SOL     OW30214   1.903   1.555  10.052  0.0116 -0.3980  0.3108
 6194SOL    HW130215   1.888   1.585  10.142 -1.0763  0.8137 -0.2626
 6194SOL    HW230216   1.823   1.512  10.020 -0.1744  0.1293  0.0662
 6195SOL     OW30217   3.208   2.246   8.172 -0.2491 -0.1681 -0.1031
 6195SOL    HW130218   3.303   2.241   8.186 -0.3932 -2.1809  0.1669
 6195SOL    HW230219   3.179   2.166   8.216  1.8067 -0.3296  0.9540
 6196SOL     OW30220   2.185   1.933  13.345  0.2983 -0.4097  0.3973
 6196SOL    HW130221   2.230   2.018  13.348  0.8486 -0.6575 -1.1026
 6196SOL    HW230222   2.177   1.918  13.251 -1.6311  3.0863  0.0143
 6197SOL     OW30223   2.914   2.576  14.640 -0.1306 -0.2045  0.1376
 6197SOL    HW130224   2.880   2.543  14.557 -2.5288 -0.2902  1.1415
 6197SOL    HW230225   2.897   2.668  14.619  1.4941  0.6415  2.5785
 6198SOL     OW30226   4.076   4.563  14.640 -0.2953  0.0418 -0.0515
 6198SOL    HW130227   4.035   4.529  14.561 -0.3863 -0.4373  0.2028
 6198SOL    HW230228   4.145   4.498  14.650 -0.9992 -0.7129 -0.0676
 6199SOL     OW30229   1.905   0.352  10.379  0.0284  0.2517 -0.1986
 6199SOL    HW130230   1.836   0.351  10.313  0.4241  0.9592 -0.6231
 6199SOL    HW230231   1.971   0.323  10.316  0.1748  0.6462 -0.2339
 6200SOL     OW30232   4.353   0.422   2.952  0.7812  0.9058  0.0125
 6200SOL    HW130233   4.325   0.483   3.020  0.0596 -1.4090  1.7726
 6200SOL    HW230234   4.435   0.392   2.989  0.8799 -0.0387 -0.9749
 6201SOL     OW30235   2.129   1.984   5.028 -0.2657  0.1678  0.2796
 6201SOL    HW130236   2.203   1.997   5.086  0.9475 -1.8059 -0.8377
 6201SOL    HW230237   2.168   2.022   4.949 -0.6523  0.0779  0.0441
 6202SOL     OW30238   0.659   3.952   7.349  0.1609 -0.1481  0.7673
 6202SOL    HW130239   0.680   3.892   7.420 -0.0809 -3.4637 -1.9208
 6202SOL    HW230240   0.703   4.033   7.371  1.2066 -0.2332 -0.9830
 6203SOL     OW30241   4.585   3.836  16.074  0.2035 -0.2901 -0.0128
 6203SOL    HW130242   4.614   3.821  16.164  1.0215  0.6125 -0.1190
 6203SOL    HW230243   4.669   3.831  16.028  0.6058  2.6277  0.3763
 6204SOL     OW30244   2.065   1.929  15.119  0.4327 -0.5703 -0.8438
 6204SOL    HW130245   2.102   1.939  15.206 -3.3167 -3.7970  1.1405
 6204SOL    HW230246   1.982   1.884  15.130 -0.2815  1.0802  0.4321
 6205SOL     OW30247   0.002   4.101   0.569 -0.8254 -0.3867  0.2098
 6205SOL    HW130248   4.733   4.095   0.473 -3.9471  0.9221  0.2812
 6205SOL    HW230249   0.057   4.024   0.580  0.5035  0.0565 -3.2437
 6206SOL     OW30250   2.188   1.293   6.865  0.1741 -0.0091  0.1836
 6206SOL    HW130251   2.203   1.386   6.850  0.1502 -0.1456 -0.7091
 6206SOL    HW230252   2.151   1.268   6.780  1.3868  1.6386 -0.8185
 6207SOL     OW30253   4.494   4.459   6.537  0.5019 -0.1932  0.4778
 6207SOL    HW130254   4.546   4.384   6.507  0.5768  1.5061 -3.7451
 6207SOL    HW230255   4.428   4.453   6.468  0.2253 -0.8995  0.8148
 6208SOL     OW30256   1.834   2.544   2.127 -0.0885 -0.1009  0.1154
 6208SOL    HW130257   1.792   2.478   2.182 -1.0710 -0.3959 -1.0065
 6208SOL    HW230258   1.896   2.485   2.085 -0.4001  0.3787 -1.0107
 6209SOL     OW30259   1.391   3.306   9.145 -1.0023  0.4742  0.0500
 6209SOL    HW130260   1.429   3.218   9.148 -0.9950  0.4818  0.1904
 6209SOL    HW230261   1.416   3.341   9.231  1.9537 -2.3362  0.3634
 6210SOL     OW30262   1.621   0.538  12.276  0.0161 -0.2933 -0.2704
 6210SOL    HW130263   1.603   0.615  12.330  0.1059  0.3338 -1.1386
 6210SOL    HW230264   1.560   0.542  12.202 -2.1050  0.5908  1.5409
 6211SOL     OW30265   1.970   4.411  13.920  0.0217 -0.2806 -0.0864
 6211SOL    HW130266   1.879   4.397  13.943  0.2388 -0.5283  0.6174
 6211SOL    HW230267   1.991   4.476  13.988  3.6287 -2.2199  0.6906
 6212SOL     OW30268   4.224   3.759   8.927 -0.1373  0.6663  0.5513
 6212SOL    HW130269   4.161   3.807   8.981  0.1400  0.8770  0.6924
 6212SOL    HW230270   4.243   3.831   8.867 -1.0252 -1.1731 -1.9369
 6213SOL     OW30271   2.045   0.830   8.640  0.0432  0.2358 -0.0843
 6213SOL    HW130272   2.050   0.914   8.685  2.0797  0.4751 -0.7853
 6213SOL    HW230273   2.131   0.822   8.600 -0.5345 -2.6395 -0.8020
 6214SOL     OW30274   0.280   1.732   8.566 -0.2775 -0.2184  0.1323
 6214SOL    HW130275   0.349   1.681   8.609  0.7333  0.1589 -1.0715
 6214SOL    HW230276   0.225   1.754   8.641 -0.5711 -0.4384 -0.0191
 6215SOL     OW30277   0.227   0.054   4.313  0.1682  0.1842  1.0419
 6215SOL    HW130278   0.142   0.016   4.291 -0.2854  0.9732  1.4398
 6215SOL    HW230279   0.223   0.040   4.407 -0.0161  0.0565  1.0156
 6216SOL     OW30280   0.017   1.023   5.795 -0.1158 -0.3369 -0.3886
 6216SOL    HW130281   4.732   1.080   5.869 -0.7705  1.8148 -2.2419
 6216SOL    HW230282   0.112   1.019   5.805  0.0223  0.6810 -1.3310
 6217SOL     OW30283   3.721   0.109  12.998  0.0758  0.4561 -0.5273
 6217SOL    HW130284   3.801   0.074  13.036 -1.7343 -0.9440  1.9638
 6217SOL    HW230285   3.721   0.065  12.913  0.4123  2.6247 -1.6653
 6218SOL     OW30286   1.624   3.251  10.291 -0.4736 -0.0557 -0.1262
 6218SOL    HW130287   1.624   3.340  10.254 -0.3771 -0.0919 -0.2114
 6218SOL    HW230288   1.598   3.275  10.381  1.2107 -1.5511  0.7409
 6219SOL     OW30289   2.395   0.281   0.677 -0.2175 -0.1094 -0.0788
 6219SOL    HW130290   2.430   0.192   0.677  0.7716  0.2874  0.3546
 6219SOL    HW230291   2.406   0.293   0.583 -0.7053 -0.0407 -0.1297
 6220SOL     OW30292   2.830   3.073   0.475  0.0255  0.3812  0.0457
 6220SOL    HW130293   2.888   3.095   0.403 -0.8493  1.5137 -0.3167
 6220SOL    HW230294   2.860   2.984   0.493  0.4731  0.1518 -1.8924
 6221SOL     OW30295   1.843   4.475   2.412  0.1924  0.6740 -0.2323
 6221SOL    HW130296   1.874   4.551   2.363 -0.9460  0.6409 -0.9977
 6221SOL    HW230297   1.875   4.497   2.499 -1.8707  4.8553 -0.5045
 6222SOL     OW30298   1.971   2.052   2.354  0.1481 -0.2777  0.0372
 6222SOL    HW130299   1.929   2.011   2.279 -2.4106 -0.4651  1.5782
 6222SOL    HW230300   2.029   1.983   2.385  1.4016  1.1082  0.7867
 6223SOL     OW30301   1.033   2.152  12.800  0.2155  0.4832  0.3664
 6223SOL    HW130302   0.973   2.128  12.871  1.4067 -0.1964  1.1569
 6223SOL    HW230303   1.048   2.063  12.770 -0.5964  0.8502 -1.0991
 6224SOL     OW30304   2.437   3.757   7.878 -0.4478 -0.2479  0.0755
 6224SOL    HW130305   2.419   3.779   7.969  1.3824 -0.8009  0.5683
 6224SOL    HW230306   2.350   3.721   7.858 -0.3854 -1.5405  2.2033
 6225SOL     OW30307   1.461   2.427   6.443  0.6398 -0.5907 -0.3543
 6225SOL    HW130308   1.510   2.345   6.451  0.6710 -0.2447  3.1607
 6225SOL    HW230309   1.479   2.469   6.359 -0.7288  0.8080  0.0482
 6226SOL     OW30310   4.717   0.022   2.696  0.2419 -0.0235 -0.1479
 6226SOL    HW130311   4.661   4.727   2.767 -1.4382  0.7903 -1.1024
 6226SOL    HW230312   0.043   0.081   2.738  0.3518  0.6968 -1.3084
 6227SOL     OW30313   2.005   2.052   1.645  0.2907 -0.5485  0.3703
 6227SOL    HW130314   1.912   2.075   1.648  0.8495  1.6758  0.7817
 6227SOL    HW230315   2.039   2.129   1.691  0.4214 -0.7489  0.6102
 6228SOL     OW30316   3.269   4.402   6.309  0.0289  0.0200  0.0699
 6228SOL    HW130317   3.243   4.311   6.297 -0.5491  0.2796 -0.6277
 6228SOL    HW230318   3.303   4.403   6.399 -0.1180 -1.8241  0.1551
 6229SOL     OW30319   1.107   4.197   5.173 -0.3763 -0.1622  0.1133
 6229SOL    HW130320   1.058   4.279   5.176 -0.5819 -0.2929  0.2843
 6229SOL    HW230321   1.050   4.141   5.120  2.1855 -2.5639 -0.1214
 6230SOL     OW30322   4.010   3.646  11.011  0.0557 -0.1409  0.3154
 6230SOL    HW130323   3.917   3.624  11.004 -0.1527  1.5597 -2.3577
 6230SOL    HW230324   4.004   3.705  11.087 -1.5658  1.6820 -1.2231
 6231SOL     OW30325   2.765   2.600   7.993  0.0462  0.4968 -0.2537
 6231SOL    HW130326   2.744   2.517   8.036 -2.3670  0.4067 -1.5747
 6231SOL    HW230327   2.678   2.636   7.975 -0.5702 -0.7109  0.2956
 6232SOL     OW30328   1.940   3.739   9.343  0.1253  0.2633 -0.0151
 6232SOL    HW130329   1.878   3.807   9.367  1.5455  1.3261  0.6611
 6232SOL    HW230330   2.005   3.760   9.411  1.7385  2.6302 -2.2687
 6233SOL     OW30331   0.771   0.304   2.253 -0.7154 -0.2604 -0.3318
 6233SOL    HW130332   0.833   0.321   2.182 -1.2417  2.7531 -0.0770
 6233SOL    HW230333   0.693   0.276   2.206 -1.9303  0.3397  1.3104
 6234SOL     OW30334   3.816   1.351   5.077  0.3773 -0.2706  0.7908
 6234SOL    HW130335   3.835   1.349   4.983 -1.4424 -1.2689  0.4598
 6234SOL    HW230336   3.815   1.256   5.085  1.8577 -0.5342 -2.1233
 6235SOL     OW30337   0.589   4.584  12.226 -0.0801  0.5688 -0.3144
 6235SOL    HW130338   0.518   4.551  12.172 -0.2438  0.9216 -0.3145
 6235SOL    HW230339   0.667   4.554  12.180  0.8868 -0.4170  1.9706
 6236SOL     OW30340   3.657   1.421  11.653 -0.0301 -0.1610  0.2530
 6236SOL    HW130341   3.705   1.338  11.650  1.6311  0.7842  0.0729
 6236SOL    HW230342   3.577   1.397  11.608  0.5112  0.7166 -1.1851
 6237SOL     OW30343   1.731   2.160   1.876 -0.3589 -0.1864  0.6184
 6237SOL    HW130344   1.806   2.216   1.897  0.3554 -0.8139 -0.2692
 6237SOL    HW230345   1.657   2.220   1.875  0.6847  1.0793 -1.3741
 6238SOL     OW30346   4.162   4.709  17.196 -0.0652 -0.1273  0.0803
 6238SOL    HW130347   4.173   4.733  17.288 -0.2259  2.6108 -0.6233
 6238SOL    HW230348   4.252   4.701  17.166 -0.9310  1.1672 -2.8659
 6239SOL     OW30349   4.161   2.181  11.045 -0.1483 -0.5516  0.1184
 6239SOL    HW130350   4.189   2.209  10.958 -1.5927  1.9802  0.4644
 6239SOL    HW230351   4.095   2.118  11.015 -0.0776  0.4249 -2.1060
 6240SOL     OW30352   1.147   0.644   5.140  0.1084  0.4672  0.0358
 6240SOL    HW130353   1.107   0.673   5.058  0.3232 -2.6366 -1.1558
 6240SOL    HW230354   1.144   0.549   5.140 -0.7721  0.4952 -0.9728
 6241SOL     OW30355   1.700   3.099   3.325  0.0057  0.0052  0.4505
 6241SOL    HW130356   1.649   3.036   3.376 -1.1336 -0.5535 -1.3474
 6241SOL    HW230357   1.699   3.170   3.389 -0.5808 -0.5278  1.0264
 6242SOL     OW30358   1.156   3.431   7.812 -0.4082  0.0326  0.1085
 6242SOL    HW130359   1.159   3.521   7.780  3.2170  0.1126  0.7003
 6242SOL    HW230360   1.249   3.420   7.830 -0.4975 -1.2712 -0.1888
 6243SOL     OW30361   0.197   0.609  16.613 -0.7500  0.2482  0.2904
 6243SOL    HW130362   0.161   0.698  16.607  0.9751  0.9840  0.8674
 6243SOL    HW230363   0.180   0.570  16.528  0.2864  0.4143  0.0007
 6244SOL     OW30364   4.450   3.326   3.987  0.2546 -0.4199  0.4873
 6244SOL    HW130365   4.451   3.250   3.928 -0.3907 -0.3567  0.3887
 6244SOL    HW230366   4.499   3.296   4.064 -0.0857  1.8192  1.5610
 6245SOL     OW30367   0.586   2.714   0.929  0.2996 -0.4036  0.0933
 6245SOL    HW130368   0.580   2.630   0.884  1.7699 -1.3105  1.5628
 6245SOL    HW230369   0.543   2.767   0.862  2.0535  0.8950 -0.0082
 6246SOL     OW30370   2.735   1.890   6.363  0.0619 -0.3786  0.1023
 6246SOL    HW130371   2.710   1.871   6.453  2.1756 -1.0105  0.5537
 6246SOL    HW230372   2.711   1.982   6.352 -0.3760 -0.2983  1.7139
 6247SOL     OW30373   3.490   1.370   7.650 -0.1544 -0.4567 -0.4804
 6247SOL    HW130374   3.406   1.409   7.676 -0.5001 -1.3747 -0.2215
 6247SOL    HW230375   3.548   1.444   7.632 -0.2527 -0.1111  0.6337
 6248SOL     OW30376   4.391   1.543  15.722 -0.2171 -0.4359 -0.0679
 6248SOL    HW130377   4.412   1.635  15.740  0.7692 -0.4582 -1.0880
 6248SOL    HW230378   4.304   1.537  15.762  0.2930 -0.5814  1.0002
 6249SOL     OW30379   2.491   0.467   5.953 -0.1168  0.6355  0.5374
 6249SOL    HW130380   2.413   0.414   5.939  1.4054 -1.5111  0.0197
 6249SOL    HW230381   2.496   0.509   5.867 -0.4768 -0.4060 -0.0041
 6250SOL     OW30382   1.992   1.728   7.900 -0.6333  0.0809  0.7282
 6250SOL    HW130383   2.024   1.730   7.809 -1.6982  0.5275  0.3598
 6250SOL    HW230384   2.070   1.722   7.955 -0.5021  1.6383  0.7188
 6251SOL     OW30385   4.014   2.173   2.449  0.4243  0.0200 -0.0623
 6251SOL    HW130386   4.037   2.163   2.541 -0.4541  1.1807  0.2788
 6251SOL    HW230387   4.094   2.211   2.412 -0.2382  0.8352 -0.6526
 6252SOL     OW30388   0.381   2.241   4.953  0.3293  1.1298 -0.1277
 6252SOL    HW130389   0.438   2.307   4.994 -0.1729  0.4650  1.6722
 6252SOL    HW230390   0.311   2.302   4.930 -2.0551 -2.0276 -1.2978
 6253SOL     OW30391   3.979   2.685  13.050  0.1940  0.6078 -0.2657
 6253SOL    HW130392   3.943   2.772  13.067 -0.6540  0.2987 -0.4470
 6253SOL    HW230393   3.936   2.632  13.118  1.3743 -0.6077 -0.4591
 6254SOL     OW30394   4.706   4.290   1.308 -0.5058  0.1194  0.3676
 6254SOL    HW130395   4.729   4.379   1.334 -1.5247  0.4758  0.0638
 6254SOL    HW230396   4.723   4.239   1.387 -1.1161 -1.3701 -0.4735
 6255SOL     OW30397   4.673   1.428  17.103  0.4559  0.4346 -0.6477
 6255SOL    HW130398   4.637   1.386  17.181 -2.0221  0.0951 -1.9984
 6255SOL    HW230399   0.029   1.402  17.112  0.2777 -0.1651 -0.5903
 6256SOL     OW30400   1.380   2.032   6.352 -0.1605 -0.4629 -0.2608
 6256SOL    HW130401   1.304   1.987   6.388 -1.2379  1.5011 -0.0818
 6256SOL    HW230402   1.455   1.980   6.380 -1.2293 -1.7126  0.2340
 6257SOL     OW30403   0.843   2.563  10.636  0.1826  0.1534 -0.4587
 6257SOL    HW130404   0.895   2.507  10.694  1.1469  1.4978 -0.0233
 6257SOL    HW230405   0.832   2.647  10.682 -0.2317  0.1946 -0.6345
 6258SOL     OW30406   0.495   2.306   0.575  0.1574 -0.2648  0.3527
 6258SOL    HW130407   0.481   2.302   0.480  1.4483 -1.9515  0.2498
 6258SOL    HW230408   0.407   2.272   0.593  1.1269 -1.7661  2.1650
 6259SOL     OW30409   1.768   2.094   3.049 -0.0397 -0.2948  0.0065
 6259SOL    HW130410   1.787   2.163   2.986 -1.9394 -2.3674 -2.8140
 6259SOL    HW230411   1.782   2.141   3.131  1.6484 -1.6214  0.4868
 6260SOL     OW30412   4.521   2.253   4.786  0.4337 -0.1844 -0.0309
 6260SOL    HW130413   4.429   2.253   4.760  0.6400  2.0856 -0.8057
 6260SOL    HW230414   4.548   2.320   4.723 -0.0526  0.0720  0.0283
 6261SOL     OW30415   1.605   2.764   3.661  0.4621  0.0875  0.4515
 6261SOL    HW130416   1.689   2.811   3.662 -1.3825  3.3892  0.6711
 6261SOL    HW230417   1.635   2.674   3.672 -0.9010 -0.2445  1.4191
 6262SOL     OW30418   3.819   3.939   5.375  0.2647 -0.9715 -0.1695
 6262SOL    HW130419   3.896   3.885   5.394  1.3941  1.2193  1.4577
 6262SOL    HW230420   3.840   3.994   5.300 -1.7729  0.7875  0.5394
 6263SOL     OW30421   1.356   0.741   9.408  0.3144  0.1314  1.0511
 6263SOL    HW130422   1.295   0.789   9.353  2.0934  0.7317 -0.3952
 6263SOL    HW230423   1.444   0.755   9.372 -0.0127  0.2703  0.3222
 6264SOL     OW30424   2.446   1.708   2.835 -0.0664  0.3271 -0.3063
 6264SOL    HW130425   2.393   1.724   2.913  0.6520 -0.0529  0.2536
 6264SOL    HW230426   2.440   1.615   2.815  1.5082  0.0552  0.4670
 6265SOL     OW30427   2.250   3.873  11.145  0.2163 -0.1652 -0.5203
 6265SOL    HW130428   2.260   3.961  11.108 -1.7956 -0.1907 -1.1135
 6265SOL    HW230429   2.276   3.814  11.074 -0.3522 -2.2990  1.0483
 6266SOL     OW30430   0.004   4.348   2.057 -0.3444 -0.1973 -0.0152
 6266SOL    HW130431   0.023   4.426   2.108  1.8346  0.0265 -1.1830
 6266SOL    HW230432   0.033   4.372   1.969 -0.6051  1.9532  0.4988
 6267SOL     OW30433   1.693   1.393   3.424 -0.0039 -0.1454  0.5174
 6267SOL    HW130434   1.613   1.439   3.400  1.2252  2.0046  0.5393
 6267SOL    HW230435   1.663   1.303   3.414 -0.6771  0.2036 -0.4951
 6268SOL     OW30436   4.432   2.097   6.986  0.7485  0.1426 -0.3289
 6268SOL    HW130437   4.523   2.126   6.980 -0.0797  2.6421 -0.6715
 6268SOL    HW230438   4.388   2.129   6.908 -1.6036  3.2013  2.2502
 6269SOL     OW30439   4.130   3.073   3.578 -0.3706 -0.2292  0.4976
 6269SOL    HW130440   4.036   3.091   3.581 -0.2524  0.1356  1.8647
 6269SOL    HW230441   4.137   3.001   3.515 -2.8625  1.1660 -1.3759
 6270SOL     OW30442   0.762   1.923   2.441  0.0917  0.0255 -0.2651
 6270SOL    HW130443   0.793   1.878   2.519  0.8500  1.6226  0.3602
 6270SOL    HW230444   0.802   1.860   2.381 -1.3804 -0.8033 -0.3758
 6271SOL     OW30445   3.059   2.732   0.468  0.2298  0.4055 -0.5682
 6271SOL    HW130446   3.075   2.826   0.479 -0.0391  0.6060 -1.8843
 6271SOL    HW230447   3.148   2.709   0.443  0.4011 -0.6707  1.0792
 6272SOL     OW30448   2.038   1.844   9.525 -0.4531 -0.0936 -0.2513
 6272SOL    HW130449   2.090   1.791   9.586  1.7241 -0.3533 -2.2978
 6272SOL    HW230450   1.955   1.862   9.569 -0.7713 -2.4572  0.1244
 6273SOL     OW30451   3.808   1.392   7.382  0.0231  0.0334  0.0744
 6273SOL    HW130452   3.783   1.381   7.474 -0.0331  0.2463  0.0837
 6273SOL    HW230453   3.898   1.363   7.367 -0.3673 -1.2167  0.1152
 6274SOL     OW30454   0.390   2.409   5.272  0.1502  1.0189  0.0198
 6274SOL    HW130455   0.317   2.370   5.225  1.1860  0.1358 -0.8285
 6274SOL    HW230456   0.442   2.335   5.302  1.0323  1.0019 -1.5837
 6275SOL     OW30457   3.406   0.765  16.857  0.1003 -0.0200 -0.1671
 6275SOL    HW130458   3.445   0.750  16.943 -0.3324  0.9904  0.2028
 6275SOL    HW230459   3.345   0.692  16.843  2.1480 -1.6070 -0.7811
 6276SOL     OW30460   4.072   4.292  14.414  0.4248 -0.3973 -0.6040
 6276SOL    HW130461   4.002   4.351  14.387  1.5208  0.7470 -0.9529
 6276SOL    HW230462   4.149   4.336  14.378  1.1968  0.5688  2.2106
 6277SOL     OW30463   1.210   2.739   2.701  0.1788 -0.8092  0.5918
 6277SOL    HW130464   1.135   2.766   2.648 -0.9458 -1.1261  2.0280
 6277SOL    HW230465   1.280   2.784   2.653 -0.2245 -0.0309  0.7337
 6278SOL     OW30466   2.732   2.409   3.140 -0.0847  0.0980  0.1345
 6278SOL    HW130467   2.702   2.396   3.050  0.5040  2.8075 -0.4509
 6278SOL    HW230468   2.747   2.503   3.140  0.5050  0.0062 -0.1794
 6279SOL     OW30469   4.512   1.958  11.516  0.1204  0.3639 -0.8640
 6279SOL    HW130470   4.519   1.921  11.428 -2.3675 -1.1759 -0.4010
 6279SOL    HW230471   4.444   2.025  11.508 -0.3507 -0.0593 -0.3412
 6280SOL     OW30472   2.633   3.212   0.378 -0.0103 -0.3047 -0.6917
 6280SOL    HW130473   2.572   3.140   0.364  1.5889 -1.2106 -3.0754
 6280SOL    HW230474   2.708   3.164   0.412 -1.1524 -1.8597 -0.3932
 6281SOL     OW30475   3.061   2.604   6.077  0.4883  0.2344 -0.6694
 6281SOL    HW130476   3.022   2.536   6.133  0.8173 -0.1045 -0.8491
 6281SOL    HW230477   2.980   2.652   6.062 -0.6008 -0.7914  1.9140
 6282SOL     OW30478   0.991   3.714   1.620 -0.4402  0.1991  0.3495
 6282SOL    HW130479   0.903   3.743   1.599 -0.0143 -0.1309 -1.8394
 6282SOL    HW230480   0.978   3.660   1.699  2.1588 -1.5435 -0.3822
 6283SOL     OW30481   2.783   1.201  11.371  0.1753  0.8970  0.3548
 6283SOL    HW130482   2.777   1.222  11.464 -1.0221 -0.1175  0.5061
 6283SOL    HW230483   2.704   1.148  11.361  0.7219  0.5989 -2.2362
 6284SOL     OW30484   2.445   1.012   3.244 -0.3029 -0.0596  0.6527
 6284SOL    HW130485   2.449   0.947   3.314  0.9977  0.5094  1.1016
 6284SOL    HW230486   2.513   0.986   3.183 -1.8533  1.9415 -1.9051
 6285SOL     OW30487   1.556   3.459   6.105 -0.0763 -0.1015 -0.2314
 6285SOL    HW130488   1.512   3.513   6.040 -0.6106 -0.2219  0.0294
 6285SOL    HW230489   1.520   3.490   6.188  0.0911 -1.6408  0.4258
 6286SOL     OW30490   4.261   4.295   5.685  0.0785  0.2340  0.3133
 6286SOL    HW130491   4.177   4.317   5.726  0.7646  3.9219 -0.2596
 6286SOL    HW230492   4.268   4.379   5.641  1.7155  0.2286  0.5632
 6287SOL     OW30493   3.508   2.921   2.781  0.0329 -0.3577  0.0625
 6287SOL    HW130494   3.591   2.966   2.769 -0.7410  1.2274  0.5976
 6287SOL    HW230495   3.538   2.830   2.791 -0.8292 -0.7558 -1.0284
 6288SOL     OW30496   3.960   2.029  16.709 -0.0939  0.1655  0.5605
 6288SOL    HW130497   3.948   2.009  16.802 -1.0181 -1.2893  0.1337
 6288SOL    HW230498   4.034   2.089  16.719  0.4367 -0.1905 -1.3464
 6289SOL     OW30499   0.602   2.851   5.728 -0.5359  0.5605  0.0266
 6289SOL    HW130500   0.604   2.811   5.641 -1.7600  0.9512 -0.1870
 6289SOL    HW230501   0.690   2.877   5.752  0.0376 -0.3892 -1.0333
 6290SOL     OW30502   4.722   3.317  11.081 -0.4057 -0.3490  0.4624
 6290SOL    HW130503   0.038   3.238  11.069 -0.2943 -0.3389  0.8958
 6290SOL    HW230504   4.670   3.318  11.000  0.4001 -0.7996 -0.0522
 6291SOL     OW30505   3.299   1.259   8.580  0.5667  0.8409  0.0196
 6291SOL    HW130506   3.330   1.288   8.494  1.6940 -2.7084 -0.7541
 6291SOL    HW230507   3.385   1.232   8.613  0.2242 -0.5312 -0.2293
 6292SOL     OW30508   0.980   3.977  17.256 -0.0833  0.3531 -0.1196
 6292SOL    HW130509   1.029   4.037  17.312 -0.0111 -0.1376  0.3378
 6292SOL    HW230510   0.942   3.921  17.324 -0.7350 -1.0935 -1.6709
 6293SOL     OW30511   3.091   1.298   7.149 -0.0130  0.4992  0.3835
 6293SOL    HW130512   3.010   1.249   7.163 -0.2416  0.7045 -0.1962
 6293SOL    HW230513   3.055   1.386   7.148  1.5207  1.1410  2.1335
 6294SOL     OW30514   2.175   3.149   7.950 -0.7231 -0.4396  0.1055
 6294SOL    HW130515   2.158   3.070   7.899  1.2134 -0.5531 -0.3530
 6294SOL    HW230516   2.129   3.129   8.032 -0.9725  1.1208  0.3512
 6295SOL     OW30517   2.713   2.354   8.081  0.5694 -0.9291 -0.0781
 6295SOL    HW130518   2.671   2.301   8.014  1.1857 -0.9940 -0.4059
 6295SOL    HW230519   2.677   2.316   8.162  0.1622  2.1459  1.1718
 6296SOL     OW30520   3.386   1.960   1.826 -0.1163  0.2717  0.1536
 6296SOL    HW130521   3.294   1.985   1.837  0.1006  2.1882 -2.2842
 6296SOL    HW230522   3.372   1.900   1.752 -2.8046 -0.3599  1.1539
 6297SOL     OW30523   0.898   1.164   4.805  0.2294  0.2007 -0.1316
 6297SOL    HW130524   0.877   1.253   4.776 -0.4830 -0.2088 -0.8750
 6297SOL    HW230525   0.906   1.120   4.720  0.6589 -0.2744  0.1571
 6298SOL     OW30526   2.857   1.876   8.304  0.3222  0.5822 -0.0556
 6298SOL    HW130527   2.899   1.815   8.365 -2.8447  1.3455  2.9041
 6298SOL    HW230528   2.769   1.843   8.321 -0.1091  0.7880 -1.8450
 6299SOL     OW30529   3.905   4.639   8.853 -0.8663 -0.3364 -0.3314
 6299SOL    HW130530   3.859   4.562   8.820  0.5643 -1.0339 -0.7214
 6299SOL    HW230531   3.868   4.713   8.805 -0.9331  0.2137  0.5709
 6300SOL     OW30532   1.516   2.356   4.110  0.0810 -0.4648  0.1852
 6300SOL    HW130533   1.593   2.414   4.114 -1.0264  1.0243 -0.1118
 6300SOL    HW230534   1.553   2.292   4.050 -2.1081 -1.1890 -0.3911
 6301SOL     OW30535   0.035   2.770   3.220  0.8610  0.0063  0.0637
 6301SOL    HW130536   0.124   2.762   3.187  0.7387 -0.4685 -0.1517
 6301SOL    HW230537   0.064   2.796   3.307 -1.2244  0.2431  0.6824
 6302SOL     OW30538   0.794   3.387   4.452 -0.7724 -0.2110  0.4529
 6302SOL    HW130539   0.787   3.321   4.383 -0.5590  0.7766 -0.5089
 6302SOL    HW230540   0.718   3.369   4.507  0.3505 -0.4410  1.9266
 6303SOL     OW30541   4.718   4.690   1.504 -0.0276  0.2147 -0.6160
 6303SOL    HW130542   4.725   0.017   1.432  1.1347  0.2318 -0.4795
 6303SOL    HW230543   4.623   4.699   1.511 -0.0542  0.1950 -0.9331
 6304SOL     OW30544   0.202   2.243   7.643  0.2835 -0.2924 -0.3110
 6304SOL    HW130545   0.215   2.300   7.567 -1.4423  0.5929  0.0461
 6304SOL    HW230546   0.265   2.172   7.630  0.4904 -0.2306  0.3634
 6305SOL     OW30547   3.837   2.683  10.848  0.0801 -0.6147  0.1394
 6305SOL    HW130548   3.801   2.609  10.799 -0.9546  0.1864 -0.3026
 6305SOL    HW230549   3.908   2.642  10.897 -0.2724 -0.5824  0.6761
 6306SOL     OW30550   0.460   2.293   8.235  0.1117  0.1934  0.3516
 6306SOL    HW130551   0.441   2.219   8.293  1.7523 -1.3181 -1.0239
 6306SOL    HW230552   0.506   2.254   8.161  1.0774  0.9686  0.5534
 6307SOL     OW30553   3.306   0.550  16.006 -0.0217 -0.3195  0.2616
 6307SOL    HW130554   3.252   0.471  16.014 -0.2671 -0.1876 -0.1132
 6307SOL    HW230555   3.264   0.630  16.040  0.1967 -0.1099  0.0390
 6308SOL     OW30556   3.360   2.709   6.384 -0.0581 -0.4258 -0.0322
 6308SOL    HW130557   3.305   2.667   6.450  0.3555 -1.8354 -0.5775
 6308SOL    HW230558   3.371   2.791   6.432 -1.1378 -1.0476  1.2726
 6309SOL     OW30559   1.859   4.202   1.502 -0.1430 -0.2936 -0.2014
 6309SOL    HW130560   1.815   4.119   1.480 -1.3127  0.9125 -2.3393
 6309SOL    HW230561   1.862   4.196   1.598 -3.7176 -1.3286 -0.1404
 6310SOL     OW30562   2.601   3.618   4.251 -0.5632  0.1205 -0.5151
 6310SOL    HW130563   2.662   3.590   4.183  0.9649  1.5025  0.2651
 6310SOL    HW230564   2.637   3.701   4.283 -0.0397  0.2479 -1.4248
 6311SOL     OW30565   3.825   1.851   3.308  0.3484 -0.7334  0.6260
 6311SOL    HW130566   3.884   1.839   3.233  1.9496  0.4452  1.7012
 6311SOL    HW230567   3.891   1.868   3.375  1.6394  1.9929 -1.3381
 6312SOL     OW30568   0.222   4.489  15.407 -0.0729 -0.0493 -0.3602
 6312SOL    HW130569   0.158   4.457  15.343 -1.2190  1.8867 -0.2017
 6312SOL    HW230570   0.172   4.552  15.460 -0.2901  1.3837 -2.2428
 6313SOL     OW30571   0.555   3.920   6.250 -0.4964  0.3136  0.5562
 6313SOL    HW130572   0.629   3.945   6.195  0.9549  1.3859  3.0270
 6313SOL    HW230573   0.529   4.007   6.280  1.3254  1.9935 -2.7659
 6314SOL     OW30574   1.178   1.388   8.273 -0.3876  0.6686 -0.2848
 6314SOL    HW130575   1.107   1.451   8.271 -1.2388 -0.2592  1.0987
 6314SOL    HW230576   1.141   1.321   8.330  2.1640 -1.5582 -1.1814
 6315SOL     OW30577   3.243   4.404   2.387 -0.6076  0.4697 -0.0842
 6315SOL    HW130578   3.230   4.497   2.368  1.1446  0.4808 -1.2065
 6315SOL    HW230579   3.199   4.399   2.472  1.0182  1.3176  0.8096
 6316SOL     OW30580   4.255   3.197  10.595  0.2269 -0.0584 -0.6471
 6316SOL    HW130581   4.205   3.210  10.514 -0.1370  2.0030 -0.0686
 6316SOL    HW230582   4.253   3.101  10.591 -0.2827 -0.0279 -1.1168
 6317SOL     OW30583   2.834   1.698  16.770 -0.5742  0.4656  0.2427
 6317SOL    HW130584   2.793   1.730  16.850 -1.0212 -0.8915  0.5418
 6317SOL    HW230585   2.775   1.729  16.702  0.4119 -0.0347 -0.8501
 6318SOL     OW30586   4.667   0.380   6.203 -0.3730 -0.2541  0.0868
 6318SOL    HW130587   4.593   0.423   6.245 -0.8141  0.5720 -1.5464
 6318SOL    HW230588   4.617   0.302   6.182  0.2598 -0.3896 -0.8858
 6319SOL     OW30589   0.400   2.215   5.537  0.0712  0.3156  0.3883
 6319SOL    HW130590   0.448   2.159   5.476 -0.0186  0.5846  0.0712
 6319SOL    HW230591   0.356   2.151   5.592  0.7604  0.6517  1.3290
 6320SOL     OW30592   3.478   4.700   4.102 -0.5820 -0.0495  0.0020
 6320SOL    HW130593   3.443   4.726   4.017  0.2405  0.8452 -0.0564
 6320SOL    HW230594   3.524   0.044   4.128  0.6878 -1.2745  1.5418
 6321SOL     OW30595   2.123   0.628   2.739  0.5444 -0.0345  0.1918
 6321SOL    HW130596   2.096   0.711   2.779 -2.4226 -0.2946 -1.2986
 6321SOL    HW230597   2.050   0.582   2.781 -0.7614  1.9897  0.1518
 6322SOL     OW30598   0.984   0.839  10.368 -0.1428  0.4772  0.4599
 6322SOL    HW130599   0.912   0.869  10.424 -0.4166 -1.7313  1.2956
 6322SOL    HW230600   0.956   0.748  10.376  0.7538  0.2083  0.4921
 6323SOL     OW30601   1.143   3.811  14.220  0.2536  0.0290  0.1157
 6323SOL    HW130602   1.171   3.885  14.165 -1.3534  0.0105 -0.7370
 6323SOL    HW230603   1.213   3.749  14.203  1.1043  1.3690 -1.3103
 6324SOL     OW30604   0.792   1.617  12.961 -0.3384  0.2782 -0.2724
 6324SOL    HW130605   0.711   1.668  12.968 -0.8131 -0.2393 -1.9506
 6324SOL    HW230606   0.796   1.610  12.865  0.5235 -1.3648 -0.1156
 6325SOL     OW30607   3.631   2.430  12.991 -0.0343 -0.1897  0.2092
 6325SOL    HW130608   3.564   2.460  12.928 -1.3745  0.1907  1.8037
 6325SOL    HW230609   3.631   2.335  12.986 -0.7231 -0.2228  0.8077
 6326SOL     OW30610   3.731   1.073  11.023 -0.3927 -0.6665 -0.4031
 6326SOL    HW130611   3.788   1.036  10.955  0.8354  0.9037 -0.2324
 6326SOL    HW230612   3.775   1.029  11.096  3.0488  1.9509 -0.8584
 6327SOL     OW30613   3.149   0.727   6.376 -0.0591  0.6670 -0.2261
 6327SOL    HW130614   3.120   0.812   6.342 -0.9034  0.3136 -0.3882
 6327SOL    HW230615   3.131   0.742   6.468  2.8472 -0.6690  0.5459
 6328SOL     OW30616   3.653   1.946   6.052  0.3870  0.2809 -0.3997
 6328SOL    HW130617   3.570   1.957   6.004  0.2442  1.1537  0.0401
 6328SOL    HW230618   3.618   1.945   6.141  1.7224  1.2158  0.1294
 6329SOL     OW30619   4.448   0.817   7.697  0.0613 -0.0638  0.2096
 6329SOL    HW130620   4.441   0.741   7.754  0.0003  0.3171  0.7082
 6329SOL    HW230621   4.410   0.783   7.616  4.5123  0.7423 -2.2474
 6330SOL     OW30622   0.064   0.415   2.768 -0.1910  0.1202  0.7369
 6330SOL    HW130623   0.006   0.433   2.695 -1.7582 -4.5166  0.8626
 6330SOL    HW230624   0.148   0.443   2.731 -0.3337 -1.1748 -0.5391
 6331SOL     OW30625   1.189   3.476  17.390  0.2659  0.5016 -0.1189
 6331SOL    HW130626   1.098   3.502  17.374 -0.0629  0.1049  1.0519
 6331SOL    HW230627   1.223   3.434  17.311 -0.0211 -1.7567  0.9565
 6332SOL     OW30628   4.500   0.308   6.806 -0.4253 -0.4821  0.5051
 6332SOL    HW130629   4.437   0.353   6.862 -1.8369 -0.0470 -1.4368
 6332SOL    HW230630   4.453   0.248   6.748 -1.7977  2.7983 -1.7885
 6333SOL     OW30631   4.401   1.581   4.507  0.0008  0.2755  0.3800
 6333SOL    HW130632   4.380   1.602   4.416 -1.2622  3.4113  1.4049
 6333SOL    HW230633   4.436   1.664   4.539 -0.3547 -0.7566  3.4224
 6334SOL     OW30634   4.159   3.692   7.725 -0.0513  0.1319  0.0145
 6334SOL    HW130635   4.248   3.712   7.695 -0.6237  2.3291 -0.1787
 6334SOL    HW230636   4.164   3.705   7.819 -0.6707 -2.5754  0.4179
 6335SOL     OW30637   2.050   1.967   7.304 -0.3843 -0.0293  0.4582
 6335SOL    HW130638   1.984   1.904   7.276  2.2511 -2.9718  0.9189
 6335SOL    HW230639   1.999   2.044   7.276  0.2489  0.4721  0.6787
 6336SOL     OW30640   3.888   2.046  16.043 -0.2294 -0.0219  0.0906
 6336SOL    HW130641   3.857   1.989  16.113  1.1088 -0.4623  0.3206
 6336SOL    HW230642   3.926   2.104  16.108 -1.6815  0.4883  0.4778
 6337SOL     OW30643   4.139   1.843   0.099  0.6935  0.0581  0.2693
 6337SOL    HW130644   4.114   1.756   0.131  0.8330  1.1472  3.3258
 6337SOL    HW230645   4.096   1.848   0.014 -0.3428 -0.5625  0.7550
 6338SOL     OW30646   3.185   1.851   9.232  0.3384 -0.2680  0.2078
 6338SOL    HW130647   3.137   1.771   9.250 -0.2058 -0.1227 -0.5950
 6338SOL    HW230648   3.246   1.866   9.304 -0.7701  1.7531  0.7140
 6339SOL     OW30649   3.795   4.492   5.129  0.1693  0.2359 -0.1057
 6339SOL    HW130650   3.717   4.437   5.128  1.0317 -0.9908  0.6819
 6339SOL    HW230651   3.778   4.579   5.093 -1.1707 -1.9175 -4.7623
 6340SOL     OW30652   3.006   0.021   0.339 -0.6224 -0.2976 -0.0250
 6340SOL    HW130653   3.053   0.053   0.416  3.0172 -3.1063 -1.0419
 6340SOL    HW230654   3.047   4.671   0.329  1.0629  0.2588  2.2845
 6341SOL     OW30655   3.786   1.139   1.464 -0.6165 -0.3301 -0.4556
 6341SOL    HW130656   3.811   1.231   1.461 -2.0944  0.0482 -1.4390
 6341SOL    HW230657   3.800   1.109   1.374  1.8673  2.8023 -1.0629
 6342SOL     OW30658   1.670   3.300  16.003  0.5023 -0.7532  0.5124
 6342SOL    HW130659   1.623   3.308  15.920  0.4862 -3.8182  0.2418
 6342SOL    HW230660   1.682   3.390  16.035 -2.1753 -0.1481 -0.1237
 6343SOL     OW30661   3.233   2.209   4.279 -0.6077 -0.3586 -0.2713
 6343SOL    HW130662   3.181   2.140   4.319 -1.8442 -0.5362 -2.1918
 6343SOL    HW230663   3.305   2.150   4.255 -0.6334 -0.5545  0.1322
 6344SOL     OW30664   1.353   0.683   2.432 -0.4442 -0.1747  0.7518
 6344SOL    HW130665   1.413   0.676   2.357 -1.6333 -1.0976 -0.1012
 6344SOL    HW230666   1.320   0.595   2.450  0.4451 -0.4420  1.0881
 6345SOL     OW30667   4.174   2.438   7.776 -0.1803 -0.3252 -0.5709
 6345SOL    HW130668   4.211   2.487   7.703  0.8000  2.6098  1.8934
 6345SOL    HW230669   4.084   2.470   7.775  0.6160  1.9001 -1.2005
 6346SOL     OW30670   0.792   0.704   4.452 -0.0897 -0.5216  0.4792
 6346SOL    HW130671   0.828   0.776   4.401  0.7831 -0.0233  1.7933
 6346SOL    HW230672   0.721   0.676   4.394 -0.6469  4.0075 -0.9841
 6347SOL     OW30673   0.754   2.783   1.346 -0.5479  0.3128  0.0338
 6347SOL    HW130674   0.785   2.734   1.422 -2.1038 -0.4725  0.1844
 6347SOL    HW230675   0.731   2.867   1.384  2.2834  2.0877 -2.2107
 6348SOL     OW30676   2.197   3.750   4.765 -0.0093 -0.1837  0.1656
 6348SOL    HW130677   2.178   3.781   4.854  0.9651  1.9390 -0.3571
 6348SOL    HW230678   2.167   3.659   4.769 -1.9964  0.3836 -1.7353
 6349SOL     OW30679   3.408   2.973   0.283  0.0434 -0.3471 -0.0637
 6349SOL    HW130680   3.388   2.980   0.190 -1.0568 -0.7582  0.1468
 6349SOL    HW230681   3.353   2.903   0.317 -1.5014  2.0131  2.3433
 6350SOL     OW30682   1.391   3.885   1.554 -0.4643 -0.3980  0.0795
 6350SOL    HW130683   1.478   3.908   1.587 -0.0083 -0.7579 -0.8611
 6350SOL    HW230684   1.357   3.863   1.640  1.2205 -0.5976  0.7039
 6351SOL     OW30685   1.746   0.624  13.201 -0.3929 -0.3913  0.3907
 6351SOL    HW130686   1.759   0.717  13.183  0.7055 -0.6301 -0.0413
 6351SOL    HW230687   1.656   0.625  13.235 -0.9867 -1.1142 -1.1772
 6352SOL     OW30688   1.582   3.842  11.679  0.4541  0.7176 -0.2328
 6352SOL    HW130689   1.535   3.888  11.748  0.0332 -0.2817  0.1489
 6352SOL    HW230690   1.536   3.758  11.675  1.9405 -0.1395  0.4575
 6353SOL     OW30691   3.436   4.198   6.193 -0.1446  0.1061  0.1571
 6353SOL    HW130692   3.440   4.293   6.205 -0.8225  0.2803 -0.9664
 6353SOL    HW230693   3.430   4.183   6.099  1.5728 -0.6748  0.1734
 6354SOL     OW30694   0.505   3.730  17.416 -0.3856  0.3840 -0.3645
 6354SOL    HW130695   0.517   3.824  17.430  1.0688  0.1991 -0.4063
 6354SOL    HW230696   0.455   3.703  17.493 -1.7443  2.0172 -0.6664
 6355SOL     OW30697   3.551   0.303  10.685 -0.4867  0.0236  0.4034
 6355SOL    HW130698   3.517   0.385  10.721  1.0164  1.0346 -0.5002
 6355SOL    HW230699   3.496   0.286  10.609  2.5026 -0.1217 -1.6903
 6356SOL     OW30700   0.312   2.608   7.494 -0.3573 -0.5725  0.8525
 6356SOL    HW130701   0.314   2.676   7.561  0.9769  1.1876 -0.9809
 6356SOL    HW230702   0.406   2.594   7.503  0.1045  1.9432 -0.0377
 6357SOL     OW30703   3.153   1.129  16.471  0.3912 -0.2061  0.2423
 6357SOL    HW130704   3.088   1.198  16.464 -1.6930 -2.2069 -0.3525
 6357SOL    HW230705   3.128   1.094  16.557  0.6277  1.1605  0.8702
 6358SOL     OW30706   2.063   2.107  17.442 -0.5451 -0.1831 -0.3556
 6358SOL    HW130707   2.158   2.109  17.427 -0.6451 -2.5180 -1.2319
 6358SOL    HW230708   2.033   2.194  17.416  2.3734  1.5802  2.0731
 6359SOL     OW30709   0.038   4.686   8.875  0.5951  0.1105  0.4722
 6359SOL    HW130710   0.079   0.030   8.908  0.0028  1.6879 -2.6745
 6359SOL    HW230711   4.687   4.694   8.914  0.2528 -1.6236  0.0370
 6360SOL     OW30712   3.938   3.713   8.326  0.7440  0.2672  0.0509
 6360SOL    HW130713   4.032   3.720   8.309  0.7969  0.9076  0.6415
 6360SOL    HW230714   3.925   3.685   8.235 -1.5105  1.7074 -0.0768
 6361SOL     OW30715   4.624   4.173   4.389 -0.1994 -0.0895  0.1707
 6361SOL    HW130716   4.614   4.174   4.294 -0.4968 -1.6194  0.1959
 6361SOL    HW230717   4.572   4.098   4.418  0.7889 -0.6495  0.5003
 6362SOL     OW30718   2.526   3.212   6.087  0.0857 -0.0253 -0.7027
 6362SOL    HW130719   2.500   3.258   6.007 -0.1749 -0.2139 -0.7251
 6362SOL    HW230720   2.443   3.179   6.120  0.7257 -1.0909 -0.1627
 6363SOL     OW30721   0.848   3.880   8.344 -0.5401  0.0298  0.4221
 6363SOL    HW130722   0.783   3.846   8.406 -0.1699  2.4684  2.1146
 6363SOL    HW230723   0.812   3.964   8.317  1.1171  1.1968  1.8615
 6364SOL     OW30724   2.039   0.282   9.223 -0.3257 -0.4963 -0.4569
 6364SOL    HW130725   2.128   0.315   9.209  0.1796 -1.6822 -0.1124
 6364SOL    HW230726   2.005   0.283   9.133 -1.2748 -1.6045 -0.1131
 6365SOL     OW30727   2.552   2.726   6.161 -0.0017 -0.3499 -0.4447
 6365SOL    HW130728   2.587   2.756   6.077 -1.0808  1.8765 -0.1011
 6365SOL    HW230729   2.591   2.785   6.226 -0.6501 -0.0141 -0.3610
 6366SOL     OW30730   2.781   3.432   5.922 -0.3130 -0.0076 -0.4634
 6366SOL    HW130731   2.790   3.373   5.997 -1.0666 -2.0681 -2.0092
 6366SOL    HW230732   2.852   3.399   5.866 -1.7333 -1.6422 -1.2765
 6367SOL     OW30733   4.230   0.330  14.929 -0.3167 -0.1260 -0.4083
 6367SOL    HW130734   4.143   0.363  14.951 -0.0520  0.1172  0.2583
 6367SOL    HW230735   4.228   0.243  14.969 -0.7366  0.0966  0.0581
 6368SOL     OW30736   4.700   2.521   5.774  0.2010 -0.1962  1.0312
 6368SOL    HW130737   4.652   2.596   5.809  0.0179 -0.2993  0.9986
 6368SOL    HW230738   0.017   2.570   5.711 -0.6072  1.0928  1.3545
 6369SOL     OW30739   0.417   1.350   8.749 -0.2755  0.3929 -0.0381
 6369SOL    HW130740   0.332   1.379   8.778 -1.0221 -0.8753 -0.9270
 6369SOL    HW230741   0.418   1.385   8.659  2.0057 -0.3482 -0.3079
 6370SOL     OW30742   0.247   0.794   4.039  0.2051  0.0610  0.1674
 6370SOL    HW130743   0.239   0.885   4.067  0.5698 -0.6469  2.5769
 6370SOL    HW230744   0.297   0.813   3.960  0.9381  1.4598  0.9791
 6371SOL     OW30745   2.836   2.739   6.023  0.3643 -0.7165  0.3664
 6371SOL    HW130746   2.757   2.685   6.027  1.0182 -1.7914 -0.9658
 6371SOL    HW230747   2.845   2.742   5.928  0.3466 -1.8670  0.3165
 6372SOL     OW30748   2.908   0.086   1.082  0.1576  0.0665 -0.1907
 6372SOL    HW130749   2.883   4.730   1.092  0.6516  0.2157  2.5315
 6372SOL    HW230750   2.969   0.098   1.155  2.0372 -1.5436 -1.5182
 6373SOL     OW30751   3.101   0.950  12.725  0.2788  0.3193 -0.4512
 6373SOL    HW130752   3.097   0.921  12.633  1.0948  1.4575 -0.8399
 6373SOL    HW230753   3.103   1.046  12.720 -1.8934  0.2422 -2.9821
 6374SOL     OW30754   2.595   3.984  12.889 -0.5428  0.1280 -0.0025
 6374SOL    HW130755   2.551   3.963  12.971 -0.3573  1.5275  0.4524
 6374SOL    HW230756   2.546   4.052  12.842  0.0054  1.0907  0.8356
 6375SOL     OW30757   0.063   3.949  17.052  0.4715 -0.0230  0.5987
 6375SOL    HW130758   0.138   3.957  17.111  1.3715 -3.8499 -0.0058
 6375SOL    HW230759   0.094   3.889  16.984 -2.4669 -0.0049 -0.7542
 6376SOL     OW30760   3.589   4.465  10.257  0.1620 -0.4079  0.2912
 6376SOL    HW130761   3.623   4.530  10.317 -3.8724  0.3498  1.7629
 6376SOL    HW230762   3.568   4.393  10.316 -1.6609 -0.5019 -0.4632
 6377SOL     OW30763   0.198   3.064  17.196  0.1938 -0.8077  0.0551
 6377SOL    HW130764   0.202   2.969  17.204 -3.2729 -1.1471 -2.1712
 6377SOL    HW230765   0.220   3.092  17.285  1.4083 -0.8979 -0.2181
 6378SOL     OW30766   0.244   3.168   7.120  0.1449  0.3936 -0.1799
 6378SOL    HW130767   0.273   3.234   7.057  1.1899 -0.0479 -0.1621
 6378SOL    HW230768   0.225   3.106   7.049 -2.3483  0.5645  0.3260
 6379SOL     OW30769   4.255   0.413   9.501  0.1665 -0.0683  0.0482
 6379SOL    HW130770   4.197   0.337   9.491  0.9503 -0.4246 -1.9483
 6379SOL    HW230771   4.320   0.406   9.431  0.0904  2.4634 -0.2793
 6380SOL     OW30772   4.461   0.867   4.978  0.3107 -0.3608  0.5022
 6380SOL    HW130773   4.447   0.934   5.045 -1.8029  1.7648 -2.1003
 6380SOL    HW230774   4.370   0.847   4.957  0.1002  0.2469  0.8353
 6381SOL     OW30775   1.283   1.641   0.542 -0.3831 -0.5286 -0.2469
 6381SOL    HW130776   1.325   1.659   0.458  1.2736  0.7112  0.8550
 6381SOL    HW230777   1.333   1.569   0.581 -0.6024 -1.3552 -1.5131
 6382SOL     OW30778   4.122   1.577   8.884 -0.1187  0.1288 -0.3310
 6382SOL    HW130779   4.067   1.655   8.889 -1.5848 -1.1105  2.6104
 6382SOL    HW230780   4.210   1.614   8.869  0.5243 -1.1030  0.4179
 6383SOL     OW30781   3.534   1.337   1.764 -0.0845  0.2891 -1.0619
 6383SOL    HW130782   3.462   1.390   1.799  1.2812  1.1410  0.4756
 6383SOL    HW230783   3.513   1.254   1.808  0.4630  0.6286 -0.1703
 6384SOL     OW30784   0.583   4.691  16.192 -0.0229 -0.0849 -0.1166
 6384SOL    HW130785   0.581   0.049  16.171  0.3068 -0.4651 -1.8995
 6384SOL    HW230786   0.639   4.690  16.269 -1.1106 -0.8741  0.6599
 6385SOL     OW30787   4.518   0.813   3.950 -0.1890 -0.4451 -0.2953
 6385SOL    HW130788   4.442   0.809   4.009  0.2220  2.1354  0.3910
 6385SOL    HW230789   4.476   0.840   3.869  0.3100 -1.2744 -0.8325
 6386SOL     OW30790   3.786   2.782   4.781 -0.8528  0.0574  0.3857
 6386SOL    HW130791   3.877   2.764   4.802 -1.3108 -0.8267  1.6156
 6386SOL    HW230792   3.750   2.760   4.868 -1.5820 -0.7311 -0.1156
 6387SOL     OW30793   1.138   4.310   5.910  0.5077 -0.4765  0.2229
 6387SOL    HW130794   1.067   4.321   5.973 -1.1008 -0.3023 -1.6280
 6387SOL    HW230795   1.098   4.342   5.829  0.5151  3.1266  1.6124
 6388SOL     OW30796   3.629   0.634   0.357 -0.1146 -0.1552 -0.4739
 6388SOL    HW130797   3.654   0.688   0.281  1.0989 -2.0111 -1.4013
 6388SOL    HW230798   3.663   0.554   0.315 -1.4912 -1.7735  1.4894
 6389SOL     OW30799   4.263   1.439   7.497 -0.6105 -0.4164 -0.5341
 6389SOL    HW130800   4.207   1.502   7.542  1.0280  0.3346  0.4379
 6389SOL    HW230801   4.308   1.481   7.423 -0.8955  1.2580  0.2367
 6390SOL     OW30802   2.782   3.663  17.186 -0.4975  0.2377 -0.2529
 6390SOL    HW130803   2.767   3.697  17.275 -2.5900  1.2683 -1.0063
 6390SOL    HW230804   2.877   3.669  17.180 -0.5494 -0.1621 -1.3353
 6391SOL     OW30805   3.974   1.958   6.736  0.9828  0.1779 -0.1908
 6391SOL    HW130806   4.007   2.001   6.657  1.8053  0.4962  0.3309
 6391SOL    HW230807   4.021   2.005   6.805 -1.6349  1.9083  0.4280
 6392SOL     OW30808   3.316   3.620   4.475 -0.1748  0.5934 -0.2325
 6392SOL    HW130809   3.230   3.617   4.434 -0.1261  1.4276 -0.3861
 6392SOL    HW230810   3.316   3.545   4.535 -1.3105 -0.5100 -1.6185
 6393SOL     OW30811   2.109   1.848   2.446  0.3732  0.1493  0.1388
 6393SOL    HW130812   2.169   1.859   2.519 -0.8379 -0.8192  1.2644
 6393SOL    HW230813   2.083   1.759   2.469 -2.5228  0.8089 -0.5840
 6394SOL     OW30814   0.257   0.589   5.582 -0.0544 -0.5822  0.5403
 6394SOL    HW130815   0.224   0.631   5.661  1.2508  0.7832  0.3675
 6394SOL    HW230816   0.191   0.524   5.557 -0.1593  0.3450 -1.6599
 6395SOL     OW30817   1.392   3.453   2.202 -0.6050  0.0442  0.3698
 6395SOL    HW130818   1.307   3.453   2.159 -0.6882  1.1692  0.5327
 6395SOL    HW230819   1.394   3.535   2.252 -2.2626  2.0012 -2.7320
 6396SOL     OW30820   3.226   0.655   5.215 -0.3430  0.4747 -0.0994
 6396SOL    HW130821   3.184   0.579   5.255  0.5035  0.4729  0.8049
 6396SOL    HW230822   3.200   0.729   5.270 -1.3986  0.0778 -0.0677
 6397SOL     OW30823   1.777   3.695   8.422 -0.9198 -0.5022  0.2649
 6397SOL    HW130824   1.768   3.779   8.377  0.1989 -0.1141  0.7688
 6397SOL    HW230825   1.801   3.728   8.508 -0.6077  0.1529 -0.0760
 6398SOL     OW30826   0.852   3.126   6.365  0.1198 -0.2677  0.0800
 6398SOL    HW130827   0.757   3.128   6.373  0.4536 -1.7092  4.2590
 6398SOL    HW230828   0.878   3.206   6.411 -2.7446 -0.2579  1.6751
 6399SOL     OW30829   1.617   2.682   7.915 -0.1043 -0.4349  0.4084
 6399SOL    HW130830   1.667   2.605   7.887  0.7998  0.4525 -0.4182
 6399SOL    HW230831   1.692   2.739   7.931 -0.1337  0.5510 -3.0011
 6400SOL     OW30832   0.173   1.095   4.660 -0.0255  0.3531 -0.5735
 6400SOL    HW130833   0.232   1.166   4.686  1.6318 -2.1365  2.5294
 6400SOL    HW230834   0.224   1.063   4.586  2.0707 -2.1462  1.9771
 6401SOL     OW30835   2.341   1.125   6.232 -0.6666  0.0533 -0.3692
 6401SOL    HW130836   2.364   1.049   6.179 -0.0723 -0.7609  1.0317
 6401SOL    HW230837   2.409   1.120   6.300  0.2804 -0.8912 -1.3684
 6402SOL     OW30838   0.788   2.774  16.558 -0.2280  0.2827  0.3981
 6402SOL    HW130839   0.815   2.726  16.479 -1.7257 -0.1079  0.1022
 6402SOL    HW230840   0.695   2.793  16.545 -0.2996 -1.2281 -1.4553
 6403SOL     OW30841   3.971   1.661   3.525  0.1922 -0.2684 -0.3117
 6403SOL    HW130842   3.961   1.660   3.430 -0.6590  2.5957 -0.2468
 6403SOL    HW230843   3.888   1.623   3.553  0.0381  0.6688  0.5370
 6404SOL     OW30844   0.697   0.264   7.945  0.4455 -0.3873  0.5923
 6404SOL    HW130845   0.742   0.348   7.931  0.9291 -0.7153  0.2145
 6404SOL    HW230846   0.608   0.298   7.936 -0.2124 -2.7918 -1.8384
 6405SOL     OW30847   4.191   4.323   4.383 -0.6569  0.1145 -0.5286
 6405SOL    HW130848   4.197   4.419   4.388  0.8835 -0.0683  0.9996
 6405SOL    HW230849   4.204   4.304   4.290  1.7934  0.0480 -0.1719
 6406SOL     OW30850   4.257   2.587   9.127  0.4499  0.3692 -0.0229
 6406SOL    HW130851   4.216   2.505   9.155 -2.2660  1.0755 -1.8782
 6406SOL    HW230852   4.279   2.628   9.210 -1.6178  0.4923  0.4760
 6407SOL     OW30853   2.144   1.271   3.923  0.2944 -0.4710 -0.1866
 6407SOL    HW130854   2.193   1.189   3.915  1.1551 -0.0277  0.6173
 6407SOL    HW230855   2.208   1.341   3.928 -0.5159  0.3148 -0.7422
 6408SOL     OW30856   1.701   0.488   7.686  0.2546 -0.4560  0.4253
 6408SOL    HW130857   1.613   0.501   7.651  0.6355  2.0298  0.4075
 6408SOL    HW230858   1.745   0.533   7.614  3.1617 -0.0478  2.4492
 6409SOL     OW30859   2.283   4.171   5.653  0.5650  0.5610  0.4189
 6409SOL    HW130860   2.379   4.167   5.642  0.6255 -0.2582  1.2258
 6409SOL    HW230861   2.279   4.138   5.743 -0.0572 -1.7828 -0.4681
 6410SOL     OW30862   0.825   1.345   3.660  0.0521  0.5002 -0.5816
 6410SOL    HW130863   0.735   1.313   3.673  0.9364 -1.4610  0.7964
 6410SOL    HW230864   0.878   1.268   3.682  0.8884  0.8673 -1.2949
 6411SOL     OW30865   1.264   2.778  11.998 -0.6027 -0.2233  0.1946
 6411SOL    HW130866   1.265   2.823  11.913 -0.8253 -0.8080 -0.1184
 6411SOL    HW230867   1.359   2.773  12.008 -0.3253  1.9059 -1.2326
 6412SOL     OW30868   1.843   2.310  16.247 -0.3735 -0.0774  0.1025
 6412SOL    HW130869   1.844   2.224  16.205  0.0268 -0.3338  0.6281
 6412SOL    HW230870   1.806   2.275  16.328 -1.5098  0.4928 -0.1698
 6413SOL     OW30871   4.348   2.548   4.931  0.8625 -0.1979  0.2483
 6413SOL    HW130872   4.371   2.626   4.980 -1.3187 -0.1052  1.1263
 6413SOL    HW230873   4.401   2.571   4.855  1.0040 -2.3002 -0.2875
 6414SOL     OW30874   2.643   2.039   9.222 -0.4082  0.0473 -0.3672
 6414SOL    HW130875   2.707   1.988   9.173  0.2010  0.2809  0.1731
 6414SOL    HW230876   2.671   2.130   9.216  1.9987 -0.5428  1.5244
 6415SOL     OW30877   3.835   3.901  10.957  0.1762  0.5478  0.0500
 6415SOL    HW130878   3.812   3.810  10.940 -0.4338  0.7684 -0.2816
 6415SOL    HW230879   3.860   3.885  11.048  0.5241  2.9064  0.3795
 6416SOL     OW30880   0.990   0.677  10.934  0.1398 -0.1288  1.0483
 6416SOL    HW130881   1.039   0.741  10.881  0.5720 -0.5886  0.8954
 6416SOL    HW230882   0.942   0.631  10.865  2.0506 -0.8830  0.2055
 6417SOL     OW30883   3.705   4.403  12.619 -0.9412 -0.4003 -0.0508
 6417SOL    HW130884   3.793   4.382  12.648  0.5103  1.7114 -2.8489
 6417SOL    HW230885   3.668   4.439  12.700 -0.5048  1.2118 -0.5508
 6418SOL     OW30886   4.528   2.736  15.412  0.3873  0.2447  0.8339
 6418SOL    HW130887   4.478   2.719  15.332  2.2182 -1.0434 -0.0432
 6418SOL    HW230888   4.588   2.661  15.411  0.1491  0.0631  0.1977
 6419SOL     OW30889   1.541   3.986   3.214  0.3163  0.1448 -0.2558
 6419SOL    HW130890   1.636   3.974   3.209  0.3535  0.2028  0.3420
 6419SOL    HW230891   1.539   4.029   3.299  0.1288 -3.9547  1.7753
 6420SOL     OW30892   2.891   3.059  15.176  0.0105 -0.1131 -0.2029
 6420SOL    HW130893   2.898   3.123  15.105 -1.2661  1.4025  1.0077
 6420SOL    HW230894   2.979   3.044  15.211  0.3789  0.5376 -0.8460
 6421SOL     OW30895   1.836   3.540   3.277  0.3603 -0.1810 -0.4348
 6421SOL    HW130896   1.931   3.548   3.291  0.1694 -0.9513  1.2416
 6421SOL    HW230897   1.810   3.471   3.338 -2.7341 -0.3487 -1.9588
 6422SOL     OW30898   1.997   4.711   6.720 -0.3613 -0.1900 -0.2545
 6422SOL    HW130899   2.010   4.652   6.794 -2.8783  2.5299  2.3191
 6422SOL    HW230900   1.941   0.042   6.757 -1.1850  0.3715 -2.4931
 6423SOL     OW30901   1.314   1.412   6.725  0.2651 -0.0131  0.2091
 6423SOL    HW130902   1.238   1.377   6.679  0.9910 -0.8585 -0.3260
 6423SOL    HW230903   1.391   1.374   6.684  1.4632  3.8673 -1.1005
 6424SOL     OW30904   1.525   2.096   4.649 -0.0965  0.0513 -0.1830
 6424SOL    HW130905   1.600   2.055   4.691  0.4238  0.8666 -0.3303
 6424SOL    HW230906   1.481   2.014   4.625  0.8498 -0.1536 -1.2164
 6425SOL     OW30907   2.969   4.654   2.138  0.1997  0.0447 -0.7308
 6425SOL    HW130908   2.881   4.671   2.105 -0.9266 -1.6544  1.3460
 6425SOL    HW230909   3.017   4.651   2.056  1.0073  0.9853 -0.2957
 6426SOL     OW30910   1.278   3.095  16.684 -0.3449 -0.2610 -0.2471
 6426SOL    HW130911   1.251   3.179  16.647 -2.6023 -0.3239  1.2949
 6426SOL    HW230912   1.196   3.079  16.732 -1.1774  3.8121 -0.3504
 6427SOL     OW30913   3.080   2.875  17.232 -0.3745 -0.1854 -0.1464
 6427SOL    HW130914   3.100   2.866  17.325 -2.3063  3.5920  0.6390
 6427SOL    HW230915   2.985   2.888  17.227 -0.4717 -1.4264 -1.4448
 6428SOL     OW30916   3.686   2.043   8.545 -0.3468 -0.2760 -0.1265
 6428SOL    HW130917   3.650   2.131   8.556 -1.2332 -0.6567  0.0651
 6428SOL    HW230918   3.779   2.057   8.528 -0.3447 -2.1610 -1.7258
 6429SOL     OW30919   1.799   0.829   6.277 -0.3492  0.1155  0.2187
 6429SOL    HW130920   1.885   0.856   6.309 -0.6419  0.7603  0.4567
 6429SOL    HW230921   1.766   0.909   6.236  0.0283 -0.7107 -1.7132
 6430SOL     OW30922   2.466   1.814   8.889 -0.0848  1.1888 -0.0318
 6430SOL    HW130923   2.451   1.786   8.798  1.0861 -0.2300  0.2090
 6430SOL    HW230924   2.561   1.811   8.895 -0.1173  2.3106  0.9329
 6431SOL     OW30925   1.334   3.778  12.228  0.5471 -0.2050  0.2431
 6431SOL    HW130926   1.403   3.825  12.181  1.9997 -0.7840  1.8268
 6431SOL    HW230927   1.382   3.703  12.262 -0.2280 -0.3980  0.8935
 6432SOL     OW30928   2.365   0.282   8.265  0.0339  0.1803  0.0203
 6432SOL    HW130929   2.277   0.244   8.269  0.3404 -0.5954 -0.5718
 6432SOL    HW230930   2.406   0.225   8.200  1.4621 -0.0597  1.1368
 6433SOL     OW30931   2.176   2.266   2.990  0.0250 -0.3007  0.2985
 6433SOL    HW130932   2.242   2.334   2.975 -0.5037  0.6469  2.3123
 6433SOL    HW230933   2.228   2.196   3.031  1.5652  1.5154  1.4738
 6434SOL     OW30934   0.769   0.673   3.185  0.3751 -1.0920  0.0011
 6434SOL    HW130935   0.691   0.623   3.163  1.4675 -2.5965 -0.4083
 6434SOL    HW230936   0.727   0.756   3.207 -0.2907 -1.6496  0.8470
 6435SOL     OW30937   0.413   0.521   7.452 -0.0082 -0.2125 -0.0861
 6435SOL    HW130938   0.415   0.510   7.357  1.4987  3.3650 -0.4722
 6435SOL    HW230939   0.332   0.571   7.466 -1.7608 -2.7752 -1.2361
 6436SOL     OW30940   0.945   3.884   6.496  0.2107 -0.1465 -0.2553
 6436SOL    HW130941   0.974   3.925   6.577 -0.9011 -0.9476  0.5533
 6436SOL    HW230942   0.879   3.827   6.536  0.1185 -0.9508 -1.5383
 6437SOL     OW30943   0.768   1.991  17.375  0.1524 -0.4239 -0.2033
 6437SOL    HW130944   0.687   2.003  17.326 -0.3642  2.6450  1.4374
 6437SOL    HW230945   0.834   1.998  17.306 -0.1583  2.2915 -0.2251
 6438SOL     OW30946   0.379   2.561   0.056  0.3391 -0.5221  0.0441
 6438SOL    HW130947   0.458   2.511   0.036 -0.4562 -1.3368 -1.0813
 6438SOL    HW230948   0.419   2.643   0.086  0.4590  0.8588 -3.8407
 6439SOL     OW30949   0.020   2.024   7.366 -0.4494 -0.3121  0.4833
 6439SOL    HW130950   0.096   2.026   7.308  0.2476 -1.7663  1.3578
 6439SOL    HW230951   0.004   2.118   7.368 -0.1096 -0.3305  4.1524
 6440SOL     OW30952   2.077   3.877   4.979 -0.1603 -0.1400 -0.6135
 6440SOL    HW130953   2.029   3.815   5.034  1.4651 -0.5701  0.3402
 6440SOL    HW230954   2.010   3.944   4.966 -0.7823 -0.2308  2.1288
 6441SOL     OW30955   1.366   2.995   8.789  0.6547  0.2376  0.3106
 6441SOL    HW130956   1.284   3.039   8.766  0.9142 -0.0473 -1.1439
 6441SOL    HW230957   1.408   2.989   8.704 -1.8913  0.3591 -0.9583
 6442SOL     OW30958   2.079   3.117   5.920 -0.3460 -0.4716  0.3498
 6442SOL    HW130959   2.048   3.129   6.009 -0.6637  0.5753  0.0996
 6442SOL    HW230960   2.061   3.203   5.881  0.0150 -0.4012  0.3341
 6443SOL     OW30961   3.070   3.648  13.958 -0.3651 -0.3305  0.2911
 6443SOL    HW130962   3.054   3.733  13.999  3.4256  0.7352 -0.3857
 6443SOL    HW230963   3.144   3.678  13.904 -0.7710 -0.2560 -0.2193
 6444SOL     OW30964   3.675   1.309   0.642 -0.1867 -0.2859  0.0771
 6444SOL    HW130965   3.713   1.233   0.599  2.0101  0.7867  0.1108
 6444SOL    HW230966   3.591   1.315   0.596  1.0761  0.7998 -2.0880
 6445SOL     OW30967   3.799   3.571   8.929 -0.0872  0.1338 -0.1508
 6445SOL    HW130968   3.883   3.528   8.945 -0.1406  0.0909  0.0047
 6445SOL    HW230969   3.781   3.527   8.846  0.4613 -1.0434  0.3605
 6446SOL     OW30970   1.786   4.327  14.256  0.0057 -0.6704  0.2581
 6446SOL    HW130971   1.761   4.236  14.242  0.5539 -1.1059  2.2216
 6446SOL    HW230972   1.798   4.361  14.167  1.7080  3.0566  1.9076
 6447SOL     OW30973   3.360   0.896  10.916 -1.1259  0.1575  0.8606
 6447SOL    HW130974   3.422   0.827  10.891 -0.3000  0.8835  0.9325
 6447SOL    HW230975   3.411   0.976  10.915 -0.2325 -0.4147  0.9261
 6448SOL     OW30976   0.355   3.111   1.519 -0.5975 -0.0932  0.4215
 6448SOL    HW130977   0.396   3.150   1.442 -2.7290  1.6208  0.1602
 6448SOL    HW230978   0.288   3.177   1.535  0.3942  0.9435  0.2989
 6449SOL     OW30979   4.418   4.193   3.100  0.2338  0.6540  0.5586
 6449SOL    HW130980   4.475   4.141   3.157  0.8864  0.2138 -0.5007
 6449SOL    HW230981   4.328   4.163   3.117 -0.3713  1.4731 -1.2154
 6450SOL     OW30982   0.301   3.992   3.047  0.0373 -0.2434 -0.1323
 6450SOL    HW130983   0.207   4.001   3.062 -0.0604  1.8052 -2.0500
 6450SOL    HW230984   0.332   4.071   3.003  1.1364 -0.0627  0.9656
 6451SOL     OW30985   2.016   3.746   5.710 -0.2612 -0.0735  0.1282
 6451SOL    HW130986   1.991   3.682   5.643  1.2363 -0.1035 -0.4098
 6451SOL    HW230987   2.031   3.698   5.791  1.3233  2.2217  1.2097
 6452SOL     OW30988   3.758   2.043   4.080  0.3758  0.7123  0.3398
 6452SOL    HW130989   3.743   2.020   3.988 -0.7706  2.2200  0.1493
 6452SOL    HW230990   3.713   2.127   4.069  0.1081  0.6484  0.9475
 6453SOL     OW30991   4.394   0.857   3.692  0.2732 -1.1124  0.4410
 6453SOL    HW130992   4.445   0.928   3.653  0.1038 -1.7437 -0.9317
 6453SOL    HW230993   4.404   0.794   3.621 -3.4530 -0.6732 -0.4799
 6454SOL     OW30994   0.571   2.306  11.624  0.0415  0.0480 -0.0231
 6454SOL    HW130995   0.547   2.280  11.535 -0.2757 -0.2635  0.1560
 6454SOL    HW230996   0.485   2.306  11.667  1.2991  1.8624  2.5030
 6455SOL     OW30997   3.701   1.147  12.719 -0.2135  0.6740  0.7906
 6455SOL    HW130998   3.749   1.123  12.640  1.3326 -0.7735  2.1834
 6455SOL    HW230999   3.755   1.212  12.763 -0.4454  0.5063  1.3263
 6456SOL     OW31000   4.100   0.593   7.476 -0.0148 -0.0521 -0.0149
 6456SOL    HW131001   4.111   0.499   7.460 -2.3477 -0.1002 -1.4571
 6456SOL    HW231002   4.053   0.626   7.399 -1.3368  2.7566  1.9856
 6457SOL     OW31003   0.932   3.428  11.365  0.1489 -0.2978 -0.8679
 6457SOL    HW131004   0.868   3.362  11.337 -0.4486 -0.5041  0.9445
 6457SOL    HW231005   1.006   3.387  11.321 -0.0484 -0.9210 -0.6270
 6458SOL     OW31006   4.468   3.776   7.214 -0.3732  0.6438 -0.0551
 6458SOL    HW131007   4.418   3.810   7.289 -0.9402 -0.0915 -0.1010
 6458SOL    HW231008   4.506   3.851   7.170  0.0945  0.6448  0.3584
 6459SOL     OW31009   2.364   2.110   1.891 -0.0323 -0.0380 -0.3440
 6459SOL    HW131010   2.444   2.061   1.907  0.1274  0.9564  1.9665
 6459SOL    HW231011   2.317   2.056   1.827  1.0767 -0.0225 -1.1663
 6460SOL     OW31012   1.822   4.001  11.820  0.3896 -0.3833  0.3621
 6460SOL    HW131013   1.888   4.008  11.751 -1.3012 -1.1116 -1.3107
 6460SOL    HW231014   1.753   3.954  11.773  0.3862 -0.4169  0.4001
 6461SOL     OW31015   1.693   2.105   6.055 -0.3735 -0.4727 -0.4091
 6461SOL    HW131016   1.608   2.124   6.097 -0.5204 -3.0488  0.4536
 6461SOL    HW231017   1.666   2.097   5.964  3.3879  0.3740 -1.5731
 6462SOL     OW31018   3.816   2.872   4.516 -0.0521 -0.0291  0.5353
 6462SOL    HW131019   3.761   2.802   4.481  0.3430  0.2538 -0.6600
 6462SOL    HW231020   3.818   2.829   4.602 -0.7776  1.3148  1.2353
 6463SOL     OW31021   3.932   3.858   8.916  0.4388  0.2215  0.5602
 6463SOL    HW131022   3.882   3.810   8.849 -1.0821  0.9459  1.1876
 6463SOL    HW231023   3.879   3.858   8.995  1.7980  1.0331  1.4575
 6464SOL     OW31024   3.301   0.931   1.587  0.3871  0.1959  0.3436
 6464SOL    HW131025   3.364   0.931   1.515 -0.7964  1.3226 -0.6694
 6464SOL    HW231026   3.360   0.947   1.661  1.0423 -2.1156  0.3312
 6465SOL     OW31027   4.259   1.655   2.186  0.3599  0.1356  0.5674
 6465SOL    HW131028   4.266   1.683   2.277 -2.8022  2.0749  0.2095
 6465SOL    HW231029   4.177   1.606   2.198  0.8165 -0.5651  0.8102
 6466SOL     OW31030   4.395   3.870   8.033  0.3647 -0.1995  0.1877
 6466SOL    HW131031   4.433   3.870   8.120 -0.6476 -0.3106  0.6248
 6466SOL    HW231032   4.436   3.946   7.992  0.2970 -0.4153 -0.2801
 6467SOL     OW31033   0.431   4.028   2.691 -0.3080  0.1714  0.1106
 6467SOL    HW131034   0.512   4.023   2.742  0.5912 -0.1752 -1.3507
 6467SOL    HW231035   0.458   4.076   2.612  0.3488 -1.5592 -0.7193
 6468SOL     OW31036   4.642   3.493  14.101  0.2185 -0.9718  0.1690
 6468SOL    HW131037   4.672   3.547  14.173 -0.5924  1.5732 -1.4286
 6468SOL    HW231038   4.662   3.405  14.133  1.2455 -0.0929  1.9481
 6469SOL     OW31039   1.444   1.962   0.797 -0.5072  0.2146  0.4575
 6469SOL    HW131040   1.415   1.871   0.782 -2.8759  0.9993  0.2967
 6469SOL    HW231041   1.432   1.975   0.891  2.1131 -0.1960  0.8408
 6470SOL     OW31042   0.541   3.156   3.726  0.2133  0.3915 -0.0778
 6470SOL    HW131043   0.449   3.145   3.750  0.1707 -0.0334 -0.4314
 6470SOL    HW231044   0.537   3.237   3.674 -0.9784 -1.9676 -3.6935
 6471SOL     OW31045   1.198   0.903  13.759 -0.2461 -0.2815  0.5385
 6471SOL    HW131046   1.182   0.952  13.678 -1.5937  0.6648  1.3743
 6471SOL    HW231047   1.291   0.884  13.748 -0.5425 -1.7639  0.5272
 6472SOL     OW31048   2.211   3.969   2.202 -1.1536  0.4980 -0.1653
 6472SOL    HW131049   2.183   4.058   2.182 -1.4921  0.5043  0.3611
 6472SOL    HW231050   2.159   3.916   2.142 -0.7678 -0.2277  0.1485
 6473SOL     OW31051   4.034   1.158   6.602  0.3380 -0.1640  0.2746
 6473SOL    HW131052   3.954   1.106   6.608  1.3327 -1.5805  1.3990
 6473SOL    HW231053   4.082   1.130   6.680  0.3067  0.7623  0.6226
 6474SOL     OW31054   2.629   0.071   5.940 -0.6211 -0.4727  0.5024
 6474SOL    HW131055   2.618   0.147   5.883 -1.3224 -1.8263 -1.1473
 6474SOL    HW231056   2.611   0.117   6.023 -0.1718 -1.1564  0.9754
 6475SOL     OW31057   1.011   0.732   7.912 -1.2336  0.0472 -0.2210
 6475SOL    HW131058   1.039   0.732   7.820 -1.0579  0.8419 -0.1619
 6475SOL    HW231059   1.096   0.752   7.949 -1.1750 -0.7663  0.0982
 6476SOL     OW31060   4.018   2.020   3.151 -0.0342  0.6837 -0.6832
 6476SOL    HW131061   3.955   2.083   3.188  0.9152  1.0907  0.2294
 6476SOL    HW231062   4.083   2.015   3.221 -2.0002  0.8023  1.1961
 6477SOL     OW31063   0.257   3.952   5.557 -0.6528 -1.1844 -0.4961
 6477SOL    HW131064   0.265   4.047   5.573  1.1798 -1.4620  0.2397
 6477SOL    HW231065   0.173   3.931   5.597  1.5352 -1.1461  4.2134
 6478SOL     OW31066   4.561   1.017   9.088 -0.6639  0.2178  0.0407
 6478SOL    HW131067   4.609   0.935   9.078  0.9847  1.3463 -1.1758
 6478SOL    HW231068   4.587   1.043   9.177  0.9931  0.2357 -0.4515
 6479SOL     OW31069   3.004   3.589   9.266 -1.1137 -0.5075 -0.2392
 6479SOL    HW131070   3.003   3.683   9.283 -1.7442 -0.6628  0.5856
 6479SOL    HW231071   3.018   3.593   9.171 -1.7189  2.2182 -0.2208
 6480SOL     OW31072   0.431   0.953   7.325  0.3260 -0.2294  0.5501
 6480SOL    HW131073   0.481   1.018   7.277 -0.0913 -0.4607 -0.2008
 6480SOL    HW231074   0.384   0.917   7.250  2.2838 -0.7496 -0.4244
 6481SOL     OW31075   0.763   0.176   3.225  0.0081  0.3172 -0.4716
 6481SOL    HW131076   0.819   0.242   3.183 -0.3459 -0.0449 -1.5089
 6481SOL    HW231077   0.780   0.199   3.317  0.4820  0.5078 -0.6072
 6482SOL     OW31078   0.652   1.857   5.555  0.3251 -0.0882  0.2804
 6482SOL    HW131079   0.609   1.811   5.627  2.2666 -0.8378  0.9858
 6482SOL    HW231080   0.618   1.813   5.477  0.0756 -0.7403  0.7540
 6483SOL     OW31081   3.007   1.481   6.760  0.3480  0.2704  0.3226
 6483SOL    HW131082   2.988   1.528   6.679  2.0285  0.3085 -0.0366
 6483SOL    HW231083   3.094   1.516   6.776  0.3191  1.2066 -1.6323
 6484SOL     OW31084   4.553   4.732  12.216  0.2283 -0.1341 -0.1585
 6484SOL    HW131085   4.604   4.711  12.295  0.3051  1.7906  0.3038
 6484SOL    HW231086   4.620   0.016  12.150 -0.2423  1.4334 -0.1563
 6485SOL     OW31087   3.982   2.194   0.707 -0.9130 -0.2299  0.0662
 6485SOL    HW131088   4.032   2.255   0.652 -0.7640 -1.2893 -0.9724
 6485SOL    HW231089   3.910   2.161   0.654 -1.5272  0.2300  0.6255
 6486SOL     OW31090   3.690   2.909  10.292  0.1745  0.3826 -0.1256
 6486SOL    HW131091   3.678   2.815  10.305  1.3168  0.4165  1.2126
 6486SOL    HW231092   3.717   2.913  10.200 -0.7305 -2.0742 -0.4917
 6487SOL     OW31093   0.092   1.784   7.487  0.5800  0.3322  0.3111
 6487SOL    HW131094   0.035   1.731   7.431  0.1354  1.9435 -0.7746
 6487SOL    HW231095   0.069   1.869   7.449  0.0053 -0.1574 -0.4457
 6488SOL     OW31096   0.084   4.734  13.474 -0.3367  0.0975  0.5629
 6488SOL    HW131097   0.063   4.643  13.495 -1.1613 -0.4970 -2.7791
 6488SOL    HW231098   0.178   4.728  13.490 -0.3981 -2.9839 -0.2100
 6489SOL     OW31099   3.165   1.371   1.160  0.2012  0.2405 -0.3479
 6489SOL    HW131100   3.104   1.297   1.153 -0.1950  0.2642  2.6874
 6489SOL    HW231101   3.252   1.332   1.157  0.5014  0.8591  0.3175
 6490SOL     OW31102   0.325   3.492   4.595 -0.3721  0.4989  0.4319
 6490SOL    HW131103   0.419   3.474   4.604 -0.2529  0.5038 -0.8283
 6490SOL    HW231104   0.308   3.474   4.688 -0.6039  2.1631  0.7011
 6491SOL     OW31105   3.975   1.999  12.742  0.7961  0.2291  0.6665
 6491SOL    HW131106   3.901   2.005  12.801 -0.5796 -1.8132 -0.8649
 6491SOL    HW231107   3.997   1.906  12.751  1.7902  0.4710  0.7330
 6492SOL     OW31108   2.356   3.005   6.074 -0.1029 -0.5120  0.3545
 6492SOL    HW131109   2.443   2.984   6.041 -1.0505  1.3187 -3.2953
 6492SOL    HW231110   2.304   2.985   5.996 -0.5851  2.5238 -0.1102
 6493SOL     OW31111   1.716   1.506  12.708 -0.1229 -0.0234 -0.2326
 6493SOL    HW131112   1.680   1.484  12.621  0.2487 -1.0478 -0.1212
 6493SOL    HW231113   1.652   1.473  12.771 -0.0693  0.5955  0.1417
 6494SOL     OW31114   2.390   0.843   5.727  0.1929 -0.1422  0.5779
 6494SOL    HW131115   2.314   0.818   5.779 -1.8604  0.4454 -2.1497
 6494SOL    HW231116   2.348   0.871   5.646 -0.9732  2.1061  1.9622
 6495SOL     OW31117   4.703   1.467  16.238 -0.3311  0.0023  0.1698
 6495SOL    HW131118   4.654   1.516  16.304 -0.6461  0.2496 -0.2545
 6495SOL    HW231119   4.726   1.543  16.185 -2.9672 -0.9983 -2.3953
 6496SOL     OW31120   1.668   1.401  10.012  0.3470  0.2514 -0.7218
 6496SOL    HW131121   1.613   1.359   9.946 -0.0209  1.2296 -1.0527
 6496SOL    HW231122   1.631   1.368  10.094  1.5837  2.2940  0.6599
 6497SOL     OW31123   2.058   2.798   1.968  1.4098 -0.5609  1.1148
 6497SOL    HW131124   2.074   2.877   2.018 -1.3170  1.1116 -0.6344
 6497SOL    HW231125   1.976   2.763   2.003  1.4403 -1.6880  0.0747
 6498SOL     OW31126   3.318   1.529   3.060 -0.4483 -0.0330 -0.0366
 6498SOL    HW131127   3.288   1.545   3.149  1.7097  1.2260  0.4615
 6498SOL    HW231128   3.242   1.480   3.028  0.9443 -1.3135 -1.3570
 6499SOL     OW31129   0.594   3.917   3.762 -0.3495 -0.1617  0.0310
 6499SOL    HW131130   0.624   3.898   3.850  1.0772  0.8729 -0.2355
 6499SOL    HW231131   0.651   3.856   3.713  0.8459  0.1465  1.0440
 6500SOL     OW31132   0.934   3.184   1.869 -0.0562 -0.5091  0.3929
 6500SOL    HW131133   0.943   3.127   1.793 -1.0856  0.5411 -0.5220
 6500SOL    HW231134   1.023   3.201   1.901 -1.0790  2.4899  1.6103
 6501SOL     OW31135   2.771   1.365   9.117 -0.2867 -0.1687 -0.0679
 6501SOL    HW131136   2.732   1.423   9.183 -1.7087 -1.4102  0.1939
 6501SOL    HW231137   2.743   1.283   9.158  0.1962 -0.3493 -0.1052
 6502SOL     OW31138   3.780   0.414   2.770 -0.4591  0.0016 -0.3247
 6502SOL    HW131139   3.817   0.498   2.796  1.9486 -0.6474 -1.6291
 6502SOL    HW231140   3.689   0.427   2.795 -0.4919 -1.8749  0.5479
 6503SOL     OW31141   1.965   1.604   5.023  0.4370  0.7381 -0.5978
 6503SOL    HW131142   1.962   1.695   4.994 -1.7952  0.3552 -1.5537
 6503SOL    HW231143   2.055   1.578   5.005  0.5170  0.2656  0.5123
 6504SOL     OW31144   4.264   2.184   3.225  0.3221 -0.4307 -0.5631
 6504SOL    HW131145   4.354   2.211   3.244  0.3816 -1.1690  0.1692
 6504SOL    HW231146   4.270   2.136   3.142 -0.3842  0.1171 -0.9333
 6505SOL     OW31147   0.123   3.903   4.752  0.5443  0.3165  0.0020
 6505SOL    HW131148   0.192   3.879   4.814 -1.3469 -0.7704  1.6580
 6505SOL    HW231149   0.071   3.956   4.812  0.3183 -0.0893  0.1613
 6506SOL     OW31150   2.512   4.659   7.163  0.3650 -0.1905  0.3069
 6506SOL    HW131151   2.601   4.692   7.154 -0.3478  1.8261  0.6046
 6506SOL    HW231152   2.505   4.660   7.259 -0.2118 -0.6462  0.2690
 6507SOL     OW31153   1.833   4.165   4.727 -0.6656 -0.1984  0.3733
 6507SOL    HW131154   1.808   4.177   4.635  1.7348 -0.4254 -0.3101
 6507SOL    HW231155   1.825   4.250   4.770 -0.9873  0.0398 -0.1582
 6508SOL     OW31156   0.838   0.776  11.809 -0.7315  0.1998  0.0384
 6508SOL    HW131157   0.926   0.806  11.789  0.7068 -2.9440  1.5939
 6508SOL    HW231158   0.839   0.691  11.765 -0.6512 -0.6402  1.6270
 6509SOL     OW31159   4.147   3.468   4.276 -0.2723  0.3057 -0.2806
 6509SOL    HW131160   4.065   3.428   4.246 -0.3974 -0.0552  0.5523
 6509SOL    HW231161   4.156   3.544   4.219 -0.2716  0.7457  0.3029
 6510SOL     OW31162   4.188   2.391  10.822 -0.4825  0.0289 -0.0774
 6510SOL    HW131163   4.277   2.424  10.836 -1.0349  0.7294  1.6918
 6510SOL    HW231164   4.168   2.429  10.736  3.0823 -0.7230 -1.2556
 6511SOL     OW31165   0.122   2.353   8.492  0.1723 -0.3225 -0.1923
 6511SOL    HW131166   0.146   2.396   8.410 -0.2409 -2.4886 -1.4582
 6511SOL    HW231167   0.048   2.295   8.471  0.3618 -0.6944  0.1733
 6512SOL     OW31168   0.914   3.069  16.943  0.6398  0.0718 -0.4875
 6512SOL    HW131169   0.848   3.049  16.876 -2.3498  1.4691  2.0285
 6512SOL    HW231170   0.875   3.035  17.023 -0.5384  1.8871 -0.2803
 6513SOL     OW31171   0.869   0.731  15.329 -0.6729  0.2977 -0.1528
 6513SOL    HW131172   0.957   0.723  15.368 -0.8183  0.6623  0.2483
 6513SOL    HW231173   0.892   0.732  15.236  1.8770 -2.5125  0.4148
 6514SOL     OW31174   0.461   0.429   4.936  0.9714 -0.4523  0.2849
 6514SOL    HW131175   0.546   0.470   4.921  0.2385  1.5253  1.5335
 6514SOL    HW231176   0.489   0.340   4.958  0.1246 -0.0438  3.0814
 6515SOL     OW31177   2.147   2.169  12.267 -0.0836  0.4067  0.3049
 6515SOL    HW131178   2.192   2.164  12.183 -0.8267 -0.7199 -0.0192
 6515SOL    HW231179   2.162   2.261  12.290 -1.2058  0.8621 -0.7956
 6516SOL     OW31180   2.397   3.912   4.013  0.2567 -0.1670 -0.1206
 6516SOL    HW131181   2.322   3.924   3.956 -1.4875 -0.4763  2.1087
 6516SOL    HW231182   2.366   3.916   4.104  0.7338 -1.0293  0.0890
 6517SOL     OW31183   0.722   4.714   6.747 -0.0538 -0.1133  0.2629
 6517SOL    HW131184   0.732   0.041   6.818  1.9098  0.2211 -0.2818
 6517SOL    HW231185   0.778   0.008   6.675  0.3225  0.8118  0.9349
 6518SOL     OW31186   1.138   3.051   8.176 -0.5932  0.0923 -0.2936
 6518SOL    HW131187   1.109   2.989   8.243  1.1920 -0.1096  0.2786
 6518SOL    HW231188   1.123   3.008   8.092 -0.1028 -3.2690  1.3461
 6519SOL     OW31189   3.465   3.805   1.685  0.3985  0.0092  0.0710
 6519SOL    HW131190   3.498   3.845   1.604  0.7351 -1.2582 -0.4250
 6519SOL    HW231191   3.491   3.872   1.748 -0.7810  0.7723 -0.2330
 6520SOL     OW31192   3.999   2.456   2.855  0.3253  0.7237 -0.6194
 6520SOL    HW131193   3.907   2.473   2.836  0.0321 -0.2962 -0.1062
 6520SOL    HW231194   3.995   2.446   2.950  1.6271  0.1689 -0.6230
 6521SOL     OW31195   1.414   0.559   5.092  0.3775 -0.3583 -0.1292
 6521SOL    HW131196   1.382   0.477   5.055  1.0492 -0.6265 -0.1140
 6521SOL    HW231197   1.349   0.570   5.160 -1.5731 -0.1825 -2.0122
 6522SOL     OW31198   2.696   2.316   0.520  0.1113  0.0789 -0.0746
 6522SOL    HW131199   2.649   2.394   0.492 -0.6335 -0.7051 -0.9867
 6522SOL    HW231200   2.781   2.357   0.539  0.6938 -0.3987 -1.6413
 6523SOL     OW31201   2.543   4.582   3.923  0.8784  0.1414  0.0536
 6523SOL    HW131202   2.519   4.661   3.875 -0.7783 -0.0658  0.5238
 6523SOL    HW231203   2.588   4.534   3.854  0.1995 -2.1870  1.2326
 6524SOL     OW31204   3.349   2.449   5.161 -0.4158  0.2953  0.2151
 6524SOL    HW131205   3.257   2.472   5.174 -0.7686 -0.5060 -0.8622
 6524SOL    HW231206   3.399   2.496   5.228 -1.9124 -0.2041  1.6862
 6525SOL     OW31207   1.616   0.754   5.276  0.4063 -0.3603 -0.2358
 6525SOL    HW131208   1.561   0.718   5.345  0.1160  0.5550  0.0188
 6525SOL    HW231209   1.581   0.843   5.285 -0.9533 -0.8871 -0.4248
 6526SOL     OW31210   0.290   2.158  14.632 -0.1114  0.4694  0.0132
 6526SOL    HW131211   0.250   2.102  14.565 -0.3197  0.4992  0.1104
 6526SOL    HW231212   0.382   2.157  14.606  0.0218 -0.3570  0.5013
 6527SOL     OW31213   4.312   1.208   4.611 -0.8735  0.8615  0.4228
 6527SOL    HW131214   4.300   1.287   4.664  0.3779  2.1193 -1.1330
 6527SOL    HW231215   4.395   1.229   4.567 -0.3875 -1.9907  0.0073
 6528SOL     OW31216   2.201   4.692   7.229 -0.0861 -0.3071  0.3167
 6528SOL    HW131217   2.246   0.035   7.199 -1.4423 -0.0284 -0.9898
 6528SOL    HW231218   2.275   4.645   7.269 -0.0022  0.5619  1.1629
 6529SOL     OW31219   3.361   2.982   3.600 -0.6882 -0.0528  0.2274
 6529SOL    HW131220   3.368   2.959   3.507 -1.3940 -1.2536  0.4720
 6529SOL    HW231221   3.363   2.895   3.640 -1.7393 -0.3696 -0.4190
 6530SOL     OW31222   4.263   4.112   2.623 -0.5884 -0.2984 -0.9322
 6530SOL    HW131223   4.291   4.180   2.562 -0.1432  1.3923  1.1504
 6530SOL    HW231224   4.326   4.129   2.693  1.3512 -2.7400 -2.0728
 6531SOL     OW31225   3.112   0.000   7.041 -0.1601  0.8750  0.4000
 6531SOL    HW131226   3.064   0.066   7.092  2.6583  2.3712  1.0930
 6531SOL    HW231227   3.182   4.712   7.100  0.2774 -0.2367 -0.5844
 6532SOL     OW31228   2.890   2.264   3.946 -0.0413  0.5320  0.0921
 6532SOL    HW131229   2.822   2.262   4.013 -0.5020  1.1303 -0.3583
 6532SOL    HW231230   2.945   2.189   3.969 -1.0834 -0.0663  0.6053
 6533SOL     OW31231   1.079   1.467   4.637 -0.6075 -0.4327  0.5078
 6533SOL    HW131232   0.992   1.438   4.666 -1.6416 -0.3192 -2.5169
 6533SOL    HW231233   1.120   1.393   4.591  0.6575  0.3309  0.4059
 6534SOL     OW31234   1.760   1.452   5.628 -0.7539  0.1265 -0.4358
 6534SOL    HW131235   1.777   1.359   5.615 -0.7611  0.3731 -2.1473
 6534SOL    HW231236   1.762   1.454   5.724  1.1269 -0.3382 -0.4708
 6535SOL     OW31237   2.861   4.267   8.030  0.4215  0.0639 -0.7131
 6535SOL    HW131238   2.859   4.359   8.056 -2.6358 -0.0772 -0.4440
 6535SOL    HW231239   2.769   4.241   8.017  0.5872 -0.4839 -0.7920
 6536SOL     OW31240   4.163   4.082   7.413  0.2818 -0.0184  0.0448
 6536SOL    HW131241   4.152   4.118   7.326  1.0664  2.9994  1.1907
 6536SOL    HW231242   4.095   4.127   7.463 -1.7398 -2.0641 -0.8308
 6537SOL     OW31243   0.767   3.993   3.069 -0.1083  0.1776 -0.2547
 6537SOL    HW131244   0.850   4.025   3.106 -0.5646 -2.3222  2.9076
 6537SOL    HW231245   0.756   3.900   3.089  0.0972 -0.2938 -2.2574
 6538SOL     OW31246   4.544   0.023  15.321 -0.4803  0.2974 -0.3752
 6538SOL    HW131247   4.638   0.021  15.303  0.0356 -0.2122  2.3158
 6538SOL    HW231248   4.545   0.041  15.415  2.3557 -0.1408 -0.3167
 6539SOL     OW31249   3.425   4.482  15.635  0.6307 -0.0586 -0.5583
 6539SOL    HW131250   3.412   4.515  15.546  1.6984  1.8680 -0.0076
 6539SOL    HW231251   3.414   4.387  15.630 -1.1106  0.1368 -0.5027
 6540SOL     OW31252   2.615   1.966  11.670  0.2680  0.0837 -0.2894
 6540SOL    HW131253   2.686   2.031  11.674  0.6754 -0.3773 -0.0052
 6540SOL    HW231254   2.653   1.898  11.726 -1.8329  0.2219  1.3032
 6541SOL     OW31255   1.248   1.231   7.590 -0.1359  0.1390 -0.4642
 6541SOL    HW131256   1.248   1.239   7.494 -1.1373 -1.5770 -0.6061
 6541SOL    HW231257   1.202   1.149   7.605  2.0353 -0.8748  0.5869
 6542SOL     OW31258   0.222   3.959   1.104 -0.0948 -0.0275  0.1102
 6542SOL    HW131259   0.263   3.976   1.019  2.2578  0.9874  1.4716
 6542SOL    HW231260   0.295   3.962   1.166  0.1972 -0.1660 -0.2275
 6543SOL     OW31261   0.565   0.074   4.574  0.2123  0.0940  0.2580
 6543SOL    HW131262   0.506   0.101   4.643  0.7885  1.5095  0.1960
 6543SOL    HW231263   0.646   0.125   4.584  1.1801 -1.9385  2.6231
 6544SOL     OW31264   3.443   2.944   8.256  0.2714 -0.3363 -0.4470
 6544SOL    HW131265   3.527   2.988   8.264  0.1183 -0.1192 -0.0503
 6544SOL    HW231266   3.467   2.852   8.244 -2.8360 -0.8069 -3.1351
 6545SOL     OW31267   1.814   0.430   3.682  0.1434  0.2925  0.1081
 6545SOL    HW131268   1.739   0.426   3.622  2.2510  0.4202 -2.5417
 6545SOL    HW231269   1.783   0.434   3.772 -2.1552  0.8017 -0.7108
 6546SOL     OW31270   3.626   2.723   3.543 -0.2411  0.0029  0.4154
 6546SOL    HW131271   3.534   2.743   3.525  0.1918  2.9497  1.5164
 6546SOL    HW231272   3.659   2.696   3.457  1.6453 -0.8092  1.3828
 6547SOL     OW31273   0.106   1.708   6.146 -0.3667 -0.2522 -0.1126
 6547SOL    HW131274   0.142   1.788   6.108 -0.1335 -0.3737 -0.1477
 6547SOL    HW231275   0.043   1.736   6.213  0.1704  1.8046 -0.4555
 6548SOL     OW31276   3.973   3.777   7.546  0.6934  0.4287  0.6175
 6548SOL    HW131277   4.009   3.784   7.458 -0.6629  3.2051  0.2903
 6548SOL    HW231278   4.045   3.745   7.600  0.3451 -1.7878 -0.2610
 6549SOL     OW31279   1.210   3.194  17.500 -0.1892  0.7471 -0.5116
 6549SOL    HW131280   1.286   3.146  17.469  0.0073 -0.8480  2.3690
 6549SOL    HW231281   1.198   3.249  17.423 -0.2363  0.4404 -0.7204
 6550SOL     OW31282   3.415   4.467   3.639  0.1462 -0.5018  0.4410
 6550SOL    HW131283   3.387   4.557   3.627 -3.1584 -0.8625  5.4808
 6550SOL    HW231284   3.455   4.475   3.726  2.6112 -0.0613 -0.7274
 6551SOL     OW31285   1.002   0.126   6.385  0.2870  0.0038  0.3090
 6551SOL    HW131286   1.027   0.052   6.330  1.8084  2.8658 -2.8124
 6551SOL    HW231287   0.932   0.166   6.333  0.5615  2.9009  2.1455
 6552SOL     OW31288   0.160   2.163   8.092  0.1617  0.1665 -0.5061
 6552SOL    HW131289   0.219   2.164   8.168 -0.2071 -0.8747 -0.2033
 6552SOL    HW231290   0.217   2.196   8.023  0.2824 -1.8462 -1.3680
 6553SOL     OW31291   0.662   1.857   6.790  0.3932 -0.3735 -0.1708
 6553SOL    HW131292   0.601   1.929   6.782 -0.0701 -0.5519  1.6895
 6553SOL    HW231293   0.705   1.858   6.876  0.7227 -0.7612 -0.3275
 6554SOL     OW31294   0.836   4.457   3.923  0.0553  0.2168 -0.3616
 6554SOL    HW131295   0.893   4.479   3.848 -1.6557  3.0487 -0.8302
 6554SOL    HW231296   0.754   4.503   3.904 -1.3763 -2.3401 -0.3169
 6555SOL     OW31297   4.676   0.381   4.572  0.2322 -1.0644  0.0864
 6555SOL    HW131298   4.716   0.402   4.657  2.5918  1.6109 -1.6791
 6555SOL    HW231299   4.706   0.290   4.563  2.6000 -0.5214  2.3042
 6556SOL     OW31300   0.315   3.462   7.315 -0.5890  0.6554  0.4833
 6556SOL    HW131301   0.384   3.527   7.328 -0.9177  1.4734 -1.8922
 6556SOL    HW231302   0.357   3.376   7.306 -0.9360  0.3322  2.0310
 6557SOL     OW31303   1.128   3.447  10.727 -0.3949  0.3446  0.5074
 6557SOL    HW131304   1.188   3.519  10.712  0.4291 -0.1223  1.5748
 6557SOL    HW231305   1.170   3.390  10.662  0.9714  2.6030 -0.5586
 6558SOL     OW31306   3.518   2.931  16.353 -0.1689  0.2011 -0.1988
 6558SOL    HW131307   3.538   2.916  16.260  0.4380 -3.0080  0.4765
 6558SOL    HW231308   3.447   2.867  16.363  0.2078 -0.6283 -2.7916
 6559SOL     OW31309   0.474   3.438  17.548 -0.0337  0.1493  0.1542
 6559SOL    HW131310   0.532   3.369  17.516  1.9084  0.8620  2.1657
 6559SOL    HW231311   0.429   3.457  17.466 -0.2852  2.9392  0.9379
 6560SOL     OW31312   0.653   3.964   8.073  0.0187  0.4733 -0.1930
 6560SOL    HW131313   0.721   3.917   8.025 -0.6370 -0.2035 -0.4580
 6560SOL    HW231314   0.641   3.902   8.145 -1.0057  0.5111 -0.3299
 6561SOL     OW31315   0.874   0.190   5.527  0.5256  0.3249 -0.6111
 6561SOL    HW131316   0.881   0.149   5.613  0.2134 -2.2880 -1.8093
 6561SOL    HW231317   0.913   0.121   5.473  0.5234 -1.1563  1.2690
 6562SOL     OW31318   0.496   1.426   3.927 -0.1710  1.0752 -0.0050
 6562SOL    HW131319   0.465   1.504   3.975  0.8549  0.4274  1.7090
 6562SOL    HW231320   0.437   1.355   3.951  0.9728 -0.2943 -1.2587
 6563SOL     OW31321   0.448   3.331  16.815  0.1460  0.4896  0.1498
 6563SOL    HW131322   0.363   3.348  16.855  0.1076 -1.5435  0.9174
 6563SOL    HW231323   0.439   3.266  16.746 -0.1733 -1.8470  2.3780
 6564SOL     OW31324   0.764   2.604  12.712  0.6428  0.5013 -0.0664
 6564SOL    HW131325   0.758   2.688  12.758  1.1171  0.7100 -0.3953
 6564SOL    HW231326   0.853   2.600  12.678  1.2585 -1.4716  1.7672
 6565SOL     OW31327   0.669   2.998   8.172 -0.2533  0.5104 -0.2282
 6565SOL    HW131328   0.600   3.065   8.177  0.3497  1.4349 -4.0422
 6565SOL    HW231329   0.742   3.054   8.145  1.3098 -1.2632  0.3084
 6566SOL     OW31330   0.367   3.144  14.154  0.0021 -0.0999 -0.2008
 6566SOL    HW131331   0.452   3.139  14.111  0.1816 -0.0407  0.1430
 6566SOL    HW231332   0.389   3.156  14.247  0.6020  0.7966 -0.4574
 6567SOL     OW31333   4.332   0.399   9.909  0.4786  0.4407 -0.3526
 6567SOL    HW131334   4.255   0.438   9.866  0.7338  0.5250 -0.7331
 6567SOL    HW231335   4.408   0.439   9.866  0.3537 -1.7797 -2.6268
 6568SOL     OW31336   3.427   3.552  17.330  0.5644 -0.2878 -0.1142
 6568SOL    HW131337   3.491   3.485  17.357  1.5164  0.7111  0.1172
 6568SOL    HW231338   3.464   3.626  17.378  0.1260  1.3167 -2.2589
 6569SOL     OW31339   3.059   0.858   6.024 -0.2883  0.6966 -0.4345
 6569SOL    HW131340   3.145   0.831   5.993 -0.1269  1.6033 -0.7839
 6569SOL    HW231341   3.072   0.949   6.051  5.1225  0.1511 -1.2180
 6570SOL     OW31342   3.233   4.301   5.278 -0.4763  0.1730 -0.3834
 6570SOL    HW131343   3.164   4.234   5.270  1.0235 -1.2919 -1.0464
 6570SOL    HW231344   3.190   4.385   5.291 -1.3870 -0.2957 -0.3057
 6571SOL     OW31345   1.952   2.887  16.573 -0.1754  0.4828  0.8011
 6571SOL    HW131346   2.002   2.928  16.501 -0.1872 -0.1805  0.4142
 6571SOL    HW231347   1.873   2.846  16.537  2.1612 -0.3161 -3.4377
 6572SOL     OW31348   4.124   0.907  14.123 -0.0722 -0.4857 -0.8661
 6572SOL    HW131349   4.056   0.966  14.090  1.5318 -0.0206 -3.3647
 6572SOL    HW231350   4.122   0.849  14.047 -0.0164 -0.6337 -0.7547
 6573SOL     OW31351   3.151   3.733   5.320 -0.3089  0.3777 -0.1541
 6573SOL    HW131352   3.180   3.792   5.390 -2.8608  1.0628  0.3327
 6573SOL    HW231353   3.220   3.667   5.324 -1.2564 -0.6490 -0.4220
 6574SOL     OW31354   3.064   1.348   9.269 -0.2390 -0.1269 -0.0704
 6574SOL    HW131355   3.024   1.348   9.356  2.6007 -1.8280  1.2671
 6574SOL    HW231356   3.103   1.260   9.269 -0.5353 -0.2505  2.0275
 6575SOL     OW31357   4.704   2.754   5.089  0.4180 -0.0014  0.6056
 6575SOL    HW131358   4.732   2.662   5.093  3.0412  0.6872 -1.9701
 6575SOL    HW231359   4.731   2.784   5.002 -0.1410  0.0619  0.4530
 6576SOL     OW31360   4.117   4.340   4.868 -0.0812  0.2800 -0.1759
 6576SOL    HW131361   4.139   4.247   4.858  1.0597  0.4086  1.2033
 6576SOL    HW231362   4.027   4.338   4.837 -0.0221 -0.3992 -0.3094
 6577SOL     OW31363   4.624   4.214  14.520  0.0135 -0.5451 -0.6876
 6577SOL    HW131364   4.530   4.224  14.537  0.0740 -0.6286 -0.3066
 6577SOL    HW231365   4.660   4.287  14.571 -2.3179  1.2649 -1.6043
 6578SOL     OW31366   2.529   4.498   6.314 -0.5536  0.0276 -0.0079
 6578SOL    HW131367   2.485   4.582   6.299 -1.0294 -0.4522 -1.2225
 6578SOL    HW231368   2.560   4.516   6.403 -0.2429 -1.3918  0.1688
 6579SOL     OW31369   4.423   3.824  14.794 -0.3680 -0.1988  0.3605
 6579SOL    HW131370   4.471   3.882  14.736 -1.9396  0.0515 -0.6904
 6579SOL    HW231371   4.456   3.737  14.771  0.8685  0.1254  0.9148
 6580SOL     OW31372   3.117   0.358  13.048 -0.2970 -0.1570  0.4604
 6580SOL    HW131373   3.027   0.386  13.034 -0.8300 -1.1196  1.9737
 6580SOL    HW231374   3.130   0.392  13.137 -0.6410  0.1459  0.3920
 6581SOL     OW31375   4.373   1.279  11.826  0.1727  0.7434  0.1714
 6581SOL    HW131376   4.416   1.253  11.907  0.4888  4.9857  1.3488
 6581SOL    HW231377   4.338   1.365  11.847  2.6474  1.2701  2.0786
 6582SOL     OW31378   3.945   2.156   8.301 -0.1776  0.1799  0.2114
 6582SOL    HW131379   3.981   2.072   8.274 -1.3491 -0.5049  0.8053
 6582SOL    HW231380   4.016   2.191   8.354 -0.2074  1.5513 -0.6522
 6583SOL     OW31381   4.694   1.752   2.543  0.0006 -0.1027  0.7324
 6583SOL    HW131382   4.601   1.775   2.536 -0.1795 -1.6153 -1.9167
 6583SOL    HW231383   4.708   1.708   2.459  0.3212  0.7262  0.3620
 6584SOL     OW31384   0.491   2.243   3.015 -0.3063  0.6819  0.1984
 6584SOL    HW131385   0.493   2.150   3.037 -2.5327  0.8877  1.2839
 6584SOL    HW231386   0.561   2.270   3.074 -0.4760  1.0209  0.2411
 6585SOL     OW31387   1.480   2.674  14.129  0.1070 -0.0210 -0.3516
 6585SOL    HW131388   1.504   2.746  14.071  0.3924 -1.1853 -1.6794
 6585SOL    HW231389   1.497   2.601  14.069 -0.6896  0.3364 -1.0119
 6586SOL     OW31390   4.090   2.878   8.771 -0.3725  0.0360 -0.0046
 6586SOL    HW131391   4.037   2.805   8.802 -0.0762 -0.3752 -0.4681
 6586SOL    HW231392   4.183   2.865   8.792 -0.1629  2.3388  0.5001
 6587SOL     OW31393   3.061   3.651   8.512  0.5016  0.2346  0.0027
 6587SOL    HW131394   3.062   3.571   8.461  1.2022 -0.0288  0.4234
 6587SOL    HW231395   3.082   3.711   8.441 -1.8529  0.8177 -0.2006
 6588SOL     OW31396   4.211   0.577   6.206 -0.2836  0.1392  0.1757
 6588SOL    HW131397   4.234   0.571   6.113 -0.2071 -2.8284  0.3816
 6588SOL    HW231398   4.129   0.626   6.197 -1.0601 -1.4951 -1.6279
 6589SOL     OW31399   0.772   4.320   4.275  0.5140 -0.1921  0.1500
 6589SOL    HW131400   0.813   4.266   4.342 -0.9826  0.3216  1.4766
 6589SOL    HW231401   0.679   4.316   4.299  0.1888  0.8150 -0.9057
 6590SOL     OW31402   0.087   0.305  16.767  0.2479  0.1132 -0.6072
 6590SOL    HW131403   0.069   0.398  16.775 -0.6879 -0.0245 -1.1207
 6590SOL    HW231404   0.003   0.278  16.728  1.2395 -1.0374 -1.9321
 6591SOL     OW31405   0.151   4.015   7.090  0.4051  0.5019 -0.1209
 6591SOL    HW131406   0.130   3.934   7.138 -1.0895  0.9376 -0.0162
 6591SOL    HW231407   0.111   4.066   7.160 -0.2091 -0.2571  0.0902
 6592SOL     OW31408   3.246   3.299   2.636  0.5073 -0.5893  0.3135
 6592SOL    HW131409   3.204   3.266   2.556 -0.4349 -1.4495  1.1447
 6592SOL    HW231410   3.327   3.248   2.636 -0.5960 -2.3604 -0.3162
 6593SOL     OW31411   3.058   1.428   5.337 -0.0392  0.2584  0.0390
 6593SOL    HW131412   3.133   1.487   5.339  0.9707 -1.0521  0.1424
 6593SOL    HW231413   2.986   1.490   5.353 -0.3529 -0.2760  0.7119
 6594SOL     OW31414   3.651   2.539   9.005  0.4857  0.2345 -0.4546
 6594SOL    HW131415   3.604   2.457   9.020  1.0027 -0.2335 -1.3669
 6594SOL    HW231416   3.711   2.534   9.079  0.0395  1.0756 -0.0394
 6595SOL     OW31417   2.530   2.522   7.669 -0.3536 -0.4250  0.2207
 6595SOL    HW131418   2.449   2.495   7.625 -0.1786 -0.6233  0.0222
 6595SOL    HW231419   2.532   2.616   7.654  0.8706 -0.4208  0.3849
 6596SOL     OW31420   2.631   2.420   1.546 -0.3899  0.3142  0.1548
 6596SOL    HW131421   2.686   2.351   1.510  0.2869  0.8162  0.2375
 6596SOL    HW231422   2.639   2.481   1.472  3.0399  1.1519  1.2295
 6597SOL     OW31423   4.554   3.131   8.599  0.0528  0.5916 -0.7159
 6597SOL    HW131424   4.531   3.116   8.690 -0.3564  1.8218 -0.6139
 6597SOL    HW231425   4.485   3.089   8.547 -0.6664  1.1215 -0.1882
 6598SOL     OW31426   3.673   2.817  11.028 -0.2374 -0.6676 -0.0788
 6598SOL    HW131427   3.739   2.875  11.065  0.6635 -0.4927 -1.9965
 6598SOL    HW231428   3.731   2.765  10.973 -0.0327 -1.2904  0.7254
 6599SOL     OW31429   0.730   2.679  11.179 -0.0326  0.2636  0.6451
 6599SOL    HW131430   0.655   2.640  11.225 -0.3057 -1.1238 -0.9925
 6599SOL    HW231431   0.688   2.763  11.162 -0.2597 -0.2187 -1.0998
 6600SOL     OW31432   2.066   2.241   0.318  0.1261 -0.1083 -0.0460
 6600SOL    HW131433   2.040   2.149   0.317  0.3224 -0.1655  0.3814
 6600SOL    HW231434   2.144   2.244   0.263 -1.4790 -0.6093 -2.4005
 6601SOL     OW31435   3.303   4.711   8.011 -0.0801  0.3228 -0.2788
 6601SOL    HW131436   3.283   0.069   8.013  0.1548  0.3896 -0.9447
 6601SOL    HW231437   3.233   4.679   7.953  0.2278 -1.9782  0.6251
 6602SOL     OW31438   4.535   1.567   7.821 -0.5084 -0.1340 -0.6822
 6602SOL    HW131439   4.532   1.516   7.740 -2.0139 -0.5789 -0.3362
 6602SOL    HW231440   4.468   1.632   7.799  0.2300  0.7020 -0.4688
 6603SOL     OW31441   3.031   4.571   9.073 -0.1412  0.1101  0.1362
 6603SOL    HW131442   2.959   4.563   9.136  0.1429  1.0887  0.5896
 6603SOL    HW231443   3.088   4.618   9.134 -1.6543  1.7853  0.2766
 6604SOL     OW31444   0.974   4.078   6.317 -0.0034  0.1667  0.0979
 6604SOL    HW131445   0.968   3.996   6.366 -0.9673  0.1346 -0.0626
 6604SOL    HW231446   1.056   4.120   6.339 -0.8691  3.1854 -2.3996
 6605SOL     OW31447   2.361   3.224   4.041  0.0698  0.3302  0.1612
 6605SOL    HW131448   2.380   3.219   4.134 -3.1324  0.6521  0.8589
 6605SOL    HW231449   2.412   3.150   4.009 -2.0948 -0.8403 -0.5641
 6606SOL     OW31450   0.600   2.396   1.979  0.2475 -0.3213 -0.2504
 6606SOL    HW131451   0.584   2.483   2.016 -0.5831 -0.3596 -0.5088
 6606SOL    HW231452   0.608   2.343   2.058  2.5367  1.8256  0.9659
 6607SOL     OW31453   2.180   2.808   3.191  0.2532  0.4947  0.1309
 6607SOL    HW131454   2.177   2.904   3.187  1.6239  0.5962  1.7987
 6607SOL    HW231455   2.192   2.785   3.283 -2.3923  1.8225  0.8251
 6608SOL     OW31456   3.733   3.512   2.735 -0.2020  0.2762  0.1103
 6608SOL    HW131457   3.649   3.518   2.690 -1.4957 -0.7117  2.4445
 6608SOL    HW231458   3.769   3.433   2.694 -1.1908 -0.3211  0.4162
 6609SOL     OW31459   3.430   1.336   3.351 -0.1795 -0.5392  0.3096
 6609SOL    HW131460   3.518   1.371   3.368 -0.0692  0.7908 -2.9322
 6609SOL    HW231461   3.379   1.369   3.425  1.6567  1.3342  0.7348
 6610SOL     OW31462   1.373   1.059   1.210 -0.3061 -0.1426 -0.5257
 6610SOL    HW131463   1.330   1.142   1.189  0.0158 -0.2633 -1.6675
 6610SOL    HW231464   1.431   1.069   1.135  0.2591  4.1089  0.4389
 6611SOL     OW31465   3.240   0.305  12.135 -0.2683  0.2986 -0.5520
 6611SOL    HW131466   3.146   0.305  12.154  0.5457 -1.5675  3.6146
 6611SOL    HW231467   3.251   0.359  12.057  2.3452 -0.9779 -1.0752
 6612SOL     OW31468   1.341   1.871   5.251  0.2447  0.1070 -0.3736
 6612SOL    HW131469   1.252   1.901   5.272  0.4763  1.0948 -0.8058
 6612SOL    HW231470   1.383   1.945   5.208 -1.0695  2.4306  2.3332
 6613SOL     OW31471   1.884   4.633   8.655  0.0400  0.1272  0.1483
 6613SOL    HW131472   1.959   4.692   8.654 -1.7012  2.3210 -0.2966
 6613SOL    HW231473   1.908   4.564   8.592 -1.3945 -1.0866  0.9061
 6614SOL     OW31474   0.662   2.790   6.487  0.2609 -0.0322 -0.2664
 6614SOL    HW131475   0.756   2.808   6.484  0.6078 -1.9081 -0.3475
 6614SOL    HW231476   0.633   2.857   6.550  2.7783 -0.1704  1.0545
 6615SOL     OW31477   4.562   1.699   9.995  0.2400 -0.2499 -0.3329
 6615SOL    HW131478   4.590   1.644   9.922 -0.5807 -2.1141  0.7381
 6615SOL    HW231479   4.505   1.636  10.039 -0.2621 -1.2864 -2.4475
 6616SOL     OW31480   4.410   2.542   9.460 -0.4565 -0.0199  0.4994
 6616SOL    HW131481   4.327   2.499   9.481 -0.2865  0.1956  1.5898
 6616SOL    HW231482   4.430   2.602   9.532 -1.7588 -1.1728  1.8360
 6617SOL     OW31483   2.398   0.460  13.066  0.5348  0.1230 -0.1194
 6617SOL    HW131484   2.333   0.479  12.998  1.4754 -2.6513 -1.8029
 6617SOL    HW231485   2.443   0.384  13.028 -0.6780 -0.7446  0.1971
 6618SOL     OW31486   0.808   3.491   7.603 -0.9965  0.0040 -0.5438
 6618SOL    HW131487   0.735   3.479   7.664 -0.1086  1.1647  0.7323
 6618SOL    HW231488   0.881   3.445   7.644  0.1605  1.8717 -0.5104
 6619SOL     OW31489   3.407   1.961   2.871  0.0379 -0.3257  0.2577
 6619SOL    HW131490   3.396   1.875   2.909 -3.9726  0.2767  0.3952
 6619SOL    HW231491   3.341   1.958   2.802 -1.5456  3.2308  1.6207
 6620SOL     OW31492   3.177   3.272  13.764 -0.3668  0.2291 -0.1135
 6620SOL    HW131493   3.259   3.290  13.810  0.3102  2.3347 -2.1336
 6620SOL    HW231494   3.199   3.310  13.679 -0.5494  0.1285 -0.2048
 6621SOL     OW31495   0.212   3.529  14.719  0.0397 -0.2818 -0.3691
 6621SOL    HW131496   0.288   3.587  14.711  1.0698 -1.2301  2.5127
 6621SOL    HW231497   0.229   3.488  14.804  0.7234 -2.0254 -1.3349
 6622SOL     OW31498   1.472   3.329   4.519 -0.3387 -0.9954 -0.0531
 6622SOL    HW131499   1.414   3.395   4.557  1.6617  0.7546 -0.0443
 6622SOL    HW231500   1.409   3.275   4.472  1.6146 -1.3876 -2.1916
 6623SOL     OW31501   4.106   0.379   8.659  0.4558  0.0982 -0.2449
 6623SOL    HW131502   4.095   0.474   8.655  1.5266  0.1537 -1.9431
 6623SOL    HW231503   4.195   0.364   8.692  0.4211  0.7917  0.1697
 6624SOL     OW31504   2.354   2.780   8.588 -0.3723 -0.9231  0.2542
 6624SOL    HW131505   2.422   2.832   8.546  0.1429 -0.6721  1.4003
 6624SOL    HW231506   2.304   2.846   8.636 -1.6655 -1.4540 -0.3696
 6625SOL     OW31507   2.975   1.993   7.054  0.1894  0.3206  0.4731
 6625SOL    HW131508   2.913   2.007   7.125 -0.4440  0.7131 -0.1623
 6625SOL    HW231509   2.922   1.931   7.002  0.2521  0.6465  0.0210
 6626SOL     OW31510   2.823   2.715   3.541  0.2512  0.0466  0.3490
 6626SOL    HW131511   2.831   2.808   3.517 -4.3018  0.3083 -0.2265
 6626SOL    HW231512   2.730   2.703   3.520  0.5751 -1.7249 -0.0639
 6627SOL     OW31513   0.960   1.834  14.730 -0.5147 -0.6979 -0.0046
 6627SOL    HW131514   0.960   1.929  14.740 -0.9166 -0.4728 -2.0923
 6627SOL    HW231515   0.914   1.819  14.648 -0.0265  0.0175 -0.4064
 6628SOL     OW31516   1.246   4.386   8.001  0.0353 -0.0363 -0.1188
 6628SOL    HW131517   1.341   4.390   7.993 -0.0617  0.8615 -0.8530
 6628SOL    HW231518   1.227   4.479   7.989 -1.3329 -0.2252  0.5824
 6629SOL     OW31519   0.810   0.204   3.527 -0.2054  0.0884  0.8214
 6629SOL    HW131520   0.845   0.196   3.615  0.4333  2.1736  0.7545
 6629SOL    HW231521   0.734   0.260   3.545 -0.6315  0.0967 -0.9744
 6630SOL     OW31522   2.775   2.576   8.301  1.2676 -0.2926 -0.2735
 6630SOL    HW131523   2.861   2.615   8.284  0.2398  1.1328 -2.2271
 6630SOL    HW231524   2.766   2.517   8.226  0.8112  0.9127 -1.1593
 6631SOL     OW31525   1.748   2.216  16.483 -0.2326  0.1366  0.7558
 6631SOL    HW131526   1.764   2.130  16.521 -1.2324 -0.8965 -1.1965
 6631SOL    HW231527   1.662   2.239  16.521 -1.6555 -1.0803 -1.7719
 6632SOL     OW31528   3.865   2.042   5.642  0.3639  0.0620 -0.1533
 6632SOL    HW131529   3.907   1.971   5.594  0.8753  0.5879 -0.4871
 6632SOL    HW231530   3.888   2.035   5.735  1.8302 -1.3799 -0.6255
 6633SOL     OW31531   0.683   3.179  13.956 -0.1315  0.0113 -0.2651
 6633SOL    HW131532   0.604   3.217  13.917 -0.8725 -3.6341 -2.3349
 6633SOL    HW231533   0.674   3.083  13.953 -1.3338  0.0963  0.5480
 6634SOL     OW31534   2.172   1.133   4.764 -0.1283 -0.9176 -0.3632
 6634SOL    HW131535   2.263   1.128   4.793  0.0215 -1.2122 -0.8765
 6634SOL    HW231536   2.133   1.053   4.801  0.1836 -0.1108  1.6931
 6635SOL     OW31537   1.336   0.907  12.941 -0.6704 -0.0624  0.0927
 6635SOL    HW131538   1.282   0.954  13.005 -0.9936 -0.2482 -0.0414
 6635SOL    HW231539   1.413   0.963  12.930  0.9330 -2.2670  0.2751
 6636SOL     OW31540   2.964   1.713   0.324  0.1838 -0.1575  0.0409
 6636SOL    HW131541   2.897   1.742   0.387 -1.6843 -0.7205 -1.6949
 6636SOL    HW231542   3.009   1.653   0.383  2.4058  0.5365 -0.9644
 6637SOL     OW31543   3.765   2.296   9.434 -0.4626  0.6409 -0.0854
 6637SOL    HW131544   3.764   2.228   9.367 -0.4032  0.6422 -0.0883
 6637SOL    HW231545   3.709   2.259   9.502 -1.9459  0.6422 -1.3201
 6638SOL     OW31546   4.183   2.653   3.164 -0.3657 -0.2830 -0.4977
 6638SOL    HW131547   4.223   2.640   3.250  1.6192  2.1896 -1.0557
 6638SOL    HW231548   4.133   2.572   3.162 -0.5425 -0.2064  1.0393
 6639SOL     OW31549   3.403   4.017   7.305 -0.5324 -0.1656  0.7598
 6639SOL    HW131550   3.430   4.101   7.343 -0.1609 -0.5355  1.3150
 6639SOL    HW231551   3.331   3.991   7.363 -2.5107  1.0629 -1.1449
 6640SOL     OW31552   1.467   0.659   6.833 -0.0479 -0.0705  0.1366
 6640SOL    HW131553   1.516   0.718   6.776  0.2621 -0.5496 -0.0882
 6640SOL    HW231554   1.527   0.609   6.888  2.0283  1.3185 -0.8689
 6641SOL     OW31555   2.523   2.845   2.925  0.3371 -0.1093 -0.1671
 6641SOL    HW131556   2.609   2.839   2.884  0.5439 -1.8379  0.4880
 6641SOL    HW231557   2.474   2.776   2.881  2.4964 -1.3551 -0.6090
 6642SOL     OW31558   2.059   2.367   0.545  0.2413 -0.0552  0.8925
 6642SOL    HW131559   2.070   2.325   0.460 -1.0304  0.5653  0.4214
 6642SOL    HW231560   2.142   2.414   0.535 -1.0126  1.8993 -0.4956
 6643SOL     OW31561   0.984   1.116   8.738  0.3266 -0.0430 -0.0490
 6643SOL    HW131562   1.063   1.134   8.788  0.5454  0.3942 -0.5613
 6643SOL    HW231563   0.980   1.020   8.748 -0.7652 -0.0399 -0.3758
 6644SOL     OW31564   3.354   4.037   3.034 -0.0566  0.2589 -0.4126
 6644SOL    HW131565   3.409   3.989   3.095  1.2145  1.8158 -0.3284
 6644SOL    HW231566   3.377   4.009   2.945  0.6254 -3.0428  0.8075
 6645SOL     OW31567   3.676   4.349   3.334  0.0557 -0.5980 -0.3106
 6645SOL    HW131568   3.603   4.302   3.292 -0.1244 -0.1326 -0.5167
 6645SOL    HW231569   3.681   4.428   3.280 -0.2153 -0.6021 -0.3427
 6646SOL     OW31570   3.004   4.002  11.327  0.2563  0.3173  0.9646
 6646SOL    HW131571   3.056   3.940  11.378  0.7302  0.3336  0.5014
 6646SOL    HW231572   3.071   4.008  11.258  1.1219  0.2300  1.8015
 6647SOL     OW31573   0.830   2.544   2.393  0.0461  0.2133  0.2408
 6647SOL    HW131574   0.840   2.595   2.313 -1.7414 -0.4021 -0.3720
 6647SOL    HW231575   0.916   2.500   2.391 -0.7547 -1.3626  0.3657
 6648SOL     OW31576   2.873   1.081   3.090 -0.7527 -0.2180  0.4048
 6648SOL    HW131577   2.839   1.168   3.069  0.2984  0.2955  0.7819
 6648SOL    HW231578   2.797   1.024   3.080 -0.1314 -1.2008  1.2623
 6649SOL     OW31579   4.271   4.617   4.409 -0.7458 -0.0495  0.0056
 6649SOL    HW131580   4.309   4.629   4.497 -0.2918  0.7480 -0.3020
 6649SOL    HW231581   4.280   4.703   4.369  0.3922 -0.3901 -0.4823
 6650SOL     OW31582   3.923   3.312   3.791  0.8983  0.6454 -0.0817
 6650SOL    HW131583   3.927   3.264   3.708  1.6000 -2.1176  1.5558
 6650SOL    HW231584   3.955   3.247   3.854  0.9014  1.0760  0.3555
 6651SOL     OW31585   4.669   1.732   8.324 -0.1492  0.5193  0.2079
 6651SOL    HW131586   4.601   1.667   8.306  0.6313  0.2194 -1.7002
 6651SOL    HW231587   4.623   1.815   8.308 -0.2898  0.6127  1.0793
 6652SOL     OW31588   1.874   3.922   1.170 -0.1639 -0.0378  0.1497
 6652SOL    HW131589   1.912   4.008   1.150 -1.6015  0.4474 -0.5431
 6652SOL    HW231590   1.841   3.902   1.083  1.1345 -1.6589  0.0361
 6653SOL     OW31591   0.661   1.668  17.125  0.2020  0.3649 -0.6248
 6653SOL    HW131592   0.701   1.662  17.038  3.8167 -1.4997  1.1687
 6653SOL    HW231593   0.696   1.753  17.151  1.0836 -0.2000  0.0331
 6654SOL     OW31594   1.251   2.138  11.797 -0.3616  0.3421 -0.1043
 6654SOL    HW131595   1.234   2.221  11.841 -2.6629 -0.0035 -0.3642
 6654SOL    HW231596   1.165   2.132  11.756  0.2342  0.2591 -1.3260
 6655SOL     OW31597   0.085   2.128   3.601 -0.5847 -0.2353 -0.5499
 6655SOL    HW131598   0.067   2.063   3.533 -1.6821 -0.3557 -0.1472
 6655SOL    HW231599   0.040   2.203   3.562 -1.2160 -0.4426 -0.2330
 6656SOL     OW31600   3.492   1.180   1.042  0.0630 -0.0430 -0.3120
 6656SOL    HW131601   3.489   1.202   1.135  1.0669 -1.5475  0.0648
 6656SOL    HW231602   3.545   1.252   1.007 -0.0021 -0.1780 -0.6885
 6657SOL     OW31603   0.717   2.880   8.469  0.2528  0.0636 -0.2913
 6657SOL    HW131604   0.677   2.935   8.535  1.8693  0.5196  0.3228
 6657SOL    HW231605   0.683   2.917   8.387  0.3780  1.7788  0.4445
 6658SOL     OW31606   2.922   1.816   4.635  0.2716 -0.6600  0.1624
 6658SOL    HW131607   2.934   1.722   4.646  0.3232 -0.6672  0.0444
 6658SOL    HW231608   2.998   1.852   4.681  1.2027 -2.0726 -0.2586
 6659SOL     OW31609   2.860   2.133   2.933 -0.5021  0.4062  0.1666
 6659SOL    HW131610   2.880   2.199   2.867 -1.9354  1.4151  0.7568
 6659SOL    HW231611   2.795   2.083   2.883  0.1750 -0.8999  0.6065
 6660SOL     OW31612   3.174   2.999  15.299 -0.4835  0.3946  0.6495
 6660SOL    HW131613   3.234   2.951  15.243  1.1537  2.5484  0.5521
 6660SOL    HW231614   3.227   3.075  15.325  0.5826 -1.2988  3.3670
 6661SOL     OW31615   4.043   0.371   6.463 -0.0961 -0.0500  0.4202
 6661SOL    HW131616   4.028   0.465   6.453 -0.1654 -0.0133  0.8544
 6661SOL    HW231617   4.139   0.373   6.467 -0.0748 -0.2506 -0.0922
 6662SOL     OW31618   2.262   1.633   7.658  0.2826 -0.4255 -0.2308
 6662SOL    HW131619   2.301   1.718   7.676 -0.8001  0.2047 -0.8563
 6662SOL    HW231620   2.245   1.639   7.564  0.5499 -0.8095 -0.3044
 6663SOL     OW31621   3.005   3.373   5.763 -0.8808 -0.1396  0.8230
 6663SOL    HW131622   2.962   3.327   5.691  0.0748 -2.1878  1.5684
 6663SOL    HW231623   3.075   3.422   5.720 -0.0759 -1.9239  0.0953
 6664SOL     OW31624   4.061   1.704   5.730  0.3620 -0.0495  0.3585
 6664SOL    HW131625   3.966   1.701   5.717  0.3919  2.3469 -0.4431
 6664SOL    HW231626   4.070   1.783   5.782  2.1228  1.3256 -2.0677
 6665SOL     OW31627   1.905   3.098   0.726 -0.0768  0.2261  0.4517
 6665SOL    HW131628   1.952   3.071   0.805 -1.9651  0.4283  1.6429
 6665SOL    HW231629   1.884   3.015   0.682 -0.7424  1.3513 -1.3456
 6666SOL     OW31630   0.073   2.704   5.605  0.2256 -0.5013 -0.2770
 6666SOL    HW131631   0.018   2.712   5.528 -1.6979 -0.6108  1.0760
 6666SOL    HW231632   0.150   2.749   5.570 -0.4696  1.2726  0.4578
 6667SOL     OW31633   3.063   0.515   1.245  0.2844 -0.3399  0.1175
 6667SOL    HW131634   3.052   0.479   1.157  1.6153  0.5844 -0.4353
 6667SOL    HW231635   3.107   0.441   1.286  0.1414  0.1999  1.2448
 6668SOL     OW31636   2.895   1.159   7.675  0.7165  0.3459 -0.4703
 6668SOL    HW131637   2.815   1.122   7.712  2.3647 -1.3179  1.3869
 6668SOL    HW231638   2.963   1.127   7.734  0.4261 -1.4165 -1.0954
 6669SOL     OW31639   3.576   2.284   8.626 -0.0549  0.1083  0.4633
 6669SOL    HW131640   3.574   2.366   8.575  2.1937 -1.0093 -1.3727
 6669SOL    HW231641   3.483   2.290   8.650  0.2517 -2.0213  2.1569
 6670SOL     OW31642   3.269   0.467  11.165  0.1767  0.3243 -0.2859
 6670SOL    HW131643   3.220   0.386  11.176 -0.9608  0.7431 -2.1134
 6670SOL    HW231644   3.201   0.528  11.134 -0.6080 -1.1013 -1.3892
 6671SOL     OW31645   1.619   2.143   9.503  0.0985 -0.3423  0.2016
 6671SOL    HW131646   1.532   2.140   9.541  1.2317 -0.6858  2.7238
 6671SOL    HW231647   1.602   2.117   9.412  0.2561 -2.9027  0.9123
 6672SOL     OW31648   1.592   1.663  12.005 -0.0202  0.2179 -0.0933
 6672SOL    HW131649   1.665   1.634  11.950 -1.7094 -0.2863 -2.0365
 6672SOL    HW231650   1.631   1.739  12.048 -1.3718  0.9821 -0.2089
 6673SOL     OW31651   2.606   2.798   4.256 -0.2684  0.6122 -0.2684
 6673SOL    HW131652   2.511   2.790   4.261 -0.4085  1.1573 -2.1904
 6673SOL    HW231653   2.612   2.875   4.200 -0.6062  0.6472 -0.2583
 6674SOL     OW31654   1.354   2.533   5.675 -0.1599  0.1748 -0.6918
 6674SOL    HW131655   1.443   2.509   5.652 -0.0002 -0.8749  1.0274
 6674SOL    HW231656   1.304   2.452   5.685 -2.0389  1.1658 -1.9187
 6675SOL     OW31657   3.489   3.548   8.840  0.7354  0.1609  0.1029
 6675SOL    HW131658   3.512   3.638   8.814  2.7407 -0.5605 -0.6132
 6675SOL    HW231659   3.560   3.526   8.900  1.3200  0.0539 -0.6189
 6676SOL     OW31660   3.796   0.459   3.431  0.1783  0.3993 -0.0771
 6676SOL    HW131661   3.759   0.454   3.343 -2.4747 -1.0406  1.1373
 6676SOL    HW231662   3.885   0.425   3.419 -1.1529 -3.5357  1.1086
 6677SOL     OW31663   2.289   1.070  12.877 -0.5118  0.4152  0.4849
 6677SOL    HW131664   2.344   1.138  12.838 -2.2290  2.1101  1.0430
 6677SOL    HW231665   2.213   1.075  12.819  0.5866 -1.0346 -1.0782
 6678SOL     OW31666   1.748   1.326   0.459 -0.4882 -0.6720 -0.1599
 6678SOL    HW131667   1.771   1.265   0.389  2.2474  0.5575 -0.3630
 6678SOL    HW231668   1.792   1.284   0.533 -1.7247 -0.2632  0.7987
 6679SOL     OW31669   3.993   0.705   2.290  0.0952 -0.2559  0.1232
 6679SOL    HW131670   3.986   0.750   2.375 -0.1961  1.8286 -1.0058
 6679SOL    HW231671   3.917   0.647   2.284 -0.8768  0.9229  1.0080
 6680SOL     OW31672   2.376   3.331   5.893  0.8461  0.4839 -0.4697
 6680SOL    HW131673   2.297   3.278   5.898  1.0433  0.0105 -2.2375
 6680SOL    HW231674   2.371   3.342   5.798 -0.9543 -2.3027 -0.6860
 6681SOL     OW31675   1.689   3.455   6.659 -0.4823 -0.7013  0.3319
 6681SOL    HW131676   1.770   3.482   6.703 -0.9629 -1.3279  1.5881
 6681SOL    HW231677   1.697   3.360   6.663 -0.9339 -0.7846 -0.6103
 6682SOL     OW31678   1.534   0.349  12.506  0.2657  0.5899  0.0096
 6682SOL    HW131679   1.511   0.424  12.560 -0.6034  1.5390 -1.7144
 6682SOL    HW231680   1.547   0.396  12.424  2.4192 -2.1443 -1.2128
 6683SOL     OW31681   4.136   3.787   5.667  0.0886  0.6735 -0.5103
 6683SOL    HW131682   4.057   3.761   5.714 -1.1147  2.6133 -1.4498
 6683SOL    HW231683   4.146   3.873   5.708 -0.9112 -0.0376  1.2088
 6684SOL     OW31684   0.640   3.636   7.888 -0.1499  0.1488  0.9256
 6684SOL    HW131685   0.553   3.601   7.870  0.0995  0.3352 -0.5825
 6684SOL    HW231686   0.655   3.637   7.983  0.5735 -0.2573  0.8106
 6685SOL     OW31687   0.374   0.752   6.426 -0.0200 -0.4439  0.4172
 6685SOL    HW131688   0.281   0.730   6.435 -0.0094  0.2254  2.2894
 6685SOL    HW231689   0.405   0.661   6.429  0.7050 -0.1360  2.2170
 6686SOL     OW31690   0.285   0.880   6.097  0.0372  0.5668 -0.3852
 6686SOL    HW131691   0.204   0.832   6.082  0.1511  0.6610 -1.3248
 6686SOL    HW231692   0.246   0.966   6.112  1.2738  1.2470 -1.0211
 6687SOL     OW31693   0.730   3.035  17.159 -0.2493  0.2243 -0.2627
 6687SOL    HW131694   0.660   3.099  17.147 -0.2369  0.4049  0.6201
 6687SOL    HW231695   0.682   2.960  17.194  0.5539  0.6477  1.7772
 6688SOL     OW31696   2.042   4.211   5.110 -0.2215  0.0231 -0.1051
 6688SOL    HW131697   2.009   4.301   5.111 -2.2134 -0.7287  0.5115
 6688SOL    HW231698   1.964   4.173   5.151 -0.7183  0.1840 -0.8988
 6689SOL     OW31699   4.350   1.738   8.002 -0.1370 -0.4404 -0.0159
 6689SOL    HW131700   4.327   1.803   8.068 -0.4194 -0.9391  0.3764
 6689SOL    HW231701   4.400   1.678   8.058  2.1560  0.8459 -0.6684
 6690SOL     OW31702   2.245   1.145  14.482  0.3628  0.5619  0.0862
 6690SOL    HW131703   2.316   1.191  14.437  0.1761  0.0256 -0.7531
 6690SOL    HW231704   2.301   1.096  14.542 -0.9650 -0.1847  0.7130
 6691SOL     OW31705   0.886   1.294   3.405  0.4584  0.2962  0.0375
 6691SOL    HW131706   0.840   1.312   3.487 -1.4388 -1.4366 -0.6356
 6691SOL    HW231707   0.964   1.348   3.418  0.1762  0.3017  1.6577
 6692SOL     OW31708   1.518   2.497   6.180 -0.6373  0.1918 -0.0673
 6692SOL    HW131709   1.490   2.559   6.112  0.5098 -0.1077 -0.8155
 6692SOL    HW231710   1.606   2.472   6.152 -0.6144 -0.8190  0.8898
 6693SOL     OW31711   1.883   1.042  12.735 -0.0145  0.4250 -0.6826
 6693SOL    HW131712   1.836   1.084  12.663 -1.0630  0.7278  0.1729
 6693SOL    HW231713   1.921   1.113  12.787 -1.7875  2.1397 -1.7137
 6694SOL     OW31714   1.039   2.244   2.574 -0.1217  0.2527  0.9575
 6694SOL    HW131715   1.116   2.189   2.589  0.6663  1.5729  1.7744
 6694SOL    HW231716   1.013   2.258   2.665 -0.0943  0.6342  0.9079
 6695SOL     OW31717   2.978   0.467  12.484  0.1266  0.3477 -0.4023
 6695SOL    HW131718   3.049   0.502  12.430 -0.6625 -1.0125 -2.3065
 6695SOL    HW231719   2.947   0.390  12.437  0.0995  1.2711 -1.8978
 6696SOL     OW31720   3.747   2.882  11.392 -0.3865 -0.4245  0.1556
 6696SOL    HW131721   3.708   2.914  11.474 -1.2670 -1.2016  0.0334
 6696SOL    HW231722   3.768   2.793  11.421 -0.8814 -0.4860  0.3235
 6697SOL     OW31723   0.131   1.724   7.062 -0.4702 -0.0195 -0.5518
 6697SOL    HW131724   0.224   1.732   7.043 -0.2694  0.1172  0.4477
 6697SOL    HW231725   0.092   1.732   6.976 -0.4338 -0.8697 -0.6407
 6698SOL     OW31726   0.024   2.487  14.006 -0.2001  0.2132 -0.3980
 6698SOL    HW131727   0.064   2.561  14.052 -1.1136  0.7899 -0.5087
 6698SOL    HW231728   0.098   2.428  13.998 -1.7704 -1.7577 -0.4027
 6699SOL     OW31729   1.531   0.822   7.929  0.4385 -0.1014  0.1251
 6699SOL    HW131730   1.599   0.860   7.985 -1.5055  0.7935  1.8571
 6699SOL    HW231731   1.523   0.729   7.947  0.3442 -0.3317 -1.0938
 6700SOL     OW31732   0.048   1.697   3.637  0.2442 -0.3066  0.1618
 6700SOL    HW131733   0.001   1.721   3.716  1.0732 -0.6959  0.7709
 6700SOL    HW231734   0.008   1.615   3.609 -0.2719  0.1774 -0.5357
 6701SOL     OW31735   2.182   1.171   8.985  0.4676  0.7787 -0.4637
 6701SOL    HW131736   2.231   1.149   8.906  1.5277 -1.0804  0.7221
 6701SOL    HW231737   2.182   1.267   8.976  0.3884  0.9860  1.7159
 6702SOL     OW31738   3.102   0.460   5.334  0.5086  0.5125 -0.5420
 6702SOL    HW131739   3.074   0.369   5.339  2.3164 -0.0611 -0.7362
 6702SOL    HW231740   3.057   0.500   5.408 -1.0365 -2.1246 -0.0563
 6703SOL     OW31741   2.873   1.632   2.919 -0.4608  0.0661 -0.5315
 6703SOL    HW131742   2.911   1.691   2.985 -2.3478 -0.6711  1.2159
 6703SOL    HW231743   2.818   1.571   2.968 -0.9247  0.6673 -0.2945
 6704SOL     OW31744   4.499   0.399   5.297  0.0807 -0.7197  0.3602
 6704SOL    HW131745   4.553   0.348   5.357  0.7756 -1.0719 -0.5715
 6704SOL    HW231746   4.519   0.492   5.308  0.6981 -0.8618  0.4042
 6705SOL     OW31747   2.911   2.252   1.781 -0.1336 -0.1702 -0.1138
 6705SOL    HW131748   2.929   2.299   1.700  1.2682  0.1074  0.3473
 6705SOL    HW231749   2.941   2.166   1.751  0.5631 -0.3292  1.0329
 6706SOL     OW31750   4.502   4.096   3.450 -0.0198 -0.1214  0.4299
 6706SOL    HW131751   4.571   4.134   3.395  0.5117 -1.6046  0.0818
 6706SOL    HW231752   4.423   4.133   3.410  0.0974  0.6916  0.9500
 6707SOL     OW31753   2.709   3.636  12.063 -0.0597 -0.3813 -0.1102
 6707SOL    HW131754   2.668   3.710  12.107  1.4332 -0.6639  1.7770
 6707SOL    HW231755   2.801   3.651  12.087  0.4960 -0.0011 -2.4495
 6708SOL     OW31756   2.358   0.522   2.831  0.4538  0.2832  0.0236
 6708SOL    HW131757   2.311   0.473   2.898 -3.7817  1.6062 -1.9350
 6708SOL    HW231758   2.287   0.576   2.797 -0.6794 -1.5714 -0.5878
 6709SOL     OW31759   1.407   1.111   8.011  0.0417  0.1210 -0.3706
 6709SOL    HW131760   1.416   1.035   8.068 -2.6497  1.0143  1.2218
 6709SOL    HW231761   1.460   1.176   8.058  1.2079 -1.9640  1.2430
 6710SOL     OW31762   3.258   0.451   5.025  0.0794 -0.0131  0.3118
 6710SOL    HW131763   3.166   0.437   5.004  0.0320  2.2962 -1.0593
 6710SOL    HW231764   3.253   0.536   5.069  0.3178 -0.5677  1.4218
 6711SOL     OW31765   2.830   4.713  16.380 -0.5519 -0.0448  0.1386
 6711SOL    HW131766   2.772   4.674  16.315 -0.7380  2.7450 -1.3447
 6711SOL    HW231767   2.885   4.634  16.388 -0.4283  0.0321  0.0441
 6712SOL     OW31768   3.802   2.016  16.344  0.2921 -0.0157  0.1499
 6712SOL    HW131769   3.757   2.100  16.346 -2.3155 -1.3766 -1.4283
 6712SOL    HW231770   3.893   2.044  16.360  0.5436 -0.2934 -0.7879
 6713SOL     OW31771   1.048   1.673   8.628  0.3471 -0.7834  0.2928
 6713SOL    HW131772   1.091   1.700   8.709 -1.6280 -2.8826  2.0493
 6713SOL    HW231773   0.999   1.755   8.617  1.5630 -0.3693 -2.0262
 6714SOL     OW31774   1.298   4.505   7.315 -0.0169 -0.4481 -0.1206
 6714SOL    HW131775   1.332   4.594   7.312 -1.0269 -0.0225  1.1056
 6714SOL    HW231776   1.318   4.460   7.233  0.0132 -0.5787 -0.0421
 6715SOL     OW31777   4.070   3.622   4.832  0.0830  0.2151 -0.0921
 6715SOL    HW131778   4.057   3.561   4.760 -1.6962  0.4182  0.0624
 6715SOL    HW231779   4.130   3.685   4.791  0.6239  0.3064  0.8231
 6716SOL     OW31780   2.863   3.998   1.513  0.5477  0.2810 -0.3017
 6716SOL    HW131781   2.871   4.082   1.559 -0.7590 -0.2920  0.9898
 6716SOL    HW231782   2.940   4.006   1.457  0.1264  1.6854 -0.6564
 6717SOL     OW31783   3.618   2.904  10.558 -0.3981  0.5796  0.3289
 6717SOL    HW131784   3.529   2.873  10.574 -0.1466 -1.4646 -2.2411
 6717SOL    HW231785   3.617   2.913  10.463 -1.3451 -1.3328  0.1533
 6718SOL     OW31786   3.173   0.817   1.355  0.4775  0.1192  0.1528
 6718SOL    HW131787   3.092   0.777   1.388  0.6904  0.1033  0.6636
 6718SOL    HW231788   3.217   0.840   1.437  0.0584  1.7074 -0.0571
 6719SOL     OW31789   1.077   0.564  11.823  0.0663 -0.1417  0.1567
 6719SOL    HW131790   0.992   0.520  11.822 -0.6363  1.2162 -0.5146
 6719SOL    HW231791   1.098   0.577  11.915 -1.2669 -0.0108  0.4437
 6720SOL     OW31792   1.108   3.879   8.053 -0.1254  0.7228 -0.3400
 6720SOL    HW131793   1.127   3.897   7.961 -0.1326  0.3690 -0.4097
 6720SOL    HW231794   1.153   3.954   8.090  0.8274  0.6955 -1.4352
 6721SOL     OW31795   3.989   1.107   9.713 -0.6859 -0.1862 -0.1126
 6721SOL    HW131796   4.056   1.038   9.710 -0.4664  0.0423 -0.4368
 6721SOL    HW231797   4.031   1.170   9.771 -1.0080 -1.1151  1.1407
 6722SOL     OW31798   3.277   1.860   5.622 -0.8765 -0.2041 -0.3310
 6722SOL    HW131799   3.194   1.873   5.667  0.8895  1.5445  2.3860
 6722SOL    HW231800   3.255   1.903   5.539 -0.7007 -0.9701 -0.7808
 6723SOL     OW31801   3.370   2.433   9.419 -0.7588  0.0002  0.0666
 6723SOL    HW131802   3.349   2.486   9.343  1.7818  0.7886 -0.1089
 6723SOL    HW231803   3.355   2.339   9.405 -0.6363 -0.1956  1.1916
 6724SOL     OW31804   3.007   0.679   2.688  0.2860 -0.0633 -0.2151
 6724SOL    HW131805   3.065   0.714   2.755  1.0938  0.0765 -0.9814
 6724SOL    HW231806   2.923   0.708   2.722 -0.6369  0.5887 -2.9912
 6725SOL     OW31807   4.302   3.110   8.088 -0.1193  0.2079 -0.1647
 6725SOL    HW131808   4.337   3.120   7.999 -0.8824 -0.6594 -0.5619
 6725SOL    HW231809   4.292   3.015   8.099 -1.4524  0.3050 -0.6016
 6726SOL     OW31810   3.986   3.475   7.763 -0.6592  0.1657 -0.3411
 6726SOL    HW131811   4.059   3.433   7.808 -0.8889 -1.3990 -1.4236
 6726SOL    HW231812   4.036   3.554   7.742  2.5422 -1.8459 -0.2884
 6727SOL     OW31813   4.211   1.021   3.880 -0.0847  0.1093 -0.3604
 6727SOL    HW131814   4.297   1.048   3.849  0.2668 -0.5447  0.0474
 6727SOL    HW231815   4.181   0.975   3.801 -2.3462  0.9108  0.0102
 6728SOL     OW31816   4.556   2.009  10.561  0.9361  0.3849 -0.1476
 6728SOL    HW131817   4.638   1.971  10.595  1.0504  0.8809  0.1314
 6728SOL    HW231818   4.499   2.006  10.638 -1.2411 -0.2511 -1.8227
 6729SOL     OW31819   2.159   4.714   4.522 -0.0853 -0.0554 -0.2363
 6729SOL    HW131820   2.102   0.055   4.524  0.2956  0.2773 -1.5573
 6729SOL    HW231821   2.115   4.661   4.456  0.3953 -0.7851  0.0352
 6730SOL     OW31822   4.443   1.876   3.339 -0.1390  0.3688 -0.4058
 6730SOL    HW131823   4.484   1.963   3.342  2.0776 -0.5796 -3.6479
 6730SOL    HW231824   4.435   1.851   3.431 -1.4570 -3.1753 -1.4968
 6731SOL     OW31825   3.064   2.205   5.483  0.0278  0.1180 -0.2408
 6731SOL    HW131826   3.049   2.290   5.524 -0.1920  0.6787 -1.5000
 6731SOL    HW231827   2.971   2.184   5.483  0.0039  0.1986  1.3297
 6732SOL     OW31828   1.966   1.862   3.708  0.0294 -0.3551 -0.0970
 6732SOL    HW131829   1.947   1.780   3.661  0.6468  0.7571 -2.2605
 6732SOL    HW231830   1.881   1.878   3.749  0.3541 -1.5071  1.0545
 6733SOL     OW31831   2.221   3.349  10.180 -0.8871  0.3093  0.2841
 6733SOL    HW131832   2.156   3.288  10.145 -0.2745 -1.1581  1.7147
 6733SOL    HW231833   2.195   3.375  10.268 -1.5698 -2.1012  0.7837
 6734SOL     OW31834   1.318   4.529   6.702  0.2473  0.1405 -0.1661
 6734SOL    HW131835   1.399   4.480   6.721 -0.7009 -2.2769 -2.3408
 6734SOL    HW231836   1.355   4.565   6.621  0.5305  0.5006  0.1258
 6735SOL     OW31837   3.028   2.375  13.830  0.3983  0.2158 -0.0716
 6735SOL    HW131838   3.016   2.285  13.799  1.1562  0.2771 -0.5366
 6735SOL    HW231839   2.935   2.392  13.843  0.2878  0.6612 -1.4444
 6736SOL     OW31840   0.747   1.849   5.291  0.3121 -0.0019  0.1783
 6736SOL    HW131841   0.802   1.855   5.369 -0.9302  0.0778  1.0363
 6736SOL    HW231842   0.802   1.790   5.238  0.3188  0.6445 -0.5442
 6737SOL     OW31843   2.306   0.977   5.514  0.0364  0.2061 -0.2563
 6737SOL    HW131844   2.212   0.993   5.508 -0.3635 -1.8903  0.4224
 6737SOL    HW231845   2.322   1.008   5.425 -2.5260  2.2618  0.0079
 6738SOL     OW31846   4.008   4.003   2.623  0.3332 -0.4602  0.1115
 6738SOL    HW131847   4.092   4.043   2.602  0.1682  0.1581  0.6254
 6738SOL    HW231848   4.025   3.999   2.717  0.3225  0.8606  0.1723
 6739SOL     OW31849   3.124   0.987  16.721  0.3631  0.4117 -0.0197
 6739SOL    HW131850   3.188   1.050  16.755 -1.2486  2.5335 -0.8456
 6739SOL    HW231851   3.103   0.945  16.805  0.3651 -0.5417 -0.5002
 6740SOL     OW31852   4.081   4.229   3.149 -0.6907 -0.4348  0.5700
 6740SOL    HW131853   4.059   4.322   3.153 -0.6353 -0.2943 -2.2121
 6740SOL    HW231854   4.097   4.224   3.055 -1.7760  0.7321  0.3313
 6741SOL     OW31855   1.361   1.426  15.746 -0.9305  0.1254 -0.4799
 6741SOL    HW131856   1.413   1.427  15.665  1.6640  1.2784  1.2162
 6741SOL    HW231857   1.369   1.519  15.767  0.9507  0.0262 -0.8114
 6742SOL     OW31858   2.858   2.172   4.469 -0.2052  1.2262 -0.2520
 6742SOL    HW131859   2.920   2.231   4.427 -1.2908  0.2883 -3.2024
 6742SOL    HW231860   2.893   2.165   4.558  1.0000  0.3618 -0.7953
 6743SOL     OW31861   2.135   2.107   8.351  0.1680 -0.2686  0.0035
 6743SOL    HW131862   2.139   2.013   8.368  0.2928 -0.8179 -3.0076
 6743SOL    HW231863   2.223   2.118   8.315  0.4999  0.2950  0.9989
 6744SOL     OW31864   3.688   3.334   8.003 -0.5835  0.1213  0.1210
 6744SOL    HW131865   3.745   3.266   7.967 -0.3505  0.0682  0.5849
 6744SOL    HW231866   3.706   3.411   7.950 -1.1142  0.5504  0.5650
 6745SOL     OW31867   0.796   1.946   3.064  0.7106  0.8040  0.2669
 6745SOL    HW131868   0.882   1.983   3.045  1.7636 -2.0972 -0.5482
 6745SOL    HW231869   0.787   1.999   3.144  0.3511  1.3891 -0.1606
 6746SOL     OW31870   0.523   3.251   7.907 -0.0503  0.1585  0.0099
 6746SOL    HW131871   0.464   3.233   7.833  2.4852  0.3418 -2.0700
 6746SOL    HW231872   0.479   3.220   7.986 -1.2298 -0.0634 -0.7271
 6747SOL     OW31873   4.653   3.085   4.002  0.1584 -0.0212 -0.2151
 6747SOL    HW131874   4.609   3.150   4.057  1.7982  0.1261  0.9215
 6747SOL    HW231875   0.007   3.113   4.014  0.2826 -0.3960 -0.2808
 6748SOL     OW31876   1.449   0.809   2.161 -0.6355  0.5535 -0.7296
 6748SOL    HW131877   1.381   0.776   2.102 -0.8332  1.2823 -0.8995
 6748SOL    HW231878   1.477   0.893   2.125  0.7058  0.3360 -0.2130
 6749SOL     OW31879   3.926   2.811   7.081 -0.8619 -0.4367  0.3679
 6749SOL    HW131880   3.999   2.756   7.055  1.2051  0.8040  3.6018
 6749SOL    HW231881   3.891   2.845   6.998 -2.9268 -0.8644  1.0726
 6750SOL     OW31882   4.291   2.728   5.524  0.2187  0.2646  0.2398
 6750SOL    HW131883   4.247   2.800   5.479 -0.7213 -0.1200  0.5410
 6750SOL    HW231884   4.246   2.651   5.490 -1.8009  0.5194  2.3530
 6751SOL     OW31885   1.618   0.002   5.963 -0.6069  0.2116 -0.3316
 6751SOL    HW131886   1.658   4.731   6.050 -3.2470  2.0586  1.0021
 6751SOL    HW231887   1.529   0.029   5.986 -0.2952 -0.0555  1.2211
 6752SOL     OW31888   3.286   0.579   3.096  0.5681 -0.8019  0.3034
 6752SOL    HW131889   3.380   0.566   3.101  1.0386  2.1250 -0.8261
 6752SOL    HW231890   3.288   0.666   3.136 -2.3828 -0.7113  0.3064
 6753SOL     OW31891   2.635   4.417   7.775 -0.5485  0.1290  0.3676
 6753SOL    HW131892   2.603   4.497   7.816  0.9283  0.0756  1.6255
 6753SOL    HW231893   2.564   4.413   7.711 -0.0656 -2.8451  0.0011
 6754SOL     OW31894   1.780   1.312   3.671  0.3823 -0.1870  0.5685
 6754SOL    HW131895   1.743   1.347   3.590  0.9158 -0.7143  0.1031
 6754SOL    HW231896   1.721   1.239   3.690  0.1243 -0.9641 -3.3554
 6755SOL     OW31897   1.682   3.483   8.730 -0.3142  0.2263  0.1698
 6755SOL    HW131898   1.709   3.567   8.695 -1.4020  1.1708  1.5871
 6755SOL    HW231899   1.691   3.507   8.823 -3.1434  1.7566  0.0623
 6756SOL     OW31900   4.299   3.842   7.445  0.3789  0.0860 -0.5566
 6756SOL    HW131901   4.277   3.935   7.449  0.7528  0.1549 -0.0431
 6756SOL    HW231902   4.223   3.811   7.398  1.0511 -1.6938 -0.4670
 6757SOL     OW31903   0.358   4.184  17.472 -0.0684 -0.5137  0.1817
 6757SOL    HW131904   0.315   4.162  17.390 -1.9383 -0.5157  1.1598
 6757SOL    HW231905   0.435   4.127  17.465 -0.9863 -1.4056 -2.5661
 6758SOL     OW31906   0.362   3.008   2.343 -0.4706  0.4312  0.1121
 6758SOL    HW131907   0.274   2.996   2.307 -1.1264  1.3249  1.4512
 6758SOL    HW231908   0.337   3.035   2.431  0.7870  0.4438  0.4742
 6759SOL     OW31909   2.466   2.653  16.290  0.6113  0.1926 -0.0747
 6759SOL    HW131910   2.492   2.583  16.350  0.4284 -0.3096 -0.5841
 6759SOL    HW231911   2.391   2.610  16.249  1.3215 -1.4150  0.3207
 6760SOL     OW31912   0.687   1.335  12.291  0.0892 -0.4691 -0.0848
 6760SOL    HW131913   0.633   1.414  12.289 -0.3485 -0.8212 -2.3217
 6760SOL    HW231914   0.779   1.362  12.295  0.1528 -0.2834 -2.9730
 6761SOL     OW31915   3.622   0.356   1.768  0.5859 -0.3021 -0.6994
 6761SOL    HW131916   3.647   0.448   1.769  1.4229 -0.5136 -2.1543
 6761SOL    HW231917   3.591   0.354   1.677 -0.7761  1.6534 -0.2823
 6762SOL     OW31918   2.489   2.568   8.326  0.5202 -0.0718  0.1702
 6762SOL    HW131919   2.570   2.521   8.347  1.1952  1.5998  1.2684
 6762SOL    HW231920   2.438   2.574   8.407  0.1872 -2.0139  0.1184
 6763SOL     OW31921   3.347   1.216   9.028  0.5838 -0.2787 -0.1549
 6763SOL    HW131922   3.390   1.159   9.090 -1.2507 -0.2264  1.1634
 6763SOL    HW231923   3.275   1.154   9.014 -2.1670  1.9536  4.2360
 6764SOL     OW31924   4.621   0.025   7.997 -0.6278 -0.4469 -0.2584
 6764SOL    HW131925   4.609   0.008   8.091 -1.3159  2.7687  0.2568
 6764SOL    HW231926   4.715   0.041   8.008 -0.4248 -0.7858 -1.5396
 6765SOL     OW31927   1.879   3.124  16.806  0.2411  0.4821  0.3724
 6765SOL    HW131928   1.834   3.183  16.745 -1.3484 -1.3751 -0.2319
 6765SOL    HW231929   1.921   3.070  16.738 -0.0901  2.7091 -1.6355
 6766SOL     OW31930   1.811   4.088   5.224  0.0675 -0.0049 -0.4146
 6766SOL    HW131931   1.804   4.047   5.311  0.8855  0.7974  0.0282
 6766SOL    HW231932   1.755   4.022   5.182  0.0848 -1.3587  1.6650
 6767SOL     OW31933   0.605   4.257  12.040 -0.1391 -0.4118 -0.0717
 6767SOL    HW131934   0.676   4.274  12.102  0.1095  1.8529 -0.9886
 6767SOL    HW231935   0.657   4.256  11.960 -0.8414 -0.1770 -0.5261
 6768SOL     OW31936   4.645   4.226   0.801  0.1026 -0.5027 -0.9071
 6768SOL    HW131937   4.699   4.211   0.878  0.4118  0.6222 -0.9012
 6768SOL    HW231938   4.685   4.166   0.739  2.8169  1.1378 -0.7278
 6769SOL     OW31939   0.816   1.017   5.220  0.3017  0.1578 -0.0884
 6769SOL    HW131940   0.757   0.963   5.273 -1.2866  1.3894 -0.5892
 6769SOL    HW231941   0.901   1.018   5.264  0.5420  2.0691 -0.6096
 6770SOL     OW31942   0.845   1.674   0.035  0.2821 -0.2211 -0.1717
 6770SOL    HW131943   0.776   1.634  17.724 -1.7908  1.7958  0.9982
 6770SOL    HW231944   0.915   1.684  17.713  1.5113 -0.8320  1.0805
 6771SOL     OW31945   3.483   1.471   6.995 -0.9381 -0.0048  0.2194
 6771SOL    HW131946   3.444   1.428   7.071 -0.0221 -0.3875  0.4813
 6771SOL    HW231947   3.557   1.523   7.028 -0.2339 -2.1294  1.9925
 6772SOL     OW31948   1.212   2.520   3.064 -0.2743 -0.7835 -0.7725
 6772SOL    HW131949   1.279   2.574   3.022  1.2333 -1.4983  0.7049
 6772SOL    HW231950   1.254   2.434   3.072 -1.4791 -1.2702  0.3800
 6773SOL     OW31951   4.118   4.419   9.634  0.5599  0.2074  0.2778
 6773SOL    HW131952   4.090   4.339   9.678 -1.1228  1.6566  1.8698
 6773SOL    HW231953   4.081   4.395   9.549 -1.2868 -0.4646  1.2800
 6774SOL     OW31954   0.214   1.511  17.472 -0.1273 -0.2520  0.4321
 6774SOL    HW131955   0.237   1.560  17.392 -4.1884  0.9895  0.0627
 6774SOL    HW231956   0.153   1.446  17.438  0.5948 -0.4104 -0.5826
 6775SOL     OW31957   2.650   2.900   6.354 -0.1935 -0.4640  0.0023
 6775SOL    HW131958   2.681   2.915   6.443 -1.8020  0.7421  0.3491
 6775SOL    HW231959   2.719   2.941   6.302 -1.1459  0.3829 -0.5961
 6776SOL     OW31960   3.246   3.039   5.504 -0.4600 -0.7248  0.1765
 6776SOL    HW131961   3.321   3.042   5.564  0.4639 -4.4194 -0.7715
 6776SOL    HW231962   3.290   3.075   5.427 -1.7773  2.4332  0.8990
 6777SOL     OW31963   1.119   3.464   2.912 -0.2398 -0.3024 -0.5271
 6777SOL    HW131964   1.158   3.403   2.850 -0.9556 -2.5527  1.2159
 6777SOL    HW231965   1.184   3.513   2.962 -1.6312 -0.2232  1.1989
 6778SOL     OW31966   0.234   4.560   3.497 -0.2947  0.1685  0.3923
 6778SOL    HW131967   0.293   4.485   3.489 -0.3451  0.0416  1.2361
 6778SOL    HW231968   0.254   4.590   3.585  0.6541 -2.1544  0.9781
 6779SOL     OW31969   3.091   0.237   4.390  0.0339  0.2475 -0.1548
 6779SOL    HW131970   3.119   0.174   4.323 -1.4080 -1.3331  0.7373
 6779SOL    HW231971   3.170   0.271   4.431  0.5929 -1.4581  0.1470
 6780SOL     OW31972   0.923   2.336   4.721 -0.2768 -0.0026 -0.1606
 6780SOL    HW131973   0.828   2.340   4.729 -0.3397  1.9086 -1.9648
 6780SOL    HW231974   0.951   2.389   4.795  0.7771  1.5205 -1.6460
 6781SOL     OW31975   0.787   0.014   7.140 -0.2038 -0.1466  0.0699
 6781SOL    HW131976   0.806   4.726   7.231  1.3477  0.7209 -0.0171
 6781SOL    HW231977   0.769   4.669   7.093  2.8344  0.4742 -2.1352
 6782SOL     OW31978   0.992   0.804  14.083 -0.9847 -0.3138  0.4329
 6782SOL    HW131979   0.937   0.789  14.160 -1.2044  2.1877  0.7555
 6782SOL    HW231980   0.989   0.715  14.047 -1.4276 -0.0260 -0.2409
 6783SOL     OW31981   2.269   4.353   2.846 -0.0531  0.5837  0.3348
 6783SOL    HW131982   2.232   4.366   2.933  1.0110  3.5069  0.3382
 6783SOL    HW231983   2.194   4.316   2.799  1.2713 -0.8004 -0.7185
 6784SOL     OW31984   4.039   2.277  15.885  0.0318  0.0066  0.0776
 6784SOL    HW131985   4.076   2.341  15.946 -0.0060  0.2169 -0.1231
 6784SOL    HW231986   3.945   2.283  15.900 -0.2918  1.5749 -2.7143
 6785SOL     OW31987   2.508   3.859  10.230 -0.8444 -0.0046  0.0828
 6785SOL    HW131988   2.568   3.927  10.200 -1.5146  2.3709  4.0379
 6785SOL    HW231989   2.511   3.796  10.158 -0.3140 -0.4376  0.4867
 6786SOL     OW31990   2.190   1.462   9.488  0.4464 -0.3756 -0.0952
 6786SOL    HW131991   2.170   1.369   9.472  1.1361 -0.7211  1.0273
 6786SOL    HW231992   2.153   1.473   9.575  0.9635 -1.1192  0.2204
 6787SOL     OW31993   1.715   4.075  12.084  0.0668 -0.1903  0.0807
 6787SOL    HW131994   1.754   4.049  12.001  1.4553  2.2234 -0.0246
 6787SOL    HW231995   1.724   4.171  12.084 -0.9277 -0.0938 -1.2456
 6788SOL     OW31996   3.268   0.666  13.861 -0.4268 -0.3600  0.2196
 6788SOL    HW131997   3.181   0.677  13.901 -0.6402 -1.5640  0.0739
 6788SOL    HW231998   3.327   0.696  13.930 -0.1556  1.9976 -1.0321
 6789SOL     OW31999   0.847   2.702  15.006 -0.3890 -0.1568 -0.3083
 6789SOL    HW132000   0.901   2.760  15.059  1.8173 -3.1264  0.6985
 6789SOL    HW232001   0.878   2.731  14.920  0.8995  0.0981  0.2374
 6790SOL     OW32002   0.821   4.711   8.041 -0.3772  0.0960  0.2953
 6790SOL    HW132003   0.819   0.034   7.966  1.4379 -2.2697 -1.6146
 6790SOL    HW232004   0.754   0.013   8.097 -0.7733  3.4506 -2.5155
 6791SOL     OW32005   3.464   0.785  11.305  0.0111  0.6702 -0.3748
 6791SOL    HW132006   3.376   0.764  11.335  0.4201  0.8821  0.9693
 6791SOL    HW232007   3.452   0.877  11.285 -0.4431  1.0507  1.6213
 6792SOL     OW32008   2.216   4.520   3.792 -0.2975 -0.7051  0.0456
 6792SOL    HW132009   2.204   4.601   3.742  0.0899  0.7335  2.2928
 6792SOL    HW232010   2.219   4.457   3.720  1.2514 -0.8437  0.2417
 6793SOL     OW32011   1.374   3.181   8.217  0.3225 -0.1098  1.3134
 6793SOL    HW132012   1.412   3.132   8.290 -1.8065 -1.0753  1.7857
 6793SOL    HW232013   1.297   3.124   8.207 -0.9274  1.5695  1.3111
 6794SOL     OW32014   3.205   1.751   4.582 -0.0852  0.4807 -0.2765
 6794SOL    HW132015   3.258   1.700   4.643 -0.1068 -2.0266 -2.3168
 6794SOL    HW232016   3.164   1.685   4.526  1.1828 -1.7138  1.4031
 6795SOL     OW32017   2.332   0.023   8.639  0.0445  0.3779  0.4811
 6795SOL    HW132018   2.400   4.696   8.662 -1.2305 -0.8769  0.8775
 6795SOL    HW232019   2.381   0.101   8.613  3.4566 -1.4155  1.5318
 6796SOL     OW32020   2.829   2.454   8.622  0.1968 -0.0260 -0.3959
 6796SOL    HW132021   2.742   2.454   8.661 -0.8103  1.0176 -2.6347
 6796SOL    HW232022   2.884   2.428   8.696 -0.4494  2.2755  0.9102
 6797SOL     OW32023   3.498   0.374   9.414  0.0286  0.0502 -0.1172
 6797SOL    HW132024   3.446   0.446   9.450 -1.4778 -0.3065 -1.5840
 6797SOL    HW232025   3.447   0.350   9.337 -1.8645  0.5131  0.9751
 6798SOL     OW32026   4.228   1.137   8.908 -0.5571  0.3523  0.0136
 6798SOL    HW132027   4.173   1.087   8.848 -2.0073  1.7282  0.1984
 6798SOL    HW232028   4.239   1.074   8.980 -0.4356 -0.7445 -0.9622
 6799SOL     OW32029   4.133   1.949  11.382 -0.3291  0.1974  0.4960
 6799SOL    HW132030   4.133   1.950  11.478  2.5561 -1.1555  0.5274
 6799SOL    HW232031   4.141   2.043  11.370 -0.6869 -0.0254 -1.4749
 6800SOL     OW32032   3.836   4.626  12.817 -0.2954  0.3457  0.4391
 6800SOL    HW132033   3.750   4.590  12.797 -1.3466  2.8084  0.5916
 6800SOL    HW232034   3.862   4.578  12.896 -3.6226  0.2577  1.4632
 6801SOL     OW32035   0.957   3.824   0.497 -0.2718  0.3124 -0.2624
 6801SOL    HW132036   0.962   3.895   0.432 -1.7302  2.7798  2.3031
 6801SOL    HW232037   0.874   3.853   0.535  1.2765  0.1721  3.2152
 6802SOL     OW32038   1.926   0.833   1.591 -0.4107 -0.0404 -0.4668
 6802SOL    HW132039   1.842   0.794   1.617 -1.3292  1.4893 -1.1084
 6802SOL    HW232040   1.911   0.927   1.583  0.8414  0.3846  2.2674
 6803SOL     OW32041   2.201   3.448  14.385  0.2512  0.0028 -0.6116
 6803SOL    HW132042   2.271   3.405  14.434 -0.0768  1.2701  0.9884
 6803SOL    HW232043   2.199   3.387  14.311  2.3791 -0.8216  0.0113
 6804SOL     OW32044   4.247   0.887   4.764 -0.2460 -0.0288  0.5363
 6804SOL    HW132045   4.322   0.829   4.752  1.2355  1.6481  1.5323
 6804SOL    HW232046   4.181   0.850   4.706  0.1673  0.9294 -0.5552
 6805SOL     OW32047   3.253   2.052  12.638  0.4255 -0.0356  0.4966
 6805SOL    HW132048   3.161   2.027  12.627  0.2511 -0.2439  2.4961
 6805SOL    HW232049   3.293   1.967  12.657 -1.8378 -0.6195  2.6359
 6806SOL     OW32050   1.463   1.949   8.157  0.0082  0.2051  0.6503
 6806SOL    HW132051   1.415   1.915   8.232 -0.4421 -1.8808 -0.5918
 6806SOL    HW232052   1.458   2.044   8.171 -1.9757  0.6027 -2.8067
 6807SOL     OW32053   2.377   3.039  12.736 -0.2551  0.2519 -1.0574
 6807SOL    HW132054   2.318   2.984  12.788 -1.1366  2.2019  0.0057
 6807SOL    HW232055   2.400   3.105  12.801  0.5569 -1.6316  0.5660
 6808SOL     OW32056   0.588   1.466   5.165 -0.0094  0.0223  1.0341
 6808SOL    HW132057   0.529   1.452   5.090  1.3804 -2.6898  0.4173
 6808SOL    HW232058   0.638   1.385   5.163  1.3986  0.9556 -1.0463
 6809SOL     OW32059   3.066   4.328   8.266  0.1093 -0.3651  0.0634
 6809SOL    HW132060   3.018   4.269   8.207  0.5935 -0.8410  0.1527
 6809SOL    HW232061   3.027   4.413   8.246 -1.7919 -1.9507 -2.9689
 6810SOL     OW32062   4.484   3.299  14.726  0.6708 -0.2257  0.7065
 6810SOL    HW132063   4.517   3.386  14.744 -0.3547  0.9523 -3.1689
 6810SOL    HW232064   4.439   3.302  14.641 -1.1809  0.8294  1.7148
 6811SOL     OW32065   3.059   4.380   2.757 -0.3673 -0.5016  0.3073
 6811SOL    HW132066   2.989   4.387   2.822 -0.6118 -2.6791  0.2588
 6811SOL    HW232067   3.024   4.440   2.692  1.2593  1.1012  0.9081
 6812SOL     OW32068   3.440   0.376   8.679  0.0016  0.2688 -0.3832
 6812SOL    HW132069   3.396   0.380   8.595  0.1864 -1.0199 -0.5366
 6812SOL    HW232070   3.492   0.457   8.680  1.1965 -0.4957 -0.0605
 6813SOL     OW32071   4.380   3.387   3.250 -0.2514  0.1145 -0.2875
 6813SOL    HW132072   4.315   3.378   3.319  0.2485  2.2257  0.4496
 6813SOL    HW232073   4.366   3.475   3.217  0.9594  1.2319  2.1481
 6814SOL     OW32074   0.957   3.240   2.998  0.2074 -0.7864  0.4056
 6814SOL    HW132075   1.026   3.304   2.978 -1.4996 -0.2260 -3.5804
 6814SOL    HW232076   0.952   3.185   2.920 -0.3375 -2.2766  1.5000
 6815SOL     OW32077   0.259   0.534   5.142  0.4906 -0.5019  0.0368
 6815SOL    HW132078   0.312   0.486   5.078  2.1579  0.6459  0.5637
 6815SOL    HW232079   0.328   0.546   5.208 -0.8660 -0.7299  1.5049
 6816SOL     OW32080   3.885   2.269  17.290  0.0607 -0.6333 -0.7008
 6816SOL    HW132081   3.946   2.302  17.356  0.0450 -1.2112 -0.3925
 6816SOL    HW232082   3.812   2.322  17.321 -0.2682 -2.4324  1.6486
 6817SOL     OW32083   1.720   1.943   8.605  0.7323 -0.1829 -0.2378
 6817SOL    HW132084   1.775   1.960   8.682  0.1510  2.2060 -0.3591
 6817SOL    HW232085   1.744   2.017   8.550  0.3568  1.0230  1.2253
 6818SOL     OW32086   2.924   1.571   4.728  0.5753 -0.1721 -0.3553
 6818SOL    HW132087   2.971   1.581   4.811  2.0885 -0.3903 -1.1668
 6818SOL    HW232088   2.834   1.568   4.760  0.6434  2.6698  0.1010
 6819SOL     OW32089   0.747   4.042  14.974  0.6341  0.8200 -0.3221
 6819SOL    HW132090   0.821   3.986  14.997 -0.5304 -0.0833  1.2483
 6819SOL    HW232091   0.794   4.094  14.909 -0.1720  1.1549 -0.6443
 6820SOL     OW32092   0.129   2.350  14.954  0.6961 -0.7468  0.4054
 6820SOL    HW132093   0.081   2.295  14.892  2.7507 -0.5504 -1.3396
 6820SOL    HW232094   0.078   2.356  15.035 -0.1979 -1.2457 -0.1246
 6821SOL     OW32095   3.538   0.304   2.079 -0.5101 -0.0440 -0.4824
 6821SOL    HW132096   3.476   0.277   2.147  0.0699 -0.6578 -0.1909
 6821SOL    HW232097   3.488   0.373   2.035  0.3678  0.2760 -0.9655
 6822SOL     OW32098   1.807   2.119  14.457  0.1542  0.0939 -0.8920
 6822SOL    HW132099   1.899   2.093  14.459  0.3135  0.6419 -0.8348
 6822SOL    HW232100   1.811   2.175  14.380 -0.3153 -1.3814 -1.9845
 6823SOL     OW32101   3.255   3.688  10.987 -0.2373 -0.0541  0.0692
 6823SOL    HW132102   3.248   3.604  10.942  0.7949  0.4044 -0.9565
 6823SOL    HW232103   3.332   3.725  10.945  0.6477 -2.3736 -0.3579
 6824SOL     OW32104   1.180   3.836  15.831 -0.5532 -0.0891 -0.6037
 6824SOL    HW132105   1.267   3.875  15.818 -1.3469  1.0846 -2.2520
 6824SOL    HW232106   1.149   3.830  15.741  2.0779 -1.9819 -1.3806
 6825SOL     OW32107   2.300   3.664   4.520  0.1326  0.1225  0.2536
 6825SOL    HW132108   2.246   3.709   4.585 -0.0536  1.4305 -0.8246
 6825SOL    HW232109   2.362   3.621   4.580  0.4261 -0.4963 -0.5015
 6826SOL     OW32110   2.680   1.150   1.690  0.1599 -0.2189 -1.2190
 6826SOL    HW132111   2.680   1.091   1.615 -1.2757 -0.1963 -1.2373
 6826SOL    HW232112   2.681   1.086   1.762  0.7257  0.0875 -0.9586
 6827SOL     OW32113   0.234   3.369   1.601  0.7968 -0.1903  0.2987
 6827SOL    HW132114   0.206   3.387   1.511  0.5247  0.0509  0.4300
 6827SOL    HW232115   0.305   3.432   1.612  1.3466 -1.0527  1.5674
 6828SOL     OW32116   3.096   4.562   5.301 -0.1928  0.7860 -0.0259
 6828SOL    HW132117   3.124   4.618   5.374 -1.3980 -0.2941  1.2535
 6828SOL    HW232118   3.100   4.618   5.224  0.4604  2.2465  1.0535
 6829SOL     OW32119   3.506   3.114   5.698  0.0527 -0.0104 -0.0280
 6829SOL    HW132120   3.501   3.022   5.724 -0.3988 -0.0145 -0.1395
 6829SOL    HW232121   3.600   3.124   5.679  0.0698 -2.0257 -1.0100
 6830SOL     OW32122   2.957   0.135   1.438 -0.1172 -0.2060  0.0634
 6830SOL    HW132123   2.955   0.230   1.454 -0.4097 -0.3102  0.6562
 6830SOL    HW232124   3.041   0.123   1.394 -0.3111 -0.2145 -0.2969
 6831SOL     OW32125   0.120   0.202   8.919  0.5121  0.5582 -0.4901
 6831SOL    HW132126   0.141   0.256   8.843  1.2895 -0.3808 -0.9479
 6831SOL    HW232127   0.202   0.196   8.969  0.2709  3.5044  0.2475
 6832SOL     OW32128   1.693   3.106  14.166 -0.0159 -0.3707 -0.1448
 6832SOL    HW132129   1.677   3.093  14.072  1.0176 -0.9451 -0.2354
 6832SOL    HW232130   1.732   3.191  14.183 -0.0202 -0.4538  0.2860
 6833SOL     OW32131   3.882   0.421   0.626  0.1391  0.2298  0.2183
 6833SOL    HW132132   3.909   0.420   0.534  1.0103 -3.7875  0.5440
 6833SOL    HW232133   3.967   0.444   0.664  0.6779 -1.8023  0.2483
 6834SOL     OW32134   0.357   3.650  16.624  0.0683 -0.7195  0.6418
 6834SOL    HW132135   0.433   3.597  16.599  0.7346 -0.0887  1.3222
 6834SOL    HW232136   0.397   3.708  16.689 -1.1619  0.8222  0.0180
 6835SOL     OW32137   4.471   2.419  10.778  1.0908 -0.1705 -0.6236
 6835SOL    HW132138   4.495   2.497  10.729 -1.5937  0.4806 -0.8925
 6835SOL    HW232139   4.521   2.422  10.859 -0.6037 -0.1516  0.4400
 6836SOL     OW32140   1.722   3.452  13.604  0.0583 -0.2080  0.0391
 6836SOL    HW132141   1.662   3.524  13.589  0.5471 -0.1312 -1.5686
 6836SOL    HW232142   1.763   3.443  13.518 -0.3058 -0.6329 -0.0936
 6837SOL     OW32143   2.087   2.211   9.581 -1.0435  0.5497  0.4624
 6837SOL    HW132144   2.111   2.162   9.502 -1.4744  0.1163  0.6016
 6837SOL    HW232145   1.994   2.189   9.589 -1.6321  2.2642 -1.6622
 6838SOL     OW32146   0.462   0.599   7.188 -0.0870 -0.1366 -0.4863
 6838SOL    HW132147   0.548   0.593   7.145  0.6575 -0.0976  0.9775
 6838SOL    HW232148   0.428   0.664   7.127  0.0060  0.3648  0.0014
 6839SOL     OW32149   3.074   1.623   2.397  0.5133 -0.0851 -0.9255
 6839SOL    HW132150   3.076   1.544   2.452  3.1612  1.4854  1.2534
 6839SOL    HW232151   2.999   1.674   2.427  1.3925  0.5512  0.2103
 6840SOL     OW32152   3.389   3.106  16.521  0.2211 -0.3784 -0.3442
 6840SOL    HW132153   3.315   3.050  16.500 -0.0429 -0.6659  1.4043
 6840SOL    HW232154   3.451   3.076  16.454  1.1610  2.6846 -0.8837
 6841SOL     OW32155   2.337   2.405   5.534 -0.2466  0.2166 -0.4000
 6841SOL    HW132156   2.360   2.468   5.602  0.7423 -1.1014  0.4865
 6841SOL    HW232157   2.339   2.318   5.573 -1.0356  0.9673  1.3197
 6842SOL     OW32158   3.146   2.581  17.514  0.3922  0.0347  0.0304
 6842SOL    HW132159   3.212   2.615  17.574 -1.4672  3.8126 -0.0608
 6842SOL    HW232160   3.158   2.639  17.438  0.5097  1.2151  0.9605
 6843SOL     OW32161   3.033   1.066   3.351  0.1792  0.2719 -0.3776
 6843SOL    HW132162   2.980   1.046   3.274  0.4666 -0.1897 -0.4572
 6843SOL    HW232163   3.081   1.140   3.312 -0.5087  0.4881 -0.8138
 6844SOL     OW32164   3.911   3.531   3.955 -0.2614 -0.1937 -0.2309
 6844SOL    HW132165   3.879   3.469   3.889 -2.0377 -0.6192  1.0480
 6844SOL    HW232166   3.930   3.480   4.034  0.0889 -1.5329 -1.1812
 6845SOL     OW32167   4.587   1.675   1.834 -0.0573  0.0925  0.1729
 6845SOL    HW132168   4.583   1.765   1.802 -0.8030  0.2651  0.7558
 6845SOL    HW232169   4.671   1.673   1.881 -0.8259 -1.1132  1.4952
 6846SOL     OW32170   2.780   3.017   5.777 -0.0823  0.0386 -0.0778
 6846SOL    HW132171   2.854   3.038   5.834 -0.9470  1.1202  0.6517
 6846SOL    HW232172   2.820   3.016   5.691 -0.8975  0.5750 -0.4618
 6847SOL     OW32173   2.134   1.192   9.568 -0.0955 -0.0923  0.7505
 6847SOL    HW132174   2.136   1.143   9.486 -0.3891 -0.7657  1.1401
 6847SOL    HW232175   2.051   1.151   9.595 -0.4117 -0.3727 -0.6652
 6848SOL     OW32176   3.971   0.340   5.280  0.0433  0.6163 -0.0562
 6848SOL    HW132177   3.911   0.292   5.338  1.1628  0.9638  1.4133
 6848SOL    HW232178   3.902   0.403   5.261 -1.2466 -1.2120 -1.3711
 6849SOL     OW32179   4.645   3.397   2.903  0.8885  0.7781  0.6395
 6849SOL    HW132180   4.655   3.397   2.998 -0.1743 -0.2016  0.7553
 6849SOL    HW232181   4.723   3.355   2.868 -0.9189  0.5293 -3.1029
 6850SOL     OW32182   1.168   2.949  17.296 -0.6807 -0.0181 -0.5893
 6850SOL    HW132183   1.237   2.900  17.341  0.0750  0.9151 -0.7237
 6850SOL    HW232184   1.219   2.989  17.225  1.2996 -0.1512  0.7427
 6851SOL     OW32185   4.661   3.280   3.583  0.1381 -0.3856 -0.2210
 6851SOL    HW132186   4.640   3.199   3.537 -2.1588 -0.6370  1.2643
 6851SOL    HW232187   4.592   3.338   3.551 -0.2101 -0.1952  0.8790
 6852SOL     OW32188   4.643   4.663  17.399 -0.0237 -0.0804  0.1341
 6852SOL    HW132189   4.696   4.589  17.429 -0.0154 -0.2613 -0.3298
 6852SOL    HW232190   4.584   4.688  17.469 -0.7143 -0.0147 -0.4731
 6853SOL     OW32191   2.950   0.194   5.262  0.3009  0.2615 -0.3957
 6853SOL    HW132192   2.888   0.211   5.191  2.7480  1.4930 -2.2627
 6853SOL    HW232193   3.018   0.147   5.214  0.3084  0.6194 -0.7410
 6854SOL     OW32194   0.456   3.227   7.283 -0.7641 -0.1191 -0.2028
 6854SOL    HW132195   0.530   3.207   7.226 -0.6283  2.1631 -0.8174
 6854SOL    HW232196   0.381   3.193   7.235 -1.5206  1.4705 -0.1410
 6855SOL     OW32197   2.040   3.175  17.420  0.6268 -0.3114 -0.8183
 6855SOL    HW132198   2.130   3.192  17.450  0.7005 -0.0197 -1.1956
 6855SOL    HW232199   2.056   3.097  17.368 -0.3062 -0.2243 -1.2242
 6856SOL     OW32200   4.427   1.135  13.128  0.4889  0.1114  0.3301
 6856SOL    HW132201   4.426   1.055  13.182  0.0904  0.6082  1.0689
 6856SOL    HW232202   4.344   1.132  13.080  2.1735  0.4912 -2.5294
 6857SOL     OW32203   4.438   0.781   5.885  0.3703  0.1835 -0.0747
 6857SOL    HW132204   4.489   0.845   5.935 -0.6707 -0.5242  1.8627
 6857SOL    HW232205   4.496   0.705   5.884  2.5965  1.8678  1.5093
 6858SOL     OW32206   3.235   1.186  11.441 -0.1095  0.8022 -0.3120
 6858SOL    HW132207   3.182   1.215  11.366 -0.1423 -1.1511 -1.0498
 6858SOL    HW232208   3.195   1.102  11.463 -0.1036  1.3966  1.8876
 6859SOL     OW32209   0.479   4.433  12.962  0.2827 -0.0879  0.5060
 6859SOL    HW132210   0.493   4.369  12.892  1.3029 -0.2162  0.8184
 6859SOL    HW232211   0.546   4.496  12.934 -1.5130  1.4122 -0.3980
 6860SOL     OW32212   3.833   1.205  11.633  0.0813  0.3856  0.0036
 6860SOL    HW132213   3.832   1.124  11.685  0.8739 -1.5731 -2.9713
 6860SOL    HW232214   3.780   1.168  11.562 -1.7357  0.7271  1.1917
 6861SOL     OW32215   2.368   0.252   5.046 -0.1682  0.1277 -0.4630
 6861SOL    HW132216   2.324   0.336   5.035 -1.3757 -0.3691  0.6564
 6861SOL    HW232217   2.440   0.268   4.985 -0.8711  0.7891 -1.1137
 6862SOL     OW32218   0.343   2.858   6.145 -0.0473  0.6902  0.8000
 6862SOL    HW132219   0.419   2.807   6.173 -0.2641  0.8789  1.7418
 6862SOL    HW232220   0.376   2.919   6.078 -0.8604  0.5493  0.2676
 6863SOL     OW32221   2.607   0.903   6.829  1.1151  0.1771 -0.1799
 6863SOL    HW132222   2.516   0.909   6.859  0.9701  0.2390 -0.6384
 6863SOL    HW232223   2.646   0.990   6.831 -1.4912  1.3317  0.1278
 6864SOL     OW32224   0.152   1.926  11.396 -0.1527 -0.1853  0.0319
 6864SOL    HW132225   0.092   1.947  11.324  0.0332 -0.3185 -0.1655
 6864SOL    HW232226   0.212   1.869  11.348 -0.1643  1.1300 -1.5605
 6865SOL     OW32227   4.485   2.325  11.945  0.0025 -0.0447 -0.1376
 6865SOL    HW132228   4.545   2.393  11.975  0.7518 -0.3198 -1.0138
 6865SOL    HW232229   4.407   2.336  11.999 -2.3688 -0.8779 -3.3486
 6866SOL     OW32230   4.409   2.769   5.078  0.2240  0.1564 -0.0869
 6866SOL    HW132231   4.496   2.782   5.115 -0.4954  1.6672  1.0954
 6866SOL    HW232232   4.395   2.853   5.033  0.9743  0.8388  0.9554
 6867SOL     OW32233   1.802   3.007   5.109 -0.2400 -0.0008 -0.1493
 6867SOL    HW132234   1.733   2.986   5.046  1.0654 -2.1153 -0.8713
 6867SOL    HW232235   1.752   3.021   5.189  1.4509 -1.2890  1.1361
 6868SOL     OW32236   3.364   1.240   1.418 -0.0886  0.4321  0.3225
 6868SOL    HW132237   3.409   1.157   1.399 -1.3315  0.4100 -2.5544
 6868SOL    HW232238   3.404   1.305   1.362  1.7753  1.9536  3.4106
 6869SOL     OW32239   4.673   2.135  10.969  0.1833 -0.4420 -0.0390
 6869SOL    HW132240   0.016   2.182  10.942  0.8918 -1.5024  0.2185
 6869SOL    HW232241   4.623   2.192  11.028 -2.1023 -0.5572 -1.8421
 6870SOL     OW32242   0.404   1.234   5.946  0.4621  0.1313  0.2700
 6870SOL    HW132243   0.331   1.289   5.917  0.5006 -0.6246 -1.2778
 6870SOL    HW232244   0.466   1.271   5.883  0.7850  0.9425  1.0699
 6871SOL     OW32245   3.559   1.911  13.341  0.1946  0.3371 -0.2340
 6871SOL    HW132246   3.527   1.979  13.400  0.7736  1.6790 -1.4834
 6871SOL    HW232247   3.488   1.846  13.341  0.7616 -0.2854 -0.6196
 6872SOL     OW32248   0.254   1.278  13.552  0.0178  0.4494  0.5096
 6872SOL    HW132249   0.292   1.245  13.470 -0.1307  0.6294  0.3679
 6872SOL    HW232250   0.198   1.348  13.518 -2.3472 -1.5667  0.2536
 6873SOL     OW32251   0.319   3.781  11.485  0.1504 -0.4323 -0.4517
 6873SOL    HW132252   0.347   3.698  11.447 -0.2134  0.1557 -2.0398
 6873SOL    HW232253   0.229   3.776  11.453 -0.6208  0.9264  1.5017
 6874SOL     OW32254   3.715   1.669  13.030 -0.2874  0.2455  0.0080
 6874SOL    HW132255   3.656   1.597  13.054 -3.1702  2.0777 -1.5649
 6874SOL    HW232256   3.798   1.623  13.016  1.4876  3.6164 -0.5097
 6875SOL     OW32257   1.332   0.689   7.530 -0.2183  0.4748  0.0146
 6875SOL    HW132258   1.246   0.693   7.571 -0.1549 -1.8882  0.3753
 6875SOL    HW232259   1.390   0.711   7.603 -1.8909  0.1119  1.4651
 6876SOL     OW32260   2.426   4.032   7.843  0.4184  0.4409 -0.4405
 6876SOL    HW132261   2.441   3.940   7.822 -0.2104 -0.3381  2.4883
 6876SOL    HW232262   2.351   4.034   7.903  2.3751  0.4479  1.9772
 6877SOL     OW32263   1.856   2.984  13.842  0.2551  0.1569  0.2073
 6877SOL    HW132264   1.825   3.016  13.757  0.6612  0.1607  0.0593
 6877SOL    HW232265   1.772   2.950  13.871 -0.5805  4.1852  2.4231
 6878SOL     OW32266   0.175   4.607   8.028 -0.2466 -0.1927 -0.3426
 6878SOL    HW132267   0.176   4.669   7.955  0.0317  3.1004  2.4875
 6878SOL    HW232268   0.131   4.529   7.994  1.7131 -1.0794 -0.8357
 6879SOL     OW32269   0.100   4.697   3.057 -0.1673 -0.0791 -0.2847
 6879SOL    HW132270   0.188   4.662   3.067  0.5493  1.7724 -0.0367
 6879SOL    HW232271   0.110   0.043   3.009 -2.0737 -0.3492 -1.1451
 6880SOL     OW32272   3.429   3.622   5.409  0.1051 -0.8780 -0.1013
 6880SOL    HW132273   3.405   3.531   5.388  1.1744 -0.9087 -1.2135
 6880SOL    HW232274   3.524   3.619   5.412  0.1088  0.5696  0.7683
 6881SOL     OW32275   2.678   0.414   0.640 -0.0401  0.2436  0.0180
 6881SOL    HW132276   2.608   0.396   0.578  0.7075  0.2019 -0.8123
 6881SOL    HW232277   2.707   0.330   0.674 -2.8077 -1.0210 -0.7531
 6882SOL     OW32278   4.063   3.606   1.918  0.4047  0.3428  0.4765
 6882SOL    HW132279   4.154   3.586   1.894  0.2331 -0.8189  0.7824
 6882SOL    HW232280   4.017   3.598   1.835  1.7935  1.1632 -0.3647
 6883SOL     OW32281   3.648   3.095   8.859  0.1408  0.2166 -0.2282
 6883SOL    HW132282   3.615   3.172   8.811  0.8763 -0.4778 -1.8294
 6883SOL    HW232283   3.695   3.059   8.784  0.0642  0.9392 -0.6263
 6884SOL     OW32284   2.367   0.058   9.952  0.2018 -0.1087 -0.0448
 6884SOL    HW132285   2.418   4.713   9.952 -0.8506 -0.7588  3.3178
 6884SOL    HW232286   2.273   0.041   9.948 -0.0715  1.1443  0.7796
 6885SOL     OW32287   0.099   3.820   5.806 -0.2605 -0.0864 -0.0528
 6885SOL    HW132288   0.044   3.815   5.727 -0.2417 -0.1829 -0.0600
 6885SOL    HW232289   0.121   3.727   5.811  2.5737  0.6246  0.5360
 6886SOL     OW32290   0.997   1.440   5.666  0.1088  0.0847 -0.2842
 6886SOL    HW132291   1.010   1.433   5.760  0.1500  0.6102 -0.2487
 6886SOL    HW232292   1.089   1.443   5.637  0.6647 -2.8155  1.1611
 6887SOL     OW32293   1.084   1.447   4.243 -0.2470  0.0077 -0.4867
 6887SOL    HW132294   1.116   1.382   4.180 -0.0697 -0.3432 -0.0340
 6887SOL    HW232295   1.160   1.506   4.238 -1.4277  1.3320 -2.8157
 6888SOL     OW32296   2.994   1.263  13.063  0.4045  0.0355 -0.1372
 6888SOL    HW132297   2.969   1.212  13.140  1.6039  1.5372  1.2568
 6888SOL    HW232298   3.072   1.298  13.106 -0.3268  1.7710 -0.2496
 6889SOL     OW32299   0.816   1.618   5.553  0.0342 -0.5815  0.4127
 6889SOL    HW132300   0.870   1.570   5.616  0.5080  0.3588  0.7237
 6889SOL    HW232301   0.747   1.663   5.601  2.2856  2.9789  0.3452
 6890SOL     OW32302   3.880   4.639   8.555 -0.1036 -0.4991  0.4345
 6890SOL    HW132303   3.928   4.558   8.537  1.3441  1.3800 -4.2168
 6890SOL    HW232304   3.948   4.706   8.568  0.2741 -0.7754 -0.1578
 6891SOL     OW32305   4.065   2.946   2.869  0.1883  0.7584 -0.4136
 6891SOL    HW132306   4.030   3.032   2.845  0.0620  1.6186  2.8010
 6891SOL    HW232307   4.069   2.939   2.965 -2.2956  0.4767 -0.3360
 6892SOL     OW32308   3.061   4.265   5.894 -0.5350  0.0279  0.5891
 6892SOL    HW132309   3.140   4.213   5.905 -0.1580  0.4727 -0.0504
 6892SOL    HW232310   3.100   4.348   5.866  0.7007 -0.7345  0.0637
 6893SOL     OW32311   2.721   0.499   4.299  0.6530 -0.3959 -0.0906
 6893SOL    HW132312   2.683   0.505   4.211 -1.0566 -0.7564  0.6183
 6893SOL    HW232313   2.798   0.445   4.280  0.8811  0.2667 -1.0413
 6894SOL     OW32314   3.552   2.236  12.057  0.4281  0.2235  0.0984
 6894SOL    HW132315   3.514   2.210  11.973 -0.1776 -1.0158  0.7520
 6894SOL    HW232316   3.475   2.231  12.113 -1.3886  1.1024 -2.3397
 6895SOL     OW32317   0.421   4.206  12.245  0.2988  0.5655 -0.1089
 6895SOL    HW132318   0.506   4.240  12.217  0.3633 -0.2206 -0.8279
 6895SOL    HW232319   0.412   4.123  12.199  1.7026 -0.3909  1.3340
 6896SOL     OW32320   4.094   0.243   4.053  0.4188  0.1754  0.0048
 6896SOL    HW132321   4.012   0.285   4.079  0.8402 -0.5269  2.4469
 6896SOL    HW232322   4.138   0.325   4.075 -1.6101  0.9948  0.9868
 6897SOL     OW32323   0.608   4.322   2.692 -0.6574 -0.2676  0.7135
 6897SOL    HW132324   0.644   4.245   2.735 -2.5047 -0.3288  2.1471
 6897SOL    HW232325   0.600   4.285   2.604 -1.4726 -1.0609  1.1136
 6898SOL     OW32326   2.683   0.516   3.188  0.3741 -0.1525  0.3345
 6898SOL    HW132327   2.613   0.460   3.221 -0.5059  1.3034  0.9893
 6898SOL    HW232328   2.763   0.464   3.190 -0.7138 -1.8810 -0.7364
 6899SOL     OW32329   1.482   3.193   5.091  0.0412  0.4181  0.1787
 6899SOL    HW132330   1.553   3.222   5.033 -0.4884 -2.1933 -1.8018
 6899SOL    HW232331   1.429   3.272   5.100  1.7093  1.5913 -0.1728
 6900SOL     OW32332   0.163   3.754   4.522  1.1013 -0.1828 -0.1927
 6900SOL    HW132333   0.197   3.809   4.592  0.3796  0.7430 -0.5728
 6900SOL    HW232334   0.164   3.665   4.557 -2.1815  0.3252  1.2298
 6901SOL     OW32335   1.651   0.421  13.626  0.6431 -0.2973 -0.1453
 6901SOL    HW132336   1.660   0.516  13.627  1.3994 -0.3819  1.0554
 6901SOL    HW232337   1.665   0.404  13.719 -1.4977 -2.0194 -0.1177
 6902SOL     OW32338   1.078   3.582   5.065  0.2030  0.0697 -0.2990
 6902SOL    HW132339   0.989   3.583   5.101 -0.0221 -0.0317 -0.8568
 6902SOL    HW232340   1.102   3.669   5.097 -0.6152 -0.4449  1.6820
 6903SOL     OW32341   3.143   2.196   9.245  0.5361 -0.5009 -0.2583
 6903SOL    HW132342   3.222   2.176   9.295 -0.1107  0.6435  1.2532
 6903SOL    HW232343   3.173   2.170   9.158 -0.8626 -1.2203 -0.5237
 6904SOL     OW32344   2.340   2.502   6.591 -0.2770 -0.6144 -0.1220
 6904SOL    HW132345   2.344   2.456   6.507  1.7787 -2.0543  0.7732
 6904SOL    HW232346   2.246   2.483   6.595 -1.2637  3.9960 -1.4490
 6905SOL     OW32347   1.329   4.654   1.675  0.2578  0.0279 -0.3146
 6905SOL    HW132348   1.415   4.695   1.675  1.1685 -1.8708 -2.0624
 6905SOL    HW232349   1.347   4.562   1.657  1.4390  0.5678 -1.8606
 6906SOL     OW32350   2.417   3.708  16.190 -0.0379 -0.0237  0.0304
 6906SOL    HW132351   2.423   3.615  16.167 -0.8948 -0.1461  0.3168
 6906SOL    HW232352   2.489   3.715  16.253 -0.3225 -1.2581  0.5002
 6907SOL     OW32353   4.567   3.949  14.578 -0.5469  0.4582 -0.4988
 6907SOL    HW132354   4.636   3.887  14.556 -0.1828  0.2247  1.3132
 6907SOL    HW232355   4.614   4.030  14.556  1.5850  0.2917  3.5152
 6908SOL     OW32356   2.646   0.155  11.276 -0.0726  0.2583 -0.4417
 6908SOL    HW132357   2.597   0.080  11.243 -0.4288  0.6107 -0.7185
 6908SOL    HW232358   2.578   0.217  11.304 -1.5300 -1.3155 -0.4849
 6909SOL     OW32359   3.014   2.853   7.178 -0.3002 -0.1046  0.5830
 6909SOL    HW132360   3.061   2.856   7.094 -1.3848 -1.3045 -0.0681
 6909SOL    HW232361   3.000   2.942   7.209 -0.8065 -0.0816  0.2886
 6910SOL     OW32362   1.351   1.679  11.905  0.1359 -0.2685 -0.0017
 6910SOL    HW132363   1.366   1.763  11.861 -2.9134 -0.1627 -0.8156
 6910SOL    HW232364   1.436   1.668  11.947 -0.0329  0.6688  0.6021
 6911SOL     OW32365   3.261   1.542  13.825  0.0876 -0.3974 -0.2850
 6911SOL    HW132366   3.169   1.562  13.843  0.4706 -0.2840  1.4866
 6911SOL    HW232367   3.314   1.588  13.889  2.9804 -2.6441 -1.0748
 6912SOL     OW32368   0.738   3.561   3.594 -0.2069  0.6257 -0.2130
 6912SOL    HW132369   0.788   3.636   3.562 -1.0794 -0.0809 -3.2300
 6912SOL    HW232370   0.746   3.586   3.686  0.5390 -1.4670  0.2944
 6913SOL     OW32371   3.310   2.833   9.879 -0.1422  0.5875 -0.3443
 6913SOL    HW132372   3.273   2.917   9.853 -0.5113  0.1470 -1.2627
 6913SOL    HW232373   3.351   2.859   9.961  1.5741 -0.4750 -0.8689
 6914SOL     OW32374   4.527   2.495   4.273 -0.1516 -0.6243  0.0211
 6914SOL    HW132375   4.518   2.506   4.178 -2.5149 -0.0091  0.3046
 6914SOL    HW232376   4.459   2.555   4.303  1.2700  0.1847  1.6416
 6915SOL     OW32377   1.097   2.865   2.965 -0.1515  0.4565  0.4940
 6915SOL    HW132378   1.146   2.946   2.977 -1.4101  1.4177 -0.7829
 6915SOL    HW232379   1.143   2.828   2.890 -0.1253 -0.2403  0.8610
 6916SOL     OW32380   1.037   2.849   9.168 -0.3141  0.5095 -0.5075
 6916SOL    HW132381   1.103   2.781   9.157 -1.6302 -0.8956  0.3872
 6916SOL    HW232382   0.959   2.822   9.119 -0.0497 -0.9045 -0.1390
 6917SOL     OW32383   2.611   3.175  15.587 -0.0952  0.2156 -0.1343
 6917SOL    HW132384   2.647   3.243  15.530  0.5285 -2.1591 -2.5871
 6917SOL    HW232385   2.525   3.209  15.613 -0.0574 -4.3162  5.8454
 6918SOL     OW32386   0.116   2.288   2.670  0.0489 -0.6618 -0.0422
 6918SOL    HW132387   0.171   2.352   2.624 -0.1996 -1.1452 -0.9947
 6918SOL    HW232388   0.029   2.328   2.678  0.5261  1.1172 -3.6043
 6919SOL     OW32389   1.539   4.079   7.409  0.6806  0.3576 -0.1274
 6919SOL    HW132390   1.564   4.170   7.424  0.6158  0.2194  0.8636
 6919SOL    HW232391   1.601   4.054   7.341  1.2506 -0.3414  0.6487
 6920SOL     OW32392   1.981   3.423   4.167  0.6171 -0.1430  0.4820
 6920SOL    HW132393   2.014   3.377   4.244 -0.8473 -1.1183  0.5386
 6920SOL    HW232394   2.053   3.481   4.146  0.1549  1.3625  3.0974
 6921SOL     OW32395   1.759   3.284  16.625 -0.1606  0.2912  0.0114
 6921SOL    HW132396   1.741   3.250  16.537  0.7892  0.6716 -0.3287
 6921SOL    HW232397   1.782   3.372  16.596 -0.5201 -0.4921 -2.6532
 6922SOL     OW32398   0.478   4.722   7.348 -0.3360  0.1519  0.5182
 6922SOL    HW132399   0.499   0.007   7.439  1.7847  1.9478 -0.3786
 6922SOL    HW232400   0.496   0.074   7.315  3.3000 -0.1668  1.6691
 6923SOL     OW32401   0.081   1.895   3.460 -0.5243 -0.4540 -0.5656
 6923SOL    HW132402   0.069   1.815   3.510  1.6219 -0.1166  0.4778
 6923SOL    HW232403   0.054   1.863   3.373 -1.3374  1.8156 -1.1547
 6924SOL     OW32404   1.598   4.730   4.601 -0.1020  0.1431 -0.1748
 6924SOL    HW132405   1.508   4.720   4.568  0.2148 -2.4474 -0.2687
 6924SOL    HW232406   1.597   4.664   4.671  1.0158 -0.7179 -0.9818
 6925SOL     OW32407   4.184   1.921   7.814 -0.3798 -0.3391 -0.5290
 6925SOL    HW132408   4.276   1.905   7.835 -0.7097  1.7121  2.5751
 6925SOL    HW232409   4.167   2.012   7.840  1.7824  0.0395 -0.5153
 6926SOL     OW32410   0.114   2.414  11.373  0.3193  0.0275 -0.6968
 6926SOL    HW132411   0.048   2.345  11.380  0.0571  0.2233 -1.3150
 6926SOL    HW232412   0.056   2.482  11.339  1.1212  1.6251  1.1144
 6927SOL     OW32413   3.917   1.846   7.874  0.3852  0.0404 -0.4797
 6927SOL    HW132414   3.878   1.916   7.822  0.7416  0.3258 -0.3690
 6927SOL    HW232415   4.005   1.860   7.840 -0.7463  0.3797 -3.2838
 6928SOL     OW32416   3.800   0.227   1.898  0.2954  0.0087  0.1320
 6928SOL    HW132417   3.845   0.193   1.821 -0.6729  1.6395 -1.1522
 6928SOL    HW232418   3.716   0.264   1.870  0.5793 -2.0043 -3.3622
 6929SOL     OW32419   3.651   2.283   7.705 -0.4087 -0.3416 -0.2887
 6929SOL    HW132420   3.606   2.337   7.770  1.3710 -0.0193  0.6852
 6929SOL    HW232421   3.665   2.345   7.633 -1.6309  0.6895  0.3627
 6930SOL     OW32422   1.080   1.376   7.021  0.0349 -0.2919 -0.6949
 6930SOL    HW132423   1.051   1.289   6.997 -0.2161 -0.0130 -1.3800
 6930SOL    HW232424   1.046   1.380   7.110 -0.4321  1.0644 -0.9300
 6931SOL     OW32425   2.960   2.728  16.075 -0.1423  0.3346 -0.5396
 6931SOL    HW132426   2.918   2.697  16.155  3.4067 -1.2999  0.6806
 6931SOL    HW232427   2.913   2.811  16.070 -2.2485 -0.8371 -0.0842
 6932SOL     OW32428   3.007   2.583  17.101 -0.2189  0.2108 -0.6261
 6932SOL    HW132429   3.084   2.599  17.155  2.0203 -1.4157 -3.3326
 6932SOL    HW232430   2.988   2.495  17.133  0.3286 -0.1288 -1.2351
 6933SOL     OW32431   4.632   2.156   6.304 -0.3694 -0.1279  0.2915
 6933SOL    HW132432   4.654   2.242   6.340  0.3988  1.0986 -3.1224
 6933SOL    HW232433   4.653   2.164   6.211  0.1995 -1.7643  0.2817
 6934SOL     OW32434   1.772   3.205  10.852 -0.1626 -0.0431  0.1092
 6934SOL    HW132435   1.714   3.273  10.819  0.1866 -0.3139 -1.0535
 6934SOL    HW232436   1.797   3.242  10.937 -0.9735  2.7459 -0.8870
 6935SOL     OW32437   2.846   2.647   7.156  0.7308 -0.5945  1.0192
 6935SOL    HW132438   2.911   2.718   7.158 -1.9624  1.8474  1.1727
 6935SOL    HW232439   2.879   2.584   7.220  0.4736  0.4916  2.1998
 6936SOL     OW32440   4.025   3.782   5.414  0.2452  0.8242 -0.3801
 6936SOL    HW132441   4.068   3.775   5.500  0.9405  0.7614 -0.7377
 6936SOL    HW232442   4.092   3.762   5.349 -0.5163 -0.9525 -0.6167
 6937SOL     OW32443   0.745   4.492   8.358  0.1545 -0.3776  0.5795
 6937SOL    HW132444   0.836   4.511   8.334 -0.2714 -0.8750 -1.4690
 6937SOL    HW232445   0.733   4.568   8.416 -3.1295 -1.2819  1.0900
 6938SOL     OW32446   0.742   4.168   6.942  0.5962 -0.1430 -0.0953
 6938SOL    HW132447   0.668   4.158   6.882 -0.8063 -0.9926  1.7669
 6938SOL    HW232448   0.701   4.205   7.021  1.3808  0.3433  0.0809
 6939SOL     OW32449   0.937   2.340   7.186  0.4032 -0.3279 -0.6227
 6939SOL    HW132450   0.928   2.434   7.170  0.6663 -0.4582 -1.5055
 6939SOL    HW232451   1.028   2.342   7.217 -0.2317 -0.7696  1.2912
 6940SOL     OW32452   0.018   3.636  17.194 -0.0867  0.0865 -0.8031
 6940SOL    HW132453   0.093   3.613  17.141 -0.3138 -0.2771 -0.9670
 6940SOL    HW232454   0.037   3.720  17.236  0.1809  0.6186 -1.9992
 6941SOL     OW32455   0.709   1.061  14.025 -0.3109 -0.0759  0.3033
 6941SOL    HW132456   0.640   1.127  14.030 -1.9307 -1.8683  1.6204
 6941SOL    HW232457   0.659   0.981  14.007 -0.7206  0.4858 -0.9741
 6942SOL     OW32458   2.286   0.281   5.837  0.5956 -0.2324 -0.4839
 6942SOL    HW132459   2.251   0.206   5.884 -0.3751  0.0369 -0.7867
 6942SOL    HW232460   2.294   0.247   5.748  1.4035 -1.3437  0.0091
 6943SOL     OW32461   2.729   1.040   8.583  0.2003 -0.1750  0.0625
 6943SOL    HW132462   2.757   1.114   8.637 -1.5154 -2.7263  4.4110
 6943SOL    HW232463   2.751   0.963   8.635 -0.5351 -0.2148  0.3174
 6944SOL     OW32464   2.539   2.412  16.439 -0.1639  0.1902 -0.2491
 6944SOL    HW132465   2.567   2.390  16.528 -0.7833  0.4549  0.0154
 6944SOL    HW232466   2.622   2.395  16.395 -0.1906  0.1176 -0.2710
 6945SOL     OW32467   1.829   3.437   5.097  0.1299  0.1740  0.0552
 6945SOL    HW132468   1.897   3.369   5.088  1.5584  1.7915 -1.2895
 6945SOL    HW232469   1.794   3.427   5.185  1.5908 -0.5381  0.5575
 6946SOL     OW32470   1.400   3.133   0.658  0.3321  0.3666 -0.5129
 6946SOL    HW132471   1.436   3.163   0.574 -0.3515  0.5919 -0.7237
 6946SOL    HW232472   1.473   3.154   0.716 -1.1382 -0.8467  1.7477
 6947SOL     OW32473   0.326   4.542   7.689 -0.5668 -0.1545 -0.1047
 6947SOL    HW132474   0.416   4.573   7.688  0.1358 -2.2221 -0.9800
 6947SOL    HW232475   0.277   4.595   7.752  0.8490  1.1275 -0.0896
 6948SOL     OW32476   2.123   2.767  14.957 -0.0211 -0.2149  0.0347
 6948SOL    HW132477   2.133   2.850  14.909  0.1044 -0.9220 -1.1744
 6948SOL    HW232478   2.058   2.803  15.017 -1.3316  1.3757 -2.3515
 6949SOL     OW32479   1.306   4.643   4.732  0.7476 -0.2567  0.5672
 6949SOL    HW132480   1.288   4.592   4.653  0.7018 -0.3873  0.6623
 6949SOL    HW232481   1.248   4.595   4.791  0.4044 -1.0934 -0.4497
 6950SOL     OW32482   1.186   0.805   4.195  0.1147  0.2463  0.6675
 6950SOL    HW132483   1.198   0.803   4.290 -0.7126  0.5656  0.7803
 6950SOL    HW232484   1.260   0.752   4.164  1.1275  1.7183  0.5839
 6951SOL     OW32485   0.674   3.817   7.130 -0.2903 -0.1934 -0.6989
 6951SOL    HW132486   0.683   3.874   7.206  0.6395  0.5384 -1.3599
 6951SOL    HW232487   0.644   3.884   7.069  2.3861  0.4740 -1.2867
 6952SOL     OW32488   3.515   2.545   1.529 -0.2416  0.0706  0.9786
 6952SOL    HW132489   3.504   2.482   1.458  0.7937  2.7239 -1.5520
 6952SOL    HW232490   3.599   2.590   1.517 -0.1761 -0.3485 -0.1684
 6953SOL     OW32491   0.583   3.185  17.405  0.1172 -0.0555  0.0972
 6953SOL    HW132492   0.535   3.103  17.416 -1.0505  0.5454 -0.5143
 6953SOL    HW232493   0.560   3.207  17.315 -3.9042  1.5409  1.5289
 6954SOL     OW32494   3.862   4.480  14.389 -0.0395  0.0853  0.6860
 6954SOL    HW132495   3.830   4.557  14.343  1.1157  0.7133  0.9161
 6954SOL    HW232496   3.781   4.440  14.420 -1.1042  0.1087 -2.0895
 6955SOL     OW32497   3.658   0.851   4.343  0.2761  0.5468 -0.4427
 6955SOL    HW132498   3.588   0.865   4.280  0.0651  1.0219 -0.1016
 6955SOL    HW232499   3.730   0.888   4.292  1.2156 -0.4091  0.1804
 6956SOL     OW32500   2.412   2.996   9.691  0.4036  0.3615  0.2477
 6956SOL    HW132501   2.365   3.066   9.735  1.1096  0.6117  0.5930
 6956SOL    HW232502   2.356   2.987   9.613  0.3408  1.5121  0.1616
 6957SOL     OW32503   3.548   1.878   6.307  0.1101 -0.1239  0.3067
 6957SOL    HW132504   3.470   1.933   6.301 -1.4071 -2.1504  1.1542
 6957SOL    HW232505   3.511   1.790   6.319 -0.0500  0.2122  2.2768
 6958SOL     OW32506   0.749   3.103   7.612 -0.0330  0.2505  0.3413
 6958SOL    HW132507   0.822   3.043   7.598 -0.4574 -0.0223 -0.7004
 6958SOL    HW232508   0.779   3.167   7.677 -0.2656 -0.1278  0.8258
 6959SOL     OW32509   1.615   0.701  13.552  0.0688 -0.1354  0.7078
 6959SOL    HW132510   1.599   0.762  13.480 -1.4512  0.6165  1.6869
 6959SOL    HW232511   1.710   0.710  13.551  0.0910 -0.5512 -1.2025
 6960SOL     OW32512   3.877   0.419   4.991 -0.0362 -0.4570  0.1583
 6960SOL    HW132513   3.893   0.473   4.914 -1.3964  0.0462  0.2308
 6960SOL    HW232514   3.918   0.475   5.058  1.5443 -2.5454  0.9119
 6961SOL     OW32515   1.170   1.921  12.670 -0.2452  0.2254 -0.6749
 6961SOL    HW132516   1.225   1.960  12.603 -1.7247  0.3651 -1.7930
 6961SOL    HW232517   1.173   1.836  12.625  0.4109 -0.4516  0.6440
 6962SOL     OW32518   3.773   0.313  10.139  0.3172  1.0633  0.1952
 6962SOL    HW132519   3.752   0.297  10.047  1.3011 -3.6411  0.7804
 6962SOL    HW232520   3.869   0.315  10.140  0.3731 -1.2396 -0.9907
 6963SOL     OW32521   3.707   3.258   6.699  0.4382  0.2095  0.1277
 6963SOL    HW132522   3.646   3.234   6.629  2.2818  0.5527 -1.6107
 6963SOL    HW232523   3.772   3.188   6.689 -1.2904 -1.4275  0.2290
 6964SOL     OW32524   0.272   1.177   3.274  0.2744 -0.5700  0.7177
 6964SOL    HW132525   0.196   1.192   3.218  1.0449 -1.3158 -0.5249
 6964SOL    HW232526   0.242   1.225   3.352 -2.2145  0.7691 -1.0796
 6965SOL     OW32527   4.698   4.231   8.573  0.3002  0.2575  0.3891
 6965SOL    HW132528   4.674   4.298   8.636  0.1690  2.0513 -1.5971
 6965SOL    HW232529   0.051   4.259   8.549  0.4066 -0.3216  0.0946
 6966SOL     OW32530   1.622   1.438  12.478  0.6726 -0.3645 -0.4896
 6966SOL    HW132531   1.533   1.409  12.459 -0.0090  2.9669 -2.3653
 6966SOL    HW232532   1.654   1.476  12.397  2.7286  1.1294  1.0241
 6967SOL     OW32533   2.520   2.506   5.348  0.1114  0.2588  0.2765
 6967SOL    HW132534   2.433   2.487   5.383 -1.2631  3.3869 -1.4791
 6967SOL    HW232535   2.516   2.466   5.261  2.3168 -1.3361  0.9097
 6968SOL     OW32536   2.116   2.195   7.560  0.7289 -0.1029 -0.1388
 6968SOL    HW132537   2.104   2.103   7.537 -2.7076  0.8778 -2.3167
 6968SOL    HW232538   2.207   2.215   7.537  0.7863 -0.8277 -0.5536
 6969SOL     OW32539   2.633   2.152   8.940  0.1915  0.1060  0.1728
 6969SOL    HW132540   2.594   2.228   8.983 -0.4815 -0.7786  1.1381
 6969SOL    HW232541   2.726   2.172   8.950 -0.4050  2.5552  0.7293
 6970SOL     OW32542   1.802   0.748   2.975 -0.1658  0.3758  0.6825
 6970SOL    HW132543   1.853   0.829   2.982 -0.0792  0.1695  2.5438
 6970SOL    HW232544   1.867   0.687   3.011 -0.2959  0.5509  1.2059
 6971SOL     OW32545   2.305   2.349   9.047  0.9356 -0.0660 -0.2350
 6971SOL    HW132546   2.255   2.420   9.088 -0.9918 -0.8071 -1.2753
 6971SOL    HW232547   2.254   2.275   9.081 -0.4611  0.7577 -0.4958
 6972SOL     OW32548   0.692   1.192   2.994 -0.4742 -0.4885 -0.0009
 6972SOL    HW132549   0.647   1.231   2.920  0.9534 -0.8991 -1.0799
 6972SOL    HW232550   0.674   1.102   2.965  1.7294 -1.0441  0.3119
 6973SOL     OW32551   1.310   4.533   8.580 -0.0666  0.0512  0.0600
 6973SOL    HW132552   1.315   4.484   8.498 -1.3099  0.0562 -0.0092
 6973SOL    HW232553   1.330   4.619   8.542 -3.5414 -0.2368 -2.3327
 6974SOL     OW32554   4.215   3.760   1.093  0.2942 -0.3443 -0.2791
 6974SOL    HW132555   4.193   3.676   1.134 -0.1396  0.3174  0.8432
 6974SOL    HW232556   4.305   3.776   1.121 -0.4172 -2.0489  3.1190
 6975SOL     OW32557   2.832   1.009   5.863 -0.2062  0.2224  0.4667
 6975SOL    HW132558   2.829   1.077   5.931 -2.4389 -0.6893  1.2759
 6975SOL    HW232559   2.899   0.950   5.899  0.5880  1.1493  0.5101
 6976SOL     OW32560   2.675   4.058   3.599  0.0354  0.2418  0.0716
 6976SOL    HW132561   2.729   3.990   3.558  0.4933  0.7655 -0.1982
 6976SOL    HW232562   2.640   4.020   3.679  0.5299  1.3392  0.8023
 6977SOL     OW32563   4.612   3.148   4.741  1.1852  0.3081 -0.6587
 6977SOL    HW132564   4.622   3.143   4.836 -1.7380  0.4425 -0.3544
 6977SOL    HW232565   4.633   3.057   4.719 -0.6908 -0.0074 -1.1550
 6978SOL     OW32566   0.254   2.383   7.877 -0.5181  0.5673 -0.0343
 6978SOL    HW132567   0.223   2.324   7.808 -2.7168  1.0449  0.5147
 6978SOL    HW232568   0.345   2.393   7.851 -1.2555  0.9650 -2.4535
 6979SOL     OW32569   1.224   3.926   4.650  0.0811 -0.5653 -0.1900
 6979SOL    HW132570   1.253   4.017   4.649  0.7475 -0.7777 -0.3720
 6979SOL    HW232571   1.299   3.868   4.657  0.1884 -0.5099 -0.8304
 6980SOL     OW32572   2.221   3.636   7.803 -0.1372  0.4407  0.0680
 6980SOL    HW132573   2.197   3.617   7.713  3.1804  1.8478 -1.1106
 6980SOL    HW232574   2.220   3.549   7.843 -3.3779 -0.0686 -1.1540
 6981SOL     OW32575   4.484   3.051   3.457  0.2947  0.0304 -0.2052
 6981SOL    HW132576   4.423   3.095   3.516  0.1193 -0.8386  0.2646
 6981SOL    HW232577   4.462   2.958   3.448 -1.9124  0.7413 -2.0540
 6982SOL     OW32578   4.498   4.181  14.791 -0.4931  0.1052  0.4145
 6982SOL    HW132579   4.406   4.162  14.775  0.5990 -1.5415 -3.8221
 6982SOL    HW232580   4.536   4.093  14.791  1.3211  0.8900  1.2400
 6983SOL     OW32581   1.368   1.853   2.300 -0.0773 -0.3430  0.2733
 6983SOL    HW132582   1.289   1.816   2.340 -0.4519 -0.7108 -0.8098
 6983SOL    HW232583   1.349   1.944   2.323  2.3849 -0.3182  2.2197
 6984SOL     OW32584   3.599   0.857   1.156  0.0879 -0.6277  0.0922
 6984SOL    HW132585   3.644   0.810   1.087  0.8418  0.9489 -0.4812
 6984SOL    HW232586   3.508   0.862   1.126  0.5664 -1.7326 -1.4923
 6985SOL     OW32587   1.135   2.181  10.900 -0.2710  0.4687  0.0222
 6985SOL    HW132588   1.218   2.229  10.900  1.0010 -1.7214  1.7978
 6985SOL    HW232589   1.089   2.217  10.823  0.6209  2.2390  0.3196
 6986SOL     OW32590   2.952   2.557   4.126  0.1532  0.5786 -0.2570
 6986SOL    HW132591   2.976   2.645   4.097  1.2112  0.1455 -0.6968
 6986SOL    HW232592   2.858   2.553   4.112  0.1157 -1.4265  0.5974
 6987SOL     OW32593   2.104   1.722   4.733  0.1661  0.2317  0.0530
 6987SOL    HW132594   2.164   1.774   4.679  2.3490 -3.5078 -1.0896
 6987SOL    HW232595   2.151   1.639   4.727 -0.2587 -0.2914  4.0662
 6988SOL     OW32596   2.000   0.697   8.946 -0.1175  0.1697  0.3302
 6988SOL    HW132597   1.933   0.689   8.878 -0.3203 -0.1307  0.5603
 6988SOL    HW232598   2.063   0.641   8.901 -0.3998 -1.6395  2.1523
 6989SOL     OW32599   4.000   0.362   7.012  0.0241  0.2306  0.5302
 6989SOL    HW132600   3.989   0.291   7.075 -0.6881  1.0590  1.3326
 6989SOL    HW232601   3.944   0.430   7.049 -0.1877 -0.7705  2.0228
 6990SOL     OW32602   0.466   3.003  16.602 -0.0457 -0.0385 -0.1152
 6990SOL    HW132603   0.417   3.074  16.560 -2.1364 -2.1327 -1.2127
 6990SOL    HW232604   0.440   2.925  16.553  0.9315 -0.6713  0.3758
 6991SOL     OW32605   4.688   1.555  15.652  0.4546  0.0442 -0.2115
 6991SOL    HW132606   4.715   1.569  15.561 -0.7244  2.0855 -0.2574
 6991SOL    HW232607   4.607   1.508  15.629 -0.3521  1.5154 -0.3897
 6992SOL     OW32608   0.411   4.371  11.798  0.0835  0.1320  0.4854
 6992SOL    HW132609   0.376   4.370  11.709  1.3593  0.5642 -0.0197
 6992SOL    HW232610   0.488   4.314  11.788  0.0892  0.3997 -1.0241
 6993SOL     OW32611   3.963   4.238   8.833 -0.1361 -0.0146 -0.1169
 6993SOL    HW132612   3.981   4.269   8.922  0.5119 -1.2534  0.1849
 6993SOL    HW232613   3.871   4.217   8.848 -0.0108 -0.0641  0.5642
 6994SOL     OW32614   0.173   3.042   6.868  0.1409  0.4247 -0.6277
 6994SOL    HW132615   0.108   2.972   6.862  2.6243 -2.1500  2.2661
 6994SOL    HW232616   0.205   3.032   6.779 -0.3949 -0.6200 -0.6997
 6995SOL     OW32617   1.056   1.943  17.105  0.1130  0.1412  0.1783
 6995SOL    HW132618   1.058   2.013  17.170  1.3466  0.8482 -0.6292
 6995SOL    HW232619   1.107   1.973  17.031  0.8279 -0.2817  0.4992
 6996SOL     OW32620   0.234   4.079  11.191 -0.1847 -0.5251  0.2584
 6996SOL    HW132621   0.317   4.035  11.172  0.1238  0.0397  0.3091
 6996SOL    HW232622   0.215   4.048  11.279  2.0913 -0.9576  0.6112
 6997SOL     OW32623   2.102   1.899   6.254  0.0040  0.6841  0.1985
 6997SOL    HW132624   2.191   1.920   6.283  0.1473 -0.6805  0.7486
 6997SOL    HW232625   2.112   1.863   6.166  0.4270 -0.3643  0.6813
 6998SOL     OW32626   2.251   2.769   4.835  0.0055 -0.1432 -0.3504
 6998SOL    HW132627   2.312   2.805   4.899 -2.0928  1.0800  0.9746
 6998SOL    HW232628   2.172   2.822   4.851 -0.1114  0.3382 -2.5029
 6999SOL     OW32629   1.992   4.603   7.067  0.4144 -0.2002 -0.7544
 6999SOL    HW132630   2.045   4.634   7.141 -0.5585 -2.4483  0.9164
 6999SOL    HW232631   1.921   4.668   7.069  1.0769  0.4842  1.0347
 7000SOL     OW32632   2.556   0.451  16.133  0.2795 -0.9412  0.2211
 7000SOL    HW132633   2.517   0.537  16.118 -1.2493 -2.2973 -3.5128
 7000SOL    HW232634   2.639   0.462  16.085  0.2368 -0.1132  0.3392
 7001SOL     OW32635   1.625   0.931   1.903 -0.3351 -0.0042 -0.4216
 7001SOL    HW132636   1.694   0.967   1.847 -0.2021 -0.0747 -0.3035
 7001SOL    HW232637   1.544   0.957   1.859 -1.0022 -0.0681  0.7579
 7002SOL     OW32638   4.344   2.453  14.179 -0.5636  0.3349  0.1732
 7002SOL    HW132639   4.430   2.463  14.219 -0.0101  1.9320 -1.4135
 7002SOL    HW232640   4.350   2.522  14.113  0.4400 -0.4071 -0.5201
 7003SOL     OW32641   0.638   1.587   4.858  0.3056 -0.0287  0.4551
 7003SOL    HW132642   0.593   1.672   4.857 -0.1424 -0.2511  1.6081
 7003SOL    HW232643   0.560   1.530   4.863 -0.3801  0.6165 -2.9902
 7004SOL     OW32644   3.820   3.375  10.974 -0.2623  0.2705  0.0863
 7004SOL    HW132645   3.758   3.303  10.990  0.9095 -1.0358 -1.2075
 7004SOL    HW232646   3.904   3.337  10.946 -0.5988 -0.3514 -0.0836
 7005SOL     OW32647   2.516   0.098   1.621 -0.0913  0.0263  0.0887
 7005SOL    HW132648   2.541   0.007   1.604  0.9737  0.3168  0.1183
 7005SOL    HW232649   2.530   0.147   1.541 -2.6834 -0.2475 -0.5498
 7006SOL     OW32650   1.004   2.296   3.668 -0.0375 -1.0457  0.0554
 7006SOL    HW132651   1.090   2.258   3.649  0.6955  0.8253 -0.3333
 7006SOL    HW232652   0.999   2.281   3.762  2.5654 -1.2854  0.1527
 7007SOL     OW32653   1.389   0.615  13.968 -0.3984  0.4586  0.1295
 7007SOL    HW132654   1.319   0.659  14.016 -0.6608  0.1966 -0.0127
 7007SOL    HW232655   1.401   0.678  13.896  1.2531  0.9977  0.8845
 7008SOL     OW32656   1.786   3.084   4.811 -0.0686  0.6632  0.0564
 7008SOL    HW132657   1.708   3.028   4.807  1.5729 -1.6814  0.9768
 7008SOL    HW232658   1.748   3.163   4.851 -3.0003 -0.9212  0.3711
 7009SOL     OW32659   4.640   0.654   7.578 -0.2668 -0.9410  0.4340
 7009SOL    HW132660   4.578   0.724   7.599  0.4521 -0.5122  1.1062
 7009SOL    HW232661   4.583   0.577   7.587 -2.3172  0.5794  0.4859
 7010SOL     OW32662   1.821   4.619   9.724  0.5354  0.0683 -0.0056
 7010SOL    HW132663   1.808   4.713   9.738  2.9522  0.2056  1.2668
 7010SOL    HW232664   1.729   4.593   9.731 -0.0157  1.7156 -1.0404
 7011SOL     OW32665   3.393   3.926   0.326  0.1337 -0.1135  0.2935
 7011SOL    HW132666   3.414   3.892   0.239 -2.7968  1.9251 -1.2081
 7011SOL    HW232667   3.461   3.884   0.378  2.0676 -0.0616 -2.1582
 7012SOL     OW32668   0.491   2.501   3.223  0.1922 -0.4669 -0.6223
 7012SOL    HW132669   0.534   2.481   3.307 -2.5669  0.1996  0.9566
 7012SOL    HW232670   0.456   2.415   3.199  0.0783  0.3848 -3.4769
 7013SOL     OW32671   3.704   1.484  13.719  0.7190  0.3476  0.3024
 7013SOL    HW132672   3.635   1.513  13.659  0.5199 -0.8957 -0.0759
 7013SOL    HW232673   3.705   1.566  13.767  1.0655  0.0026  0.8736
 7014SOL     OW32674   0.713   2.984   3.604 -0.1766  0.2171 -0.3715
 7014SOL    HW132675   0.750   2.937   3.678  1.4268 -1.4328 -2.2385
 7014SOL    HW232676   0.646   3.043   3.640  0.3464 -0.1706  1.2139
 7015SOL     OW32677   1.116   1.443   3.238  0.7120  0.2740  0.1148
 7015SOL    HW132678   1.108   1.528   3.193  1.4321 -0.0291 -0.5942
 7015SOL    HW232679   1.054   1.389   3.190 -1.3663  0.0882  3.0499
 7016SOL     OW32680   4.122   3.428  16.671 -0.0081 -0.5555 -0.5089
 7016SOL    HW132681   4.077   3.501  16.628 -0.6423 -1.9921 -2.2873
 7016SOL    HW232682   4.059   3.357  16.658  2.4000 -2.7561 -0.0414
 7017SOL     OW32683   2.075   2.900   5.130 -0.3733 -0.1196  0.2781
 7017SOL    HW132684   2.113   2.918   5.043  0.1600 -2.9636 -0.0825
 7017SOL    HW232685   1.992   2.947   5.118 -1.2381 -1.7213  0.0846
 7018SOL     OW32686   2.008   2.449   7.257 -0.2807  0.4492 -0.4440
 7018SOL    HW132687   1.995   2.359   7.230  0.3655  0.4221 -0.6761
 7018SOL    HW232688   2.019   2.492   7.172  2.3107  0.8608  0.0845
 7019SOL     OW32689   1.419   4.062   7.725  0.2731 -0.0879  0.2957
 7019SOL    HW132690   1.350   4.129   7.719 -2.7908 -3.1975  0.7838
 7019SOL    HW232691   1.442   4.044   7.635  1.3324 -0.4585  0.6479
 7020SOL     OW32692   2.752   1.292  11.625  0.5720 -0.5281  0.0582
 7020SOL    HW132693   2.787   1.377  11.600 -1.0371  0.2008  0.3069
 7020SOL    HW232694   2.689   1.320  11.691 -0.5088  0.8034 -1.5608
 7021SOL     OW32695   4.234   0.603   2.207 -0.1370 -0.1431 -0.4072
 7021SOL    HW132696   4.270   0.598   2.296 -1.5177  1.7960  0.2653
 7021SOL    HW232697   4.151   0.637   2.239  0.6787  1.1286  0.3468
 7022SOL     OW32698   1.863   3.732   4.091 -0.6535  0.0249 -0.5192
 7022SOL    HW132699   1.955   3.714   4.075  0.2314  2.0073  2.3153
 7022SOL    HW232700   1.864   3.768   4.180  0.5176 -1.2238 -0.0347
 7023SOL     OW32701   0.863   3.729  16.719 -0.6027  0.5470 -0.1632
 7023SOL    HW132702   0.886   3.649  16.672 -1.1081 -0.7460  1.8019
 7023SOL    HW232703   0.916   3.723  16.798  1.8530 -1.0297 -1.9391
 7024SOL     OW32704   1.778   4.047  15.734  0.1509 -0.0631  0.2179
 7024SOL    HW132705   1.826   4.108  15.790  0.5168 -0.3763  0.2397
 7024SOL    HW232706   1.739   4.103  15.667 -0.3079  0.0762  0.5997
 7025SOL     OW32707   3.797   4.312   7.901  0.2703  0.0751 -0.0202
 7025SOL    HW132708   3.836   4.281   7.819  1.1124 -0.7797  0.6978
 7025SOL    HW232709   3.794   4.233   7.956 -0.2383  1.3888  1.8413
 7026SOL     OW32710   0.496   2.779   7.072  0.1879 -0.3858  0.2969
 7026SOL    HW132711   0.527   2.814   7.156  0.2072  0.8884 -0.2447
 7026SOL    HW232712   0.556   2.705   7.061 -3.2766 -3.1583  0.2400
 7027SOL     OW32713   2.194   2.605   2.991 -0.1547 -0.4284 -0.0663
 7027SOL    HW132714   2.281   2.569   2.972  0.6434  1.9109 -0.8410
 7027SOL    HW232715   2.211   2.669   3.060  1.7527  0.5561 -1.4395
 7028SOL     OW32716   2.622   2.862   8.258  0.0405  0.2645 -0.1452
 7028SOL    HW132717   2.540   2.830   8.218 -0.3295  3.3637 -1.8543
 7028SOL    HW232718   2.666   2.782   8.287  0.3295  0.6633  0.4999
 7029SOL     OW32719   3.421   0.074   6.876 -0.0439 -0.1896 -0.3786
 7029SOL    HW132720   3.496   0.133   6.878 -0.2761  0.0893  0.1597
 7029SOL    HW232721   3.423   0.041   6.966  0.4221 -0.0641 -0.3451
 7030SOL     OW32722   0.779   1.321   2.523  0.2022  0.1262 -0.4259
 7030SOL    HW132723   0.752   1.411   2.538  0.9972  0.3528 -0.3441
 7030SOL    HW232724   0.872   1.328   2.503  0.1875  3.5061  0.7245
 7031SOL     OW32725   1.867   4.098   1.754  0.1266  0.2974  0.0052
 7031SOL    HW132726   1.860   4.132   1.843  1.7430 -0.2131  0.3206
 7031SOL    HW232727   1.947   4.047   1.748  0.4560  0.4303  3.2339
 7032SOL     OW32728   1.821   3.363  13.834  0.1937 -0.0353  0.3489
 7032SOL    HW132729   1.789   3.431  13.775  1.5153 -0.0485 -0.3839
 7032SOL    HW232730   1.898   3.323  13.792 -1.6848 -2.0890 -1.1358
 7033SOL     OW32731   3.297   0.452  11.924  0.3266  0.0267 -0.2715
 7033SOL    HW132732   3.329   0.542  11.928 -2.0461  0.9255 -1.8015
 7033SOL    HW232733   3.253   0.462  11.839 -1.2747 -0.1034  0.5519
 7034SOL     OW32734   3.763   0.452   4.343 -0.3458 -0.0384  0.3023
 7034SOL    HW132735   3.680   0.428   4.384 -0.2573 -0.2299  0.3728
 7034SOL    HW232736   3.815   0.376   4.370 -2.4515 -0.7844  2.2941
 7035SOL     OW32737   2.844   2.724   5.550  0.2631  0.4720 -0.1736
 7035SOL    HW132738   2.931   2.746   5.585  0.5989  0.5319 -1.0367
 7035SOL    HW232739   2.845   2.781   5.473  1.6010  2.2297  1.1630
 7036SOL     OW32740   0.290   0.386   2.241  0.2587  0.0067  0.0011
 7036SOL    HW132741   0.332   0.356   2.321 -0.6294 -1.0070  0.0868
 7036SOL    HW232742   0.259   0.474   2.264  1.8125  0.1840  1.4216
 7037SOL     OW32743   0.444   1.497   1.664  0.3869  0.8290 -0.3495
 7037SOL    HW132744   0.487   1.558   1.724  1.6727  1.1597 -1.6103
 7037SOL    HW232745   0.438   1.539   1.577  1.3151 -0.6885 -1.1334
 7038SOL     OW32746   2.323   3.815   8.113 -0.2370 -0.2719  0.1400
 7038SOL    HW132747   2.261   3.751   8.148 -0.3618 -0.6288 -0.7342
 7038SOL    HW232748   2.323   3.881   8.183 -1.4186  0.2042 -0.3059
 7039SOL     OW32749   3.595   0.201   0.341  0.0965  0.4672 -0.0591
 7039SOL    HW132750   3.648   0.128   0.308 -0.2496 -0.8130  2.2024
 7039SOL    HW232751   3.521   0.157   0.383  1.9011 -1.8719  0.7143
 7040SOL     OW32752   4.492   2.538   8.006  0.0086  0.0940 -0.2967
 7040SOL    HW132753   4.419   2.484   8.037 -0.0343  0.9681  1.1451
 7040SOL    HW232754   4.564   2.482   8.034  1.3400  0.8279 -2.1921
 7041SOL     OW32755   0.359   1.084   3.617 -0.1009  0.3859 -0.0621
 7041SOL    HW132756   0.271   1.104   3.586  0.1795  1.0871 -0.3873
 7041SOL    HW232757   0.340   1.000   3.660 -3.3279  2.2655  2.1991
 7042SOL     OW32758   2.546   3.647   2.686  0.2686 -0.1019 -0.0337
 7042SOL    HW132759   2.534   3.567   2.737 -0.0716 -0.8166 -1.2239
 7042SOL    HW232760   2.557   3.719   2.748  0.1242  1.9930 -2.4377
 7043SOL     OW32761   3.202   2.275  12.364 -0.0772 -0.3376  0.2796
 7043SOL    HW132762   3.225   2.210  12.429  0.9565 -0.2917 -0.0339
 7043SOL    HW232763   3.246   2.236  12.288  2.0495 -2.3325  2.5372
 7044SOL     OW32764   1.368   3.017  16.381 -0.6896 -0.3408  0.0167
 7044SOL    HW132765   1.399   3.107  16.388  1.1489 -0.9308 -0.7160
 7044SOL    HW232766   1.456   2.979  16.386 -0.6845 -0.3168  0.1096
 7045SOL     OW32767   3.922   1.633  11.982  0.0167 -0.1094  0.0816
 7045SOL    HW132768   3.963   1.698  11.926 -3.1069  0.5234 -1.5082
 7045SOL    HW232769   3.841   1.602  11.941 -1.9540  5.6663 -0.2832
 7046SOL     OW32770   4.394   2.737   2.901 -0.1277 -0.4815 -0.0706
 7046SOL    HW132771   4.336   2.752   2.975 -1.8147 -1.5515 -1.1904
 7046SOL    HW232772   4.463   2.802   2.918  0.7728 -1.2310 -0.8342
 7047SOL     OW32773   0.134   0.271  13.514  0.0535  0.4952  0.1157
 7047SOL    HW132774   0.100   0.182  13.506  0.2670  0.3768  0.5400
 7047SOL    HW232775   0.070   0.327  13.557 -1.9340 -0.9778 -0.9313
 7048SOL     OW32776   3.606   2.692  16.643  0.0965  0.3269 -0.6910
 7048SOL    HW132777   3.522   2.728  16.671  0.8008  2.0606 -0.7577
 7048SOL    HW232778   3.610   2.609  16.691  0.5604  1.5189  1.3514
 7049SOL     OW32779   1.436   3.991  11.854  0.6208 -0.0301 -0.6850
 7049SOL    HW132780   1.460   3.949  11.936 -0.5783  1.7576  0.5810
 7049SOL    HW232781   1.356   3.940  11.844  3.0276 -3.6862 -1.5205
 7050SOL     OW32782   3.200   2.573  15.988  0.1095 -0.1497  0.2218
 7050SOL    HW132783   3.138   2.646  15.992  2.3476  1.8118 -0.8113
 7050SOL    HW232784   3.145   2.502  16.020  0.4067  0.1686  1.4511
 7051SOL     OW32785   1.894   1.513   7.622  0.0258  0.5408  0.1535
 7051SOL    HW132786   1.980   1.474   7.608  0.8287  2.4545 -0.1380
 7051SOL    HW232787   1.854   1.447   7.680  0.9957 -0.5849 -0.4550
 7052SOL     OW32788   4.380   1.102  16.109  0.3892 -0.4786  0.5161
 7052SOL    HW132789   4.459   1.146  16.077  0.7893 -1.3537  0.3023
 7052SOL    HW232790   4.368   1.152  16.190  0.9722 -1.7071  1.3611
 7053SOL     OW32791   0.912   1.005  13.854 -0.3644 -0.5111 -0.0250
 7053SOL    HW132792   0.936   0.926  13.902  0.7626 -0.0045  0.2372
 7053SOL    HW232793   0.835   1.034  13.904 -0.1091  0.6308 -0.2897
 7054SOL     OW32794   1.763   1.972   7.723 -0.0851 -0.5784  0.4566
 7054SOL    HW132795   1.729   1.891   7.760  1.2946  0.1227  3.2625
 7054SOL    HW232796   1.764   2.029   7.800  1.1870 -2.1976  1.6456
 7055SOL     OW32797   2.077   1.456  11.913 -0.6067  0.6315  0.0035
 7055SOL    HW132798   2.077   1.541  11.869  0.6136  1.9371  2.5033
 7055SOL    HW232799   2.013   1.411  11.858 -1.4525  2.8980 -0.8429
 7056SOL     OW32800   0.344   0.554   3.362  0.6370 -0.5972 -0.4798
 7056SOL    HW132801   0.301   0.637   3.341 -0.1768 -0.5682  1.3600
 7056SOL    HW232802   0.275   0.502   3.401  0.2500 -0.5619 -1.1173
 7057SOL     OW32803   2.946   1.830   1.209  0.4431 -0.3807 -0.3766
 7057SOL    HW132804   2.880   1.793   1.151  0.9958  1.9041 -2.4373
 7057SOL    HW232805   2.997   1.751   1.224  0.2140 -0.7460 -1.4985
 7058SOL     OW32806   1.119   2.551   8.504  0.1866  0.5314  0.5473
 7058SOL    HW132807   1.056   2.621   8.521  1.9065  1.9290  1.1054
 7058SOL    HW232808   1.199   2.581   8.546 -0.2410  2.8900 -0.3475
 7059SOL     OW32809   1.788   3.061   9.453  0.1948  0.2168  0.1125
 7059SOL    HW132810   1.768   2.974   9.487 -0.5252  0.4727  0.3414
 7059SOL    HW232811   1.883   3.066   9.460  0.0800  1.4182  0.7496
 7060SOL     OW32812   4.108   3.704   6.764 -0.0341 -0.1755  0.2975
 7060SOL    HW132813   4.088   3.641   6.833 -0.3833 -2.9304 -2.3466
 7060SOL    HW232814   4.062   3.776   6.807  1.2352  0.4447  0.6053
 7061SOL     OW32815   2.391   1.119   6.863 -0.4739 -0.0381  0.8247
 7061SOL    HW132816   2.313   1.174   6.874 -0.6282  0.0429 -0.6924
 7061SOL    HW232817   2.403   1.105   6.770  0.8213  3.3023  0.4660
 7062SOL     OW32818   2.462   0.761   3.857 -0.3272 -0.0859  0.4228
 7062SOL    HW132819   2.472   0.735   3.948 -1.4390 -0.5513  0.4196
 7062SOL    HW232820   2.553   0.760   3.828 -1.1286  0.1556 -2.1180
 7063SOL     OW32821   3.767   2.394  11.137  0.4102  0.3811  0.0375
 7063SOL    HW132822   3.813   2.335  11.197 -0.8811 -2.4120 -1.6889
 7063SOL    HW232823   3.836   2.425  11.078 -0.9375  1.6973 -0.8349
 7064SOL     OW32824   0.011   0.794   2.199 -0.3040  0.0408  0.2853
 7064SOL    HW132825   0.036   0.886   2.187  0.7150 -0.5993 -2.5165
 7064SOL    HW232826   4.662   0.791   2.156 -0.2551  0.6604  0.1423
 7065SOL     OW32827   1.079   2.791   8.294 -0.2539  0.6463 -0.5592
 7065SOL    HW132828   1.009   2.753   8.347  0.4796 -0.9462 -0.7298
 7065SOL    HW232829   1.059   2.738   8.216 -1.5710  1.0183 -0.4790
 7066SOL     OW32830   1.259   0.459  12.962 -0.3154  0.0309 -0.3738
 7066SOL    HW132831   1.191   0.430  13.023 -0.9933 -0.6294 -1.4454
 7066SOL    HW232832   1.244   0.400  12.889 -2.3403  0.2368 -0.1142
 7067SOL     OW32833   4.499   0.116   6.086 -0.8799 -0.4236  0.2831
 7067SOL    HW132834   4.461   0.029   6.094  0.9621 -1.3335 -0.6754
 7067SOL    HW232835   4.594   0.103   6.088 -1.0043 -1.0369  1.7098
 7068SOL     OW32836   3.775   0.480   7.098 -0.3518 -0.0231  0.1632
 7068SOL    HW132837   3.691   0.464   7.055 -0.4662  0.9811  0.0225
 7068SOL    HW232838   3.751   0.541   7.168  2.7071  1.6395 -0.2472
 7069SOL     OW32839   0.103   3.038   8.598 -0.2784  0.0257 -0.7986
 7069SOL    HW132840   0.027   3.094   8.581  0.7017  1.3306 -0.8982
 7069SOL    HW232841   0.060   2.957   8.624  3.1744 -0.9275  1.9630
 7070SOL     OW32842   2.972   1.075   4.444 -0.0604  0.0311 -0.0139
 7070SOL    HW132843   3.030   1.059   4.518 -0.4796  3.2753  0.9833
 7070SOL    HW232844   3.034   1.092   4.373 -0.1565 -0.0083 -0.1082
 7071SOL     OW32845   3.940   1.031   7.256 -0.0562  0.7559 -0.0853
 7071SOL    HW132846   3.997   1.101   7.289 -0.4940  0.3528  1.5190
 7071SOL    HW232847   3.928   1.055   7.164 -1.4408  0.4577  0.0128
 7072SOL     OW32848   2.047   3.144  10.073  0.4483  0.1583 -0.6261
 7072SOL    HW132849   1.951   3.147  10.069  0.4566  1.6335  0.1808
 7072SOL    HW232850   2.069   3.083  10.003  0.6767 -1.2954  0.7265
 7073SOL     OW32851   0.095   2.869  10.889 -0.6251  0.0613 -0.3435
 7073SOL    HW132852   0.140   2.901  10.967 -1.1273 -0.1760  0.0403
 7073SOL    HW232853   0.050   2.789  10.917  0.2983  0.1959  1.5238
 7074SOL     OW32854   1.668   1.809   5.463  0.3452 -0.9232 -0.2055
 7074SOL    HW132855   1.663   1.832   5.370 -0.4452  0.0621  0.0797
 7074SOL    HW232856   1.646   1.717   5.450 -0.0928 -0.9122  0.4727
 7075SOL     OW32857   3.513   4.049   4.895 -0.6538  0.2744 -0.0309
 7075SOL    HW132858   3.440   4.103   4.864 -0.9585 -1.4309 -2.2559
 7075SOL    HW232859   3.514   4.079   4.986  1.5863 -1.1469  0.4038
 7076SOL     OW32860   4.113   0.214   7.415  0.2850 -0.2739  0.1294
 7076SOL    HW132861   4.152   0.289   7.371 -0.5169 -0.0470 -0.1829
 7076SOL    HW232862   4.076   0.255   7.493 -0.5634  1.1006 -1.0046
 7077SOL     OW32863   2.419   1.631   4.932 -0.1547  0.0963 -0.2064
 7077SOL    HW132864   2.343   1.653   4.878  0.5879  1.6266 -0.6389
 7077SOL    HW232865   2.378   1.646   5.018 -1.3325 -1.1661 -0.5458
 7078SOL     OW32866   1.839   4.142   6.918  0.0524 -0.1435 -0.4956
 7078SOL    HW132867   1.894   4.216   6.895 -1.5884  0.9175 -1.0349
 7078SOL    HW232868   1.752   4.180   6.933 -0.1345 -0.9585  0.4923
 7079SOL     OW32869   2.824   2.186  14.585  0.9214 -0.2174 -0.3706
 7079SOL    HW132870   2.747   2.145  14.544  0.4430 -0.6230  0.9453
 7079SOL    HW232871   2.854   2.248  14.519 -1.9243  0.3962 -1.1179
 7080SOL     OW32872   4.285   3.804  17.491  0.2664 -0.4411 -0.5012
 7080SOL    HW132873   4.259   3.880  17.440  0.2765  0.4204  0.7769
 7080SOL    HW232874   4.374   3.820  17.525  0.4168  1.1250 -1.6417
 7081SOL     OW32875   1.944   3.195   7.333  0.0274  0.1911  0.2398
 7081SOL    HW132876   1.944   3.253   7.257  2.9043  0.4956  0.4897
 7081SOL    HW232877   1.903   3.239   7.408  1.6986 -1.2622  1.9820
 7082SOL     OW32878   0.952   1.841   6.052  0.1180  0.3356 -0.0792
 7082SOL    HW132879   0.870   1.865   6.008  1.6625  0.0193 -3.1547
 7082SOL    HW232880   0.945   1.890   6.134 -0.0821  0.2932 -0.0729
 7083SOL     OW32881   3.075   0.792  15.857  0.3388  0.5261  0.1725
 7083SOL    HW132882   3.068   0.888  15.863  0.2840  0.3335  2.7506
 7083SOL    HW232883   3.142   0.779  15.923 -0.9190 -2.4756  0.8487
 7084SOL     OW32884   4.576   2.577   2.503  0.0184  0.5024  0.3392
 7084SOL    HW132885   4.614   2.647   2.556 -0.5460  1.8057 -0.9626
 7084SOL    HW232886   4.500   2.618   2.462  0.6377  0.7109 -0.5846
 7085SOL     OW32887   3.329   2.700  16.766  0.3502  0.0074  0.2936
 7085SOL    HW132888   3.242   2.719  16.800  0.3073 -0.4568  0.4408
 7085SOL    HW232889   3.330   2.606  16.782 -0.1140 -0.1032 -0.3282
 7086SOL     OW32890   1.598   2.740   5.744  0.0270 -0.2859 -0.3539
 7086SOL    HW132891   1.541   2.798   5.694 -0.3385 -0.0650  0.3227
 7086SOL    HW232892   1.604   2.671   5.678  2.0537 -1.6328  1.1956
 7087SOL     OW32893   0.875   2.716   2.180 -0.0339 -0.4438  0.3478
 7087SOL    HW132894   0.952   2.676   2.140 -1.3127  1.0581 -3.6375
 7087SOL    HW232895   0.907   2.803   2.202 -1.0374 -0.0815  0.3734
 7088SOL     OW32896   2.964   3.412   4.594 -0.2158  1.1501 -0.5556
 7088SOL    HW132897   2.926   3.478   4.652  1.1469  1.0825  0.4292
 7088SOL    HW232898   2.972   3.467   4.517 -0.2393 -0.1065 -1.4509
 7089SOL     OW32899   1.418   0.573  12.101 -0.1233  0.4922  0.0601
 7089SOL    HW132900   1.330   0.611  12.103 -0.6468 -0.6222 -1.9400
 7089SOL    HW232901   1.397   0.480  12.096  0.4942  0.3459  0.2731
 7090SOL     OW32902   4.220   3.219   2.952  0.3466  0.0523  0.2098
 7090SOL    HW132903   4.300   3.218   2.900  0.8473  0.9268  0.9596
 7090SOL    HW232904   4.250   3.169   3.027  2.5105  1.5315  0.3394
 7091SOL     OW32905   1.203   3.552  16.975  0.2081  0.1085 -0.6213
 7091SOL    HW132906   1.291   3.584  16.953  0.6972 -0.1954  0.8842
 7091SOL    HW232907   1.202   3.489  17.047 -0.1987  0.8690  0.0305
 7092SOL     OW32908   3.363   2.301   4.915 -0.2625 -0.0120 -0.4864
 7092SOL    HW132909   3.422   2.362   4.871  0.9508 -0.3965  0.6027
 7092SOL    HW232910   3.366   2.346   4.999  0.4511  0.9757 -1.0344
 7093SOL     OW32911   4.445   0.259  15.188  0.4146  0.4405 -0.1781
 7093SOL    HW132912   4.476   0.171  15.205  2.9090  0.6130 -3.9345
 7093SOL    HW232913   4.500   0.313  15.245 -1.5162  0.8767  1.2975
 7094SOL     OW32914   4.729   0.231  17.505 -0.0335 -0.1949 -0.3988
 7094SOL    HW132915   4.655   0.176  17.532 -1.8420  2.1822 -0.4870
 7094SOL    HW232916   4.707   0.248  17.414  1.4292 -1.6839 -1.0288
 7095SOL     OW32917   2.426   3.987   7.166  0.4513 -0.0516  0.6380
 7095SOL    HW132918   2.379   4.057   7.119 -0.8672 -1.0576  0.4462
 7095SOL    HW232919   2.377   3.992   7.248  0.0554 -1.7501  0.4973
 7096SOL     OW32920   1.851   4.595  14.471 -0.1329  0.2348  0.1431
 7096SOL    HW132921   1.848   4.518  14.528 -0.9684  1.4968  1.7971
 7096SOL    HW232922   1.943   4.591  14.445 -0.4875 -0.0636 -1.0938
 7097SOL     OW32923   1.132   4.130   1.867 -0.1407 -0.1635  0.1061
 7097SOL    HW132924   1.076   4.207   1.855  0.5211  0.3581  0.3437
 7097SOL    HW232925   1.065   4.062   1.866 -0.1136 -0.1926  0.2118
 7098SOL     OW32926   1.937   3.312   7.081 -0.4279 -0.1134  0.2680
 7098SOL    HW132927   1.957   3.357   6.999 -2.1845  0.7028  0.2928
 7098SOL    HW232928   1.954   3.383   7.143 -1.8011 -1.0838  1.7679
 7099SOL     OW32929   2.250   3.864   7.626 -0.1755  0.4430  0.6463
 7099SOL    HW132930   2.226   3.952   7.652 -0.6177  0.5659 -0.1908
 7099SOL    HW232931   2.223   3.802   7.694 -2.6657  0.5352 -0.2829
 7100SOL     OW32932   4.385   0.914  10.704 -0.0714 -0.1822  0.0391
 7100SOL    HW132933   4.427   0.942  10.786 -2.4428  0.9140  0.8970
 7100SOL    HW232934   4.359   0.991  10.653 -1.5033 -0.6626  0.0236
 7101SOL     OW32935   0.743   4.384   1.631  0.7342 -0.0539  0.3413
 7101SOL    HW132936   0.724   4.294   1.606  1.3558  0.4028 -1.8489
 7101SOL    HW232937   0.656   4.422   1.620  0.0080 -2.3290 -1.8075
 7102SOL     OW32938   1.604   3.459  17.269 -0.0299 -0.5337 -0.3132
 7102SOL    HW132939   1.596   3.473  17.363 -0.3012  0.3975 -0.4726
 7102SOL    HW232940   1.682   3.404  17.270  2.6603  3.3402  0.9692
 7103SOL     OW32941   3.493   4.057   0.601 -0.0476 -0.5736 -0.2466
 7103SOL    HW132942   3.457   3.998   0.534  0.7860  1.0316 -2.0968
 7103SOL    HW232943   3.439   4.024   0.673 -0.6336  1.1799  0.1064
 7104SOL     OW32944   3.012   0.252   7.791  1.0152  0.0784  0.0903
 7104SOL    HW132945   3.005   0.245   7.887  0.4066 -1.6508 -0.0704
 7104SOL    HW232946   2.956   0.181   7.759  0.9357  0.1788  0.0044
 7105SOL     OW32947   3.964   3.047   3.291 -0.0341 -0.7557 -0.4053
 7105SOL    HW132948   3.962   2.959   3.329 -0.4497  0.4194  2.2529
 7105SOL    HW232949   4.033   3.029   3.226 -0.1786  0.4437 -0.8832
 7106SOL     OW32950   2.855   4.513  14.368 -0.0475  0.4078 -0.1079
 7106SOL    HW132951   2.778   4.457  14.376 -1.3555  2.0594 -1.0631
 7106SOL    HW232952   2.842   4.534  14.275  0.7952  0.5100 -0.2032
 7107SOL     OW32953   3.502   1.916   9.287 -0.3217 -0.2669 -0.7113
 7107SOL    HW132954   3.473   1.868   9.210 -0.6628 -1.6791  0.2987
 7107SOL    HW232955   3.595   1.923   9.266  0.0866  0.9829  1.4845
 7108SOL     OW32956   2.185   4.313   3.574  0.2766  0.3565  0.4420
 7108SOL    HW132957   2.131   4.270   3.509  0.8045 -0.1302  0.3306
 7108SOL    HW232958   2.255   4.249   3.589  1.0750  1.1687  0.2297
 7109SOL     OW32959   1.875   1.532   4.120 -0.0532 -0.1291  0.1891
 7109SOL    HW132960   1.856   1.621   4.151  0.6528  0.0768  0.0346
 7109SOL    HW232961   1.861   1.534   4.026  1.2415 -0.5421 -0.0221
 7110SOL     OW32962   1.257   0.198   6.236  0.0582 -0.3811 -0.1648
 7110SOL    HW132963   1.235   0.203   6.329 -3.2791  0.4587 -0.9994
 7110SOL    HW232964   1.272   0.291   6.215 -1.4834  0.2195  1.4081
 7111SOL     OW32965   4.209   2.010   4.182 -0.7444 -0.7358  0.4571
 7111SOL    HW132966   4.198   1.972   4.269 -0.7533  1.3908  1.3922
 7111SOL    HW232967   4.210   1.935   4.122 -1.3680 -1.5778  1.5042
 7112SOL     OW32968   2.860   0.331   2.942  0.0650  0.4155  0.4719
 7112SOL    HW132969   2.826   0.361   2.858  0.0468 -0.9695 -0.0266
 7112SOL    HW232970   2.881   0.411   2.990 -0.2549 -0.1378  1.5461
 7113SOL     OW32971   3.371   4.135  12.107  0.8990 -0.6003 -0.2380
 7113SOL    HW132972   3.345   4.155  12.017 -0.8299  1.1977  0.6773
 7113SOL    HW232973   3.339   4.207  12.161  3.0449  0.6446 -0.6341
 7114SOL     OW32974   4.370   0.165   3.792 -0.3222  0.4832 -0.3330
 7114SOL    HW132975   4.423   0.090   3.768  0.7152  1.9843 -2.7367
 7114SOL    HW232976   4.384   0.226   3.719 -0.6436 -0.8691 -1.5205
 7115SOL     OW32977   3.760   3.296  13.129 -0.2392 -0.5819 -0.5697
 7115SOL    HW132978   3.854   3.311  13.122 -0.4881  2.7683  3.2045
 7115SOL    HW232979   3.731   3.306  13.039 -0.8155  2.0309 -0.1071
 7116SOL     OW32980   1.041   1.596   6.323  0.3456  0.2110 -0.2727
 7116SOL    HW132981   1.083   1.542   6.390  1.3827  1.5653  0.1630
 7116SOL    HW232982   1.056   1.542   6.245  0.7154  1.4132 -1.0432
 7117SOL     OW32983   1.406   3.682   4.945  0.2130 -0.5498  0.1468
 7117SOL    HW132984   1.497   3.664   4.965  0.6602  1.2841 -0.2657
 7117SOL    HW232985   1.409   3.717   4.856 -3.1465 -0.2571  0.1248
 7118SOL     OW32986   3.172   1.148  10.453  0.0043 -0.4277 -0.6852
 7118SOL    HW132987   3.238   1.078  10.453  0.4347 -0.0066  2.9239
 7118SOL    HW232988   3.103   1.094  10.415 -1.0494 -1.3917  2.5818
 7119SOL     OW32989   4.383   3.175   9.426  0.5593 -0.4540  0.3911
 7119SOL    HW132990   4.388   3.253   9.371 -1.9308  0.8586  2.0107
 7119SOL    HW232991   4.309   3.209   9.477  0.8075 -0.7703  0.9623
 7120SOL     OW32992   1.324   0.205  10.142 -0.0865 -0.0892 -0.3025
 7120SOL    HW132993   1.354   0.295  10.139 -0.1784 -0.0329  0.6087
 7120SOL    HW232994   1.376   0.163  10.073  1.6138  1.6690 -0.0805
 7121SOL     OW32995   2.779   3.458   8.341  0.0062 -0.1667  0.2899
 7121SOL    HW132996   2.822   3.374   8.355  0.5095 -0.0736 -0.6906
 7121SOL    HW232997   2.782   3.462   8.245  0.1408  0.0207  0.3016
 7122SOL     OW32998   3.329   0.198   2.233  1.0330 -0.3112 -0.4717
 7122SOL    HW132999   3.364   0.211   2.321 -0.9822  0.9811  0.1403
 7122SOL    HW233000   3.249   0.249   2.235  0.0279 -1.9352  0.6332
 7123SOL     OW33001   1.750   2.781   5.358 -0.5718  0.2492  0.2164
 7123SOL    HW133002   1.839   2.757   5.334 -0.7430  0.1895 -0.3771
 7123SOL    HW233003   1.710   2.746   5.278  0.7907  0.4663 -0.5506
 7124SOL     OW33004   4.505   2.800   4.307  0.2798  0.1173 -0.4972
 7124SOL    HW133005   4.503   2.845   4.392  1.4563 -1.4573  0.3574
 7124SOL    HW233006   4.427   2.845   4.273 -0.2949  0.3042  1.0915
 7125SOL     OW33007   1.348   4.717   3.104  0.4637 -0.2505 -0.2376
 7125SOL    HW133008   1.261   4.706   3.067  0.8798  0.7452 -1.5318
 7125SOL    HW233009   1.334   4.731   3.198  0.8559 -0.6062 -0.1249
 7126SOL     OW33010   0.297   2.546   9.995  0.0186 -0.2919 -0.0480
 7126SOL    HW133011   0.335   2.461   9.971 -1.2217 -1.4630  2.0901
 7126SOL    HW233012   0.300   2.547  10.091  0.6478 -0.3315 -0.0652
 7127SOL     OW33013   0.092   1.265   5.547 -0.2282  0.7321  0.3767
 7127SOL    HW133014   0.172   1.305   5.514  0.9326  0.0750  2.4153
 7127SOL    HW233015   0.083   1.202   5.475  0.1059 -0.9090  1.7622
 7128SOL     OW33016   0.464   3.582   4.930  0.0015  0.3315 -0.5139
 7128SOL    HW133017   0.497   3.540   5.010 -0.1393  2.0930  0.4602
 7128SOL    HW233018   0.426   3.511   4.878 -1.0390 -1.1485  2.2495
 7129SOL     OW33019   3.398   3.787  12.631 -0.2410  0.1780  0.0863
 7129SOL    HW133020   3.366   3.853  12.693  0.7332 -0.7223  1.5598
 7129SOL    HW233021   3.424   3.849  12.563 -0.6884 -0.2340 -0.4605
 7130SOL     OW33022   2.125   2.243   6.480  0.7104 -0.8444  0.4411
 7130SOL    HW133023   2.047   2.293   6.504  1.6068 -0.0315  1.6714
 7130SOL    HW233024   2.085   2.176   6.424  0.3652  0.4163 -0.8022
 7131SOL     OW33025   1.526   4.351   5.439  0.4111  0.2651  0.6574
 7131SOL    HW133026   1.431   4.359   5.435  0.7119  2.6531 -1.3031
 7131SOL    HW233027   1.545   4.433   5.485  0.5923  1.3058 -1.2916
 7132SOL     OW33028   2.003   3.055   2.899 -0.5607 -0.3813 -0.1200
 7132SOL    HW133029   1.983   3.059   2.992  0.1681  1.4130 -0.0404
 7132SOL    HW233030   2.074   3.118   2.886  0.4995 -1.7347 -0.7771
 7133SOL     OW33031   4.309   0.275   5.120 -0.4743  0.4707 -0.2838
 7133SOL    HW133032   4.355   0.214   5.177 -1.1887 -0.0856 -0.2978
 7133SOL    HW233033   4.346   0.356   5.154  0.1485  0.1287 -0.1547
 7134SOL     OW33034   3.205   4.042   2.644  0.7376  0.2006  0.1716
 7134SOL    HW133035   3.245   4.065   2.727  0.6026  0.3540  0.1934
 7134SOL    HW233036   3.121   4.087   2.644 -0.9573 -2.9795  3.2212
 7135SOL     OW33037   3.879   0.071   9.951 -0.1654  0.7109 -0.4386
 7135SOL    HW133038   3.877   4.727  10.003  3.4818  1.2374  0.5106
 7135SOL    HW233039   3.960   0.111   9.982  0.2340 -0.7032  0.3386
 7136SOL     OW33040   0.610   0.977   9.044 -0.3252 -0.2956 -0.1942
 7136SOL    HW133041   0.697   0.945   9.067  1.2220  3.2095 -1.1288
 7136SOL    HW233042   0.626   1.065   9.008 -0.2656  0.2184  1.0917
 7137SOL     OW33043   0.429   1.401   4.924 -0.5236  0.4369  0.0181
 7137SOL    HW133044   0.334   1.407   4.930 -0.5469  2.2888 -2.2397
 7137SOL    HW233045   0.448   1.318   4.969 -1.2888  0.6934  0.8095
 7138SOL     OW33046   4.261   0.686   3.066 -0.1504  0.2527 -0.2870
 7138SOL    HW133047   4.207   0.632   3.123  0.7858 -0.5926 -0.1933
 7138SOL    HW233048   4.288   0.750   3.132  1.3823  0.6121 -1.2596
 7139SOL     OW33049   1.439   4.202  10.245 -0.3192 -0.1473  0.3351
 7139SOL    HW133050   1.409   4.250  10.168  1.4935 -0.8114 -0.7759
 7139SOL    HW233051   1.440   4.259  10.322 -0.2277 -0.1945  0.3684
 7140SOL     OW33052   1.324   0.842   9.118 -0.1466 -0.5235 -0.0019
 7140SOL    HW133053   1.303   0.900   9.045 -1.3314  0.4352  1.1046
 7140SOL    HW233054   1.391   0.901   9.152 -1.6624  1.8039 -1.0387
 7141SOL     OW33055   1.291   4.584   3.723  0.2173  0.6231  0.5122
 7141SOL    HW133056   1.262   4.659   3.776  2.0233 -0.1134  2.5670
 7141SOL    HW233057   1.351   4.546   3.788  1.6560  0.1817 -1.0645
 7142SOL     OW33058   3.441   1.835   7.351  0.4224 -0.2418 -0.0385
 7142SOL    HW133059   3.501   1.852   7.278  0.4067  0.1938  0.0486
 7142SOL    HW233060   3.390   1.915   7.344 -0.3347 -0.7894 -0.7755
 7143SOL     OW33061   0.386   3.964   7.292 -0.2242  0.2975  0.0668
 7143SOL    HW133062   0.368   4.032   7.358 -1.9850  2.3941 -2.5430
 7143SOL    HW233063   0.477   3.938   7.306 -0.0375  0.3797 -0.9894
 7144SOL     OW33064   1.547   0.680   5.855 -1.5153  0.4374 -0.3076
 7144SOL    HW133065   1.624   0.624   5.842 -0.4013  1.6670  1.0649
 7144SOL    HW233066   1.527   0.666   5.947  1.2520 -2.1723 -0.1124
 7145SOL     OW33067   4.090   4.624   1.381 -0.4881  0.0244  0.2443
 7145SOL    HW133068   4.088   4.584   1.468 -1.2426 -0.8186 -0.1656
 7145SOL    HW233069   4.163   4.686   1.378 -0.4202 -0.1088 -1.1889
 7146SOL     OW33070   1.011   0.536  13.355  0.3948  0.1103 -0.6167
 7146SOL    HW133071   1.034   0.629  13.358  0.3076  0.0491  1.9270
 7146SOL    HW233072   0.945   0.527  13.424 -0.8924  1.5026 -1.6848
 7147SOL     OW33073   3.894   2.055  13.389 -0.1082  0.0370  0.3061
 7147SOL    HW133074   3.850   2.139  13.377 -0.3769 -0.1477  0.0045
 7147SOL    HW233075   3.843   2.008  13.323 -1.5196  0.7127  0.9059
 7148SOL     OW33076   0.882   3.848  17.468  0.2015  0.3622  0.5338
 7148SOL    HW133077   0.916   3.769  17.509 -0.6567 -0.4476 -0.3083
 7148SOL    HW233078   0.796   3.815  17.441  0.8103 -1.0645  0.3616
 7149SOL     OW33079   4.086   2.944   9.374  0.2339 -0.4503 -0.0701
 7149SOL    HW133080   4.125   3.023   9.338 -1.1494 -0.1548 -0.9202
 7149SOL    HW233081   4.042   2.979   9.451  0.1005 -0.7347 -0.0151
 7150SOL     OW33082   1.478   0.085   5.692  0.1047  0.0249  0.2357
 7150SOL    HW133083   1.479   0.155   5.757 -0.5006  2.4679 -2.4163
 7150SOL    HW233084   1.515   0.125   5.614 -1.4451 -0.5118 -0.7752
 7151SOL     OW33085   2.061   0.934   9.066  0.5008 -0.3480  0.0100
 7151SOL    HW133086   2.069   0.852   9.017  0.2123 -1.1919  1.3839
 7151SOL    HW233087   2.107   1.000   9.013  0.7761 -0.6371 -0.1103
 7152SOL     OW33088   3.836   3.698   0.459 -0.3482 -0.1622 -0.1473
 7152SOL    HW133089   3.895   3.769   0.484 -0.7361  0.1960 -0.2680
 7152SOL    HW233090   3.817   3.656   0.543 -0.3114 -0.3487 -0.2327
 7153SOL     OW33091   0.166   1.895   8.389 -0.2862 -0.5523 -0.0696
 7153SOL    HW133092   0.092   1.850   8.348 -0.8102 -0.1453  0.4319
 7153SOL    HW233093   0.204   1.827   8.445  0.6983 -0.6343 -0.8373
 7154SOL     OW33094   2.826   3.169   8.329 -0.0159  0.1300 -0.1055
 7154SOL    HW133095   2.827   3.151   8.423  0.6865  1.6512  0.1904
 7154SOL    HW233096   2.914   3.151   8.296  0.0607 -1.7888  1.1831
 7155SOL     OW33097   1.854   1.923   2.843 -0.1076 -0.2220  0.6326
 7155SOL    HW133098   1.826   1.938   2.753  1.2833  0.1097  0.2693
 7155SOL    HW233099   1.804   1.983   2.899  0.7224  1.6820 -0.6891
 7156SOL     OW33100   3.954   1.677   3.069  0.4840  0.3136  0.2855
 7156SOL    HW133101   3.998   1.594   3.047 -0.5452  0.3288 -1.7985
 7156SOL    HW233102   4.002   1.736   3.011 -0.7935 -0.3834 -1.4940
 7157SOL     OW33103   0.135   0.182   2.902 -0.4426 -0.4676 -0.0036
 7157SOL    HW133104   0.128   0.256   2.841  0.6035  0.3180  0.8305
 7157SOL    HW233105   0.214   0.133   2.879 -1.8124 -2.6212 -0.1015
 7158SOL     OW33106   4.251   2.079  16.612  0.1059 -0.0050  0.0175
 7158SOL    HW133107   4.256   2.141  16.539 -0.6982 -0.3460 -0.3202
 7158SOL    HW233108   4.211   2.126  16.685 -0.0028  1.5097 -1.0253
 7159SOL     OW33109   4.667   2.355  17.172 -0.0836 -0.5875 -0.7642
 7159SOL    HW133110   0.008   2.380  17.224  1.5297 -1.5120 -2.7015
 7159SOL    HW233111   4.628   2.441  17.161 -0.8302 -0.7166  0.9126
 7160SOL     OW33112   3.656   1.101  11.460  0.3973 -0.4660  0.0321
 7160SOL    HW133113   3.588   1.166  11.479  1.1174 -0.6356  3.3023
 7160SOL    HW233114   3.600   1.038  11.416 -1.2953  1.3724 -0.4190
 7161SOL     OW33115   3.323   1.491   2.693  0.1688  0.3536  0.0630
 7161SOL    HW133116   3.318   1.468   2.600  1.0859  0.4003  0.0020
 7161SOL    HW233117   3.237   1.462   2.724 -0.1588  2.7428  1.4305
 7162SOL     OW33118   0.157   3.991   4.383 -0.3075 -0.2714 -0.0800
 7162SOL    HW133119   0.250   3.972   4.392  0.1337  1.7828 -0.3922
 7162SOL    HW233120   0.127   3.911   4.426 -2.7837 -0.3616 -1.9861
 7163SOL     OW33121   2.943   0.469   6.896 -0.0565 -0.2739 -0.3664
 7163SOL    HW133122   2.969   0.456   6.805  1.8701  0.4579  0.0675
 7163SOL    HW233123   2.909   0.383   6.921 -1.7775  0.1330 -1.3229
 7164SOL     OW33124   0.542   0.472   7.896  0.4054 -0.7652 -0.4670
 7164SOL    HW133125   0.592   0.505   7.970  0.5026  2.8417 -2.1468
 7164SOL    HW233126   0.542   0.545   7.833 -0.3272  1.2669  1.8959
 7165SOL     OW33127   1.527   0.209   3.848 -0.1617  0.0311  0.4187
 7165SOL    HW133128   1.581   0.198   3.770 -0.2708 -1.6818  0.5827
 7165SOL    HW233129   1.562   0.139   3.902  1.9418  1.9727  1.5666
 7166SOL     OW33130   2.812   2.420  14.422  0.1947  0.1467 -0.0261
 7166SOL    HW133131   2.869   2.412  14.346  1.4387 -1.6484  1.1033
 7166SOL    HW233132   2.770   2.504  14.402 -0.9344 -0.3188  0.3579
 7167SOL     OW33133   0.769   2.730   4.090  0.3224  0.0575  0.1868
 7167SOL    HW133134   0.840   2.666   4.089 -0.9340 -1.3473  1.5133
 7167SOL    HW233135   0.686   2.688   4.112  1.2787 -1.7604  0.3298
 7168SOL     OW33136   3.112   3.432   5.442  0.4384  0.3052 -0.6996
 7168SOL    HW133137   3.142   3.471   5.524 -2.2552 -0.7232  0.7829
 7168SOL    HW233138   3.021   3.410   5.464  0.6161 -0.5052 -0.7916
 7169SOL     OW33139   2.929   2.432   9.961 -0.3749 -0.4601 -0.3488
 7169SOL    HW133140   2.963   2.511   9.918  1.6265 -0.3007  1.5266
 7169SOL    HW233141   2.869   2.408   9.890  0.6787 -0.9699 -1.0715
 7170SOL     OW33142   4.055   0.363   2.964 -0.5780  0.3034  0.0102
 7170SOL    HW133143   4.145   0.331   2.952 -0.2423  0.2423  2.6449
 7170SOL    HW233144   4.030   0.371   2.872  1.4666  1.2700 -0.4658
 7171SOL     OW33145   1.883   0.385   0.290 -0.5943 -0.4402 -0.5687
 7171SOL    HW133146   1.894   0.294   0.318  3.0314 -0.3613 -1.7683
 7171SOL    HW233147   1.933   0.415   0.366 -0.5581  1.3889 -1.3102
 7172SOL     OW33148   0.335   3.708   5.618  0.4418  0.2735 -0.2558
 7172SOL    HW133149   0.395   3.739   5.685  0.0001  1.6118 -0.4819
 7172SOL    HW233150   0.306   3.789   5.575  1.9975  0.2642 -1.3523
 7173SOL     OW33151   1.236   4.257   2.529  0.4164 -0.5001  0.6087
 7173SOL    HW133152   1.325   4.271   2.497 -0.0054 -1.4178 -0.9811
 7173SOL    HW233153   1.204   4.341   2.561 -1.9117 -1.0440 -0.2990
 7174SOL     OW33154   3.005   4.694   1.650  0.5173  0.0306  0.3690
 7174SOL    HW133155   3.094   4.730   1.651  0.6433 -0.2526 -0.4798
 7174SOL    HW233156   2.966   0.005   1.576  1.4063  1.0527  0.5510
 7175SOL     OW33157   4.109   1.572   6.205  0.6506 -0.0436  0.6375
 7175SOL    HW133158   4.126   1.587   6.298 -0.4618  0.6648  0.7313
 7175SOL    HW233159   4.117   1.662   6.173 -0.2184 -0.9579 -2.0861
 7176SOL     OW33160   1.622   2.493   5.594  0.0470 -0.4986 -0.0129
 7176SOL    HW133161   1.592   2.408   5.561 -2.7524  0.2957  0.4845
 7176SOL    HW233162   1.713   2.486   5.565  0.5694 -3.6711  2.3409
 7177SOL     OW33163   3.432   0.779   0.794 -0.0106  0.6572  0.5030
 7177SOL    HW133164   3.470   0.866   0.809  1.1296 -0.0470  1.6907
 7177SOL    HW233165   3.360   0.814   0.741  0.1659 -1.0420 -0.8581
 7178SOL     OW33166   0.053   1.230   2.346 -0.3383  0.3436  0.3642
 7178SOL    HW133167   0.102   1.257   2.268  1.6218  1.0799  1.8703
 7178SOL    HW233168   0.118   1.228   2.415 -0.2930  0.0500  0.3127
 7179SOL     OW33169   2.257   4.214   4.923  0.9082  0.3549 -0.0875
 7179SOL    HW133170   2.174   4.188   4.963 -0.2059  1.0078 -1.9228
 7179SOL    HW233171   2.247   4.307   4.900 -0.0498  0.3121  0.1626
 7180SOL     OW33172   3.035   3.724   0.324 -0.3457 -0.0646 -0.5128
 7180SOL    HW133173   2.950   3.684   0.347 -1.0534  0.9947 -1.2751
 7180SOL    HW233174   3.052   3.752   0.414  0.5252  3.0728 -1.6660
 7181SOL     OW33175   3.109   3.031   3.382  0.1572 -0.0226 -0.1775
 7181SOL    HW133176   3.120   3.014   3.476 -0.7391  0.7521  0.0759
 7181SOL    HW233177   3.163   3.110   3.373  1.7020 -1.0091  0.5670
 7182SOL     OW33178   4.255   1.120   6.297  0.2396 -0.2090 -0.5408
 7182SOL    HW133179   4.341   1.159   6.315 -0.4020  1.7523 -1.7365
 7182SOL    HW233180   4.229   1.175   6.224  2.9870  0.6060 -0.9132
 7183SOL     OW33181   2.787   2.376   6.699 -0.4097  0.6663  0.4411
 7183SOL    HW133182   2.702   2.345   6.732 -0.4259  1.0653  0.7830
 7183SOL    HW233183   2.768   2.457   6.652 -1.8068  0.6710  1.0014
 7184SOL     OW33184   4.708   0.867   4.671  0.1917 -0.3212  0.0444
 7184SOL    HW133185   4.642   0.932   4.693  0.0902 -0.3335 -0.2186
 7184SOL    HW233186   0.049   0.918   4.644  0.1370  0.0861  0.6645
 7185SOL     OW33187   2.147   0.661   1.662  0.0909  0.7604  0.2164
 7185SOL    HW133188   2.179   0.726   1.725  0.8177  1.0157 -0.4150
 7185SOL    HW233189   2.065   0.703   1.636 -1.7427 -3.1482 -0.4638
 7186SOL     OW33190   4.276   4.017   1.572  0.0352 -0.8864 -0.5027
 7186SOL    HW133191   4.275   4.104   1.611  1.1577 -1.9326  1.8404
 7186SOL    HW233192   4.319   4.035   1.488 -0.7229  1.3072 -0.4158
 7187SOL     OW33193   3.136   3.512  16.560  0.1344 -0.1775  0.6014
 7187SOL    HW133194   3.055   3.486  16.602  0.1885 -1.2643  0.0271
 7187SOL    HW233195   3.198   3.461  16.612  0.4391 -2.1870 -1.7652
 7188SOL     OW33196   3.465   4.022  10.531 -0.3454  0.0389  0.0583
 7188SOL    HW133197   3.450   3.928  10.530  0.9862 -0.1617 -0.3483
 7188SOL    HW233198   3.518   4.031  10.611 -1.6744 -2.8924  1.2614
 7189SOL     OW33199   0.658   3.780   5.304  0.1132  1.1701  0.4409
 7189SOL    HW133200   0.577   3.731   5.321  2.0487 -2.0068  0.5719
 7189SOL    HW233201   0.623   3.859   5.262  1.6092  0.5946 -1.8956
 7190SOL     OW33202   4.404   2.384   7.519  0.0154  0.6672 -0.2376
 7190SOL    HW133203   4.411   2.316   7.586 -0.7825  0.8358  0.0156
 7190SOL    HW233204   4.485   2.381   7.468  0.2056 -0.6571  0.1374
 7191SOL     OW33205   1.070   3.484   4.116 -0.0975  0.0420 -0.4668
 7191SOL    HW133206   1.012   3.439   4.054 -0.5341  0.6834 -0.5294
 7191SOL    HW233207   1.125   3.409   4.137 -2.1112 -1.0973  0.7159
 7192SOL     OW33208   4.100   4.585   9.339  0.0705 -0.2854  0.1662
 7192SOL    HW133209   4.190   4.618   9.339  0.1746 -0.5593  1.8954
 7192SOL    HW233210   4.066   4.628   9.260  0.3494  1.7931  1.1721
 7193SOL     OW33211   0.290   4.063   2.366  0.1688  0.7152 -0.5250
 7193SOL    HW133212   0.347   4.023   2.300 -1.8090 -0.4277 -1.5451
 7193SOL    HW233213   0.204   4.074   2.325 -0.9120 -2.1023  0.9959
 7194SOL     OW33214   2.183   2.192   5.234  0.0198  0.0877 -0.3403
 7194SOL    HW133215   2.133   2.114   5.258 -0.0264 -0.2206 -1.4547
 7194SOL    HW233216   2.253   2.154   5.181  0.9804  1.1939  0.1357
 7195SOL     OW33217   1.047   2.125   9.159  0.4221 -0.0733 -0.1760
 7195SOL    HW133218   0.965   2.088   9.127  0.3330 -0.2118  0.2204
 7195SOL    HW233219   1.099   2.117   9.079  2.3628 -1.7553  1.2608
 7196SOL     OW33220   3.904   1.764  11.135  0.0137  0.1267  0.1524
 7196SOL    HW133221   3.998   1.749  11.147  0.3009  1.9728  0.1162
 7196SOL    HW233222   3.906   1.823  11.060  1.4467 -0.7677 -0.5130
 7197SOL     OW33223   4.154   0.674   7.068  0.5663 -0.1051 -0.0017
 7197SOL    HW133224   4.079   0.702   7.121  0.4091 -1.2956  0.4048
 7197SOL    HW233225   4.139   0.703   6.978 -0.1625  0.8479  0.4204
 7198SOL     OW33226   0.973   4.351   1.786 -0.3333 -0.6850  0.2490
 7198SOL    HW133227   0.889   4.343   1.740 -0.1844  0.1226 -0.1501
 7198SOL    HW233228   1.008   4.425   1.737 -1.6498  0.0176  0.3595
 7199SOL     OW33229   3.717   0.914   1.589  0.1445  0.0824 -0.6167
 7199SOL    HW133230   3.788   0.902   1.651 -2.0554  0.3467  1.9349
 7199SOL    HW233231   3.747   0.996   1.550  1.8561  0.1807  0.9338
 7200SOL     OW33232   0.550   0.470   4.353 -0.0762  0.2150  0.1674
 7200SOL    HW133233   0.498   0.507   4.425  1.6956 -0.7184  1.9139
 7200SOL    HW233234   0.514   0.508   4.273 -0.3971 -0.7128 -0.1215
 7201SOL     OW33235   4.175   1.807   4.019 -0.1104  0.3225 -0.0536
 7201SOL    HW133236   4.230   1.759   3.957  1.4340  2.3397 -0.2662
 7201SOL    HW233237   4.086   1.781   3.999 -0.3369 -1.7062  3.6762
 7202SOL     OW33238   4.669   1.258   8.328  0.3886 -0.2749 -0.4115
 7202SOL    HW133239   0.011   1.304   8.297  0.9259 -0.6808  0.3363
 7202SOL    HW233240   4.617   1.241   8.249  0.1869  3.1677 -0.9995
 7203SOL     OW33241   3.483   0.466   6.406 -0.3774 -0.2501  0.2937
 7203SOL    HW133242   3.511   0.390   6.458  1.4192 -0.0027 -0.3245
 7203SOL    HW233243   3.444   0.429   6.327 -0.2900 -0.6675  0.4468
 7204SOL     OW33244   0.789   1.610   1.671  0.6835 -0.3384  0.0580
 7204SOL    HW133245   0.801   1.702   1.647  1.1249 -0.6683 -0.9543
 7204SOL    HW233246   0.724   1.610   1.742  1.6358  1.4386  0.9299
 7205SOL     OW33247   3.953   3.150   9.506  0.0976 -0.2819 -1.0932
 7205SOL    HW133248   3.910   3.070   9.537 -0.2650  0.4034  0.2059
 7205SOL    HW233249   3.879   3.206   9.529  0.7837  0.0402  0.3832
 7206SOL     OW33250   0.769   0.294   4.558  0.2401 -0.2624 -0.0668
 7206SOL    HW133251   0.691   0.343   4.532  1.0206  1.1039  0.1296
 7206SOL    HW233252   0.833   0.344   4.508 -0.1394  1.1100  0.8090
 7207SOL     OW33253   0.156   2.513  14.272 -0.0835 -0.0644  0.4020
 7207SOL    HW133254   0.180   2.425  14.242 -0.0980  0.6462 -1.6795
 7207SOL    HW233255   0.109   2.505  14.355 -1.0558 -0.5771 -0.2006
 7208SOL     OW33256   1.465   1.094   1.486 -0.3881  0.1818 -0.1504
 7208SOL    HW133257   1.545   1.134   1.451  0.5365 -0.8694  0.7388
 7208SOL    HW233258   1.408   1.087   1.410  1.1957 -0.1410 -1.3185
 7209SOL     OW33259   0.081   3.219   7.922  0.4240 -0.2309 -0.0091
 7209SOL    HW133260   0.134   3.243   7.846 -0.3505  0.1455 -0.4403
 7209SOL    HW233261   0.092   3.124   7.920  2.1843  0.0058 -1.5226
 7210SOL     OW33262   1.020   4.063   7.186  0.0211  0.2216  0.2126
 7210SOL    HW133263   1.103   4.111   7.188 -0.2464  0.5776  2.4849
 7210SOL    HW233264   0.961   4.108   7.246  0.1915 -0.4706  0.9005
 7211SOL     OW33265   1.191   4.407   2.882 -0.3381 -0.1972 -0.6733
 7211SOL    HW133266   1.226   4.336   2.936 -1.3757 -0.5712 -0.4899
 7211SOL    HW233267   1.264   4.441   2.830  0.2091 -1.4321 -0.7143
 7212SOL     OW33268   3.206   1.458   5.864 -0.0027  0.4902  0.2353
 7212SOL    HW133269   3.151   1.523   5.908 -1.2049  1.3771 -2.5582
 7212SOL    HW233270   3.241   1.505   5.788  2.5462 -1.9960 -0.1034
 7213SOL     OW33271   3.748   0.861   5.235  0.4530  0.6461 -0.2913
 7213SOL    HW133272   3.676   0.807   5.205  0.1286  1.2160 -0.5376
 7213SOL    HW233273   3.715   0.916   5.306 -0.2397 -2.0312  1.4566
 7214SOL     OW33274   0.356   3.253   1.256  0.4761  0.1235 -0.1233
 7214SOL    HW133275   0.382   3.216   1.171  0.7709 -1.7874  0.8179
 7214SOL    HW233276   0.262   3.272   1.257  0.0967 -1.8906  0.7461
 7215SOL     OW33277   2.387   2.034   9.000 -0.5608 -0.2009 -0.1457
 7215SOL    HW133278   2.413   1.945   8.975 -1.1526 -0.7986  1.3824
 7215SOL    HW233279   2.469   2.078   8.977  0.0649 -0.7279  1.0368
 7216SOL     OW33280   0.934   1.344  11.387 -0.2298  0.2769 -0.0782
 7216SOL    HW133281   0.938   1.286  11.463 -0.5997 -0.9594 -1.0054
 7216SOL    HW233282   1.010   1.398  11.409 -0.0284 -0.7091  1.6091
 7217SOL     OW33283   2.740   1.437   9.528  0.7077 -0.5750  0.0497
 7217SOL    HW133284   2.756   1.436   9.623 -2.2285  1.9170  0.5740
 7217SOL    HW233285   2.822   1.466   9.486 -0.0915  1.1352 -0.3269
 7218SOL     OW33286   3.257   4.635  10.558 -0.6836 -0.0027  0.7271
 7218SOL    HW133287   3.229   4.684  10.481  0.7338  0.1973  0.3509
 7218SOL    HW233288   3.202   4.680  10.622  1.3737  0.9186  1.8338
 7219SOL     OW33289   2.761   4.069   8.872 -0.0505  0.4501 -0.1095
 7219SOL    HW133290   2.844   4.117   8.869  1.5954 -2.3458  0.2459
 7219SOL    HW233291   2.806   3.997   8.917  0.0265  0.6964  0.2137
 7220SOL     OW33292   3.537   2.306   0.910 -1.1434 -0.7091 -0.4336
 7220SOL    HW133293   3.444   2.286   0.919 -1.0031 -1.1907 -0.0201
 7220SOL    HW233294   3.569   2.252   0.983  0.2222  0.0364 -0.4913
 7221SOL     OW33295   3.694   2.567  15.098  0.1078 -0.4224 -0.4679
 7221SOL    HW133296   3.702   2.662  15.104 -0.4834 -0.6329  3.4631
 7221SOL    HW233297   3.730   2.535  15.180 -0.0394  1.6803  0.4184
 7222SOL     OW33298   4.258   0.329  14.620 -0.5658 -0.1830 -0.6418
 7222SOL    HW133299   4.273   0.242  14.655 -3.5355 -1.0310 -1.4568
 7222SOL    HW233300   4.229   0.373  14.700 -1.0797  0.2935 -1.0820
 7223SOL     OW33301   0.118   0.192   1.885  0.0029 -1.1217 -0.1225
 7223SOL    HW133302   0.061   0.233   1.820 -0.3027  0.5015  1.1850
 7223SOL    HW233303   0.161   0.129   1.827  0.0597 -0.3734 -0.8928
 7224SOL     OW33304   2.269   2.302  16.898  0.1602  0.1027  0.3561
 7224SOL    HW133305   2.204   2.326  16.963 -1.4699 -3.7948  0.1213
 7224SOL    HW233306   2.238   2.219  16.863 -0.3837  1.0149 -1.3377
 7225SOL     OW33307   0.132   3.572   2.271 -0.6610 -0.1679 -0.2478
 7225SOL    HW133308   0.056   3.536   2.317 -0.8340 -0.0368 -0.4354
 7225SOL    HW233309   0.203   3.560   2.335 -1.6610 -0.4724  0.8220
 7226SOL     OW33310   3.740   0.779   7.006  0.1924  0.1426  0.1673
 7226SOL    HW133311   3.677   0.750   6.941  0.2378 -0.2024  0.2773
 7226SOL    HW233312   3.685   0.821   7.072 -1.2962  0.9932 -1.6237
 7227SOL     OW33313   3.576   0.938   2.171 -0.1923  0.2142 -0.0802
 7227SOL    HW133314   3.485   0.910   2.179 -0.3046  0.5832 -0.0860
 7227SOL    HW233315   3.587   0.956   2.264  2.1232  1.8579 -0.6561
 7228SOL     OW33316   2.381   0.746   5.273 -0.4206 -0.2978  0.1408
 7228SOL    HW133317   2.379   0.842   5.265  0.0509 -0.3741 -0.9276
 7228SOL    HW233318   2.452   0.723   5.213  0.3173 -0.4671  1.0794
 7229SOL     OW33319   0.144   4.581   6.575  0.3820 -0.2440 -0.5209
 7229SOL    HW133320   0.090   4.536   6.640  1.0269  1.1643  1.0160
 7229SOL    HW233321   0.196   4.643   6.627 -0.3511 -0.9360  1.0477
 7230SOL     OW33322   3.427   2.239   7.401  0.4170  0.0009  0.1084
 7230SOL    HW133323   3.395   2.213   7.315 -0.3640 -1.6532  0.8920
 7230SOL    HW233324   3.520   2.244   7.378  0.2711 -3.1496 -1.1548
 7231SOL     OW33325   0.262   2.285  15.310 -0.5499  0.0001  0.1923
 7231SOL    HW133326   0.208   2.217  15.350 -4.3015  2.7185 -0.2211
 7231SOL    HW233327   0.345   2.239  15.295 -0.3885 -0.3114  2.0135
 7232SOL     OW33328   2.168   0.180   4.313  0.1067 -0.0944 -0.4030
 7232SOL    HW133329   2.243   0.231   4.342  0.3955  0.2422 -1.7316
 7232SOL    HW233330   2.148   0.223   4.230 -1.1204 -0.2342 -0.1735
 7233SOL     OW33331   0.498   2.892   0.737 -0.1053  0.6342  0.4800
 7233SOL    HW133332   0.524   2.983   0.727 -2.1391  1.0200 -1.3429
 7233SOL    HW233333   0.403   2.906   0.742 -0.3273 -0.1640 -1.1821
 7234SOL     OW33334   3.779   3.118   4.141  0.0265  0.2462 -0.2335
 7234SOL    HW133335   3.748   3.036   4.102  1.1051 -1.7011  2.9999
 7234SOL    HW233336   3.867   3.089   4.164 -1.0076 -3.0105 -0.2689
 7235SOL     OW33337   1.074   4.320   4.864  0.8904 -0.0523 -0.2104
 7235SOL    HW133338   1.153   4.278   4.896  0.1571  0.6738  2.5703
 7235SOL    HW233339   1.025   4.239   4.853  1.3449 -0.3991  0.3680
 7236SOL     OW33340   1.583   0.071  10.031 -0.5556  0.4098  0.2639
 7236SOL    HW133341   1.627   0.099   9.951  1.7749 -1.0895  1.0022
 7236SOL    HW233342   1.611   4.716  10.043 -0.5281  0.2718 -0.9003
 7237SOL     OW33343   3.402   0.028   0.422 -0.4009  0.3270  0.1870
 7237SOL    HW133344   3.412   4.716   0.340 -0.6265 -2.2987  1.7159
 7237SOL    HW233345   3.450   4.715   0.488 -0.9128 -0.5837 -0.1122
 7238SOL     OW33346   2.229   3.507   5.317  0.0395 -0.1828 -0.1060
 7238SOL    HW133347   2.321   3.532   5.310  0.4105 -1.3246  0.6321
 7238SOL    HW233348   2.192   3.539   5.235  0.4963  0.5083 -0.0372
 7239SOL     OW33349   2.292   1.197   5.812 -0.3686  0.0966  0.8204
 7239SOL    HW133350   2.334   1.267   5.762 -2.4620 -1.3842 -2.9980
 7239SOL    HW233351   2.367   1.168   5.864 -0.2801  1.0815  1.2388
 7240SOL     OW33352   1.761   1.198  12.566 -0.0273  0.2833 -0.0635
 7240SOL    HW133353   1.703   1.268  12.538  1.4149  1.2471 -0.6293
 7240SOL    HW233354   1.840   1.207  12.512  0.5201 -1.4388  0.4320
 7241SOL     OW33355   4.486   4.218   0.583 -0.2031 -0.3584 -0.0344
 7241SOL    HW133356   4.544   4.232   0.658  1.2573  0.8717 -1.4081
 7241SOL    HW233357   4.548   4.170   0.528  1.0706 -0.6889  1.6939
 7242SOL     OW33358   1.057   3.534   4.777 -0.0530 -0.4408 -0.5995
 7242SOL    HW133359   1.047   3.517   4.871 -0.3375  1.8494 -0.2147
 7242SOL    HW233360   0.989   3.473   4.748 -2.2170  2.2264 -1.1722
 7243SOL     OW33361   4.174   1.767  11.194  0.8332  0.1929 -0.4270
 7243SOL    HW133362   4.156   1.833  11.261  1.2871  0.2106 -0.3243
 7243SOL    HW233363   4.248   1.806  11.149 -0.2529  1.2417 -1.2923
 7244SOL     OW33364   3.934   1.284  10.081 -0.3017  0.2378  0.0284
 7244SOL    HW133365   3.986   1.293  10.001 -1.1758  0.4301 -0.5174
 7244SOL    HW233366   3.927   1.189  10.078  1.7274  0.0677  0.3839
 7245SOL     OW33367   2.600   0.583   5.418  0.1689 -0.0840  0.0398
 7245SOL    HW133368   2.526   0.639   5.396 -0.0219  1.0058  3.3784
 7245SOL    HW233369   2.675   0.599   5.361  0.5718 -1.4815  0.1780
 7246SOL     OW33370   0.862   0.207   3.808 -0.3082 -0.0255  0.3940
 7246SOL    HW133371   0.856   0.149   3.884  2.5422 -0.1638  0.4997
 7246SOL    HW233372   0.831   0.285   3.853  0.1209 -0.6659  1.8137
 7247SOL     OW33373   1.654   0.694   9.551  0.0934 -0.9920  0.0952
 7247SOL    HW133374   1.692   0.781   9.553  0.0478 -0.9581 -0.6376
 7247SOL    HW233375   1.636   0.685   9.457  0.5934 -0.9065 -0.0054
 7248SOL     OW33376   3.406   3.289  10.389 -0.0024  0.0401 -0.1984
 7248SOL    HW133377   3.499   3.312  10.394 -0.1474  0.2767  1.5916
 7248SOL    HW233378   3.361   3.367  10.423 -0.5145  0.2266 -1.3077
 7249SOL     OW33379   4.501   4.337   7.979  0.2268  0.0409  0.2696
 7249SOL    HW133380   4.523   4.249   7.948  0.2892  0.1735 -0.0604
 7249SOL    HW233381   4.406   4.327   7.971  0.0036  0.7343  1.9628
 7250SOL     OW33382   2.877   0.880   6.681  0.3182  0.3296 -0.3119
 7250SOL    HW133383   2.871   0.799   6.631 -0.8552 -0.4241  1.0585
 7250SOL    HW233384   2.785   0.895   6.703  0.0667 -1.9261  0.2081
 7251SOL     OW33385   1.437   3.389   9.389  0.6237 -0.1240 -0.1764
 7251SOL    HW133386   1.515   3.379   9.443  0.3074  1.2743  0.5346
 7251SOL    HW233387   1.368   3.416   9.451  1.2757 -1.9191  1.3382
 7252SOL     OW33388   3.502   0.691  11.899  0.3737 -0.3465  0.6967
 7252SOL    HW133389   3.464   0.776  11.874 -2.2296 -1.9283 -0.7678
 7252SOL    HW233390   3.555   0.682  11.820 -0.0933 -0.8725  0.4484
 7253SOL     OW33391   1.070   0.744  12.836  0.0605  0.5847  0.6450
 7253SOL    HW133392   1.067   0.812  12.768 -0.2790 -0.0986 -0.0229
 7253SOL    HW233393   0.987   0.699  12.820 -0.3484  1.4040  0.4760
 7254SOL     OW33394   0.376   0.049   8.408  0.4270 -0.0887 -0.1524
 7254SOL    HW133395   0.453   0.072   8.460  0.2398 -2.0765  1.0317
 7254SOL    HW233396   0.327   0.130   8.424  0.6143 -0.1003  0.5121
 7255SOL     OW33397   0.304   3.435   3.365 -0.4101 -0.0633  0.2833
 7255SOL    HW133398   0.218   3.476   3.372 -0.9529 -0.6935 -2.6335
 7255SOL    HW233399   0.354   3.505   3.322  2.7018 -1.5501  1.4532
 7256SOL     OW33400   4.681   0.313  17.238 -0.0386 -0.3098  0.0060
 7256SOL    HW133401   4.725   0.378  17.184 -2.1857  1.0390 -0.1064
 7256SOL    HW233402   4.711   0.233  17.194  1.1840  0.6868 -0.9424
 7257SOL     OW33403   1.997   1.655   2.813 -0.7607  0.4531  0.1218
 7257SOL    HW133404   1.922   1.606   2.846 -3.2760  3.6856 -0.8691
 7257SOL    HW233405   1.960   1.742   2.826  0.6650  0.8609  1.4427
 7258SOL     OW33406   3.950   3.025   7.299  0.2843 -0.6121  0.4084
 7258SOL    HW133407   3.940   2.940   7.257 -0.0456 -0.2245 -0.2787
 7258SOL    HW233408   3.874   3.032   7.357 -0.1065  2.0582 -0.4666
 7259SOL     OW33409   4.326   1.081   8.628  0.1856 -0.4952 -0.2232
 7259SOL    HW133410   4.331   1.049   8.718  1.3916  3.9344  1.2787
 7259SOL    HW233411   4.413   1.122   8.630  0.0884 -0.2705 -0.6962
 7260SOL     OW33412   4.055   2.748   1.674  0.5432 -0.5749  0.2171
 7260SOL    HW133413   3.985   2.694   1.637  0.2337 -1.3382  1.9639
 7260SOL    HW233414   4.048   2.830   1.625 -1.1089 -0.0788  1.3054
 7261SOL     OW33415   1.709   2.304   8.306 -0.4544  0.1977  0.5470
 7261SOL    HW133416   1.745   2.247   8.374  0.5319 -1.0642 -1.0218
 7261SOL    HW233417   1.772   2.277   8.240 -1.6665  0.5078 -0.7444
 7262SOL     OW33418   4.421   0.981   6.627 -0.6049 -0.2206 -0.0682
 7262SOL    HW133419   4.344   0.978   6.684 -0.5697  0.3224  0.0044
 7262SOL    HW233420   4.475   0.902   6.634  0.6728  0.7580  1.1616
 7263SOL     OW33421   1.373   2.735   8.314 -0.0896 -0.4995  0.4459
 7263SOL    HW133422   1.393   2.730   8.407  2.1971  2.3724  0.1325
 7263SOL    HW233423   1.278   2.740   8.312  0.0684  1.4981 -2.6417
 7264SOL     OW33424   3.607   2.465   3.199  0.6279 -0.2159 -0.4804
 7264SOL    HW133425   3.578   2.444   3.110 -0.7980  1.2462 -0.3475
 7264SOL    HW233426   3.533   2.475   3.259 -0.3219  0.0613 -1.6913
 7265SOL     OW33427   4.733   1.679   5.658  0.9928  0.4758 -0.0429
 7265SOL    HW133428   4.711   1.704   5.568  1.2984  0.2435 -0.1808
 7265SOL    HW233429   0.092   1.676   5.666  0.8793  0.4640  1.2488
 7266SOL     OW33430   2.471   3.446  16.113 -0.0966 -0.1993  0.4220
 7266SOL    HW133431   2.498   3.410  16.029  1.7266  2.4650 -0.1161
 7266SOL    HW233432   2.539   3.418  16.175  0.7097  0.3067 -0.2352
 7267SOL     OW33433   1.032   0.636   7.134  0.0097  0.3442  0.0277
 7267SOL    HW133434   1.101   0.589   7.181 -2.3718 -0.9090  2.2953
 7267SOL    HW233435   1.085   0.687   7.072 -0.0464 -1.1977 -1.2935
 7268SOL     OW33436   3.327   1.421   3.867 -0.2484 -0.7962 -0.1726
 7268SOL    HW133437   3.289   1.344   3.910 -0.2476 -0.8429 -0.2542
 7268SOL    HW233438   3.244   1.464   3.849  0.1634  0.5983  1.3120
 7269SOL     OW33439   0.470   0.423   8.213  0.0144 -0.5864 -0.6012
 7269SOL    HW133440   0.396   0.478   8.185 -0.4544 -1.2110 -0.5907
 7269SOL    HW233441   0.426   0.345   8.248  1.5216 -1.6764 -1.1694
 7270SOL     OW33442   0.606   1.632   2.200  0.3086 -0.4523  0.1201
 7270SOL    HW133443   0.660   1.592   2.132 -1.3425 -0.3569 -1.2457
 7270SOL    HW233444   0.667   1.693   2.242 -1.6476  1.9929 -0.5543
 7271SOL     OW33445   2.073   2.438   2.325 -0.5053  0.0818 -0.2094
 7271SOL    HW133446   2.079   2.533   2.318  2.3118 -0.0090  1.1181
 7271SOL    HW233447   2.162   2.405   2.314 -0.8564 -0.4150 -1.6924
 7272SOL     OW33448   0.542   4.322   4.956 -0.1569 -0.1522 -0.1776
 7272SOL    HW133449   0.543   4.393   5.020 -0.0989  0.1659 -0.5305
 7272SOL    HW233450   0.489   4.257   5.003 -0.7770  0.4248 -0.0611
 7273SOL     OW33451   0.579   4.734   2.068 -0.1111 -0.0610 -0.0014
 7273SOL    HW133452   0.548   0.089   2.068  0.7056  0.2191  0.7936
 7273SOL    HW233453   0.661   0.000   2.018  0.7051 -0.1022  1.3435
 7274SOL     OW33454   2.382   0.677  12.184 -0.1925 -0.0444 -0.2443
 7274SOL    HW133455   2.315   0.708  12.245 -1.3005  1.0967 -2.0477
 7274SOL    HW233456   2.443   0.631  12.241  0.3260  1.3065  0.2727
 7275SOL     OW33457   2.900   2.557   4.914  0.2227 -0.0246  0.1770
 7275SOL    HW133458   2.889   2.482   4.855 -1.8121  2.0923 -2.1036
 7275SOL    HW233459   2.812   2.590   4.899 -0.4192 -1.4310  0.8898
 7276SOL     OW33460   1.796   1.663  11.425 -0.2215 -0.2119 -0.5136
 7276SOL    HW133461   1.854   1.738  11.409  2.1573 -2.1825 -1.1932
 7276SOL    HW233462   1.727   1.696  11.482  0.4642  0.1901  0.0840
 7277SOL     OW33463   4.562   1.210  12.886  0.0694  0.5484  0.3128
 7277SOL    HW133464   4.581   1.116  12.890 -1.1775  0.2716 -0.3274
 7277SOL    HW233465   4.503   1.214  12.962 -0.2911  1.6051 -0.0303
 7278SOL     OW33466   2.281   0.204   0.098 -0.4835 -0.0762 -0.4726
 7278SOL    HW133467   2.369   0.175   0.073  0.1019  1.1574  0.1600
 7278SOL    HW233468   2.294   0.297   0.115  0.3177 -0.1888 -0.4364
 7279SOL     OW33469   1.303   3.815   7.272 -0.1360  0.6280 -0.5431
 7279SOL    HW133470   1.302   3.738   7.216  0.3683 -1.0225  1.7205
 7279SOL    HW233471   1.215   3.811   7.308  0.9152 -1.4220  1.8008
 7280SOL     OW33472   2.822   1.806   4.370  0.5572 -0.7821  0.6225
 7280SOL    HW133473   2.729   1.785   4.379  0.2874  0.4143  0.6475
 7280SOL    HW233474   2.844   1.801   4.463 -0.7628 -0.9670  0.9296
 7281SOL     OW33475   4.238   2.615   6.824  0.8064 -0.2798 -0.2906
 7281SOL    HW133476   4.202   2.659   6.901 -0.0263 -2.8784  0.8147
 7281SOL    HW233477   4.301   2.561   6.871  0.0083 -1.2014 -0.2850
 7282SOL     OW33478   3.664   4.586   3.083 -0.2381 -0.2738 -0.4162
 7282SOL    HW133479   3.662   4.550   2.994  0.6878  0.7057 -0.8300
 7282SOL    HW233480   3.594   4.651   3.080  0.5170  0.6214  1.4587
 7283SOL     OW33481   3.128   3.982   0.353  0.2466  0.1323 -0.1785
 7283SOL    HW133482   3.223   3.980   0.349  0.3370  2.4280  0.5680
 7283SOL    HW233483   3.114   3.894   0.318  0.3216 -0.8547  2.2877
 7284SOL     OW33484   3.742   0.468   1.270  0.5495 -0.5297 -0.4529
 7284SOL    HW133485   3.649   0.450   1.281  0.9223 -1.4114  1.2797
 7284SOL    HW233486   3.773   0.422   1.348  1.6692  0.8552 -0.0858
 7285SOL     OW33487   0.423   3.625   6.980 -0.3581 -0.6352  0.5204
 7285SOL    HW133488   0.423   3.717   7.007 -0.7990 -0.6492  0.5604
 7285SOL    HW233489   0.469   3.593   7.058  0.1490 -0.5656  0.2554
 7286SOL     OW33490   3.854   4.041   7.555 -0.2933 -0.3603 -0.8228
 7286SOL    HW133491   3.769   4.001   7.574  0.0345 -0.8050 -0.2980
 7286SOL    HW233492   3.915   3.968   7.567  0.5770  0.7834  1.6116
 7287SOL     OW33493   1.879   4.370   7.827  0.1311  0.3606  0.5715
 7287SOL    HW133494   1.875   4.366   7.732  1.3489  1.1696  0.4725
 7287SOL    HW233495   1.810   4.431   7.854  0.1260 -0.1377  1.6696
 7288SOL     OW33496   0.233   2.899   6.379 -0.0357 -0.4065 -0.0423
 7288SOL    HW133497   0.141   2.904   6.357 -0.0163  0.8827  0.1404
 7288SOL    HW233498   0.271   2.898   6.291 -2.5263 -1.4560 -1.1067
 7289SOL     OW33499   3.015   4.663  17.401  0.1373  0.4663  0.0115
 7289SOL    HW133500   3.014   4.626  17.313 -0.9376  0.7845 -0.1045
 7289SOL    HW233501   3.003   4.589  17.461 -0.5850 -1.2499 -2.2407
 7290SOL     OW33502   2.258   2.672   8.041 -0.3709  0.3228 -0.3500
 7290SOL    HW133503   2.310   2.605   7.996  0.2090  1.6383 -1.6363
 7290SOL    HW233504   2.195   2.613   8.082  1.1462 -1.6272 -0.8017
 7291SOL     OW33505   3.539   0.099   4.724  0.1345  0.1267  0.1145
 7291SOL    HW133506   3.485   0.052   4.660  1.4731  0.2210 -1.0832
 7291SOL    HW233507   3.471   0.159   4.756  0.0660 -0.6197  1.3849
 7292SOL     OW33508   1.068   4.415   1.526 -0.2605 -0.8076  0.4763
 7292SOL    HW133509   1.013   4.485   1.561  0.5638 -0.8224  1.7946
 7292SOL    HW233510   1.082   4.451   1.438 -1.9082 -1.3695 -0.0163
 7293SOL     OW33511   3.208   1.515  12.693  0.1779  0.4790  0.0885
 7293SOL    HW133512   3.289   1.535  12.646  0.7187  2.3892  1.8435
 7293SOL    HW233513   3.221   1.575  12.766  2.3659 -0.6870  0.6743
 7294SOL     OW33514   4.700   1.924   6.883  0.1356  0.0764  0.3358
 7294SOL    HW133515   4.704   2.003   6.936 -0.6954  1.4352 -1.6244
 7294SOL    HW233516   4.632   1.871   6.925  1.5639 -2.0317 -0.0489
 7295SOL     OW33517   1.983   4.560  14.150  0.0586 -0.2416  0.3645
 7295SOL    HW133518   2.042   4.556  14.226  1.3772  0.5550 -0.6128
 7295SOL    HW233519   1.908   4.612  14.177 -1.5286 -1.7827 -1.1424
 7296SOL     OW33520   1.404   1.159  12.672  0.8044  0.5103  0.0075
 7296SOL    HW133521   1.469   1.157  12.743 -0.1672  0.1646  0.8758
 7296SOL    HW233522   1.324   1.184  12.717  0.0989 -2.4107  0.3620
 7297SOL     OW33523   2.641   4.314   6.571  0.2117  0.2299 -0.8479
 7297SOL    HW133524   2.688   4.240   6.609  0.5777  1.2647  0.7189
 7297SOL    HW233525   2.714   4.346   6.519  1.4004 -2.0445 -0.5605
 7298SOL     OW33526   4.523   3.596   5.769 -0.2030 -0.9353  0.2441
 7298SOL    HW133527   4.547   3.521   5.824 -1.4354 -0.7460  1.0447
 7298SOL    HW233528   4.587   3.570   5.703  0.4783  0.0107  0.5444
 7299SOL     OW33529   1.183   1.765   1.555 -0.2129  0.0164  0.1418
 7299SOL    HW133530   1.259   1.791   1.607 -0.9406  2.8786 -0.2229
 7299SOL    HW233531   1.227   1.764   1.470  3.2058 -0.4264  1.8897
 7300SOL     OW33532   0.564   4.527   3.636  0.0397 -0.0971 -0.3616
 7300SOL    HW133533   0.488   4.581   3.659  0.3292  0.3877 -0.5454
 7300SOL    HW233534   0.533   4.453   3.585  0.6908 -1.2662  0.9526
 7301SOL     OW33535   2.756   4.664   6.793  0.3335  0.2698  0.7292
 7301SOL    HW133536   2.788   4.612   6.719  1.8955 -0.5370  1.9733
 7301SOL    HW233537   2.729   4.602   6.860 -0.2795 -1.3415 -0.9934
 7302SOL     OW33538   1.532   1.267   7.763  0.5871  0.4671 -0.3047
 7302SOL    HW133539   1.444   1.267   7.800  0.6233  1.3419 -0.2203
 7302SOL    HW233540   1.525   1.348   7.713 -2.3230  0.1499 -0.3972
 7303SOL     OW33541   1.460   0.802  13.751  0.0906  0.5636  0.7927
 7303SOL    HW133542   1.520   0.864  13.793  1.6009 -0.7698  0.6148
 7303SOL    HW233543   1.520   0.759  13.690 -1.1912  2.2242 -1.6445
 7304SOL     OW33544   3.331   0.724   4.045  0.1747  0.3938 -0.1715
 7304SOL    HW133545   3.309   0.684   4.129 -0.7173  1.0831 -0.0760
 7304SOL    HW233546   3.346   0.646   3.990 -1.3740 -1.3982  1.9448
 7305SOL     OW33547   3.458   4.538   4.911  0.2732 -0.0861 -0.8215
 7305SOL    HW133548   3.520   4.465   4.902 -2.9047 -2.9194  0.2072
 7305SOL    HW233549   3.420   4.530   4.823 -0.9767 -0.9339 -0.2107
 7306SOL     OW33550   3.094   0.248   5.676 -0.4468 -0.3531  0.0557
 7306SOL    HW133551   3.098   0.339   5.706  0.1805 -0.6403  0.8211
 7306SOL    HW233552   3.182   0.247   5.637 -0.2997  3.2589  0.3033
 7307SOL     OW33553   1.833   0.668   8.374  0.2213  0.0957  0.5403
 7307SOL    HW133554   1.865   0.638   8.289  0.3658  1.4053  0.1301
 7307SOL    HW233555   1.780   0.594   8.404  0.3408 -0.1341  0.1801
 7308SOL     OW33556   2.933   4.594   0.816  0.2726  0.0550 -0.1330
 7308SOL    HW133557   2.995   4.563   0.882  0.1001  0.7207  0.3436
 7308SOL    HW233558   2.986   4.614   0.739  2.7889 -0.4641  1.4865
 7309SOL     OW33559   2.040   1.910   6.605  0.5283  0.1931  0.1015
 7309SOL    HW133560   2.104   1.839   6.603  1.7055  1.2409  0.8338
 7309SOL    HW233561   2.086   1.983   6.647  1.4530 -0.3248 -0.0056
 7310SOL     OW33562   0.549   3.431   6.809 -0.1474 -0.4053  0.5153
 7310SOL    HW133563   0.485   3.376   6.764 -1.0005 -0.1040  1.3698
 7310SOL    HW233564   0.495   3.487   6.865 -0.8308 -2.2594  1.6943
 7311SOL     OW33565   2.657   3.856  13.809 -0.0581  0.3944 -0.3455
 7311SOL    HW133566   2.719   3.784  13.799 -0.8078 -0.2056 -0.7050
 7311SOL    HW233567   2.711   3.929  13.779  0.0484 -0.5307 -2.4642
 7312SOL     OW33568   2.664   2.515   5.582 -0.6569  0.6126  0.5189
 7312SOL    HW133569   2.590   2.528   5.522 -1.3975 -0.9201  1.0878
 7312SOL    HW233570   2.709   2.593   5.550 -3.3883  2.5130  1.2782
 7313SOL     OW33571   3.360   0.324   4.813 -0.3123  0.0091 -0.3909
 7313SOL    HW133572   3.440   0.368   4.782  0.3548 -1.6837 -1.0508
 7313SOL    HW233573   3.338   0.390   4.878 -2.8560 -1.4382  0.1967
 7314SOL     OW33574   1.212   4.098   2.969 -0.0184  0.1439  0.1968
 7314SOL    HW133575   1.168   4.034   2.914  1.0621 -0.0342 -0.4620
 7314SOL    HW233576   1.146   4.119   3.036  0.8317 -0.5661  1.2531
 7315SOL     OW33577   3.412   3.543   5.052 -0.2462  0.3724 -0.0166
 7315SOL    HW133578   3.417   3.504   5.139  2.5262  3.6729  1.2876
 7315SOL    HW233579   3.484   3.604   5.038  0.9339 -1.0239 -0.0095
 7316SOL     OW33580   0.583   4.614   7.841 -0.4240 -0.4477  0.4121
 7316SOL    HW133581   0.560   4.531   7.883 -0.5859 -1.6661 -2.1079
 7316SOL    HW233582   0.552   4.689   7.892  0.2939  0.9517 -1.2265
 7317SOL     OW33583   2.638   2.772   7.673 -0.6208  0.4675 -0.2804
 7317SOL    HW133584   2.632   2.813   7.760 -1.9222 -1.2791  0.4480
 7317SOL    HW233585   2.683   2.839   7.622 -1.1304  0.0154 -1.3101
 7318SOL     OW33586   0.719   0.555   8.096 -0.3037  0.4715  0.4263
 7318SOL    HW133587   0.682   0.491   8.158 -0.6863 -0.0945 -0.3872
 7318SOL    HW233588   0.692   0.630   8.148  1.5859  0.4447  1.4528
 7319SOL     OW33589   4.398   3.876  17.089 -0.1308  0.0719 -0.3741
 7319SOL    HW133590   4.399   3.784  17.063  1.3955  0.2105 -0.8432
 7319SOL    HW233591   4.315   3.902  17.049 -0.1612 -0.8728 -0.9430
 7320SOL     OW33592   4.153   2.266  14.227 -0.3176  0.6140  0.3249
 7320SOL    HW133593   4.213   2.340  14.216  2.0558 -1.3342  0.2385
 7320SOL    HW233594   4.200   2.199  14.178 -1.4630  0.4204 -0.5081
 7321SOL     OW33595   3.071   1.706  14.419 -0.0862 -0.4071 -0.3318
 7321SOL    HW133596   2.985   1.741  14.439  0.7759  0.6799  1.5277
 7321SOL    HW233597   3.125   1.786  14.417 -1.8790  0.7862 -0.7162
 7322SOL     OW33598   3.684   1.918   8.283  0.3258 -0.1029 -0.2063
 7322SOL    HW133599   3.591   1.898   8.276  0.2995 -0.4090  1.0461
 7322SOL    HW233600   3.682   1.978   8.358  0.6895  1.7186 -1.6555
 7323SOL     OW33601   4.083   1.411   5.365 -0.2541 -0.3527  0.4930
 7323SOL    HW133602   4.123   1.376   5.444  0.9694 -0.7656 -0.3188
 7323SOL    HW233603   4.100   1.340   5.302 -1.7711  0.9503 -1.3968
 7324SOL     OW33604   1.979   2.676   5.241 -0.0141 -0.1396 -0.5204
 7324SOL    HW133605   2.053   2.630   5.281 -1.8028 -0.2274  2.6971
 7324SOL    HW233606   2.008   2.762   5.211 -2.8873  0.1464 -2.4538
 7325SOL     OW33607   2.580   2.961   3.988 -0.4400  0.4041  0.2340
 7325SOL    HW133608   2.615   2.982   3.901 -1.2860  2.8627  0.4812
 7325SOL    HW233609   2.523   2.886   3.975 -1.8720  1.6583 -0.6878
 7326SOL     OW33610   1.605   0.441   9.281 -0.9570 -0.5703  0.0156
 7326SOL    HW133611   1.564   0.528   9.270 -2.0588 -1.0351  0.3890
 7326SOL    HW233612   1.607   0.418   9.188 -0.2536 -0.0269 -0.1042
 7327SOL     OW33613   4.256   2.337  12.124 -0.0085  0.0553 -0.0180
 7327SOL    HW133614   4.205   2.415  12.102 -1.0529  0.0104  2.2679
 7327SOL    HW233615   4.198   2.267  12.094 -1.0098  1.0784 -0.4705
 7328SOL     OW33616   1.809   1.752   3.096 -0.1219 -0.2311  0.0685
 7328SOL    HW133617   1.851   1.807   3.030 -0.3713  0.3998  0.4382
 7328SOL    HW233618   1.871   1.765   3.168 -0.1967  0.6393 -0.0270
 7329SOL     OW33619   2.535   3.409   4.414  0.0154 -0.7486 -0.4689
 7329SOL    HW133620   2.553   3.436   4.504 -0.6409  0.1595 -0.6055
 7329SOL    HW233621   2.579   3.468   4.353 -1.5152 -0.0336 -0.8833
 7330SOL     OW33622   1.370   0.955   3.860 -0.0149  0.0334 -0.2515
 7330SOL    HW133623   1.282   0.918   3.857 -0.1430  0.2661  0.5489
 7330SOL    HW233624   1.351   1.038   3.818 -0.5171  0.0930  0.0879
 7331SOL     OW33625   0.020   1.456   6.119 -0.3164  0.4272  0.4001
 7331SOL    HW133626   0.003   1.439   6.211 -1.8226  0.8068  0.1944
 7331SOL    HW233627   0.046   1.549   6.114 -1.0131  0.6392  0.7917
 7332SOL     OW33628   0.243   1.338   4.175  0.0127 -0.3827  0.2172
 7332SOL    HW133629   0.160   1.304   4.207 -1.5194  0.1496 -3.2007
 7332SOL    HW233630   0.247   1.304   4.086 -4.3671  0.3771 -0.2571
 7333SOL     OW33631   4.537   2.984   2.762  0.0193 -0.5338  0.4204
 7333SOL    HW133632   4.517   2.949   2.675 -0.5121  1.5307 -0.2929
 7333SOL    HW233633   4.599   2.921   2.798 -0.1832 -1.5938 -1.0673
 7334SOL     OW33634   1.695   3.663   6.491  0.0479 -0.0222  0.1937
 7334SOL    HW133635   1.734   3.644   6.406 -0.1931 -4.1004  0.9890
 7334SOL    HW233636   1.697   3.574   6.527  3.7445  0.3055  0.7954
 7335SOL     OW33637   3.710   4.353   0.956  0.2221  0.7450 -0.0633
 7335SOL    HW133638   3.747   4.440   0.938  0.1329  1.2148  1.9349
 7335SOL    HW233639   3.715   4.320   0.867  0.1482 -0.5107  0.3885
 7336SOL     OW33640   0.822   2.520   7.454  0.1643  0.5653  0.5065
 7336SOL    HW133641   0.853   2.531   7.544 -1.8207  1.0438  1.1399
 7336SOL    HW233642   0.897   2.532   7.397  0.8924 -1.0403  1.1358
 7337SOL     OW33643   0.271   2.450   5.592  0.4764  1.0552 -0.1979
 7337SOL    HW133644   0.226   2.480   5.513 -2.6041  0.2622  1.2392
 7337SOL    HW233645   0.304   2.365   5.563 -3.3685 -0.3155 -0.5859
 7338SOL     OW33646   2.409   3.007   2.614  0.0947 -0.5681 -0.1454
 7338SOL    HW133647   2.446   2.921   2.635  2.8473 -0.0463 -2.9092
 7338SOL    HW233648   2.427   3.064   2.689 -0.5345 -0.4702 -0.0710
 7339SOL     OW33649   3.843   0.558  11.777 -0.0473 -0.1764 -0.2354
 7339SOL    HW133650   3.907   0.576  11.846 -0.5324 -0.5685  0.3187
 7339SOL    HW233651   3.794   0.483  11.810  1.5196 -0.8427  0.5515
 7340SOL     OW33652   1.141   2.429  13.497  0.3585 -0.0078 -0.7655
 7340SOL    HW133653   1.171   2.410  13.586  1.0700  0.2297 -0.9602
 7340SOL    HW233654   1.075   2.361  13.481  0.0905  0.2311 -0.6753
 7341SOL     OW33655   4.447   0.513   4.838  0.1070 -0.0963 -0.4925
 7341SOL    HW133656   4.521   0.509   4.899 -0.2726  0.9638  0.0478
 7341SOL    HW233657   4.370   0.522   4.894  1.5470  2.0267  1.1391
 7342SOL     OW33658   3.750   3.123   5.291  0.2337 -0.5966  0.0643
 7342SOL    HW133659   3.825   3.171   5.256 -0.4970  0.4769 -0.0324
 7342SOL    HW233660   3.752   3.043   5.239 -1.6483 -2.7626  3.3425
 7343SOL     OW33661   4.057   4.030  14.349 -0.1348  0.5283  0.4566
 7343SOL    HW133662   4.067   4.121  14.377  1.6474  0.2448  0.7625
 7343SOL    HW233663   4.127   4.000  14.408  0.6910  0.5801 -0.4952
 7344SOL     OW33664   1.726   3.748   6.152  0.2338  0.3308  0.4164
 7344SOL    HW133665   1.758   3.812   6.088  1.0560  1.3410  1.8197
 7344SOL    HW233666   1.805   3.725   6.202  0.9217 -0.4535 -1.0389
 7345SOL     OW33667   0.966   3.682  15.846 -0.1433  0.4273  0.5175
 7345SOL    HW133668   0.909   3.753  15.817  0.0329  0.4684  0.2668
 7345SOL    HW233669   1.047   3.733  15.858  0.6498 -0.8786  0.7494
 7346SOL     OW33670   3.020   3.935   6.977  0.3363 -0.1209  0.5260
 7346SOL    HW133671   3.096   3.941   7.035 -0.5233 -1.7968  1.8339
 7346SOL    HW233672   3.034   4.009   6.919  0.3288  1.4998  2.5749
 7347SOL     OW33673   4.587   0.945   3.292  0.3452  0.2088 -0.0536
 7347SOL    HW133674   4.596   0.863   3.243  0.7462  0.5953 -0.6241
 7347SOL    HW233675   4.600   1.012   3.225 -0.4167 -1.4621 -1.8802
 7348SOL     OW33676   0.127   3.910   3.447 -0.0844 -0.0049  0.0544
 7348SOL    HW133677   0.209   3.935   3.489 -1.7722  2.9001  1.5880
 7348SOL    HW233678   0.112   3.992   3.400 -1.0271  0.1249  0.5900
 7349SOL     OW33679   0.585   3.109   0.151 -0.8908  0.2161  0.1045
 7349SOL    HW133680   0.597   3.036   0.090  0.2144  0.5822 -0.1201
 7349SOL    HW233681   0.491   3.122   0.144 -1.0248 -0.9479 -0.2471
 7350SOL     OW33682   4.387   1.412   6.787  0.2447  0.1250  0.0237
 7350SOL    HW133683   4.350   1.326   6.806 -0.9995  1.0988  1.9189
 7350SOL    HW233684   4.426   1.394   6.701 -2.6408  0.9379 -1.4586
 7351SOL     OW33685   0.572   3.116   6.372  0.5552  0.3193 -0.1835
 7351SOL    HW133686   0.480   3.088   6.371  1.0310 -1.2466 -0.4354
 7351SOL    HW233687   0.569   3.209   6.393 -1.4447  0.0541  0.7031
 7352SOL     OW33688   2.113   1.137   9.302  0.9832 -0.0331  0.0655
 7352SOL    HW133689   2.104   1.046   9.272  3.9719  0.2821 -1.7812
 7352SOL    HW233690   2.073   1.173   9.224 -1.5585 -0.6874  1.0637
 7353SOL     OW33691   4.585   3.966  17.275  0.7662  0.4085 -0.2284
 7353SOL    HW133692   4.637   3.967  17.195 -0.2446 -0.9127 -0.9060
 7353SOL    HW233693   4.508   3.918  17.246 -0.6610  2.6431 -0.1544
 7354SOL     OW33694   2.139   1.106  11.696 -0.1983  0.1406  0.4882
 7354SOL    HW133695   2.114   1.056  11.618  1.2825 -1.0503  0.7865
 7354SOL    HW233696   2.068   1.171  11.700 -2.1008 -1.8465 -0.8124
 7355SOL     OW33697   3.647   3.969   0.938  0.0477  0.2338  0.2154
 7355SOL    HW133698   3.627   3.890   0.888  1.3430  0.7406 -1.1026
 7355SOL    HW233699   3.709   4.008   0.876  0.4757  0.0164  0.5043
 7356SOL     OW33700   0.501   2.252   1.003  0.2672 -0.1416 -0.2800
 7356SOL    HW133701   0.499   2.309   1.080  0.3692 -0.6934  0.1276
 7356SOL    HW233702   0.414   2.283   0.976  0.3259 -1.9778 -2.5478
 7357SOL     OW33703   1.406   2.099   7.333  0.2832  0.5227 -0.0405
 7357SOL    HW133704   1.400   2.126   7.424 -0.5547 -0.4803  0.2125
 7357SOL    HW233705   1.488   2.142   7.312  1.0850 -2.0609 -2.1792
 7358SOL     OW33706   1.977   4.564   5.915 -0.3298 -0.4723 -0.1582
 7358SOL    HW133707   1.921   4.549   5.991 -0.6622  2.0779  0.1096
 7358SOL    HW233708   2.038   4.490   5.917 -1.1065 -1.0977  0.5604
 7359SOL     OW33709   0.382   2.348  11.394  0.2237  0.0546 -0.3536
 7359SOL    HW133710   0.298   2.391  11.382  0.4367  0.4913 -0.2761
 7359SOL    HW233711   0.353   2.261  11.423 -0.3517  0.5233  0.4597
 7360SOL     OW33712   1.691   4.715   5.319 -0.3172 -0.3770 -0.0620
 7360SOL    HW133713   1.703   4.620   5.320 -0.3302 -0.4034 -2.5803
 7360SOL    HW233714   1.769   0.014   5.276 -1.5828 -1.1041 -2.9611
 7361SOL     OW33715   4.675   0.764  16.384 -0.0849  0.0170  0.7329
 7361SOL    HW133716   4.592   0.802  16.354  0.3162 -0.7649 -1.4251
 7361SOL    HW233717   4.730   0.842  16.389 -1.8321  1.4987 -2.8274
 7362SOL     OW33718   1.135   3.499   2.341  0.2833  0.7102 -0.4048
 7362SOL    HW133719   1.108   3.435   2.407  2.8805 -1.1301 -1.1321
 7362SOL    HW233720   1.072   3.477   2.271 -0.2208  0.4274  0.1382
 7363SOL     OW33721   1.177   2.849  14.362 -0.1748  0.2520  0.5560
 7363SOL    HW133722   1.203   2.761  14.390 -0.4496  0.5042  1.5898
 7363SOL    HW233723   1.260   2.898  14.359 -0.5326  0.7038 -2.5348
 7364SOL     OW33724   1.123   2.457   7.797 -0.3612  0.0771 -0.1046
 7364SOL    HW133725   1.190   2.518   7.767 -1.1842  0.1872 -1.7221
 7364SOL    HW233726   1.149   2.451   7.889 -1.0458 -2.7204 -0.0857
 7365SOL     OW33727   0.252   1.696   1.153  0.0210 -0.3757  0.0253
 7365SOL    HW133728   0.184   1.763   1.154 -0.9184 -1.2857 -2.0906
 7365SOL    HW233729   0.244   1.665   1.062  0.6154  1.5396 -0.6605
 7366SOL     OW33730   1.883   3.544   7.248  0.3101  0.1197 -0.0001
 7366SOL    HW133731   1.920   3.560   7.335 -0.6417 -2.1001  0.8242
 7366SOL    HW233732   1.790   3.538   7.270  0.3571 -0.3473  0.0630
 7367SOL     OW33733   0.134   3.035   2.928 -0.5144 -0.4311 -0.1355
 7367SOL    HW133734   0.140   3.027   2.833 -0.3793  0.3412 -0.1973
 7367SOL    HW233735   0.160   3.127   2.933 -1.5103  0.0465 -3.4266
 7368SOL     OW33736   4.031   1.216  15.129 -0.6511  0.0478 -0.1364
 7368SOL    HW133737   3.955   1.170  15.166 -0.2559 -0.7381 -0.2901
 7368SOL    HW233738   4.004   1.239  15.041 -1.3043  0.0628  0.0664
 7369SOL     OW33739   1.063   4.606   4.910  0.9963  0.6178  0.3238
 7369SOL    HW133740   1.069   4.512   4.897 -0.9075  0.5470 -0.1590
 7369SOL    HW233741   0.969   4.622   4.918  0.7165 -0.0581 -1.7777
 7370SOL     OW33742   3.178   2.778   8.788  0.0567  0.3273  0.0110
 7370SOL    HW133743   3.172   2.748   8.879 -1.2497  1.0679  0.1649
 7370SOL    HW233744   3.194   2.692   8.750  1.2647  0.5171  0.0842
 7371SOL     OW33745   1.580   3.911  14.540  0.2697 -0.7238 -0.0736
 7371SOL    HW133746   1.523   3.851  14.493  0.4925 -0.8743 -0.1508
 7371SOL    HW233747   1.665   3.867  14.535  0.5214 -0.1812 -0.5703
 7372SOL     OW33748   1.102   1.558  12.795 -0.1032 -0.9642  0.2195
 7372SOL    HW133749   1.014   1.575  12.764 -0.0714 -0.0523  0.6241
 7372SOL    HW233750   1.156   1.600  12.728  2.9348 -1.1465  2.5093
 7373SOL     OW33751   4.420   4.528  15.234 -0.4544  0.0472 -0.3019
 7373SOL    HW133752   4.486   4.461  15.249 -1.7831 -1.3073 -0.5353
 7373SOL    HW233753   4.466   4.606  15.267  2.9606 -0.3741 -4.0401
 7374SOL     OW33754   3.932   1.451   7.750 -0.6851  0.2777 -0.5830
 7374SOL    HW133755   4.016   1.466   7.792 -1.3726  0.4182  0.7630
 7374SOL    HW233756   3.941   1.508   7.674 -0.5176 -2.2616 -2.4728
 7375SOL     OW33757   1.610   4.540   4.340 -0.7954 -0.4229 -0.7136
 7375SOL    HW133758   1.539   4.496   4.292 -2.3254  0.5365  0.6643
 7375SOL    HW233759   1.687   4.487   4.320  0.6866  1.8287 -0.9495
 7376SOL     OW33760   3.018   1.435   9.522  0.4925 -0.4202  0.1646
 7376SOL    HW133761   3.024   1.378   9.598 -2.6604 -0.1936  0.5858
 7376SOL    HW233762   3.090   1.493   9.546  1.3510 -1.9212  1.2229
 7377SOL     OW33763   0.162   1.602   4.702  0.4733  0.2390 -0.2609
 7377SOL    HW133764   0.256   1.583   4.696 -0.3291 -3.1680 -2.4034
 7377SOL    HW233765   0.160   1.697   4.709 -0.7364  0.2243 -0.4244
 7378SOL     OW33766   4.208   4.670   2.590 -0.1376 -0.6332  0.0329
 7378SOL    HW133767   4.133   4.652   2.533 -1.3476 -1.4678  1.9008
 7378SOL    HW233768   4.277   4.614   2.554  1.6333  2.0642 -0.7452
 7379SOL     OW33769   3.693   2.576   1.188 -0.3976 -0.0258  0.9843
 7379SOL    HW133770   3.623   2.636   1.164 -0.5497 -0.5743  0.0790
 7379SOL    HW233771   3.724   2.547   1.103 -2.0163 -0.0608  0.4146
 7380SOL     OW33772   1.067   2.667  13.389 -0.3829 -0.0847 -0.4433
 7380SOL    HW133773   1.041   2.660  13.297 -3.0828 -0.0089  0.2946
 7380SOL    HW233774   1.095   2.580  13.417  2.2426  1.2701  1.0932
 7381SOL     OW33775   0.134   1.929   3.957  0.2248  0.2451  0.3179
 7381SOL    HW133776   0.094   1.859   3.906 -0.9480 -1.5832  3.7266
 7381SOL    HW233777   0.059   1.976   3.995 -1.5114 -2.2618  0.0052
 7382SOL     OW33778   2.186   0.566   2.002 -0.2029  0.2207  0.3392
 7382SOL    HW133779   2.135   0.486   1.997 -0.6236  0.4321  1.2212
 7382SOL    HW233780   2.130   0.612   2.065  0.0271  1.3841 -0.2927
 7383SOL     OW33781   3.443   4.278   3.202  0.1333 -0.0995 -0.3584
 7383SOL    HW133782   3.415   4.189   3.180 -1.2650  0.6239 -1.5148
 7383SOL    HW233783   3.395   4.329   3.137  0.6741  0.8123 -0.0512
 7384SOL     OW33784   1.342   1.298  11.187  0.2563 -0.6471  0.2142
 7384SOL    HW133785   1.273   1.310  11.121  0.0931 -1.1656  0.2850
 7384SOL    HW233786   1.302   1.238  11.250 -0.4263  0.5424  0.9076
 7385SOL     OW33787   0.135   1.452   8.190  0.2073  0.0294 -0.4769
 7385SOL    HW133788   0.125   1.466   8.096 -1.5575  0.0568 -0.2788
 7385SOL    HW233789   0.110   1.537   8.226  1.9682  0.0645  0.6595
 7386SOL     OW33790   0.196   0.271   8.395 -0.4538  0.0553 -0.1780
 7386SOL    HW133791   0.235   0.356   8.415  0.5923 -0.3961 -0.3006
 7386SOL    HW233792   0.103   0.279   8.415 -0.1064  0.3970  1.2656
 7387SOL     OW33793   2.657   1.606   3.311  0.1948  0.4054  0.3703
 7387SOL    HW133794   2.571   1.647   3.299  0.1887 -0.1478 -1.4913
 7387SOL    HW233795   2.709   1.686   3.317  2.0827 -0.7374 -0.8690
 7388SOL     OW33796   4.314   0.761   8.273 -0.1385  0.0210 -0.6129
 7388SOL    HW133797   4.374   0.782   8.344 -1.2783  0.9313  0.0912
 7388SOL    HW233798   4.248   0.704   8.313 -1.1015  0.7600 -1.1624
 7389SOL     OW33799   0.956   0.879   8.203 -0.1033 -1.2351  0.2910
 7389SOL    HW133800   0.881   0.925   8.239 -1.7773 -2.8224 -1.1791
 7389SOL    HW233801   0.923   0.873   8.114  0.9854  0.9906 -0.2576
 7390SOL     OW33802   0.053   4.100   1.520 -0.1994  0.7163  0.0737
 7390SOL    HW133803   0.116   4.084   1.590  0.2473  0.8311 -0.3087
 7390SOL    HW233804   0.062   4.013   1.480 -2.6951  0.3161  0.3829
 7391SOL     OW33805   3.588   1.439   3.058 -0.1051  0.1742 -0.7579
 7391SOL    HW133806   3.618   1.508   3.118 -1.3277 -1.1765  1.4380
 7391SOL    HW233807   3.496   1.464   3.054 -0.4050 -1.0092 -1.4268
 7392SOL     OW33808   2.241   4.007  11.388 -0.3813 -0.2942  0.9284
 7392SOL    HW133809   2.246   3.938  11.322  0.1592 -0.6041  1.2908
 7392SOL    HW233810   2.326   4.000  11.432 -0.0010 -1.3613  0.0047
 7393SOL     OW33811   4.465   2.589   6.340  0.0540 -0.4340 -0.0302
 7393SOL    HW133812   4.376   2.555   6.335 -0.7599  1.4796  1.5927
 7393SOL    HW233813   4.464   2.666   6.397  0.4422 -0.0815 -0.5036
 7394SOL     OW33814   3.620   3.735   9.292 -0.3533 -0.2060  0.1676
 7394SOL    HW133815   3.630   3.658   9.236  0.0939 -0.9869  1.3108
 7394SOL    HW233816   3.648   3.688   9.371  1.0070 -0.0005 -0.1771
 7395SOL     OW33817   4.345   3.927   3.864 -0.2353 -0.0948 -0.3766
 7395SOL    HW133818   4.426   3.890   3.827  0.4045  2.1534 -1.2092
 7395SOL    HW233819   4.343   4.012   3.820 -2.7438 -0.7587 -1.5295
 7396SOL     OW33820   1.272   1.213   6.494 -0.0131 -0.0459  0.6275
 7396SOL    HW133821   1.327   1.158   6.437  0.8313 -0.2903  1.6786
 7396SOL    HW233822   1.260   1.149   6.565 -0.8486 -1.2095 -0.5614
 7397SOL     OW33823   1.646   0.004   3.413  0.8464  0.6055 -0.7088
 7397SOL    HW133824   1.552   0.025   3.412  0.8505  0.6916  0.2667
 7397SOL    HW233825   1.648   4.658   3.363  0.8587 -1.0565  1.9993
 7398SOL     OW33826   1.823   4.643   0.872  0.1635 -0.1300  0.2794
 7398SOL    HW133827   1.732   4.663   0.852  0.9064  0.2598 -2.8072
 7398SOL    HW233828   1.836   4.726   0.918  0.4630 -0.6441  1.1191
 7399SOL     OW33829   4.018   0.377  11.323 -0.8818 -0.2710 -0.0935
 7399SOL    HW133830   3.936   0.361  11.370 -0.2690 -3.5973 -0.1219
 7399SOL    HW233831   4.009   0.469  11.301  0.7924  0.3681  1.9086
 7400SOL     OW33832   3.837   2.918   6.335 -0.5447 -0.0711 -0.2574
 7400SOL    HW133833   3.912   2.872   6.372 -0.8012  0.1169  0.4917
 7400SOL    HW233834   3.889   2.977   6.280 -0.8469  0.9882  0.5877
 7401SOL     OW33835   3.447   2.774   4.947  0.1924 -0.2024  0.4924
 7401SOL    HW133836   3.460   2.765   5.042 -0.2069 -1.9663  0.3829
 7401SOL    HW233837   3.355   2.750   4.933 -0.1370  0.5887  1.2268
 7402SOL     OW33838   0.512   4.166   4.092 -0.7419 -0.6918  0.5719
 7402SOL    HW133839   0.528   4.174   4.186 -1.5595  0.3113  0.6210
 7402SOL    HW233840   0.461   4.086   4.079 -1.4158  0.0355 -1.3668
 7403SOL     OW33841   1.910   2.458  16.016  0.1294  0.1477 -0.3790
 7403SOL    HW133842   1.885   2.372  15.983 -2.4484  0.8232 -0.2197
 7403SOL    HW233843   1.877   2.448  16.106  1.2057 -1.9882 -0.2244
 7404SOL     OW33844   4.151   1.404   6.629 -0.0504 -0.3931  0.0300
 7404SOL    HW133845   4.085   1.335   6.623  0.8415 -0.9606 -3.0239
 7404SOL    HW233846   4.146   1.434   6.720  2.9145 -0.8330  0.3487
 7405SOL     OW33847   2.529   3.757   4.688  0.2739  0.3570 -0.1533
 7405SOL    HW133848   2.482   3.763   4.771  0.6180 -2.0682  0.2227
 7405SOL    HW233849   2.622   3.769   4.706 -0.2899  0.7943  2.5073
 7406SOL     OW33850   1.988   3.136  15.241 -0.2549 -0.3307  0.4018
 7406SOL    HW133851   1.983   3.167  15.331 -1.0590  1.0716 -0.1270
 7406SOL    HW233852   1.893   3.126  15.231 -0.1524 -0.8725 -0.0633
 7407SOL     OW33853   0.766   2.374   1.724  0.2988 -0.6806 -0.0797
 7407SOL    HW133854   0.731   2.419   1.647 -0.1238 -1.4381 -0.3345
 7407SOL    HW233855   0.749   2.441   1.790  2.2745 -0.8975  0.6508
 7408SOL     OW33856   4.294   3.169  15.105  0.6989 -0.2204 -0.2793
 7408SOL    HW133857   4.389   3.169  15.096  0.8772 -1.6723  1.5282
 7408SOL    HW233858   4.276   3.080  15.136  0.9361  0.1397  0.8683
 7409SOL     OW33859   3.749   4.706   2.056  0.1091 -0.3175 -0.2929
 7409SOL    HW133860   3.656   4.704   2.077 -0.4777  0.3196 -2.8337
 7409SOL    HW233861   3.754   0.056   2.013 -0.4460  0.5959  1.4456
 7410SOL     OW33862   1.167   2.109   7.831 -0.5262 -0.1864  0.4683
 7410SOL    HW133863   1.081   2.083   7.863  1.2319 -1.6417  4.0742
 7410SOL    HW233864   1.185   2.185   7.887 -0.6273 -1.2341  1.9471
 7411SOL     OW33865   2.101   3.365  14.088  0.1742 -0.0016  0.2397
 7411SOL    HW133866   2.088   3.278  14.050  0.1154  0.6581 -1.2906
 7411SOL    HW233867   2.017   3.408  14.073 -0.6174 -1.7770 -0.4555
 7412SOL     OW33868   4.005   1.377  14.145  0.2429 -0.2273  0.5393
 7412SOL    HW133869   3.944   1.431  14.195 -1.6072 -0.8413 -1.0805
 7412SOL    HW233870   4.089   1.403  14.183  0.0616  0.7081  0.2883
 7413SOL     OW33871   0.564   4.454   7.336  0.2282 -0.0708 -0.3125
 7413SOL    HW133872   0.546   4.545   7.314 -2.1423  0.1755  2.5497
 7413SOL    HW233873   0.499   4.428   7.402  0.1109  1.2452  0.0972
 7414SOL     OW33874   1.777   0.238   7.849 -0.1285  0.3502  0.0480
 7414SOL    HW133875   1.725   0.188   7.787 -0.9533  0.1223  0.9196
 7414SOL    HW233876   1.780   0.326   7.812  0.6546  0.8536  1.2800
 7415SOL     OW33877   0.402   0.255   7.606 -0.1423 -0.0944 -0.0576
 7415SOL    HW133878   0.354   0.282   7.685 -1.1401 -1.1816 -0.2836
 7415SOL    HW233879   0.400   0.341   7.564 -1.9281 -0.4287 -0.6359
 7416SOL     OW33880   3.208   3.261   2.997 -0.1028  0.2909 -0.0770
 7416SOL    HW133881   3.287   3.244   2.946  0.0220  0.1311  0.1714
 7416SOL    HW233882   3.239   3.327   3.059  2.8320 -0.8326 -0.3448
 7417SOL     OW33883   3.017   3.162   2.743 -0.4143  0.0588  0.3325
 7417SOL    HW133884   3.082   3.132   2.806 -1.5855 -2.1686  0.4804
 7417SOL    HW233885   3.074   3.228   2.703  0.1822  0.6779  2.1888
 7418SOL     OW33886   2.127   0.476   8.463  0.0553  0.0357 -0.2359
 7418SOL    HW133887   2.126   0.395   8.413  1.5190  1.0355 -1.8955
 7418SOL    HW233888   2.060   0.530   8.420  1.3136  1.9241  0.2042
 7419SOL     OW33889   1.887   1.213   8.884 -0.2786 -0.2741  0.5873
 7419SOL    HW133890   1.931   1.248   8.961  3.0985  1.1125 -1.9414
 7419SOL    HW233891   1.859   1.130   8.923 -1.0807 -0.1321  0.3112
 7420SOL     OW33892   3.946   1.570   1.668  0.4096  0.6944 -0.1170
 7420SOL    HW133893   4.039   1.591   1.668  0.2628  1.3112  3.1090
 7420SOL    HW233894   3.946   1.498   1.605  0.3159  0.2208  0.4263
 7421SOL     OW33895   4.412   4.481   2.646 -0.0645  0.1359 -0.4336
 7421SOL    HW133896   4.344   4.459   2.710  0.6241 -1.0252 -0.0922
 7421SOL    HW233897   4.484   4.520   2.696  0.1741 -0.4912 -0.2822
 7422SOL     OW33898   0.708   2.121   4.068  0.5994 -0.0855 -0.0957
 7422SOL    HW133899   0.781   2.063   4.089  2.7461  1.8364 -2.2247
 7422SOL    HW233900   0.663   2.140   4.150  2.1405 -0.1215  0.7629
 7423SOL     OW33901   0.691   1.753   1.387  0.2283 -0.6600  0.3658
 7423SOL    HW133902   0.622   1.686   1.389 -2.1138  1.6934 -0.7864
 7423SOL    HW233903   0.675   1.797   1.304 -0.5768  0.5245  1.1339
 7424SOL     OW33904   2.392   3.573  12.135  0.3501  0.4449  0.0006
 7424SOL    HW133905   2.442   3.491  12.136 -1.8113 -0.8728  0.7650
 7424SOL    HW233906   2.303   3.542  12.116  0.4209  0.7714 -0.8426
 7425SOL     OW33907   1.140   2.073   4.691  0.4735  0.4947 -0.0663
 7425SOL    HW133908   1.203   2.139   4.719  0.3482  0.7471 -0.3808
 7425SOL    HW233909   1.198   2.023   4.635 -0.8042 -1.2425  0.1650
 7426SOL     OW33910   3.494   1.401  13.366 -0.0237  0.1359  0.2437
 7426SOL    HW133911   3.542   1.319  13.376  0.2852  0.2083 -0.6587
 7426SOL    HW233912   3.476   1.423  13.458  0.0500 -2.1198  0.8092
 7427SOL     OW33913   0.935   2.003   4.122 -0.4041  1.1560  0.0739
 7427SOL    HW133914   0.968   1.933   4.066  0.1826  0.0979  1.7505
 7427SOL    HW233915   0.950   1.969   4.210  0.0996  1.7197  0.2050
 7428SOL     OW33916   4.190   4.265  16.835  0.2495  0.0730 -0.3709
 7428SOL    HW133917   4.202   4.322  16.759 -0.4747  0.6269 -0.0673
 7428SOL    HW233918   4.097   4.245  16.826  0.1090  1.4029 -1.8631
 7429SOL     OW33919   1.446   0.682   1.782 -0.2775 -0.7394  0.3741
 7429SOL    HW133920   1.381   0.713   1.719 -1.8367  0.2775  2.5176
 7429SOL    HW233921   1.379   0.673   1.850  0.6317  0.9419  1.5017
 7430SOL     OW33922   1.855   1.215   6.875 -0.2129  0.2060 -0.2726
 7430SOL    HW133923   1.771   1.259   6.867 -0.9125 -0.7369  1.8214
 7430SOL    HW233924   1.884   1.178   6.792 -1.7612 -1.5645 -0.0372
 7431SOL     OW33925   3.916   4.525   2.597  0.2490 -0.0141 -0.0716
 7431SOL    HW133926   3.928   4.441   2.553  1.2077  0.8579 -1.4815
 7431SOL    HW233927   3.961   4.579   2.533  0.8761 -1.3633 -0.7587
 7432SOL     OW33928   4.621   0.314   1.772  0.2728 -0.2158  0.1276
 7432SOL    HW133929   4.535   0.309   1.813  0.2349  0.6987  0.1470
 7432SOL    HW233930   4.607   0.404   1.743 -2.4090 -1.5288 -2.6703
 7433SOL     OW33931   4.311   3.487  15.076  0.1237  0.2803 -0.0220
 7433SOL    HW133932   4.398   3.450  15.062 -1.1778 -2.4548 -0.8397
 7433SOL    HW233933   4.259   3.420  15.031  0.9964 -0.4840  0.1093
 7434SOL     OW33934   2.008   3.926   8.769 -0.5530  0.4870 -0.4691
 7434SOL    HW133935   1.932   3.893   8.721  1.1209 -1.2704 -1.9090
 7434SOL    HW233936   2.078   3.863   8.751  0.3490  1.9515 -1.9821
 7435SOL     OW33937   0.847   3.939  15.804  0.3270 -0.8114 -0.3103
 7435SOL    HW133938   0.894   4.022  15.803 -0.2047 -0.4582  2.3819
 7435SOL    HW233939   0.803   3.942  15.889 -0.5610  0.3421 -0.8194
 7436SOL     OW33940   0.142   1.258  11.662 -0.3025  0.7423 -0.2509
 7436SOL    HW133941   0.199   1.325  11.625 -0.6446 -1.0190 -3.9888
 7436SOL    HW233942   0.059   1.302  11.679 -0.3001  0.4751  0.4770
 7437SOL     OW33943   4.085   4.177   7.152 -0.1364 -0.3336  0.8436
 7437SOL    HW133944   4.025   4.243   7.185  1.4559  0.8804  1.2849
 7437SOL    HW233945   4.027   4.147   7.082  0.9313 -2.2776  0.7755
 7438SOL     OW33946   2.441   2.148   5.640  0.2711  0.8085 -0.0428
 7438SOL    HW133947   2.396   2.064   5.652  0.7560  0.7075  1.0643
 7438SOL    HW233948   2.453   2.170   5.732  1.6676  0.2469 -0.0919
 7439SOL     OW33949   3.909   0.022   8.126  0.2378  0.2211  0.1461
 7439SOL    HW133950   3.996   4.722   8.144 -0.1337 -0.2109  1.0976
 7439SOL    HW233951   3.884   4.695   8.059 -0.3449  0.0380  0.5321
 7440SOL     OW33952   4.380   2.766   9.301  0.2918 -0.0867 -0.5617
 7440SOL    HW133953   4.399   2.701   9.369  0.6134 -0.0591 -0.6244
 7440SOL    HW233954   4.438   2.837   9.326 -1.1480 -0.1138  2.7804
 7441SOL     OW33955   3.794   3.305   8.485 -0.0973  0.0964 -0.0842
 7441SOL    HW133956   3.868   3.290   8.426  0.0320 -0.1618  0.1410
 7441SOL    HW233957   3.718   3.307   8.427 -1.2037 -1.0063  1.3295
 7442SOL     OW33958   3.135   3.005   7.849 -0.2775  0.4726  0.1060
 7442SOL    HW133959   3.170   3.064   7.916  0.8304  1.5015 -1.4006
 7442SOL    HW233960   3.098   2.934   7.903 -2.2261  0.4861 -1.2243
 7443SOL     OW33961   0.465   2.348   7.479  0.5372 -0.7279 -0.4745
 7443SOL    HW133962   0.403   2.421   7.479  0.5955 -0.6820 -1.4963
 7443SOL    HW233963   0.537   2.377   7.535  0.0252 -0.0044 -0.1849
 7444SOL     OW33964   2.521   4.451   9.329  0.1590 -0.2768 -0.0652
 7444SOL    HW133965   2.455   4.381   9.326  0.0691 -0.1754 -0.6033
 7444SOL    HW233966   2.539   4.441   9.422 -1.1360  0.4241  0.2603
 7445SOL     OW33967   4.619   0.015   4.873  0.2220  0.3141 -0.4792
 7445SOL    HW133968   4.626   0.039   4.965 -0.4933 -0.2645 -0.2727
 7445SOL    HW233969   4.652   0.098   4.839 -0.5893  0.0621 -1.8784
 7446SOL     OW33970   3.940   0.139   0.685 -0.2698  0.1712 -0.1232
 7446SOL    HW133971   3.901   0.226   0.682 -0.9516 -0.1091  0.6990
 7446SOL    HW233972   3.893   0.094   0.614  0.1747 -0.6249  0.0812
 7447SOL     OW33973   1.369   1.354   0.237 -0.2160  0.3744  0.7031
 7447SOL    HW133974   1.307   1.426   0.223  1.0709  1.3729  0.0998
 7447SOL    HW233975   1.448   1.376   0.187  0.0955 -0.7944  0.6822
 7448SOL     OW33976   0.835   4.485  16.333  0.4973  0.7751 -0.3803
 7448SOL    HW133977   0.864   4.472  16.242 -0.7220  1.2402 -0.8439
 7448SOL    HW233978   0.789   4.569  16.327  1.0480  0.9953 -1.5617
 7449SOL     OW33979   4.319   1.591   3.217  0.5303 -0.2957  0.1658
 7449SOL    HW133980   4.338   1.653   3.146  1.1032  1.8767  2.1986
 7449SOL    HW233981   4.405   1.573   3.252  1.4316  1.5198 -1.0823
 7450SOL     OW33982   4.225   2.133   5.082 -0.3946 -0.4638  0.1831
 7450SOL    HW133983   4.166   2.083   5.138  1.2296 -0.7268  1.6636
 7450SOL    HW233984   4.231   2.074   5.007  2.5360 -0.6606  0.5589
 7451SOL     OW33985   1.769   2.256   3.943  0.2375 -0.4083  0.2174
 7451SOL    HW133986   1.739   2.166   3.930 -2.3661  0.7107 -1.4135
 7451SOL    HW233987   1.793   2.278   3.853  1.6186  0.3739  0.7779
 7452SOL     OW33988   1.905   3.144  17.658 -0.2434  0.4717  0.3729
 7452SOL    HW133989   1.922   3.151  17.564  2.0362 -0.5181  0.7031
 7452SOL    HW233990   1.984   3.119  17.707 -1.4188 -1.9129  1.0449
 7453SOL     OW33991   1.663   3.442   9.035 -0.6681  0.6188 -0.5982
 7453SOL    HW133992   1.667   3.506   9.106  1.2716 -0.8054  0.5851
 7453SOL    HW233993   1.572   3.413   9.047 -0.9064  1.6722  0.1640
 7454SOL     OW33994   0.020   0.638   1.948  0.4573  0.5056 -0.4208
 7454SOL    HW133995   4.687   0.701   1.924  1.8918  1.6792 -1.4539
 7454SOL    HW233996   0.060   0.670   2.028 -1.3523  0.1345  0.6307
 7455SOL     OW33997   2.597   1.179  12.699  0.1035  0.2673  0.3175
 7455SOL    HW133998   2.568   1.098  12.741  0.2284  0.3852  0.6258
 7455SOL    HW233999   2.621   1.144  12.613  1.4758 -0.4046  0.9880
 7456SOL     OW34000   0.598   2.063   1.209  0.6883  0.0163 -0.1575
 7456SOL    HW134001   0.603   2.127   1.138  0.0770  2.4406  1.9881
 7456SOL    HW234002   0.610   2.115   1.288 -0.6314 -0.7041  0.5126
 7457SOL     OW34003   4.489   3.966   8.413 -0.6345  0.3973  0.2796
 7457SOL    HW134004   4.535   4.042   8.376 -0.1215  0.6235  1.3959
 7457SOL    HW234005   4.400   4.000   8.400  0.5770  3.5431  0.1527
 7458SOL     OW34006   3.110   3.153   9.022 -0.4451  0.3688 -0.3061
 7458SOL    HW134007   3.152   3.097   8.956  0.3768 -0.3497  0.8361
 7458SOL    HW234008   3.144   3.240   8.999  0.2808  0.1652  0.0038
 7459SOL     OW34009   4.624   2.907   2.335  0.7275 -0.2617 -0.6685
 7459SOL    HW134010   4.554   2.891   2.398  1.7590  0.9799  0.8014
 7459SOL    HW234011   4.588   2.857   2.263 -2.3712  0.1738  0.5698
 7460SOL     OW34012   4.664   1.514   0.857 -0.6659  0.2660  0.0449
 7460SOL    HW134013   4.589   1.572   0.867 -0.4365  0.4614  0.6374
 7460SOL    HW234014   4.619   1.432   0.839 -0.3796 -0.0536  0.7700
 7461SOL     OW34015   1.339   3.496   4.042  0.1904 -0.0281 -0.4206
 7461SOL    HW134016   1.377   3.584   4.035 -1.1301  0.6047  0.4259
 7461SOL    HW234017   1.248   3.501   4.012 -0.5948  1.0838  2.1952
 7462SOL     OW34018   4.441   0.877   8.838  0.0858  0.1023  0.4234
 7462SOL    HW134019   4.516   0.851   8.785  0.1934  1.5648 -0.1265
 7462SOL    HW234020   4.486   0.914   8.913 -0.6848 -0.1630  1.0158
 7463SOL     OW34021   0.842   0.260  15.132  0.7490 -0.1843  0.2928
 7463SOL    HW134022   0.814   0.329  15.192 -0.9553 -0.2193 -0.4680
 7463SOL    HW234023   0.775   0.194  15.149  0.3648  0.1524  0.0749
 7464SOL     OW34024   4.439   3.061   2.027  0.4100  0.3660  0.0865
 7464SOL    HW134025   4.465   3.012   2.105  2.4445 -1.4771 -1.7642
 7464SOL    HW234026   4.349   3.092   2.042  0.9687  1.7876  0.4968
 7465SOL     OW34027   4.022   1.854   9.310  0.1097 -0.0364 -0.2942
 7465SOL    HW134028   4.052   1.817   9.393 -0.3046  1.4021  0.4857
 7465SOL    HW234029   4.018   1.779   9.251  1.8172  0.6279 -1.2475
 7466SOL     OW34030   1.005   4.439   4.127 -0.1452 -0.2990 -0.0008
 7466SOL    HW134031   0.946   4.465   4.057  1.5994  1.1305 -0.9492
 7466SOL    HW234032   0.938   4.385   4.169 -0.3362  0.5092  0.7372
 7467SOL     OW34033   1.711   2.997   6.263 -0.1544 -0.0719  0.7066
 7467SOL    HW134034   1.717   2.938   6.188  0.4932  0.8782  0.0103
 7467SOL    HW234035   1.696   2.929   6.329  1.3076 -1.5418 -0.4661
 7468SOL     OW34036   1.304   1.438   2.359 -0.1364 -0.1642  0.0763
 7468SOL    HW134037   1.220   1.453   2.316 -0.5248  1.0201  1.2398
 7468SOL    HW234038   1.365   1.499   2.318  0.2201 -0.3301  0.3657
 7469SOL     OW34039   0.946   0.905  17.063  1.0708 -0.5435  0.4720
 7469SOL    HW134040   0.982   0.840  17.003  2.2318  0.5848 -0.0509
 7469SOL    HW234041   0.913   0.862  17.142 -0.4431  1.1344  0.7587
 7470SOL     OW34042   4.308   3.509   8.958 -0.5283  0.0234 -0.5268
 7470SOL    HW134043   4.356   3.505   8.876  1.0856  1.3135  0.3553
 7470SOL    HW234044   4.284   3.600   8.941  1.0535  0.1366 -2.0511
 7471SOL     OW34045   2.434   3.832  12.034 -0.4344 -0.0415  0.0037
 7471SOL    HW134046   2.422   3.738  12.031  1.0511 -0.2955  1.9042
 7471SOL    HW234047   2.490   3.841  12.112  2.0600  1.6872 -1.9827
 7472SOL     OW34048   0.854   1.208  10.114 -0.4058  0.2337  0.0536
 7472SOL    HW134049   0.825   1.264  10.043 -2.4093 -1.9733 -0.8790
 7472SOL    HW234050   0.825   1.252  10.194 -1.0106 -0.5147  0.2492
 7473SOL     OW34051   3.102   4.137   3.604  0.3546 -0.3968 -0.0271
 7473SOL    HW134052   3.161   4.206   3.573 -1.4021  0.4361 -1.5277
 7473SOL    HW234053   3.158   4.068   3.639  2.1849  1.5324  0.8239
 7474SOL     OW34054   3.024   4.290   0.456 -0.0361 -0.4927 -0.5396
 7474SOL    HW134055   3.076   4.239   0.518  2.1580 -0.8697 -2.7039
 7474SOL    HW234056   2.948   4.317   0.509 -0.3292  0.9283 -1.6914
 7475SOL     OW34057   4.045   1.923   4.630 -0.3862  0.1818 -0.3884
 7475SOL    HW134058   3.988   1.871   4.688  1.1530 -0.5923  0.4248
 7475SOL    HW234059   3.987   1.997   4.613 -1.3156 -0.0728  1.6420
 7476SOL     OW34060   0.484   3.138   3.411  0.2606 -0.2658 -0.1671
 7476SOL    HW134061   0.407   3.165   3.362 -0.2586 -0.4783  0.5310
 7476SOL    HW234062   0.453   3.074   3.475 -0.7639  2.0364  1.6471
 7477SOL     OW34063   1.776   1.538   2.888 -0.1578  0.1093 -0.4493
 7477SOL    HW134064   1.818   1.453   2.906 -1.9488 -0.6298  0.1854
 7477SOL    HW234065   1.771   1.577   2.975  3.3297  0.8894 -0.5857
 7478SOL     OW34066   2.328   3.522   6.109 -0.4522 -0.2939 -0.5634
 7478SOL    HW134067   2.353   3.467   6.035 -0.1928  0.5837 -1.1229
 7478SOL    HW234068   2.319   3.608   6.068  1.9144  0.2871  0.1561
 7479SOL     OW34069   1.006   3.130  16.553 -0.1343 -0.4793 -0.3162
 7479SOL    HW134070   0.958   3.075  16.614 -1.0433  0.9673  0.2654
 7479SOL    HW234071   0.943   3.197  16.525 -1.6784 -1.9920 -0.4471
 7480SOL     OW34072   3.934   1.191   7.028  0.0492  0.7169 -0.4558
 7480SOL    HW134073   3.941   1.276   6.984 -1.6621  0.3249 -1.4966
 7480SOL    HW234074   3.851   1.206   7.074 -0.0996  1.7767 -1.0615
 7481SOL     OW34075   0.503   0.209  16.892  0.3824 -0.1292  0.1553
 7481SOL    HW134076   0.522   0.223  16.985 -0.2615  0.5551  0.1879
 7481SOL    HW234077   0.468   0.119  16.896 -0.2935  0.2261  2.2570
 7482SOL     OW34078   4.439   1.485  16.965 -0.4167 -0.5937  0.0199
 7482SOL    HW134079   4.366   1.491  17.026  0.6328 -3.0971  1.5468
 7482SOL    HW234080   4.507   1.482  17.033  0.5969 -3.0241 -1.0861
 7483SOL     OW34081   3.819   4.676   0.520  0.2583 -0.0906  0.2728
 7483SOL    HW134082   3.804   4.586   0.550 -0.5152 -0.4340 -1.1305
 7483SOL    HW234083   3.770   4.689   0.439  1.2090 -1.3030 -0.4914
 7484SOL     OW34084   3.761   2.425  12.289 -0.1797  0.4582  0.1165
 7484SOL    HW134085   3.750   2.381  12.204  1.1400 -0.2762  0.3247
 7484SOL    HW234086   3.713   2.364  12.344  0.7083  1.3637  1.8882
 7485SOL     OW34087   3.037   3.473  12.204 -0.0592 -0.3103  0.0830
 7485SOL    HW134088   3.109   3.519  12.245 -1.1038  1.9087 -0.5818
 7485SOL    HW234089   3.068   3.438  12.121 -0.6390  0.3711 -0.4225
 7486SOL     OW34090   1.851   0.920   2.746  0.3992 -0.0557  0.8608
 7486SOL    HW134091   1.780   0.974   2.712  1.9431  0.2858 -1.8696
 7486SOL    HW234092   1.812   0.833   2.736  2.0577 -0.7177  0.1282
 7487SOL     OW34093   4.263   4.477  14.386  0.4281 -0.0702  0.1251
 7487SOL    HW134094   4.357   4.487  14.375  0.2317  1.3292 -0.1753
 7487SOL    HW234095   4.234   4.563  14.357 -1.5411 -0.8367 -0.1948
 7488SOL     OW34096   1.775   2.295  13.967 -0.0674 -0.2120  0.2781
 7488SOL    HW134097   1.791   2.382  13.932  0.8331 -1.7759 -3.1556
 7488SOL    HW234098   1.704   2.257  13.915 -0.6897  1.9446 -0.4688
 7489SOL     OW34099   3.821   0.269   4.083 -0.4549  0.4766 -0.2014
 7489SOL    HW134100   3.789   0.204   4.145  0.1047 -0.9928 -1.4661
 7489SOL    HW234101   3.762   0.344   4.086 -0.2026  0.6869 -0.5083
 7490SOL     OW34102   2.064   4.255  11.359 -0.2581  0.0868 -0.2225
 7490SOL    HW134103   2.021   4.292  11.436 -0.6348 -0.1336 -0.3244
 7490SOL    HW234104   2.126   4.193  11.398 -0.0040  0.4203 -0.0993
 7491SOL     OW34105   1.127   2.674   5.635  0.6494  0.1439 -0.7057
 7491SOL    HW134106   1.212   2.631   5.647 -0.0929 -1.0005  0.4261
 7491SOL    HW234107   1.072   2.596   5.633 -0.2492  0.7572  0.9795
 7492SOL     OW34108   2.582   1.949   3.488  0.4791  0.5485 -0.1174
 7492SOL    HW134109   2.546   1.947   3.577  0.6906  2.2085 -0.0090
 7492SOL    HW234110   2.512   1.971   3.426 -0.6214  0.1031  0.9671
 7493SOL     OW34111   2.265   2.753   6.202  0.2163 -0.3410 -0.5302
 7493SOL    HW134112   2.345   2.784   6.158 -0.0111  0.2307 -0.5406
 7493SOL    HW234113   2.295   2.764   6.293  0.1902 -1.0139 -0.4376
 7494SOL     OW34114   2.479   1.732   9.181 -0.4698  0.2417  0.8479
 7494SOL    HW134115   2.448   1.819   9.208  1.2690  1.4578 -1.0568
 7494SOL    HW234116   2.451   1.670   9.248  2.4903 -2.0582 -0.0561
 7495SOL     OW34117   0.833   4.643   7.397 -0.0793  0.2256  0.3218
 7495SOL    HW134118   0.809   4.709   7.463 -1.7527  0.6551 -0.7207
 7495SOL    HW234119   0.848   4.564   7.448 -0.9622  1.2139  2.1392
 7496SOL     OW34120   4.119   0.581  15.413  0.0575 -0.0932 -0.1058
 7496SOL    HW134121   4.198   0.548  15.370 -0.2481 -1.6845  0.5917
 7496SOL    HW234122   4.142   0.674  15.422  1.0037 -0.3812  0.5052
 7497SOL     OW34123   4.385   4.424   5.039 -0.3674  0.4758  0.2610
 7497SOL    HW134124   4.392   4.520   5.036 -0.8747  0.5428  1.4040
 7497SOL    HW234125   4.291   4.414   5.054 -0.4102  1.4000  0.6458
 7498SOL     OW34126   0.375   3.929  11.709 -0.5784  0.0295 -1.1948
 7498SOL    HW134127   0.397   3.888  11.625  1.7698  1.3998 -1.2599
 7498SOL    HW234128   0.280   3.933  11.698 -1.1978 -1.0225  4.0518
 7499SOL     OW34129   4.102   4.160   5.414 -0.2638 -0.1353  0.3278
 7499SOL    HW134130   4.147   4.095   5.467 -1.3353 -1.0186  0.1497
 7499SOL    HW234131   4.105   4.112   5.331 -1.3633  0.8506 -0.2790
 7500SOL     OW34132   3.162   0.820   5.406 -0.2085 -0.2935 -0.7218
 7500SOL    HW134133   3.226   0.870   5.456 -1.1146 -1.9333  2.0867
 7500SOL    HW234134   3.128   0.778   5.485  0.6215 -0.8882 -0.6845
 7501SOL     OW34135   1.622   0.194   5.468 -0.1772  0.6075 -0.4382
 7501SOL    HW134136   1.660   0.110   5.443  0.3055  1.4098 -2.3549
 7501SOL    HW234137   1.656   0.263   5.412  2.0984  1.1659  1.5985
 7502SOL     OW34138   4.728   1.627   2.297  0.6610 -0.1329  0.6418
 7502SOL    HW134139   0.009   1.640   2.204  0.4760 -1.1993  0.4671
 7502SOL    HW234140   4.694   1.538   2.299 -1.6592  0.6815 -2.6070
 7503SOL     OW34141   4.381   4.301   5.366  0.3329  0.5809  0.6749
 7503SOL    HW134142   4.382   4.243   5.290  0.4016 -0.6962  1.6524
 7503SOL    HW234143   4.290   4.288   5.391  0.4804  1.4957  1.6842
 7504SOL     OW34144   0.629   0.520  16.206  0.3433  0.1298  0.4775
 7504SOL    HW134145   0.718   0.485  16.203 -0.1517 -1.0453 -0.4831
 7504SOL    HW234146   0.648   0.594  16.263 -0.4305 -0.0641  0.9968
 7505SOL     OW34147   2.354   0.565   3.700 -1.3085 -0.6241  0.0027
 7505SOL    HW134148   2.382   0.629   3.764  2.1714 -1.6635 -0.4791
 7505SOL    HW234149   2.422   0.581   3.634  0.2407  1.4994  2.1329
 7506SOL     OW34150   0.041   1.936  11.127 -0.0726 -0.2140 -0.1997
 7506SOL    HW134151   0.107   1.897  11.070  3.8101  2.0063  2.8460
 7506SOL    HW234152   0.005   2.007  11.073 -2.6024 -0.6451  0.9087
 7507SOL     OW34153   0.160   3.036   0.880  0.0447  0.2902 -0.2361
 7507SOL    HW134154   0.065   3.043   0.866 -0.1640 -1.1638  0.4385
 7507SOL    HW234155   0.173   2.951   0.922  2.7794  0.7552 -0.1262
 7508SOL     OW34156   1.522   4.542   2.995 -0.4519 -0.0925 -0.0086
 7508SOL    HW134157   1.478   4.520   2.913  0.7278 -0.4401 -0.5482
 7508SOL    HW234158   1.452   4.578   3.049 -0.9271  0.5146 -1.0150
 7509SOL     OW34159   0.997   0.420   6.476 -0.2957 -0.0745  0.1015
 7509SOL    HW134160   1.022   0.334   6.444  2.9612  1.3460 -1.1459
 7509SOL    HW234161   0.912   0.430   6.433 -0.1181  0.3948 -0.1385
 7510SOL     OW34162   1.990   1.608   5.515  0.1224  0.6824 -0.2208
 7510SOL    HW134163   1.988   1.557   5.434 -0.7114 -0.1287  0.3142
 7510SOL    HW234164   1.932   1.552   5.566  1.4070  0.8657  1.4200
 7511SOL     OW34165   2.417   2.317  15.492  0.0102  0.2793 -0.0528
 7511SOL    HW134166   2.360   2.393  15.478 -0.9518 -0.2088  1.1887
 7511SOL    HW234167   2.488   2.335  15.431  0.6945  1.0386  0.9571
 7512SOL     OW34168   2.815   3.910   1.820 -0.0588  0.1029  0.2346
 7512SOL    HW134169   2.878   3.968   1.778 -0.2683  1.4541  1.7701
 7512SOL    HW234170   2.730   3.948   1.794  1.4287 -0.0169 -4.7626
 7513SOL     OW34171   0.175   3.318   0.497 -0.5400  0.5374 -0.0268
 7513SOL    HW134172   0.118   3.381   0.452 -2.7662 -0.5037  1.3465
 7513SOL    HW234173   0.191   3.371   0.575  0.5262 -0.9572  0.7633
 7514SOL     OW34174   4.239   2.581  13.002  0.6448  0.0027 -0.2238
 7514SOL    HW134175   4.224   2.491  13.031  1.9351 -0.2927 -0.4462
 7514SOL    HW234176   4.151   2.617  13.006  0.2886 -0.8202 -0.5634
 7515SOL     OW34177   0.937   3.583  17.560 -0.0603 -0.3157 -0.1355
 7515SOL    HW134178   0.860   3.574  17.615 -0.0750 -0.2318 -0.1424
 7515SOL    HW234179   0.930   3.510  17.498  1.0746 -0.2740 -0.3154
 7516SOL     OW34180   3.486   2.667  15.819 -0.1832  0.0231 -0.1020
 7516SOL    HW134181   3.464   2.719  15.742 -1.1441 -0.8366 -0.4072
 7516SOL    HW234182   3.564   2.632  15.776 -0.4926 -1.7344  0.7676
 7517SOL     OW34183   0.155   1.460   8.725  0.2284 -0.3358 -0.3030
 7517SOL    HW134184   0.175   1.406   8.649  1.5387 -1.5436  0.8947
 7517SOL    HW234185   0.089   1.406   8.769 -2.1731  2.1302 -0.8775
 7518SOL     OW34186   3.010   2.966   8.651  0.3772 -0.1825 -0.3733
 7518SOL    HW134187   3.054   2.889   8.688  1.1658  0.5979  0.3059
 7518SOL    HW234188   2.956   2.919   8.588 -0.1670  3.5317 -2.6568
 7519SOL     OW34189   4.229   3.748   1.669  0.4503  0.0409  0.3439
 7519SOL    HW134190   4.224   3.841   1.649 -3.2392  0.2504  2.2608
 7519SOL    HW234191   4.287   3.722   1.598 -1.4651  0.6145 -1.4193
 7520SOL     OW34192   0.231   4.636  12.149 -0.9844  0.3422 -1.0539
 7520SOL    HW134193   0.294   4.574  12.111  0.0667  2.7501 -3.2395
 7520SOL    HW234194   0.148   4.595  12.122  0.0696 -0.4644 -3.1018
 7521SOL     OW34195   3.033   1.610   4.402 -0.2059  0.9817  0.0604
 7521SOL    HW134196   2.998   1.528   4.437  1.1840  0.1195 -0.5800
 7521SOL    HW234197   2.952   1.660   4.393 -1.9463 -2.1030 -1.4578
 7522SOL     OW34198   1.942   0.602   3.497  0.2568 -0.2689  0.4338
 7522SOL    HW134199   1.916   0.556   3.577  2.3001 -1.3368  0.4639
 7522SOL    HW234200   2.012   0.662   3.524 -0.0534  0.4836 -0.4186
 7523SOL     OW34201   4.174   1.622   6.469  0.1597 -0.6818  0.0912
 7523SOL    HW134202   4.182   1.549   6.529 -2.6860 -1.2303 -0.1878
 7523SOL    HW234203   4.089   1.654   6.499  0.1680  0.8048 -1.4526
 7524SOL     OW34204   1.013   2.160  13.446 -0.4953 -0.2594 -0.5186
 7524SOL    HW134205   0.982   2.222  13.380 -1.3237  0.5272  0.6235
 7524SOL    HW234206   0.941   2.098  13.442  0.4255 -1.3083 -0.9092
 7525SOL     OW34207   1.253   0.392   5.727  0.1612 -0.3655 -0.1846
 7525SOL    HW134208   1.324   0.341   5.767  0.0925  0.5263  1.0603
 7525SOL    HW234209   1.235   0.329   5.657  0.9343  0.9552 -1.5652
 7526SOL     OW34210   4.484   3.851   6.090  0.0302  0.1547  0.4757
 7526SOL    HW134211   4.390   3.869   6.086 -0.3354 -1.5853  1.1517
 7526SOL    HW234212   4.494   3.757   6.108 -1.0132 -0.0703 -0.1435
 7527SOL     OW34213   4.692   1.375   5.217  0.5738 -0.4282 -0.9083
 7527SOL    HW134214   0.042   1.416   5.214  0.1471  0.6005  1.0605
 7527SOL    HW234215   4.728   1.287   5.206 -0.4973 -1.4529  3.5289
 7528SOL     OW34216   4.604   1.977   4.822  0.1998  0.3983 -0.0555
 7528SOL    HW134217   4.546   2.049   4.799 -0.3547 -0.7036 -2.0328
 7528SOL    HW234218   4.666   2.019   4.882  0.9192  0.4042 -0.7972
 7529SOL     OW34219   1.357   3.383   8.892 -0.4243  0.2731  0.0578
 7529SOL    HW134220   1.267   3.372   8.859 -1.3653  1.1940  2.2887
 7529SOL    HW234221   1.354   3.349   8.981 -0.9302 -2.1793 -0.9177
 7530SOL     OW34222   2.790   4.318   9.126  0.0627 -0.2515  0.2626
 7530SOL    HW134223   2.874   4.304   9.084  0.5828 -0.7909  1.4882
 7530SOL    HW234224   2.779   4.232   9.167 -1.5192 -0.2796 -0.2266
 7531SOL     OW34225   4.341   3.393   4.849 -0.0700  0.3903  0.6132
 7531SOL    HW134226   4.394   3.404   4.769  0.1152  1.3594  0.8590
 7531SOL    HW234227   4.282   3.323   4.823  1.7527 -0.5121 -1.1885
 7532SOL     OW34228   1.608   4.658   8.708 -0.7641  0.0697  0.1608
 7532SOL    HW134229   1.616   4.656   8.803  3.3839 -1.9722 -0.2428
 7532SOL    HW234230   1.691   4.625   8.673 -0.1238 -1.4545  3.0735
 7533SOL     OW34231   1.832   1.062   6.648 -0.1245  0.5220 -0.2850
 7533SOL    HW134232   1.752   1.064   6.596  2.3217  0.2588 -4.0215
 7533SOL    HW234233   1.900   1.077   6.582  0.1901 -0.2913 -0.1461
 7534SOL     OW34234   1.727   0.954   8.126  0.2244 -0.0814 -0.6529
 7534SOL    HW134235   1.823   0.954   8.131  0.1354 -1.9358  0.6835
 7534SOL    HW234236   1.699   1.042   8.151 -2.6667 -0.7558 -1.5133
 7535SOL     OW34237   3.939   3.375   0.519 -0.5261  0.2298  0.0938
 7535SOL    HW134238   3.997   3.404   0.589  1.5631 -2.3187 -0.6257
 7535SOL    HW234239   3.864   3.434   0.512 -2.9437 -2.8420  0.0173
 7536SOL     OW34240   1.299   4.539   7.734 -0.0180  0.5654  0.0831
 7536SOL    HW134241   1.285   4.602   7.805 -0.0670  0.9633 -0.2748
 7536SOL    HW234242   1.241   4.580   7.670  0.0077  0.1315 -0.2113
 7537SOL     OW34243   2.636   4.315  17.315 -0.5823 -0.4798  0.1999
 7537SOL    HW134244   2.663   4.386  17.257 -0.7845  0.0393  0.7475
 7537SOL    HW234245   2.627   4.242  17.254 -4.0642  1.0560 -1.1152
 7538SOL     OW34246   4.596   0.609   6.921 -0.3908  0.3472  0.3617
 7538SOL    HW134247   4.682   0.609   6.881 -1.6250 -0.0349 -2.3247
 7538SOL    HW234248   4.616   0.567   7.005  3.0373 -0.1444 -0.7273
 7539SOL     OW34249   2.857   4.253   3.549 -0.4396 -0.0730 -0.0834
 7539SOL    HW134250   2.934   4.198   3.561 -1.6056 -1.7650 -0.4039
 7539SOL    HW234251   2.784   4.192   3.561  1.1181 -1.6859  1.1745
 7540SOL     OW34252   1.933   2.394   7.517 -0.0610 -0.3355  0.2558
 7540SOL    HW134253   1.996   2.322   7.527 -1.4841 -1.7900 -1.2473
 7540SOL    HW234254   1.930   2.410   7.423 -0.5349 -0.4902  0.2429
 7541SOL     OW34255   2.918   4.651   7.328  0.0582  0.1058 -0.9943
 7541SOL    HW134256   2.992   4.702   7.295  0.6902 -1.5537 -2.1234
 7541SOL    HW234257   2.847   4.679   7.270 -0.7153  0.9191  0.3423
 7542SOL     OW34258   3.366   0.179   5.080  0.2795  0.4203 -0.2881
 7542SOL    HW134259   3.448   0.216   5.113  1.2237 -2.6028  0.7315
 7542SOL    HW234260   3.365   0.232   5.000 -2.2819  1.2241  0.2782
 7543SOL     OW34261   1.298   2.122   1.265  0.7722 -0.1497 -0.1358
 7543SOL    HW134262   1.255   2.046   1.306  0.7844 -0.2179 -0.2482
 7543SOL    HW234263   1.231   2.190   1.271  0.9558 -0.0451  0.7141
 7544SOL     OW34264   1.502   3.209  12.513  0.2484  0.2741 -0.3175
 7544SOL    HW134265   1.453   3.288  12.492  0.9898  0.5862 -0.8860
 7544SOL    HW234266   1.469   3.144  12.451 -2.1109 -0.1772  1.4071
 7545SOL     OW34267   2.723   2.431  10.168 -0.0189  0.2627  0.1543
 7545SOL    HW134268   2.782   2.442  10.243  2.0196 -1.7749 -1.1590
 7545SOL    HW234269   2.779   2.442  10.091 -0.1132  2.1324  0.3515
 7546SOL     OW34270   1.021   0.790   1.984  0.1194 -0.5287 -0.8244
 7546SOL    HW134271   1.051   0.881   1.978  1.8632 -1.1570 -1.7267
 7546SOL    HW234272   0.931   0.799   1.955 -0.7935 -0.8292  1.8759
 7547SOL     OW34273   1.505   0.296   5.861  0.1634  0.4331  0.1980
 7547SOL    HW134274   1.559   0.363   5.819 -1.3894  2.1874  1.0062
 7547SOL    HW234275   1.511   0.333   5.949 -1.4901 -0.4319  0.6747
 7548SOL     OW34276   4.600   0.410   7.874  0.3003 -0.1335  0.4034
 7548SOL    HW134277   4.610   0.397   7.968  0.0129  0.7931  0.5661
 7548SOL    HW234278   4.625   0.322   7.847  2.9887  0.5800  0.4900
 7549SOL     OW34279   0.523   4.315   6.258 -0.5589  0.0455  0.1982
 7549SOL    HW134280   0.453   4.270   6.305 -2.5640  1.6532 -1.2797
 7549SOL    HW234281   0.598   4.267   6.293 -0.5826 -0.2450 -0.1567
 7550SOL     OW34282   0.063   3.373   6.029 -0.1525 -0.2814 -0.0000
 7550SOL    HW134283   0.136   3.323   5.993  0.8276 -0.1863  1.8176
 7550SOL    HW234284   0.003   3.371   5.955 -0.9352  2.5310  0.5635
 7551SOL     OW34285   2.611   4.472   9.628 -0.2640 -0.0809 -0.0456
 7551SOL    HW134286   2.659   4.553   9.614  1.4388 -0.6218  2.7045
 7551SOL    HW234287   2.525   4.507   9.651 -0.4955 -0.0725 -0.9464
 7552SOL     OW34288   3.554   3.134   2.071 -0.1377 -0.1549 -0.1539
 7552SOL    HW134289   3.625   3.166   2.127  0.9337 -0.1465 -1.5056
 7552SOL    HW234290   3.577   3.191   1.997  2.4435 -0.8586  0.0866
 7553SOL     OW34291   1.729   1.313   5.181  0.5450  0.5726  0.5364
 7553SOL    HW134292   1.678   1.232   5.185  0.3452  0.6480 -0.5068
 7553SOL    HW234293   1.659   1.375   5.201 -1.2363 -2.0255  2.3895
 7554SOL     OW34294   0.044   3.439   2.012  0.3568  0.0064  0.2465
 7554SOL    HW134295   0.020   3.497   1.940  1.3854  0.4686  0.2701
 7554SOL    HW234296   0.140   3.445   2.018  0.3652 -0.2247  0.3484
 7555SOL     OW34297   1.783   1.097   1.763 -0.0386  0.6367  0.5067
 7555SOL    HW134298   1.709   1.142   1.804 -1.6305 -2.4610  1.0165
 7555SOL    HW234299   1.823   1.176   1.726  1.0795 -0.1707 -0.0041
 7556SOL     OW34300   0.087   1.707  17.010 -0.7587 -0.1102  0.1628
 7556SOL    HW134301   0.131   1.625  17.031 -0.2353 -0.2994 -1.6894
 7556SOL    HW234302   0.143   1.760  17.066  1.5217 -4.2726  1.8570
 7557SOL     OW34303   1.439   1.784   3.990  0.0712  0.2530  0.0598
 7557SOL    HW134304   1.532   1.765   3.979  0.2114 -0.3655  2.3042
 7557SOL    HW234305   1.435   1.878   4.003  0.4501  0.4803 -1.5463
 7558SOL     OW34306   1.409   0.004   4.378  0.1027  0.2952 -0.0284
 7558SOL    HW134307   1.465   4.663   4.378  2.0596  1.7318 -1.8292
 7558SOL    HW234308   1.329   4.698   4.345 -0.8417  1.9406  0.1222
 7559SOL     OW34309   1.429   3.867   2.916 -0.1597  0.0874  0.2133
 7559SOL    HW134310   1.472   3.933   2.971  0.6479  0.3634 -0.7357
 7559SOL    HW234311   1.505   3.811   2.901 -1.3932 -0.9225 -2.1976
 7560SOL     OW34312   2.377   3.881  13.974  0.6746 -0.0342  0.2011
 7560SOL    HW134313   2.348   3.793  13.998  1.3568 -0.3685 -0.1934
 7560SOL    HW234314   2.353   3.930  14.053 -0.1113  1.5113 -0.9893
 7561SOL     OW34315   1.178   2.563   7.087  0.4366  0.4464  0.0953
 7561SOL    HW134316   1.272   2.570   7.100  0.2609  1.4095  0.7895
 7561SOL    HW234317   1.175   2.467   7.081 -0.0909  0.3964  1.1626
 7562SOL     OW34318   4.481   0.045   8.511  0.1061  0.0365  0.2616
 7562SOL    HW134319   4.395   0.067   8.475 -0.0846  1.0171  1.3356
 7562SOL    HW234320   4.464   4.714   8.577  0.7303 -1.0055 -0.6293
 7563SOL     OW34321   1.368   2.147   5.376 -0.6019  0.1287 -0.1830
 7563SOL    HW134322   1.454   2.161   5.416  1.3968 -3.1412 -3.2906
 7563SOL    HW234323   1.358   2.228   5.327 -1.6489  0.3858  0.4707
 7564SOL     OW34324   2.315   2.172  10.935  0.2114 -0.0913  0.5070
 7564SOL    HW134325   2.405   2.207  10.929 -0.6594  2.3702  1.8062
 7564SOL    HW234326   2.258   2.249  10.935 -0.0904 -0.3171  0.0547
 7565SOL     OW34327   4.685   1.896   5.240  0.5496 -0.4598 -0.5604
 7565SOL    HW134328   4.593   1.900   5.212 -0.1797  0.0899  1.9052
 7565SOL    HW234329   4.729   1.950   5.174  0.6547  1.4820  1.1115
 7566SOL     OW34330   4.659   1.196  13.995 -0.7142 -0.6612  0.1835
 7566SOL    HW134331   4.624   1.122  13.947  1.2078 -0.5165 -1.4649
 7566SOL    HW234332   0.010   1.202  13.955 -1.1844  0.5608 -0.6584
 7567SOL     OW34333   3.600   3.533   0.250 -0.1541 -0.1898 -0.0031
 7567SOL    HW134334   3.675   3.476   0.229  2.1583  2.3433  1.4131
 7567SOL    HW234335   3.537   3.470   0.284 -0.9745  0.5873 -0.0838
 7568SOL     OW34336   0.569   2.313   6.670 -0.3739 -0.1548  0.5635
 7568SOL    HW134337   0.564   2.293   6.576 -4.0064 -1.3621  1.0531
 7568SOL    HW234338   0.639   2.379   6.667 -1.5315  0.9917 -1.3254
 7569SOL     OW34339   2.868   3.317  11.857 -0.3805 -0.2098 -0.0976
 7569SOL    HW134340   2.854   3.326  11.951 -0.8648  0.8432 -0.2739
 7569SOL    HW234341   2.788   3.348  11.815 -1.4875  0.3882  2.4527
 7570SOL     OW34342   2.905   4.321   4.944 -0.0064 -0.1395 -0.4853
 7570SOL    HW134343   2.930   4.242   4.992 -0.5290 -0.1577 -0.2373
 7570SOL    HW234344   2.987   4.369   4.950  1.0703 -2.0590  0.0486
 7571SOL     OW34345   2.688   1.954   4.671  0.3996  0.3105  0.1680
 7571SOL    HW134346   2.750   1.882   4.675 -0.0624 -0.1932 -1.7578
 7571SOL    HW234347   2.744   2.008   4.616  1.3026  0.7511  1.5205
 7572SOL     OW34348   1.230   3.154  14.066 -0.1780  0.1220  0.5921
 7572SOL    HW134349   1.136   3.143  14.079 -0.0853 -1.4914 -0.0747
 7572SOL    HW234350   1.253   3.124  13.978  1.9795  1.1666  0.8001
 7573SOL     OW34351   3.528   3.353  10.866 -0.0537 -0.8729 -0.0017
 7573SOL    HW134352   3.538   3.352  10.962  2.9461 -0.5729 -0.3194
 7573SOL    HW234353   3.558   3.264  10.847  0.1176 -0.3618 -2.1061
 7574SOL     OW34354   1.245   1.590   2.132 -0.2820 -0.3965 -0.2738
 7574SOL    HW134355   1.249   1.685   2.133  0.8921 -0.4486  3.1859
 7574SOL    HW234356   1.335   1.567   2.157 -0.3375 -0.5826 -0.2403
 7575SOL     OW34357   1.395   2.370   9.624  0.3858  0.3404  0.2461
 7575SOL    HW134358   1.367   2.282   9.597 -1.3323  0.6646  0.9762
 7575SOL    HW234359   1.462   2.345   9.688  1.2713 -1.7853 -1.4722
 7576SOL     OW34360   0.723   1.359   9.939  0.2125  0.4493 -0.7911
 7576SOL    HW134361   0.664   1.434   9.946  0.9518  0.8674  1.0526
 7576SOL    HW234362   0.683   1.316   9.864  1.3983  0.6429 -1.5253
 7577SOL     OW34363   2.322   3.609   4.239  0.0031 -0.3035  0.4590
 7577SOL    HW134364   2.417   3.593   4.238  0.1372  0.4750 -0.1359
 7577SOL    HW234365   2.313   3.650   4.325  1.5219  1.2903 -0.1317
 7578SOL     OW34366   3.546   1.176   7.837  0.5133 -0.2737 -0.0057
 7578SOL    HW134367   3.564   1.245   7.900  0.4700 -1.1837  0.9937
 7578SOL    HW234368   3.519   1.233   7.765 -1.7688  0.3325  1.3327
 7579SOL     OW34369   3.988   3.223   5.219 -0.7388  0.7312  0.3191
 7579SOL    HW134370   4.041   3.239   5.297 -0.5292  0.0186  0.3150
 7579SOL    HW234371   4.011   3.299   5.166  2.3654 -0.0152  0.5737
 7580SOL     OW34372   3.716   4.318   7.543  0.2788 -0.4378  0.7049
 7580SOL    HW134373   3.777   4.245   7.533  0.8257  0.1186 -0.0203
 7580SOL    HW234374   3.791   4.377   7.547 -1.1834  1.3752  1.3813
 7581SOL     OW34375   2.677   2.772   2.459 -0.2638  0.1131  0.1610
 7581SOL    HW134376   2.723   2.795   2.378  2.7651  1.2568  2.2208
 7581SOL    HW234377   2.735   2.699   2.481 -0.2544  0.3383  0.8829
 7582SOL     OW34378   4.013   0.679   8.730 -0.2600  0.4247 -0.0643
 7582SOL    HW134379   4.016   0.694   8.825  2.5721 -1.7220  0.2137
 7582SOL    HW234380   4.097   0.720   8.708 -0.3914  1.0092  0.5242
 7583SOL     OW34381   2.342   0.272   2.396 -0.0534  0.2203 -0.2187
 7583SOL    HW134382   2.253   0.306   2.382  0.0718 -0.3037 -2.2163
 7583SOL    HW234383   2.347   0.219   2.317  0.0884  0.0500 -0.0967
 7584SOL     OW34384   2.777   0.896   1.784 -0.7909 -0.5973  0.1675
 7584SOL    HW134385   2.852   0.885   1.842 -0.0319 -1.8376 -1.0634
 7584SOL    HW234386   2.813   0.903   1.696 -1.1193  1.2617  0.1797
 7585SOL     OW34387   4.336   1.391   4.802 -0.0748  0.4002  0.1042
 7585SOL    HW134388   4.272   1.393   4.873 -0.1205  0.1643  0.0700
 7585SOL    HW234389   4.406   1.451   4.829  1.0818 -1.3585  1.0696
 7586SOL     OW34390   1.491   1.884   6.072  0.3288 -0.0553  0.2446
 7586SOL    HW134391   1.398   1.873   6.088  0.6936 -1.5119  1.3096
 7586SOL    HW234392   1.493   1.909   5.979 -0.7753 -2.0227 -0.3079
 7587SOL     OW34393   3.750   2.489   0.949 -0.0569 -0.0037  0.6260
 7587SOL    HW134394   3.794   2.517   0.868  1.7797  0.4457  1.7798
 7587SOL    HW234395   3.672   2.446   0.914  0.0150 -0.3421  0.8796
 7588SOL     OW34396   0.658   2.317   4.581  0.5285 -0.5003  0.5719
 7588SOL    HW134397   0.671   2.353   4.493 -0.1162  0.4151  0.8568
 7588SOL    HW234398   0.565   2.322   4.601  0.3045  1.7243 -1.1075
 7589SOL     OW34399   3.280   1.420   8.095 -0.0551 -0.4876  0.2665
 7589SOL    HW134400   3.353   1.473   8.063 -0.4295 -0.3727 -0.4159
 7589SOL    HW234401   3.205   1.448   8.042 -0.6225 -2.4605  0.0366
 7590SOL     OW34402   2.767   4.579   4.357  0.3802 -0.2483  0.2504
 7590SOL    HW134403   2.760   4.581   4.452 -0.5188 -0.4990  0.1947
 7590SOL    HW234404   2.731   4.492   4.339  1.3073  0.0602 -3.1127
 7591SOL     OW34405   3.829   1.362   0.296 -0.2759  0.3418 -0.2110
 7591SOL    HW134406   3.879   1.337   0.374 -0.1304  0.5149 -0.2498
 7591SOL    HW234407   3.777   1.282   0.293 -0.5014  0.4359  1.2972
 7592SOL     OW34408   1.590   1.736  15.529 -0.5277  0.5814 -0.0849
 7592SOL    HW134409   1.519   1.800  15.538 -1.3481 -0.5411  1.3320
 7592SOL    HW234410   1.624   1.757  15.442  0.0080 -3.3796 -0.7944
 7593SOL     OW34411   4.372   1.398   5.535  0.0571 -0.4039 -0.6713
 7593SOL    HW134412   4.331   1.418   5.619  0.0883 -1.4942 -0.4081
 7593SOL    HW234413   4.450   1.348   5.556 -0.8957 -1.1269  1.1241
 7594SOL     OW34414   3.519   2.761   5.256 -0.6812 -0.3753 -0.1318
 7594SOL    HW134415   3.507   2.703   5.332  0.2044 -0.3502  0.0229
 7594SOL    HW234416   3.601   2.723   5.223  0.6438  2.1775  0.2137
 7595SOL     OW34417   0.849   4.535   5.185 -0.2917  0.1146  0.3644
 7595SOL    HW134418   0.755   4.544   5.169 -0.1577 -0.5205 -0.8242
 7595SOL    HW234419   0.861   4.452   5.138  0.7606  0.4152  0.1141
 7596SOL     OW34420   2.463   3.526  15.401  0.6046 -0.0700  0.1980
 7596SOL    HW134421   2.483   3.451  15.345  2.4223  0.3055  0.3370
 7596SOL    HW234422   2.528   3.518  15.470  1.4526  0.6519 -0.5101
 7597SOL     OW34423   4.568   2.491   2.987  0.1498 -0.2724 -0.0769
 7597SOL    HW134424   4.501   2.476   2.921  0.8281 -0.0788 -0.8169
 7597SOL    HW234425   4.643   2.521   2.936 -0.0276  1.1683  0.5075
 7598SOL     OW34426   0.470   3.989  10.520  0.5856  0.1218  0.5838
 7598SOL    HW134427   0.442   3.906  10.558  0.3053 -0.5802 -1.1475
 7598SOL    HW234428   0.519   4.030  10.592  1.0490  0.8150 -0.1267
 7599SOL     OW34429   1.169   4.470   4.548  0.4676  0.1376  0.4145
 7599SOL    HW134430   1.084   4.486   4.589 -0.7060  0.5472 -2.1932
 7599SOL    HW234431   1.143   4.474   4.456  0.2455 -1.6628  0.4048
 7600SOL     OW34432   0.933   1.053   9.237  0.4514 -0.2410  0.3739
 7600SOL    HW134433   1.022   1.036   9.207  0.5618 -1.1261  1.1979
 7600SOL    HW234434   0.906   0.962   9.246  1.2392 -0.2836  2.3473
 7601SOL     OW34435   0.929   2.366  13.251  0.2474  0.6184  0.3126
 7601SOL    HW134436   0.934   2.454  13.212 -0.0893  0.1709 -0.7495
 7601SOL    HW234437   0.851   2.326  13.211 -0.7141  0.6898  2.1240
 7602SOL     OW34438   0.398   1.320  17.564 -0.2185  0.0439 -0.7389
 7602SOL    HW134439   0.328   1.377  17.531 -1.8491 -1.2289  0.5188
 7602SOL    HW234440   0.468   1.382  17.581  0.6879 -1.3628  0.6267
 7603SOL     OW34441   3.407   2.066   4.133 -0.8652  0.0946  0.2877
 7603SOL    HW134442   3.468   2.003   4.170 -1.4548 -1.1854 -0.9000
 7603SOL    HW234443   3.394   2.034   4.043 -1.4485  0.7803  0.1278
 7604SOL     OW34444   2.257   4.636  15.653 -0.0079  0.8939 -0.2901
 7604SOL    HW134445   2.241   4.723  15.688 -0.8008  0.8354 -0.5306
 7604SOL    HW234446   2.206   4.638  15.573 -1.5301  1.2252  0.6965
 7605SOL     OW34447   2.952   4.082  11.023 -0.0573 -0.1566  0.1085
 7605SOL    HW134448   2.982   4.124  10.943 -0.1518  0.7750  0.5571
 7605SOL    HW234449   3.028   4.027  11.043  0.9209  0.4355 -2.0556
 7606SOL     OW34450   0.626   4.115   5.475  0.3957  0.0330 -0.7492
 7606SOL    HW134451   0.678   4.062   5.535  0.7311  2.5321  1.2028
 7606SOL    HW234452   0.696   4.173   5.443 -1.3365  2.4477 -0.1914
 7607SOL     OW34453   3.749   2.849  15.152  0.1262  0.2742 -0.1253
 7607SOL    HW134454   3.744   2.934  15.109 -1.6851  0.0408 -0.3926
 7607SOL    HW234455   3.808   2.871  15.223 -0.8850 -1.8391  1.3681
 7608SOL     OW34456   2.081   2.688   8.870  0.0598 -0.2942 -0.1983
 7608SOL    HW134457   2.024   2.765   8.881  2.8803  1.6062  1.1615
 7608SOL    HW234458   2.126   2.683   8.954 -2.1039  0.1174  0.9760
 7609SOL     OW34459   3.624   1.136   6.758 -0.4155  0.1863  0.0198
 7609SOL    HW134460   3.668   1.220   6.765 -0.9383  0.5576 -1.1324
 7609SOL    HW234461   3.586   1.117   6.844  1.2992  0.0472  0.7513
 7610SOL     OW34462   4.645   0.983   6.930 -0.1683  0.1643  0.3861
 7610SOL    HW134463   4.569   0.941   6.971 -0.1965 -1.9751 -1.8887
 7610SOL    HW234464   4.721   0.968   6.986 -0.5829  0.1299  0.9431
 7611SOL     OW34465   4.387   3.520   6.727  0.1005 -0.5750 -0.2778
 7611SOL    HW134466   4.413   3.609   6.705  0.0119 -0.7418 -1.0459
 7611SOL    HW234467   4.317   3.542   6.789  0.3664 -0.0921 -0.1471
 7612SOL     OW34468   2.892   4.732   7.676  0.6428 -0.0219 -0.1844
 7612SOL    HW134469   2.900   4.639   7.698  1.2572  0.0900  0.0374
 7612SOL    HW234470   2.964   0.003   7.613  1.5718 -1.5771  0.7317
 7613SOL     OW34471   2.064   0.970  13.093 -0.1798  0.4264  0.1031
 7613SOL    HW134472   2.054   0.949  13.185 -1.1228  0.5354  0.0247
 7613SOL    HW234473   2.112   0.897  13.054  0.0829  0.5407  0.2133
 7614SOL     OW34474   0.035   1.932   2.160  0.1686  0.3163 -0.0205
 7614SOL    HW134475   0.035   1.843   2.126 -1.5011 -0.8093  2.9683
 7614SOL    HW234476   0.089   1.926   2.239 -1.8173  0.1059  1.3231
 7615SOL     OW34477   3.123   2.562   5.289 -0.3402 -0.6932 -0.1193
 7615SOL    HW134478   3.031   2.564   5.263 -0.1974  0.5835 -0.5417
 7615SOL    HW234479   3.123   2.516   5.373  1.3229  2.1982  1.4688
 7616SOL     OW34480   3.495   2.481   3.647 -0.7173  0.2220 -0.3562
 7616SOL    HW134481   3.589   2.468   3.657 -0.6867  1.8479  1.6724
 7616SOL    HW234482   3.463   2.414   3.708 -1.0208 -1.4641 -2.3829
 7617SOL     OW34483   4.029   4.361   3.456 -0.5756 -0.1947 -0.5205
 7617SOL    HW134484   4.108   4.406   3.426 -1.8929  1.0258 -2.1082
 7617SOL    HW234485   4.056   4.349   3.547  1.0286  0.1346 -0.9424
 7618SOL     OW34486   0.354   2.265  17.437  0.1366  1.0965  0.5730
 7618SOL    HW134487   0.353   2.271  17.532 -2.2425  1.5786  0.5294
 7618SOL    HW234488   0.446   2.270  17.413  0.1475  2.6697  0.9664
 7619SOL     OW34489   1.840   4.252   0.170  0.2294 -0.2147 -0.1494
 7619SOL    HW134490   1.783   4.301   0.229  1.8989  2.0650 -0.4635
 7619SOL    HW234491   1.884   4.212   0.245  0.6426  1.4313  0.4891
 7620SOL     OW34492   1.481   1.434  12.874 -0.1915 -0.0995  0.1187
 7620SOL    HW134493   1.395   1.411  12.839 -0.1918 -0.9794  0.6933
 7620SOL    HW234494   1.454   1.454  12.963  0.8901 -0.8256  0.6073
 7621SOL     OW34495   1.454   3.776   5.380  0.2389 -0.3006 -0.4337
 7621SOL    HW134496   1.460   3.869   5.357 -0.2081 -0.0157  0.6188
 7621SOL    HW234497   1.387   3.738   5.322 -0.5814  0.2420  0.1559
 7622SOL     OW34498   0.889   1.931   8.597 -0.3250  0.2355  0.2130
 7622SOL    HW134499   0.794   1.932   8.610 -0.4072  0.0590 -0.3847
 7622SOL    HW234500   0.895   1.915   8.503 -2.3317  0.1401  0.1066
 7623SOL     OW34501   4.610   1.235   4.596  0.1320  0.2186 -0.1161
 7623SOL    HW134502   4.653   1.291   4.661  1.7641 -1.5566  0.3322
 7623SOL    HW234503   4.582   1.165   4.656  0.8130  1.2129  1.3641
 7624SOL     OW34504   2.342   3.060  12.049  0.4480  0.1997 -0.0902
 7624SOL    HW134505   2.340   2.965  12.041 -0.6346  0.2043  0.1046
 7624SOL    HW234506   2.383   3.067  12.135  1.3203 -3.0174 -0.2717
 7625SOL     OW34507   2.206   3.013   8.659  0.0341 -0.3303  0.0800
 7625SOL    HW134508   2.162   3.072   8.720  2.3925  0.6557  0.8525
 7625SOL    HW234509   2.284   3.068   8.649  0.9026 -1.7815 -1.1377
 7626SOL     OW34510   2.386   2.225   4.553 -1.3408  0.8628 -0.1656
 7626SOL    HW134511   2.394   2.174   4.472 -1.6232  0.3376  0.1391
 7626SOL    HW234512   2.472   2.261   4.575 -0.5855 -0.4791 -0.9307
 7627SOL     OW34513   1.919   2.543  12.195  0.0754  0.1766 -0.6953
 7627SOL    HW134514   1.941   2.457  12.161 -0.5531 -0.6258  0.9294
 7627SOL    HW234515   1.829   2.546  12.162  0.0679  0.4038 -0.6588
 7628SOL     OW34516   2.740   3.109   2.784  0.4949 -0.0905 -0.0335
 7628SOL    HW134517   2.730   3.181   2.846  2.5995 -0.1429  0.3723
 7628SOL    HW234518   2.834   3.124   2.768 -0.2304  1.4242 -2.9917
 7629SOL     OW34519   3.265   0.046   4.273  0.1756  0.6453 -0.6394
 7629SOL    HW134520   3.356   0.026   4.252 -0.2000 -1.0114 -0.6780
 7629SOL    HW234521   3.232   0.063   4.185 -1.0881 -3.1375 -0.8712
 7630SOL     OW34522   0.633   1.058   5.864  0.3386 -0.1407  0.1667
 7630SOL    HW134523   0.709   1.107   5.897 -0.2579  1.5152 -0.8968
 7630SOL    HW234524   0.582   1.047   5.944  0.9701 -1.7303  0.3442
 7631SOL     OW34525   1.809   2.315   0.117  0.5025 -0.4412  0.2800
 7631SOL    HW134526   1.794   2.255   0.044  0.3962 -0.5273  0.3734
 7631SOL    HW234527   1.730   2.305   0.170 -1.2264  2.3527 -1.7689
 7632SOL     OW34528   1.954   4.118   4.079 -0.0207  0.4039  0.1670
 7632SOL    HW134529   2.021   4.184   4.060 -0.7444  1.1989  0.3522
 7632SOL    HW234530   2.010   4.066   4.136 -1.6595 -1.5359  0.0118
 7633SOL     OW34531   3.842   3.856   5.714 -0.0657  0.1662 -0.0488
 7633SOL    HW134532   3.749   3.856   5.733  0.0512 -0.4835  0.5094
 7633SOL    HW234533   3.837   3.909   5.635  0.7301  0.1326 -0.1242
 7634SOL     OW34534   3.563   1.522   5.013 -0.0678 -0.4686 -0.4681
 7634SOL    HW134535   3.615   1.565   4.945  0.1371  0.4950  0.2898
 7634SOL    HW234536   3.566   1.431   4.986  1.2384 -0.4433 -0.4119
 7635SOL     OW34537   0.908   2.256   6.121  0.4718  0.2504  0.0822
 7635SOL    HW134538   0.982   2.218   6.168 -0.1196  1.2632  1.7995
 7635SOL    HW234539   0.828   2.245   6.172  0.7112  1.1722  0.6372
 7636SOL     OW34540   2.809   1.777   7.051  0.0383 -0.2142 -0.1422
 7636SOL    HW134541   2.762   1.838   7.108  1.5436  0.4165  0.4024
 7636SOL    HW234542   2.747   1.749   6.983 -0.7892 -0.0245  0.5318
 7637SOL     OW34543   4.082   2.818  15.360 -0.4772 -0.2676 -0.5448
 7637SOL    HW134544   4.123   2.736  15.384  1.6984  1.2268  0.8448
 7637SOL    HW234545   3.996   2.805  15.400 -1.1174 -0.5376 -1.9956
 7638SOL     OW34546   2.466   3.727   4.988 -0.6403 -0.5682  0.0603
 7638SOL    HW134547   2.411   3.769   5.054  0.7082 -0.9129  1.3954
 7638SOL    HW234548   2.556   3.748   5.010 -1.4423  3.8483 -0.7032
 7639SOL     OW34549   2.019   3.062  16.367  0.0881 -0.3064  0.4089
 7639SOL    HW134550   2.079   3.085  16.297 -1.1833 -1.5063 -1.0655
 7639SOL    HW234551   2.049   3.122  16.436  1.1571 -0.8348  0.4092
 7640SOL     OW34552   4.155   0.592   9.166 -0.0639  0.0487 -0.3419
 7640SOL    HW134553   4.122   0.504   9.184 -0.1229 -0.0187 -0.7717
 7640SOL    HW234554   4.102   0.639   9.230  0.3431  0.7785 -0.5309
 7641SOL     OW34555   3.935   2.422   7.248  0.5436  0.5173  0.0502
 7641SOL    HW134556   4.022   2.447   7.281  0.8779 -1.3115  0.5916
 7641SOL    HW234557   3.956   2.359   7.178 -1.5374  1.1891 -1.1487
 7642SOL     OW34558   2.818   3.787   2.466 -0.2090 -0.0290  0.1833
 7642SOL    HW134559   2.912   3.794   2.482 -0.2944  0.0867  0.6444
 7642SOL    HW234560   2.802   3.735   2.545 -0.1694  1.8821  1.4535
 7643SOL     OW34561   3.716   2.411   4.335  0.5544 -0.5586 -0.3896
 7643SOL    HW134562   3.623   2.419   4.312  0.6643 -1.4421 -1.1526
 7643SOL    HW234563   3.708   2.412   4.430  0.6281  1.6026 -0.4051
 7644SOL     OW34564   0.052   0.268   3.194 -0.0475  0.1466  0.3374
 7644SOL    HW134565   0.108   0.261   3.271  1.0271 -0.0424 -0.4616
 7644SOL    HW234566   0.064   0.181   3.157  2.3759  0.4357  0.4402
 7645SOL     OW34567   3.742   4.157   5.976  0.1995  0.0989 -0.1501
 7645SOL    HW134568   3.699   4.106   6.044  0.4914  0.4599  0.3022
 7645SOL    HW234569   3.667   4.175   5.919  0.1239 -2.1392 -0.7602
 7646SOL     OW34570   3.588   2.617  12.384 -0.4641  0.3952  0.0450
 7646SOL    HW134571   3.551   2.647  12.301  0.3604  2.4195  0.4106
 7646SOL    HW234572   3.648   2.552  12.347  0.0305  0.1938  1.1983
 7647SOL     OW34573   0.990   1.569   8.220  0.3435  0.2136 -0.4828
 7647SOL    HW134574   1.017   1.661   8.214  1.1209  0.0951  1.0775
 7647SOL    HW234575   0.982   1.546   8.128  0.1429  1.8255 -0.8703
 7648SOL     OW34576   2.106   2.969   2.438  0.6965  0.2945  0.0519
 7648SOL    HW134577   2.031   3.015   2.476  0.3508 -1.0888  1.0565
 7648SOL    HW234578   2.175   3.012   2.490 -0.3382  2.3356 -0.2483
 7649SOL     OW34579   3.602   4.313   5.203  0.1316  0.2143  0.0985
 7649SOL    HW134580   3.688   4.299   5.242 -0.0250 -0.3708  0.2334
 7649SOL    HW234581   3.597   4.234   5.149 -1.2888 -0.5480  1.3354
 7650SOL     OW34582   2.396   3.239  16.680  0.1530 -0.3847  0.0838
 7650SOL    HW134583   2.358   3.184  16.749  0.0329  1.4339  1.4664
 7650SOL    HW234584   2.422   3.314  16.734 -0.8775 -0.5047  0.7547
 7651SOL     OW34585   2.958   2.227   3.146 -0.6965  0.7085 -0.3054
 7651SOL    HW134586   2.926   2.182   3.067  1.1500  0.0496 -0.6873
 7651SOL    HW234587   2.903   2.305   3.151 -2.1637 -0.2901 -0.8272
 7652SOL     OW34588   4.455   2.536   8.742 -0.7778  0.1120 -0.1601
 7652SOL    HW134589   4.478   2.573   8.828 -2.6362  2.3954 -0.6453
 7652SOL    HW234590   4.542   2.522   8.703 -0.2245 -0.3822  1.2542
 7653SOL     OW34591   4.391   4.141  12.289 -0.0562 -0.1162  0.5406
 7653SOL    HW134592   4.345   4.098  12.362 -3.1703  0.4209 -1.0892
 7653SOL    HW234593   4.459   4.189  12.336 -0.3166  1.5303 -0.7656
 7654SOL     OW34594   2.533   1.802   2.179 -0.7267  0.0224 -0.1339
 7654SOL    HW134595   2.554   1.860   2.105  0.3756  2.4556  2.0776
 7654SOL    HW234596   2.511   1.873   2.240  3.3764 -0.1742  1.5667
 7655SOL     OW34597   4.263   0.544  14.084  0.3129  0.1053  0.2819
 7655SOL    HW134598   4.298   0.553  14.172 -0.7657  0.7803  0.6384
 7655SOL    HW234599   4.186   0.491  14.104  0.7844 -1.2829 -1.5519
 7656SOL     OW34600   2.181   0.520   6.214 -0.4841  0.0543 -0.1505
 7656SOL    HW134601   2.177   0.473   6.298  3.6345 -0.3243 -0.1584
 7656SOL    HW234602   2.129   0.461   6.160 -0.7487 -0.1962  0.3798
 7657SOL     OW34603   0.070   4.107  14.379 -0.6258 -0.6852 -0.0463
 7657SOL    HW134604   0.022   4.183  14.411 -2.2938 -2.6920  2.1394
 7657SOL    HW234605   4.733   4.073  14.328 -0.5621  1.1172 -1.3697
 7658SOL     OW34606   2.105   0.332   2.309  0.0151 -0.5175 -0.2509
 7658SOL    HW134607   2.037   0.285   2.357  0.3271 -1.7906 -1.0532
 7658SOL    HW234608   2.063   0.341   2.223 -0.0618 -1.0252 -0.2636
 7659SOL     OW34609   3.134   1.996   1.910  0.1688 -0.4995  0.0740
 7659SOL    HW134610   3.099   2.054   1.978  0.4161 -0.2055 -0.0497
 7659SOL    HW234611   3.080   2.008   1.832  1.3481 -0.2214 -0.6897
 7660SOL     OW34612   1.194   2.554  17.373 -0.3379  0.4309  0.4192
 7660SOL    HW134613   1.243   2.613  17.430  3.3311 -1.6288 -0.5690
 7660SOL    HW234614   1.109   2.592  17.350 -0.8639 -0.6759  0.5444
 7661SOL     OW34615   3.490   1.066   3.280  0.4547 -0.4534  0.5077
 7661SOL    HW134616   3.540   1.028   3.353 -0.6483 -0.2467  1.3673
 7661SOL    HW234617   3.455   1.150   3.312 -1.0964 -1.2619  0.9342
 7662SOL     OW34618   2.396   4.147   3.601 -0.1859  0.5849  0.2560
 7662SOL    HW134619   2.491   4.146   3.592 -0.1774  0.2892  0.3872
 7662SOL    HW234620   2.370   4.073   3.546  4.0657  0.8337 -2.1061
 7663SOL     OW34621   4.477   0.477  14.981  0.1074 -0.2467  0.2461
 7663SOL    HW134622   4.487   0.408  15.046 -0.4039 -1.4659 -0.9659
 7663SOL    HW234623   4.409   0.445  14.921 -0.1277 -0.1898  0.4789
 7664SOL     OW34624   3.399   3.334   3.538 -0.0556 -0.3804  0.3682
 7664SOL    HW134625   3.357   3.417   3.558 -1.1237 -0.7475 -0.3668
 7664SOL    HW234626   3.482   3.343   3.585  0.1655  0.9833 -0.2837
 7665SOL     OW34627   2.785   0.266   4.060  0.0003 -0.4785  0.6491
 7665SOL    HW134628   2.839   0.194   4.027 -1.3749 -0.8534 -0.7754
 7665SOL    HW234629   2.726   0.224   4.122 -0.6059 -2.0629 -1.0129
 7666SOL     OW34630   2.598   4.168   5.664 -0.3059 -0.1329 -0.0783
 7666SOL    HW134631   2.592   4.163   5.568 -0.6054  1.0256 -0.1166
 7666SOL    HW234632   2.691   4.149   5.679 -0.8050 -1.5270  1.2485
 7667SOL     OW34633   1.135   0.378   9.850  0.3012 -0.5346 -0.0664
 7667SOL    HW134634   1.182   0.459   9.835 -0.3673  0.3214  2.4384
 7667SOL    HW234635   1.088   0.402   9.930 -1.6675  0.7094 -1.6272
 7668SOL     OW34636   1.685   3.767   2.882 -0.0482 -0.5482 -0.9154
 7668SOL    HW134637   1.728   3.790   2.800 -1.9564  1.9334 -1.1990
 7668SOL    HW234638   1.756   3.734   2.938 -0.6007  1.0336  0.7050
 7669SOL     OW34639   2.969   2.276  17.211  0.0287  0.3642 -0.0834
 7669SOL    HW134640   3.013   2.217  17.150  0.7461  1.8592 -1.0168
 7669SOL    HW234641   3.037   2.291  17.277 -1.2694 -0.1343  1.3609
 7670SOL     OW34642   2.062   2.599   3.843 -0.5971 -0.1049 -0.1976
 7670SOL    HW134643   1.974   2.622   3.874 -0.2302  0.9046  0.0822
 7670SOL    HW234644   2.104   2.677   3.879  0.1310 -1.3578  1.6559
 7671SOL     OW34645   4.257   0.762   8.641  0.0167 -0.3271  0.2647
 7671SOL    HW134646   4.332   0.732   8.589 -0.3279  0.3796 -0.6390
 7671SOL    HW234647   4.306   0.789   8.718 -2.0691 -2.6155  2.3822
 7672SOL     OW34648   3.820   2.200   3.223  0.1147  0.0645  0.3678
 7672SOL    HW134649   3.831   2.219   3.316 -0.6707 -1.1377  0.7115
 7672SOL    HW234650   3.733   2.160   3.223  0.3378 -0.4162  0.9662
 7673SOL     OW34651   2.469   2.078   7.580 -0.2874  0.6439  0.1458
 7673SOL    HW134652   2.381   2.050   7.554 -0.7122  1.2880  0.8800
 7673SOL    HW234653   2.459   2.170   7.558  2.9950  1.1277  0.6768
 7674SOL     OW34654   2.143   2.872   7.917  0.0407  0.0529 -0.0380
 7674SOL    HW134655   2.185   2.892   7.833  0.4746 -1.7678 -0.2388
 7674SOL    HW234656   2.207   2.817   7.962  0.6533  0.4934 -0.3557
 7675SOL     OW34657   1.778   0.987   9.215  0.0813  0.1421  0.0898
 7675SOL    HW134658   1.795   1.081   9.217 -2.6129  0.6777 -3.4231
 7675SOL    HW234659   1.843   0.966   9.148 -0.2813  2.7983 -1.0516
 7676SOL     OW34660   0.941   3.369   6.528 -0.3141 -0.6126  0.3535
 7676SOL    HW134661   0.906   3.420   6.456  1.1170 -0.6251 -0.3569
 7676SOL    HW234662   0.890   3.412   6.597  0.5010  1.8271 -0.5853
 7677SOL     OW34663   3.750   3.322   2.996  0.0306  0.5238 -0.7550
 7677SOL    HW134664   3.792   3.237   3.009 -2.2373 -0.7311 -1.7820
 7677SOL    HW234665   3.766   3.338   2.903 -0.4309  0.1323 -0.8983
 7678SOL     OW34666   2.948   3.506  13.589 -0.4223 -0.2618 -0.4402
 7678SOL    HW134667   3.011   3.552  13.534 -0.2533  1.1317  0.9105
 7678SOL    HW234668   2.987   3.419  13.596 -2.0975 -1.1898 -2.6089
 7679SOL     OW34669   2.803   4.502  14.103 -0.1307  0.1836 -0.6348
 7679SOL    HW134670   2.755   4.441  14.046  2.1166 -1.0789 -1.1797
 7679SOL    HW234671   2.877   4.520  14.045 -1.2864  0.8982 -1.8802
 7680SOL     OW34672   3.331   4.383   2.733  0.5363  0.1324 -0.0329
 7680SOL    HW134673   3.238   4.361   2.742  1.2112 -2.7021  0.0925
 7680SOL    HW234674   3.338   4.470   2.773  1.5934  0.3784 -0.7752
 7681SOL     OW34675   4.724   2.601   3.562 -0.0990  0.1685 -0.4680
 7681SOL    HW134676   0.020   2.592   3.652 -1.2383  3.1597  0.2220
 7681SOL    HW234677   0.024   2.687   3.541 -0.2109  0.5208  0.7574
 7682SOL     OW34678   4.183   2.980  13.471 -0.2385  0.1164  0.0943
 7682SOL    HW134679   4.144   2.969  13.384  0.3622 -1.0502 -0.0248
 7682SOL    HW234680   4.125   2.924  13.524  1.9733 -1.1042  1.2030
 7683SOL     OW34681   2.617   4.698   7.430  0.3811  0.5099  0.3152
 7683SOL    HW134682   2.697   4.666   7.472 -0.4273 -0.6580  0.9899
 7683SOL    HW234683   2.626   0.056   7.443 -2.5393  0.5791  1.7425
 7684SOL     OW34684   0.319   1.257   8.238 -0.0115  0.1293 -0.1171
 7684SOL    HW134685   0.273   1.339   8.223 -0.2898  0.2705  1.4859
 7684SOL    HW234686   0.352   1.239   8.150 -0.3337 -0.8801 -0.0376
 7685SOL     OW34687   3.610   0.884   4.662 -0.4736  0.3611 -0.5527
 7685SOL    HW134688   3.652   0.871   4.577 -1.7709 -0.2196 -1.1092
 7685SOL    HW234689   3.518   0.891   4.635 -0.6612  0.9303  0.2345
 7686SOL     OW34690   1.112   1.957   2.795  0.1721  0.1024 -0.7930
 7686SOL    HW134691   1.166   1.997   2.727  1.3996 -0.5202 -0.1840
 7686SOL    HW234692   1.111   2.018   2.869 -1.9533 -1.4745  0.4840
 7687SOL     OW34693   1.909   0.660  15.359 -0.3986 -0.2009  0.2256
 7687SOL    HW134694   1.837   0.650  15.420 -0.4844  2.2305  0.5139
 7687SOL    HW234695   1.979   0.665  15.424  2.2123  1.1271 -2.6403
 7688SOL     OW34696   3.528   1.816   6.799 -0.1207  0.3394 -0.1552
 7688SOL    HW134697   3.494   1.821   6.888 -0.8036  0.5625 -0.4273
 7688SOL    HW234698   3.453   1.860   6.760  0.2050  2.4991  1.6571
 7689SOL     OW34699   2.825   1.285   8.657  0.4663 -0.3351  0.7106
 7689SOL    HW134700   2.809   1.304   8.749 -2.0849 -0.1159  0.2123
 7689SOL    HW234701   2.920   1.270   8.660  0.2855 -1.5896  0.1786
 7690SOL     OW34702   4.223   2.828   3.463 -0.1861 -0.1985 -0.4558
 7690SOL    HW134703   4.268   2.745   3.476  3.7599  1.7713 -1.5408
 7690SOL    HW234704   4.139   2.808   3.421  0.5935 -2.2055 -1.0432
 7691SOL     OW34705   2.031   3.895  10.957  0.3390  0.1758  0.4845
 7691SOL    HW134706   2.103   3.855  11.006  0.3286  1.4092  1.4873
 7691SOL    HW234707   1.992   3.950  11.024 -0.5146  0.5284 -0.2970
 7692SOL     OW34708   2.402   2.364   1.672 -0.0254 -0.2440 -0.3385
 7692SOL    HW134709   2.420   2.365   1.766  1.3507 -0.7561 -0.5909
 7692SOL    HW234710   2.492   2.372   1.641 -0.4944  0.1070 -1.6315
 7693SOL     OW34711   4.166   2.534   5.378  0.0769  0.3366 -0.7955
 7693SOL    HW134712   4.100   2.473   5.346  1.1902 -0.7940 -0.9281
 7693SOL    HW234713   4.193   2.475   5.448  2.2813  2.1306 -0.1514
 7694SOL     OW34714   4.187   4.602   3.464  1.2397 -0.6033 -0.6970
 7694SOL    HW134715   4.212   4.688   3.429 -0.5701 -0.9559 -2.8674
 7694SOL    HW234716   4.154   4.616   3.553 -0.1793 -1.5678 -1.0760
 7695SOL     OW34717   4.328   0.589   2.459  0.6146 -0.5852 -0.3312
 7695SOL    HW134718   4.354   0.607   2.550 -2.9965 -1.1508  0.8183
 7695SOL    HW234719   4.299   0.497   2.463 -2.3638  0.2553 -2.8478
 7696SOL     OW34720   3.332   3.192   4.492  0.5300 -0.0511 -0.0219
 7696SOL    HW134721   3.358   3.229   4.577 -1.1775  3.2434 -0.9036
 7696SOL    HW234722   3.420   3.184   4.456  0.3508  0.6522 -0.6243
 7697SOL     OW34723   4.333   4.730   9.596  0.4099 -0.1418  0.0888
 7697SOL    HW134724   4.339   4.638   9.570 -0.2951 -0.1127 -0.1608
 7697SOL    HW234725   4.421   0.022   9.620  0.7573 -0.7711 -0.4727
 7698SOL     OW34726   4.053   4.316   1.858  0.3361  0.5379 -0.0032
 7698SOL    HW134727   3.991   4.247   1.882  0.7731  0.3720  0.6489
 7698SOL    HW234728   4.077   4.350   1.944  3.0284 -1.5993  0.0601
 7699SOL     OW34729   4.084   2.191   2.115  0.4881 -0.2717  0.3187
 7699SOL    HW134730   4.054   2.248   2.185  0.8005  1.0063 -0.5730
 7699SOL    HW234731   4.132   2.259   2.067  1.4486 -1.0281  0.2062
 7700SOL     OW34732   1.203   4.024   3.508 -0.5616 -0.3767  0.3702
 7700SOL    HW134733   1.191   4.105   3.459  1.1475 -1.0162 -1.1569
 7700SOL    HW234734   1.140   3.974   3.457  0.4872 -0.9997 -0.3223
 7701SOL     OW34735   1.257   3.270   1.875  0.3618  0.1899 -0.9368
 7701SOL    HW134736   1.266   3.208   1.947 -1.6755 -0.1011 -0.9332
 7701SOL    HW234737   1.297   3.224   1.801  1.7704 -1.2390  0.7110
 7702SOL     OW34738   0.199   2.645  12.682 -0.3846  0.0797  0.4243
 7702SOL    HW134739   0.157   2.602  12.756  0.3297 -0.9402  0.2447
 7702SOL    HW234740   0.218   2.568  12.627 -2.9263  0.3989 -0.8913
 7703SOL     OW34741   1.306   3.219   2.337 -0.6375 -0.2165 -0.0835
 7703SOL    HW134742   1.312   3.273   2.415  0.7826 -0.0807 -0.2990
 7703SOL    HW234743   1.369   3.260   2.277  2.1895 -0.7622  2.5680
 7704SOL     OW34744   3.521   3.408  13.513 -0.1860  0.3891  0.5026
 7704SOL    HW134745   3.579   3.342  13.475  1.3511  1.3481  1.1888
 7704SOL    HW234746   3.560   3.436  13.596 -0.4169  1.6185  0.1853
 7705SOL     OW34747   0.347   3.578   0.776  0.1300  0.4710  0.5310
 7705SOL    HW134748   0.351   3.587   0.872  1.4163  0.2410  0.5050
 7705SOL    HW234749   0.371   3.485   0.766 -0.3918  0.2798  1.0227
 7706SOL     OW34750   4.177   1.880   7.238  0.2835  0.0360  0.0793
 7706SOL    HW134751   4.182   1.849   7.329 -0.0208  1.0715  0.4511
 7706SOL    HW234752   4.228   1.961   7.240  1.8834 -1.0155  2.4198
 7707SOL     OW34753   4.124   1.870   1.564 -0.1760  0.2666 -0.4713
 7707SOL    HW134754   4.057   1.929   1.529 -1.0426 -0.8523 -0.7342
 7707SOL    HW234755   4.125   1.930   1.639  1.4039 -0.8728  0.4281
 7708SOL     OW34756   4.424   0.619   7.869  0.2935 -0.1094  0.6066
 7708SOL    HW134757   4.495   0.557   7.888  0.3310  0.6382  2.9090
 7708SOL    HW234758   4.345   0.571   7.894 -0.7129  1.8452  1.2109
 7709SOL     OW34759   3.233   0.373   1.594 -0.2460 -0.2964  0.1129
 7709SOL    HW134760   3.252   0.467   1.604 -1.1503  0.0393 -1.3728
 7709SOL    HW234761   3.165   0.362   1.660 -0.4250 -0.5502 -0.1171
 7710SOL     OW34762   4.533   2.742   5.777 -0.5161  0.2782  0.6861
 7710SOL    HW134763   4.456   2.769   5.828  0.3896  1.1704  1.5929
 7710SOL    HW234764   4.487   2.724   5.695  0.9975  3.3025 -0.8439
 7711SOL     OW34765   3.122   1.541   3.250  0.3324 -0.3419  0.8726
 7711SOL    HW134766   3.069   1.592   3.189  1.2039 -0.8434 -0.3098
 7711SOL    HW234767   3.051   1.519   3.311  0.3265 -1.1475  0.5730
 7712SOL     OW34768   1.798   0.095   7.158  0.4526  0.0727 -0.3283
 7712SOL    HW134769   1.706   0.108   7.139  0.1443  2.1045  2.5091
 7712SOL    HW234770   1.791   0.066   7.249  2.5321  0.5938  0.0151
 7713SOL     OW34771   1.627   4.414   6.261  0.2642  0.4029  0.0668
 7713SOL    HW134772   1.542   4.427   6.218  0.3792  0.2363 -0.2148
 7713SOL    HW234773   1.603   4.353   6.330 -0.1702  2.7839  2.0232
 7714SOL     OW34774   0.729   3.503   1.604 -0.3324 -0.4258 -0.3234
 7714SOL    HW134775   0.686   3.524   1.687 -0.6088  0.0871 -0.6035
 7714SOL    HW234776   0.672   3.545   1.540 -0.9658 -1.2769 -0.3172
 7715SOL     OW34777   4.497   1.036   2.635 -0.1557  0.1539 -0.4068
 7715SOL    HW134778   4.415   1.010   2.593 -0.3880 -2.0521  1.4312
 7715SOL    HW234779   4.561   1.022   2.565  1.6021 -0.5510  1.3459
 7716SOL     OW34780   0.344   4.724   5.217 -0.6587 -0.2148  0.6149
 7716SOL    HW134781   0.315   4.635   5.198  0.2746 -0.4394  0.2151
 7716SOL    HW234782   0.282   0.038   5.164  0.6509  1.0237  0.2555
 7717SOL     OW34783   2.062   1.780  12.938 -0.3156 -0.2957 -0.0960
 7717SOL    HW134784   2.136   1.751  12.992 -0.0710 -3.3346 -2.0538
 7717SOL    HW234785   2.010   1.832  12.999 -0.6652 -0.0823 -0.5770
 7718SOL     OW34786   3.981   2.529   8.334 -0.1659 -0.4918 -0.3399
 7718SOL    HW134787   4.034   2.600   8.369 -1.8993  0.4996  0.2654
 7718SOL    HW234788   3.941   2.498   8.415 -1.0213  2.6619  0.4243
 7719SOL     OW34789   1.321   3.620   3.039 -0.0146 -0.9145  0.1018
 7719SOL    HW134790   1.386   3.655   2.979  0.2091 -0.1391  0.7992
 7719SOL    HW234791   1.310   3.702   3.087  2.1276 -0.5221 -0.1048
 7720SOL     OW34792   3.840   1.540   5.285  0.4325  0.2888 -0.8047
 7720SOL    HW134793   3.922   1.523   5.331  0.1253  0.6881 -0.1262
 7720SOL    HW234794   3.845   1.476   5.214  0.8613  0.4027 -0.8809
 7721SOL     OW34795   1.945   4.042   3.741  0.8189  0.0495 -0.1938
 7721SOL    HW134796   1.871   4.017   3.797 -0.5425  2.2004 -1.0218
 7721SOL    HW234797   2.015   3.997   3.787 -0.7732  0.4289  2.5583
 7722SOL     OW34798   4.644   0.017   1.863 -1.1150  0.0352 -0.5117
 7722SOL    HW134799   4.707   0.081   1.895 -0.7260 -1.3839  1.5851
 7722SOL    HW234800   4.678   0.023   1.774 -0.0244 -1.2914 -0.1804
 7723SOL     OW34801   4.018   2.163   4.328 -0.5085  0.2520  0.1306
 7723SOL    HW134802   4.095   2.107   4.327 -1.3788 -0.9338 -0.7341
 7723SOL    HW234803   3.974   2.140   4.246  1.7826  1.1728 -1.3770
 7724SOL     OW34804   1.615   1.112   4.373  0.3700 -0.2835 -0.2356
 7724SOL    HW134805   1.619   1.095   4.467  1.2163  2.6197  0.2371
 7724SOL    HW234806   1.659   1.195   4.356  1.2298 -0.7629 -0.4140
 7725SOL     OW34807   3.221   4.039   5.834  0.4079 -0.1368  0.1203
 7725SOL    HW134808   3.169   4.001   5.762 -2.1657  0.8873  1.4346
 7725SOL    HW234809   3.218   3.970   5.901 -2.6894  1.4800  1.6640
 7726SOL     OW34810   3.385   1.724   3.504  0.0872 -0.5210 -0.0204
 7726SOL    HW134811   3.305   1.726   3.452  1.6246 -2.5498 -2.4276
 7726SOL    HW234812   3.379   1.637   3.542 -1.3715 -0.6635 -0.5885
 7727SOL     OW34813   2.914   4.346   2.410  0.4059 -0.4397 -0.4621
 7727SOL    HW134814   2.822   4.334   2.434  0.3398  0.7180 -0.1497
 7727SOL    HW234815   2.937   4.422   2.464  0.5961 -0.0462 -1.0915
 7728SOL     OW34816   3.066   0.007   6.553 -0.3215  0.5427 -0.2691
 7728SOL    HW134817   3.046   4.660   6.594 -0.6961 -0.6353 -2.8436
 7728SOL    HW234818   3.118   0.050   6.621 -0.6656  0.7132 -0.1121
 7729SOL     OW34819   1.197   1.770  10.843 -0.4818  0.0776 -0.1170
 7729SOL    HW134820   1.289   1.792  10.856 -0.8443  0.0693  2.3769
 7729SOL    HW234821   1.164   1.756  10.932  1.3877 -0.1667  0.5267
 7730SOL     OW34822   0.610   0.714   4.006  0.1079  0.2417  0.0467
 7730SOL    HW134823   0.531   0.659   4.005 -0.4328  1.0409 -1.1955
 7730SOL    HW234824   0.648   0.690   3.922 -0.9596  1.3790 -0.7597
 7731SOL     OW34825   3.348   1.860   6.992 -0.1198 -0.0634 -0.1922
 7731SOL    HW134826   3.296   1.802   7.047 -1.2541  1.1381  0.0008
 7731SOL    HW234827   3.286   1.927   6.962  0.5153 -1.0973 -3.9027
 7732SOL     OW34828   0.661   0.752   6.292  0.6865 -0.2207  0.1695
 7732SOL    HW134829   0.628   0.715   6.210 -2.9285  1.4432  0.8465
 7732SOL    HW234830   0.584   0.753   6.349 -0.3502  2.8267 -1.2933
 7733SOL     OW34831   0.619   0.026  13.118 -0.5612  0.2707 -0.3096
 7733SOL    HW134832   0.550   0.064  13.064 -3.1724 -2.3160  1.2071
 7733SOL    HW234833   0.687   0.027  13.051 -2.4097 -0.8288 -2.1857
 7734SOL     OW34834   3.181   0.388  17.433  0.4729  0.0982  0.0650
 7734SOL    HW134835   3.267   0.381  17.474  0.4247  0.0287  0.1556
 7734SOL    HW234836   3.165   0.298  17.405 -3.8877  0.9186 -0.0387
 7735SOL     OW34837   4.684   1.036   4.008 -0.6550  0.3866 -0.1749
 7735SOL    HW134838   4.708   1.046   4.100  3.9948  2.0648 -1.5568
 7735SOL    HW234839   4.614   0.971   4.013 -1.7018  1.4952 -0.5173
 7736SOL     OW34840   2.068   2.936   9.901 -0.3282  0.0122 -0.3823
 7736SOL    HW134841   2.011   2.879   9.953 -0.6271  0.2712 -0.4262
 7736SOL    HW234842   2.110   2.880   9.836  0.0341 -0.0143 -0.1227
 7737SOL     OW34843   4.190   0.715  12.583  0.6861 -0.5243 -0.0924
 7737SOL    HW134844   4.233   0.800  12.577 -1.5406  0.5056 -1.5144
 7737SOL    HW234845   4.103   0.743  12.609  0.7740 -0.0637 -0.2952
 7738SOL     OW34846   3.587   4.285   6.726 -0.2742  0.0929  0.5098
 7738SOL    HW134847   3.505   4.327   6.701 -0.3411 -1.8038 -2.4788
 7738SOL    HW234848   3.626   4.314   6.644 -1.4492 -3.3007 -1.2212
 7739SOL     OW34849   3.247   3.330   1.931 -0.3619  0.1370  0.2468
 7739SOL    HW134850   3.161   3.342   1.891 -0.3002  1.4891  0.5474
 7739SOL    HW234851   3.275   3.413   1.968 -3.2040  0.9317  0.6002
 7740SOL     OW34852   2.297   2.694  14.032 -0.2798  0.0186  0.0383
 7740SOL    HW134853   2.351   2.729  14.102  1.0831  0.1143 -1.0547
 7740SOL    HW234854   2.244   2.630  14.079 -0.4932 -0.7110 -1.1948
 7741SOL     OW34855   1.626   2.150  10.022  0.3383  0.4661 -0.1443
 7741SOL    HW134856   1.612   2.232  10.070  0.7444  0.0870  0.6204
 7741SOL    HW234857   1.554   2.092  10.048  2.1232 -0.7348  2.1671
 7742SOL     OW34858   3.254   3.902   3.742  1.0118  0.1689  0.0395
 7742SOL    HW134859   3.310   3.836   3.702 -0.3130 -1.4858  0.8867
 7742SOL    HW234860   3.180   3.853   3.779  0.5642  0.0061 -1.0932
 7743SOL     OW34861   0.723   3.099   2.190 -0.3024  0.0236  0.1220
 7743SOL    HW134862   0.659   3.153   2.237 -0.0070 -1.0042  1.7263
 7743SOL    HW234863   0.668   3.048   2.130 -1.7822  0.1339  1.3906
 7744SOL     OW34864   3.104   4.274   7.604  0.1460 -0.3481  0.1834
 7744SOL    HW134865   3.160   4.326   7.547  1.7707 -1.3757  0.8549
 7744SOL    HW234866   3.178   4.224   7.638  0.3052 -0.5336 -0.4353
 7745SOL     OW34867   1.189   2.301  13.119 -0.0943  0.1356 -0.1292
 7745SOL    HW134868   1.237   2.382  13.137 -0.0484  0.0747  0.0191
 7745SOL    HW234869   1.111   2.326  13.168 -0.2247  0.4373 -0.4902
 7746SOL     OW34870   4.209   2.844   7.351  0.5532  0.2373  0.1267
 7746SOL    HW134871   4.265   2.768   7.340 -0.6096 -0.8067  1.4124
 7746SOL    HW234872   4.262   2.888   7.418 -1.3395  1.3070  0.9368
 7747SOL     OW34873   2.766   2.685   3.117 -0.3798 -0.1874  0.3066
 7747SOL    HW134874   2.811   2.674   3.033 -0.3942 -0.0968  0.2867
 7747SOL    HW234875   2.822   2.751   3.159  0.0828  0.2715 -1.0160
 7748SOL     OW34876   1.974   1.354   4.727  0.5617  0.0330 -0.1355
 7748SOL    HW134877   1.979   1.392   4.639 -2.3816  0.2436 -0.2211
 7748SOL    HW234878   2.026   1.275   4.714  0.7115 -0.5569  3.8546
 7749SOL     OW34879   1.577   1.143   3.654 -0.4711 -0.1701 -0.5267
 7749SOL    HW134880   1.489   1.147   3.617 -0.0521 -0.6684 -1.5841
 7749SOL    HW234881   1.623   1.116   3.575 -0.9546  0.0518 -0.8826
 7750SOL     OW34882   4.479   4.429  12.064  0.1408  0.4122 -0.0211
 7750SOL    HW134883   4.513   4.491  12.129  0.9225 -0.0287 -0.0085
 7750SOL    HW234884   4.559   4.390  12.028  0.7653  0.2075  1.5648
 7751SOL     OW34885   2.291   1.155   2.194  0.0225  0.1320  0.1624
 7751SOL    HW134886   2.312   1.224   2.257 -0.1264 -0.6216  1.0425
 7751SOL    HW234887   2.257   1.086   2.252  0.0386  0.0751  0.1047
 7752SOL     OW34888   3.083   3.791  10.782  0.4438 -0.0591  0.2795
 7752SOL    HW134889   3.096   3.876  10.739  0.4163 -1.1388 -1.9056
 7752SOL    HW234890   3.146   3.784  10.853  1.0152 -1.0063 -0.3123
 7753SOL     OW34891   3.769   2.325  17.020 -0.4795 -0.6492  0.0792
 7753SOL    HW134892   3.796   2.259  17.083 -2.3955 -2.1171 -0.6204
 7753SOL    HW234893   3.789   2.282  16.937 -0.3468 -0.1690 -0.1368
 7754SOL     OW34894   0.529   2.344   6.023  0.5614  0.2770  0.0957
 7754SOL    HW134895   0.459   2.399   6.059 -1.6349 -0.7087 -2.6883
 7754SOL    HW234896   0.580   2.327   6.103  1.8552  0.1606 -0.7495
 7755SOL     OW34897   4.367   2.370  15.673  0.1739 -0.2619  0.1553
 7755SOL    HW134898   4.439   2.334  15.621 -1.5224 -0.9797 -1.6625
 7755SOL    HW234899   4.416   2.427  15.733  0.0402  1.0348 -0.9663
 7756SOL     OW34900   1.290   2.088  13.465 -0.4169 -0.0715 -0.3348
 7756SOL    HW134901   1.208   2.135  13.457  0.1466  0.8525 -0.7059
 7756SOL    HW234902   1.263   2.027  13.533  4.0247  0.0891  1.5853
 7757SOL     OW34903   3.669   3.505   9.151 -0.1996  0.3422  0.2461
 7757SOL    HW134904   3.730   3.516   9.078 -0.6270  1.2262  0.0219
 7757SOL    HW234905   3.691   3.416   9.179  1.1216  0.1268 -1.4822
 7758SOL     OW34906   3.280   1.628   9.779  0.6919  0.6288 -1.0578
 7758SOL    HW134907   3.302   1.710   9.824  2.3369 -1.2917  1.6194
 7758SOL    HW234908   3.302   1.571   9.852 -1.4559  0.4260 -0.5821
 7759SOL     OW34909   1.722   0.113   0.268 -0.0380  0.3266 -0.4766
 7759SOL    HW134910   1.721   0.120   0.363  1.3406 -0.9675 -0.3587
 7759SOL    HW234911   1.815   0.093   0.255 -0.0576  1.2688 -2.1514
 7760SOL     OW34912   3.744   3.751   4.083 -0.3220 -0.4549  0.6582
 7760SOL    HW134913   3.784   3.664   4.084 -0.4608 -0.4823  3.2037
 7760SOL    HW234914   3.812   3.810   4.113 -2.0583  1.5647  0.6087
 7761SOL     OW34915   1.414   1.906  11.204 -0.2292 -0.1366 -0.3772
 7761SOL    HW134916   1.494   1.909  11.256 -0.6874  0.2527  0.3041
 7761SOL    HW234917   1.412   1.996  11.171 -1.8858  0.2867  0.8551
 7762SOL     OW34918   0.990   3.433   5.791  0.3662 -0.2125  0.3704
 7762SOL    HW134919   1.031   3.510   5.831  0.2227 -0.2168  0.5254
 7762SOL    HW234920   0.898   3.457   5.783  0.4668 -0.3051 -1.0730
 7763SOL     OW34921   3.691   0.856   7.993  0.0864  0.0645 -0.5412
 7763SOL    HW134922   3.662   0.912   8.064  0.5473  1.2239 -1.2647
 7763SOL    HW234923   3.615   0.853   7.934 -0.8053  1.7915  0.5046
 7764SOL     OW34924   4.500   1.784   4.630  0.0085 -0.3603  0.2087
 7764SOL    HW134925   4.528   1.792   4.721 -2.3303 -1.2351  1.0081
 7764SOL    HW234926   4.550   1.855   4.589  0.5978 -0.5921  0.5292
 7765SOL     OW34927   3.206   0.066   4.800  0.3753 -0.5553 -0.5435
 7765SOL    HW134928   3.239   0.042   4.713  2.1351  0.5820 -0.2021
 7765SOL    HW234929   3.281   0.114   4.838  1.0925 -1.0893 -1.2858
 7766SOL     OW34930   3.465   1.160  10.869  0.4571  0.3066 -0.1658
 7766SOL    HW134931   3.534   1.222  10.890  1.0768 -1.2173  2.3973
 7766SOL    HW234932   3.463   1.160  10.773 -1.9027  0.7095 -0.1116
 7767SOL     OW34933   3.705   3.117  10.967  0.4148 -0.1689  0.0793
 7767SOL    HW134934   3.724   3.125  10.873 -2.2430 -1.0964 -0.5412
 7767SOL    HW234935   3.678   3.025  10.966 -1.3916  0.3529 -0.0582
 7768SOL     OW34936   0.357   4.158   5.964  0.2322  0.1777  0.4184
 7768SOL    HW134937   0.266   4.182   5.947  1.1671  0.5457 -4.1123
 7768SOL    HW234938   0.340   4.074   6.006  0.6661  0.9551  2.1466
 7769SOL     OW34939   3.141   0.840   4.368  0.4205 -0.1716  0.4009
 7769SOL    HW134940   3.148   0.930   4.336  2.4104 -0.1499  0.8667
 7769SOL    HW234941   3.062   0.808   4.323  1.3312 -0.1760 -1.2181
 7770SOL     OW34942   1.794   2.501   6.104 -0.3219  0.2698 -0.6215
 7770SOL    HW134943   1.849   2.431   6.068 -0.4479 -0.6391  0.9992
 7770SOL    HW234944   1.827   2.583   6.066 -0.2315  0.8705  0.7527
 7771SOL     OW34945   2.006   4.502   5.073  0.0593  0.1670  0.2922
 7771SOL    HW134946   2.070   4.553   5.123  1.2986 -2.0842  1.0008
 7771SOL    HW234947   1.924   4.544   5.099  1.8630  4.1625 -0.5585
 7772SOL     OW34948   1.301   3.559   8.393 -0.0894  0.3741  0.5225
 7772SOL    HW134949   1.382   3.529   8.351 -0.2212  1.0584 -0.2349
 7772SOL    HW234950   1.343   3.621   8.452 -0.7335  1.0484  0.2898
 7773SOL     OW34951   1.907   1.178   2.463  0.2322  0.2727  0.2791
 7773SOL    HW134952   1.910   1.252   2.402 -0.1409 -0.6281 -0.8202
 7773SOL    HW234953   1.820   1.150   2.435  1.1110  1.2322 -3.4558
 7774SOL     OW34954   0.661   1.694   7.538 -0.1742 -0.0271 -0.5878
 7774SOL    HW134955   0.572   1.718   7.513  0.7185  1.4087 -2.2995
 7774SOL    HW234956   0.700   1.771   7.578  2.1859 -2.6110  2.1016
 7775SOL     OW34957   1.185   1.173   0.224  0.2825 -0.0897  0.2167
 7775SOL    HW134958   1.111   1.229   0.200  0.4090  0.0639  0.1816
 7775SOL    HW234959   1.259   1.234   0.219  0.2965 -0.1093  0.1855
 7776SOL     OW34960   1.598   2.470   8.592  0.2850 -0.6649  0.4917
 7776SOL    HW134961   1.628   2.394   8.642 -0.2890 -0.2154  1.5253
 7776SOL    HW234962   1.686   2.505   8.581 -0.4216  0.3476 -1.8549
 7777SOL     OW34963   0.183   2.316   6.492  0.4678  0.2747  0.3430
 7777SOL    HW134964   0.153   2.388   6.547  0.0414  0.5754 -0.2712
 7777SOL    HW234965   0.147   2.347   6.409 -1.0663  0.7462  1.1854
 7778SOL     OW34966   4.117   1.843   4.367 -0.9446 -0.0495  0.6924
 7778SOL    HW134967   4.132   1.749   4.353 -1.7196  0.1174 -1.2408
 7778SOL    HW234968   4.073   1.845   4.452 -0.6594  1.7341  0.7869
 7779SOL     OW34969   3.655   1.349   0.904 -0.0094 -0.4383 -0.1900
 7779SOL    HW134970   3.644   1.367   0.811  0.7545 -0.4442 -0.2764
 7779SOL    HW234971   3.749   1.341   0.920  0.4574  2.0264 -1.7067
 7780SOL     OW34972   4.385   2.641   7.418  0.2794 -0.4673 -0.4856
 7780SOL    HW134973   4.472   2.661   7.452  0.4051 -2.4641  0.3705
 7780SOL    HW234974   4.371   2.559   7.466 -0.0255 -1.7826 -2.8157
 7781SOL     OW34975   0.969   4.252   8.205  0.1772 -0.4136 -0.0646
 7781SOL    HW134976   0.885   4.253   8.160 -0.5303  1.7700  1.2847
 7781SOL    HW234977   0.988   4.346   8.206 -1.0746 -0.1460 -2.0287
 7782SOL     OW34978   4.364   3.818   6.718 -0.1601  0.0205 -0.3273
 7782SOL    HW134979   4.326   3.893   6.764 -2.4093 -1.0909 -0.3315
 7782SOL    HW234980   4.280   3.778   6.694 -1.8195  0.7021  4.4493
 7783SOL     OW34981   3.985   0.638   1.365 -0.4604  0.4305 -0.1159
 7783SOL    HW134982   4.062   0.610   1.315  0.0772 -0.7589  1.3596
 7783SOL    HW234983   4.023   0.698   1.429  0.0837 -1.7443  1.6167
 7784SOL     OW34984   1.128   3.093   9.548 -0.1323 -0.4472 -0.4192
 7784SOL    HW134985   1.191   3.025   9.571  0.8715  0.2165 -1.2041
 7784SOL    HW234986   1.067   3.036   9.502 -1.3459 -2.2786  3.5128
 7785SOL     OW34987   2.909   1.380   4.224  0.0194  0.0988 -0.0530
 7785SOL    HW134988   2.967   1.305   4.210 -2.3289 -1.6483 -0.5525
 7785SOL    HW234989   2.970   1.445   4.260  1.6298 -2.1524  1.3043
 7786SOL     OW34990   0.308   1.644   5.593  0.2452 -0.0942 -0.0447
 7786SOL    HW134991   0.387   1.639   5.539 -0.3302 -2.7660 -0.6205
 7786SOL    HW234992   0.329   1.724   5.642 -0.4937 -0.8183  1.4320
 7787SOL     OW34993   0.101   2.233   0.768  0.0189 -0.1560 -0.7692
 7787SOL    HW134994   0.141   2.170   0.828 -1.2851 -1.0007 -0.7829
 7787SOL    HW234995   0.011   2.217   0.798  0.6753 -0.7511  0.8233
 7788SOL     OW34996   1.278   1.818  11.427  0.5575  0.2228  0.3655
 7788SOL    HW134997   1.331   1.856  11.356  1.2895 -1.1984  0.1439
 7788SOL    HW234998   1.260   1.894  11.481 -0.6449  0.6628 -0.6598
 7789SOL     OW34999   1.269   4.212   4.616  0.0037  0.0044  0.0288
 7789SOL    HW135000   1.267   4.185   4.525 -1.4606  0.5363 -0.0939
 7789SOL    HW235001   1.205   4.283   4.622  0.4289  0.6362 -3.3047
 7790SOL     OW35002   1.911   2.522   1.723  0.4672  0.0417  0.0408
 7790SOL    HW135003   1.843   2.515   1.656 -1.3921  1.9781  1.7323
 7790SOL    HW235004   1.900   2.443   1.775 -2.6407  0.6970  0.4025
 7791SOL     OW35005   2.080   1.657  10.507 -0.6475 -0.4097  0.2918
 7791SOL    HW135006   2.152   1.711  10.537 -2.7464  2.3229  0.4552
 7791SOL    HW235007   2.025   1.640  10.584 -2.7379 -0.3701 -1.1707
 7792SOL     OW35008   4.198   1.458   3.427  0.0522 -0.3221  0.3147
 7792SOL    HW135009   4.248   1.510   3.365  1.0683 -1.3499  0.2696
 7792SOL    HW235010   4.123   1.427   3.376 -0.8809 -0.1300  1.5665
 7793SOL     OW35011   3.334   0.933   6.880  0.0093  0.3530 -0.3902
 7793SOL    HW135012   3.342   1.002   6.946 -1.3545  0.1337  0.0186
 7793SOL    HW235013   3.241   0.942   6.856  0.0007  1.3953  0.0359
 7794SOL     OW35014   0.050   0.144   6.602  0.0665  0.2250  0.5607
 7794SOL    HW135015   0.117   0.149   6.670 -1.2830 -0.8528  1.9644
 7794SOL    HW235016   4.707   0.102   6.638  1.5778 -1.3371  2.0828
 7795SOL     OW35017   3.437   4.311   9.272  0.1535 -0.4450 -0.1670
 7795SOL    HW135018   3.438   4.238   9.210 -2.0748 -0.2071 -0.4594
 7795SOL    HW235019   3.414   4.384   9.215  0.1168 -0.6929 -0.4725
 7796SOL     OW35020   0.473   4.224   6.834 -0.2404 -0.2594  0.0964
 7796SOL    HW135021   0.408   4.153   6.838 -1.0860  0.4072 -1.9477
 7796SOL    HW235022   0.414   4.289   6.872 -0.7740 -1.0996  0.7324
 7797SOL     OW35023   0.653   0.006  17.567  0.5637  0.5716  0.2515
 7797SOL    HW135024   0.597   0.069  17.523 -2.7234 -1.6703  1.2625
 7797SOL    HW235025   0.615   0.025  17.652  0.5460 -1.6350  0.7355
 7798SOL     OW35026   3.073   1.253   0.798  0.3485 -0.3282  0.5020
 7798SOL    HW135027   3.074   1.178   0.738 -1.6981 -0.8478  1.1071
 7798SOL    HW235028   3.167   1.257   0.813  0.5025 -1.5923 -0.1447
 7799SOL     OW35029   0.802   0.357  17.465  0.0681 -0.7840 -0.4122
 7799SOL    HW135030   0.827   0.416  17.394 -1.1339 -0.4033 -0.5219
 7799SOL    HW235031   0.733   0.402  17.515 -0.0951 -1.0020 -0.4411
 7800SOL     OW35032   1.863   2.397   6.851  0.2480  0.0505  0.9087
 7800SOL    HW135033   1.880   2.442   6.933 -0.9350 -2.3626  2.4674
 7800SOL    HW235034   1.889   2.309   6.877 -2.6006 -0.7740  0.9987
 7801SOL     OW35035   1.470   2.390   3.516  0.1350 -0.2604  0.1395
 7801SOL    HW135036   1.388   2.435   3.535  1.2492  1.6300  0.5007
 7801SOL    HW235037   1.507   2.435   3.440  0.3218 -1.6050 -0.5539
 7802SOL     OW35038   0.071   1.395   2.944  0.1680  0.1031  0.1589
 7802SOL    HW135039   0.004   1.462   2.953  0.3218 -0.0292  2.2005
 7802SOL    HW235040   0.030   1.343   2.875 -1.5453 -1.2435  2.1860
 7803SOL     OW35041   4.324   1.664   9.277 -0.0277 -0.5525 -0.1737
 7803SOL    HW135042   4.369   1.585   9.249  0.8964  0.7858 -2.4266
 7803SOL    HW235043   4.237   1.643   9.242  1.0013 -0.5228 -2.7658
 7804SOL     OW35044   0.334   0.504  17.307 -0.4060 -0.3858  0.0570
 7804SOL    HW135045   0.308   0.412  17.294 -0.3269 -0.4744  0.5432
 7804SOL    HW235046   0.249   0.539  17.280 -0.7691  0.2017  2.0188
 7805SOL     OW35047   4.380   3.434  14.000  0.2213 -0.0097  0.0183
 7805SOL    HW135048   4.420   3.484  13.929 -0.4540  0.4332 -0.0577
 7805SOL    HW235049   4.447   3.448  14.067 -0.1324  1.0718  0.1509
 7806SOL     OW35050   0.359   0.489  16.164  0.0283 -0.3575 -0.1952
 7806SOL    HW135051   0.454   0.496  16.160  0.2805 -1.8495  3.2076
 7806SOL    HW235052   0.337   0.550  16.094  0.3176 -1.8484 -1.5701
 7807SOL     OW35053   1.358   2.772   7.944  0.2280  0.2421 -0.4843
 7807SOL    HW135054   1.402   2.819   8.015 -0.4089  1.1077 -0.6624
 7807SOL    HW235055   1.436   2.725   7.916 -1.4467 -2.6127 -0.3346
 7808SOL     OW35056   2.499   0.244   7.611 -0.4546 -0.5177 -0.4212
 7808SOL    HW135057   2.487   0.300   7.535 -0.3033  0.7970  0.5076
 7808SOL    HW235058   2.422   0.189   7.599  0.4101 -1.4008 -1.8511
 7809SOL     OW35059   4.406   3.274   2.312  0.2125 -0.0008  0.6446
 7809SOL    HW135060   4.319   3.257   2.276  1.1337  0.8187 -1.9906
 7809SOL    HW235061   4.445   3.353   2.274 -0.0987  1.5475  3.5485
 7810SOL     OW35062   0.528   2.194  14.520  0.1043 -0.0041 -0.5586
 7810SOL    HW135063   0.540   2.288  14.504  0.7478 -0.1008 -0.6267
 7810SOL    HW235064   0.611   2.172  14.562 -0.6577 -0.9406  0.4482
 7811SOL     OW35065   1.550   2.876   5.490  0.5598  0.1668  0.4311
 7811SOL    HW135066   1.602   2.815   5.438 -0.6541 -1.4976  1.1600
 7811SOL    HW235067   1.462   2.863   5.454  0.8164  0.0085 -0.1372
 7812SOL     OW35068   4.388   1.192   7.893 -0.7048  0.2625  0.3797
 7812SOL    HW135069   4.323   1.122   7.899  0.0006 -0.4137  0.1279
 7812SOL    HW235070   4.438   1.161   7.817 -0.1945 -2.0976  1.6618
 7813SOL     OW35071   1.610   0.156   8.254 -0.4186  0.2068  0.0489
 7813SOL    HW135072   1.573   0.168   8.342  2.1978 -0.7721  1.2746
 7813SOL    HW235073   1.693   0.112   8.267 -0.6984 -0.3496 -0.0454
 7814SOL     OW35074   1.414   2.749   4.897  0.1395  0.1273  0.7730
 7814SOL    HW135075   1.355   2.804   4.845 -1.2454  0.0587  2.2934
 7814SOL    HW235076   1.349   2.682   4.917 -0.0957 -0.0834 -0.6856
 7815SOL     OW35077   4.080   0.635   7.772  0.2031 -0.2408 -0.2596
 7815SOL    HW135078   4.026   0.714   7.776  0.6560 -0.0596  2.0465
 7815SOL    HW235079   4.068   0.599   7.684 -2.2808  0.6558 -0.2808
 7816SOL     OW35080   0.746   1.923   5.884 -0.5842  0.0050  0.3957
 7816SOL    HW135081   0.668   1.972   5.912 -0.1487  0.4413  0.8431
 7816SOL    HW235082   0.787   1.988   5.827  1.6309 -1.2490  0.5979
 7817SOL     OW35083   1.432   1.463   4.927 -0.1109  0.3369  0.2731
 7817SOL    HW135084   1.407   1.514   4.850  0.9016 -2.0286 -1.6338
 7817SOL    HW235085   1.527   1.476   4.927 -0.0540 -0.1194 -2.2293
 7818SOL     OW35086   2.393   2.877   1.739  0.0120  0.6850  0.2429
 7818SOL    HW135087   2.401   2.910   1.650 -1.3982  0.5190  0.0618
 7818SOL    HW235088   2.321   2.929   1.774 -0.5245 -0.4684  0.8751
 7819SOL     OW35089   0.407   2.274  16.171  0.0494  0.3556  0.0294
 7819SOL    HW135090   0.315   2.249  16.172 -0.2878  1.6405 -0.1624
 7819SOL    HW235091   0.465   2.198  16.181 -1.3273 -0.4911  1.5220
 7820SOL     OW35092   0.307   0.628   8.150 -0.0681 -0.2291  0.4728
 7820SOL    HW135093   0.222   0.671   8.141  0.1680  0.1747  0.1723
 7820SOL    HW235094   0.331   0.688   8.220  0.7156  0.0997 -0.0863
 7821SOL     OW35095   1.132   1.753   2.414  0.0610 -1.0101 -0.1217
 7821SOL    HW135096   1.070   1.791   2.476  0.1664  0.2990 -0.8226
 7821SOL    HW235097   1.158   1.672   2.458  2.2914  0.2049  0.7554
 7822SOL     OW35098   2.223   0.423   7.739  0.2527  0.1653 -0.2255
 7822SOL    HW135099   2.227   0.374   7.657  1.0276 -0.4234  0.1689
 7822SOL    HW235100   2.156   0.365   7.776  1.4360 -0.0504  1.5518
 7823SOL     OW35101   2.978   4.356   2.130  0.5582 -0.2067  0.0683
 7823SOL    HW135102   2.952   4.349   2.222  1.7819 -2.5130  0.2358
 7823SOL    HW235103   2.980   4.451   2.118  0.2922  0.0719  2.1120
 7824SOL     OW35104   2.207   1.340   8.661  0.4827 -0.4282 -0.0039
 7824SOL    HW135105   2.168   1.413   8.613 -2.4818 -1.3396  0.9782
 7824SOL    HW235106   2.219   1.380   8.747  0.8244 -1.0955  0.2555
 7825SOL     OW35107   0.535   4.609  14.141  0.2385  0.1891  0.1250
 7825SOL    HW135108   0.574   4.665  14.208 -2.0927  2.3763 -0.3360
 7825SOL    HW235109   0.444   4.637  14.129 -0.1954 -0.3231  2.0225
 7826SOL     OW35110   2.015   0.567   9.380  0.2880  0.1402 -0.1813
 7826SOL    HW135111   1.927   0.530   9.378  0.5511 -0.7088  3.4514
 7826SOL    HW235112   2.051   0.527   9.301  1.5822  0.6868  0.1191
 7827SOL     OW35113   4.313   2.167   8.178 -0.0306  0.1777  0.1033
 7827SOL    HW135114   4.261   2.093   8.209 -0.2549  0.9648  1.6122
 7827SOL    HW235115   4.308   2.161   8.082  0.8145  0.4175  0.0452
 7828SOL     OW35116   3.286   0.733   8.862  0.3922 -0.6994  0.4040
 7828SOL    HW135117   3.229   0.800   8.824  0.5910 -0.8590 -0.1789
 7828SOL    HW235118   3.374   0.764   8.838 -0.2700 -0.3807 -1.6134
 7829SOL     OW35119   0.612   3.863   9.820 -0.1153 -0.4341  0.0209
 7829SOL    HW135120   0.679   3.895   9.760 -0.5437  1.1187  0.3886
 7829SOL    HW235121   0.538   3.912   9.785  0.4443  0.0433 -0.4842
 7830SOL     OW35122   3.368   2.689   7.554 -0.5712 -0.2157  0.4854
 7830SOL    HW135123   3.384   2.779   7.583  0.3902 -0.3448  0.3423
 7830SOL    HW235124   3.431   2.682   7.482  0.9520 -2.4946  2.0728
 7831SOL     OW35125   4.585   1.941  15.324 -0.3035  0.1395  0.2686
 7831SOL    HW135126   4.506   1.913  15.372 -0.9733  0.3445 -0.7221
 7831SOL    HW235127   4.639   1.867  15.350  0.6347  1.5571  2.3760
 7832SOL     OW35128   0.699   3.708   4.230  0.2291 -0.1416  0.1886
 7832SOL    HW135129   0.743   3.680   4.310  0.0923  0.2834  0.4175
 7832SOL    HW235130   0.632   3.640   4.228 -0.8444  0.9002  0.1696
 7833SOL     OW35131   0.827   3.676  12.739 -0.0204 -0.1541  0.3992
 7833SOL    HW135132   0.823   3.643  12.650  1.6012  0.5987  0.0550
 7833SOL    HW235133   0.920   3.672  12.765  0.7029  0.8997 -2.0795
 7834SOL     OW35134   2.054   4.693  13.013 -0.6254  0.1134  0.0019
 7834SOL    HW135135   2.130   0.013  12.996 -0.3126 -0.2772  0.1191
 7834SOL    HW235136   2.033   4.709  13.105  0.5415  1.4148  0.0492
 7835SOL     OW35137   3.161   1.126   4.234 -0.4230  0.2625  0.2283
 7835SOL    HW135138   3.240   1.144   4.286 -0.6364  1.0505  0.2790
 7835SOL    HW235139   3.190   1.141   4.144  1.0429  0.8536  0.8020
 7836SOL     OW35140   1.366   0.941   8.214 -0.1175  0.2172 -0.9509
 7836SOL    HW135141   1.301   0.963   8.280 -0.5555 -1.3173 -0.8555
 7836SOL    HW235142   1.429   0.887   8.261 -1.4115 -0.3863  0.0970
 7837SOL     OW35143   0.383   2.067   7.591  0.2362  0.2794 -0.6774
 7837SOL    HW135144   0.431   2.116   7.523  3.4168 -2.5358 -0.4721
 7837SOL    HW235145   0.369   1.982   7.550 -1.5989  0.3336 -0.1678
 7838SOL     OW35146   2.370   0.930   4.625 -0.0522 -0.9532 -0.6282
 7838SOL    HW135147   2.444   0.914   4.566  0.6333  1.0789 -0.3260
 7838SOL    HW235148   2.340   1.012   4.586 -1.0220 -0.7995  0.4349
 7839SOL     OW35149   0.563   0.059   5.911  0.4205  0.8071 -0.1987
 7839SOL    HW135150   0.572   0.054   5.816 -1.4108  2.8774 -0.4857
 7839SOL    HW235151   0.653   0.049   5.942  1.3199  4.1800 -1.6414
 7840SOL     OW35152   3.631   0.948   2.435 -0.5547 -0.1557  0.6392
 7840SOL    HW135153   3.656   0.870   2.484  1.4188 -0.3471 -0.6784
 7840SOL    HW235154   3.712   0.998   2.449 -0.5832 -0.1733  0.8606
 7841SOL     OW35155   2.472   1.018   7.704  0.3175 -0.1843  0.4617
 7841SOL    HW135156   2.485   1.068   7.785  1.5442 -2.3877  1.6132
 7841SOL    HW235157   2.387   0.979   7.725 -0.6930  2.1439  0.7644
 7842SOL     OW35158   1.145   0.299   4.532 -0.7926  0.2133 -0.7133
 7842SOL    HW135159   1.139   0.207   4.557 -1.4118  0.7787  1.1764
 7842SOL    HW235160   1.054   0.326   4.541 -1.4323 -1.9264 -0.7673
 7843SOL     OW35161   3.082   2.508   5.547  0.8103 -0.5477  0.4000
 7843SOL    HW135162   3.119   2.595   5.562  2.7180 -1.5647  1.5951
 7843SOL    HW235163   3.013   2.500   5.613  1.5218 -1.3340  1.0495
 7844SOL     OW35164   4.584   0.888   2.863 -0.7317  0.0299  0.1457
 7844SOL    HW135165   4.597   0.803   2.820 -0.3767  1.0491 -1.7492
 7844SOL    HW235166   4.542   0.932   2.790 -0.2752 -2.0242 -1.3558
 7845SOL     OW35167   3.930   3.693   8.597  0.3834  0.3071  0.2203
 7845SOL    HW135168   3.910   3.675   8.505 -0.6932 -0.3253  0.5684
 7845SOL    HW235169   3.838   3.703   8.623  0.2965  0.3497 -0.1021
 7846SOL     OW35170   1.362   3.479  12.986 -0.6704  0.5251  0.0083
 7846SOL    HW135171   1.323   3.414  12.928  1.2180 -0.3740 -0.2387
 7846SOL    HW235172   1.428   3.529  12.938  2.9099 -4.9982 -0.7581
 7847SOL     OW35173   0.531   3.811   8.265 -0.1073  0.0089 -0.2373
 7847SOL    HW135174   0.552   3.793   8.357  0.3788 -0.9069 -0.5343
 7847SOL    HW235175   0.461   3.749   8.244 -0.5311  0.4963 -0.2835
 7848SOL     OW35176   0.221   1.656  17.709  0.7470 -0.5647  0.4358
 7848SOL    HW135177   0.223   1.605  17.628 -1.0425 -1.6318  1.0925
 7848SOL    HW235178   0.278   1.723  17.670 -1.9126  2.3969  1.6770
 7849SOL     OW35179   3.197   4.234   7.315 -0.2063  0.1599 -0.4143
 7849SOL    HW135180   3.123   4.291   7.335 -0.0730  0.4378 -0.6962
 7849SOL    HW235181   3.212   4.257   7.223 -0.0108 -2.5987 -1.0624
 7850SOL     OW35182   3.447   3.848   2.523  0.0619 -0.1015 -0.0195
 7850SOL    HW135183   3.385   3.780   2.497  0.8348  0.7884 -4.3037
 7850SOL    HW235184   3.397   3.921   2.487  0.2760 -0.0515 -0.2195
 7851SOL     OW35185   1.033   3.608   0.259  0.6940  0.2397  0.0645
 7851SOL    HW135186   1.009   3.682   0.315  0.7283 -0.9329  1.6182
 7851SOL    HW235187   0.953   3.556   0.255  0.0504  1.1648  1.0070
 7852SOL     OW35188   1.703   4.408   0.844 -0.0223 -0.0352 -0.6493
 7852SOL    HW135189   1.781   4.465   0.839  0.1745 -0.6289 -4.8522
 7852SOL    HW235190   1.649   4.465   0.899  2.3599  0.9983  0.6219
 7853SOL     OW35191   2.577   0.297   1.452  0.1582  0.0523 -0.4424
 7853SOL    HW135192   2.518   0.357   1.498  0.3015  0.1199 -0.3477
 7853SOL    HW235193   2.601   0.357   1.382 -2.2562  2.1777  0.5084
 7854SOL     OW35194   0.390   3.343   0.277  0.4655  0.1597 -0.3547
 7854SOL    HW135195   0.341   3.314   0.354 -2.4074 -1.4554 -2.7863
 7854SOL    HW235196   0.363   3.272   0.219  0.8849  0.3740 -0.8091
 7855SOL     OW35197   1.922   2.039  11.078  0.1004  0.1466 -0.2574
 7855SOL    HW135198   1.886   2.122  11.110 -1.0677  1.0912 -4.0944
 7855SOL    HW235199   1.903   2.048  10.985  1.2017  0.7716 -0.4320
 7856SOL     OW35200   2.904   0.360   1.996 -0.1205 -0.0208 -0.1277
 7856SOL    HW135201   2.973   0.396   1.939  0.2085  0.5695  0.6429
 7856SOL    HW235202   2.829   0.412   1.967 -0.0113  0.6815  0.8515
 7857SOL     OW35203   0.046   2.254   2.388  0.0554  0.0576 -0.3329
 7857SOL    HW135204   0.118   2.200   2.420 -0.5280 -0.9634 -0.7370
 7857SOL    HW235205   0.071   2.342   2.416 -1.6502  0.5832 -0.4721
 7858SOL     OW35206   1.553   2.272  11.539 -0.4021  0.5311  0.1007
 7858SOL    HW135207   1.610   2.289  11.464 -0.2102  1.3226  0.4229
 7858SOL    HW235208   1.610   2.294  11.613  0.2978 -1.8098  0.2327
 7859SOL     OW35209   3.204   4.640   2.284 -0.4236  0.2345 -0.2201
 7859SOL    HW135210   3.218   4.734   2.294  0.8231 -0.1230  1.6051
 7859SOL    HW235211   3.115   4.642   2.249 -1.3252 -0.2469  2.0107
 7860SOL     OW35212   2.006   3.231   5.098 -0.0693 -0.3674 -0.0365
 7860SOL    HW135213   2.078   3.184   5.140 -0.7674 -1.3705  0.0417
 7860SOL    HW235214   1.942   3.161   5.084  1.7277 -2.0203  0.1536
 7861SOL     OW35215   4.171   0.695   2.812 -0.1329 -0.6691  0.1164
 7861SOL    HW135216   4.192   0.689   2.905  0.6063 -0.7186 -0.0580
 7861SOL    HW235217   4.133   0.782   2.804  2.6224  0.6288  1.3815
 7862SOL     OW35218   4.567   2.848   0.570 -0.9304 -0.1553 -0.5716
 7862SOL    HW135219   4.518   2.857   0.652 -1.1574 -1.2759 -0.5889
 7862SOL    HW235220   4.584   2.754   0.571  1.7673  0.3362  1.1409
 7863SOL     OW35221   2.998   1.380   4.549 -0.6436 -0.4198 -0.3566
 7863SOL    HW135222   2.943   1.443   4.596  0.3726  0.0697  0.1692
 7863SOL    HW235223   3.050   1.338   4.617 -2.6235  0.2343  1.5505
 7864SOL     OW35224   3.672   1.612  11.837 -0.4638  0.5318 -0.2884
 7864SOL    HW135225   3.741   1.663  11.795 -0.0887 -0.3637 -0.7540
 7864SOL    HW235226   3.663   1.546  11.769  0.7100 -2.4059  2.4012
 7865SOL     OW35227   1.521   4.330   0.052  0.5894 -0.3861 -0.2526
 7865SOL    HW135228   1.518   4.236   0.069  1.8713 -0.2401  0.7866
 7865SOL    HW235229   1.572   4.355   0.129 -0.2884  0.0766  0.1939
 7866SOL     OW35230   3.554   0.204   3.955 -0.4056  0.6414 -0.1962
 7866SOL    HW135231   3.599   0.219   3.871 -1.7171 -3.4957 -1.6110
 7866SOL    HW235232   3.612   0.253   4.014  0.0281  0.0084 -0.0952
 7867SOL     OW35233   3.330   3.405   5.299 -0.0796 -0.9348 -0.2555
 7867SOL    HW135234   3.247   3.420   5.345 -0.7600  2.3101 -2.4872
 7867SOL    HW235235   3.320   3.318   5.260 -0.5655 -0.0532 -2.1453
 7868SOL     OW35236   3.036   2.057   6.649  1.0058 -0.2992  0.3894
 7868SOL    HW135237   3.028   1.970   6.688 -2.0982 -0.2497 -0.1586
 7868SOL    HW235238   3.048   2.102   6.733 -1.5237  1.5461 -0.2471
 7869SOL     OW35239   4.549   0.918  10.910 -0.0412  0.5188  0.2982
 7869SOL    HW135240   4.606   0.842  10.913 -0.6138  0.0902  0.3929
 7869SOL    HW235241   4.485   0.909  10.981  0.6694  0.7050  0.9646
 7870SOL     OW35242   2.180   1.994   4.112 -0.2177 -0.3385 -0.0212
 7870SOL    HW135243   2.158   2.005   4.019 -0.2279  2.3660  0.3059
 7870SOL    HW235244   2.268   1.958   4.099  0.2272  0.6247  0.3516
 7871SOL     OW35245   0.952   0.239   9.430 -0.7020 -0.2108 -0.6377
 7871SOL    HW135246   1.039   0.270   9.455 -0.4252  0.6803 -2.7088
 7871SOL    HW235247   0.949   0.186   9.509 -1.6544 -0.5209 -0.8830
 7872SOL     OW35248   1.780   2.308   0.392  0.3387 -0.3161  0.0220
 7872SOL    HW135249   1.728   2.239   0.350  0.5481 -0.3551 -0.1727
 7872SOL    HW235250   1.869   2.300   0.357  0.6765  0.5160  0.7045
 7873SOL     OW35251   0.329   0.746   4.917 -0.0270 -0.4829  0.2683
 7873SOL    HW135252   0.249   0.722   4.869  2.1085 -2.3836 -2.2915
 7873SOL    HW235253   0.368   0.665   4.951  0.3808 -0.6695 -0.6625
 7874SOL     OW35254   1.883   4.579   3.286 -0.1562  0.1543  0.8498
 7874SOL    HW135255   1.941   4.628   3.228 -0.8180 -1.3526 -1.0559
 7874SOL    HW235256   1.918   4.492   3.266 -1.1617 -0.2015  0.6567
 7875SOL     OW35257   1.054   0.039  15.024 -0.6084  0.7247 -0.6504
 7875SOL    HW135258   1.038   0.090  14.945  0.5966 -1.1881 -2.1424
 7875SOL    HW235259   1.060   4.686  14.989 -2.7939 -0.0116  0.8645
 7876SOL     OW35260   2.562   0.164   8.933 -0.2327 -0.3132  0.4718
 7876SOL    HW135261   2.621   0.175   9.009 -0.9320  0.4376  0.9099
 7876SOL    HW235262   2.630   0.123   8.880 -2.2159 -0.0829 -2.1933
 7877SOL     OW35263   2.601   1.181   9.792 -0.4866  0.6824  0.3283
 7877SOL    HW135264   2.556   1.263   9.773 -0.2950  0.9547  1.0406
 7877SOL    HW235265   2.540   1.126   9.744  1.7170 -1.3801 -0.1488
 7878SOL     OW35266   1.113   1.863  10.572 -0.3028  0.3025 -0.4173
 7878SOL    HW135267   1.066   1.797  10.522 -0.2653  0.3135 -0.4676
 7878SOL    HW235268   1.108   1.817  10.656 -1.5900  1.5789  0.2173
 7879SOL     OW35269   4.102   3.419   6.869 -0.6649  0.1919 -0.0869
 7879SOL    HW135270   4.098   3.351   6.801  0.6849  0.1720 -0.1465
 7879SOL    HW235271   4.153   3.376   6.938  1.1076  2.2344 -0.1285
 7880SOL     OW35272   3.735   1.565  11.220  0.2631 -0.0386 -0.8245
 7880SOL    HW135273   3.769   1.587  11.307  0.7294 -0.0310 -1.0068
 7880SOL    HW235274   3.790   1.629  11.175 -0.1437 -1.4166 -3.3146
 7881SOL     OW35275   1.802   1.174   5.602  0.6994 -0.3111  0.0795
 7881SOL    HW135276   1.871   1.194   5.665 -0.7392 -0.9061  1.8514
 7881SOL    HW235277   1.826   1.097   5.550 -0.5191  0.9261 -2.3256
 7882SOL     OW35278   3.726   3.877   8.660  0.0621 -0.2252  0.1205
 7882SOL    HW135279   3.747   3.905   8.571  0.6559 -0.4135  0.2035
 7882SOL    HW235280   3.631   3.864   8.654 -0.0351  1.0744 -1.0507
 7883SOL     OW35281   3.241   1.563   4.210  0.5086  0.0779 -0.2282
 7883SOL    HW135282   3.183   1.619   4.261  0.5144  0.2213 -0.3790
 7883SOL    HW235283   3.301   1.530   4.278  0.1031 -0.6599 -0.2241
 7884SOL     OW35284   2.356   3.732   2.253  0.1350  0.6231 -0.0852
 7884SOL    HW135285   2.435   3.730   2.308 -0.7130  0.6055  1.1169
 7884SOL    HW235286   2.305   3.809   2.276  3.0062  2.6230 -0.4013
 7885SOL     OW35287   2.560   2.119   5.355 -0.4291 -0.2710 -0.0171
 7885SOL    HW135288   2.496   2.051   5.334 -0.9420  0.4345 -0.7390
 7885SOL    HW235289   2.531   2.126   5.446  0.2841  1.7886  0.0506
 7886SOL     OW35290   0.369   4.173   7.484 -0.0367  0.2832 -0.4152
 7886SOL    HW135291   0.291   4.212   7.523  0.7874  0.3819  1.1002
 7886SOL    HW235292   0.433   4.160   7.554 -1.4212 -0.4028  0.7242
 7887SOL     OW35293   0.296   2.515   4.353 -0.0955 -0.6170 -0.1290
 7887SOL    HW135294   0.313   2.448   4.420 -0.5131 -0.4837  0.1086
 7887SOL    HW235295   0.202   2.531   4.357  0.0515  0.2620 -0.2515
 7888SOL     OW35296   0.447   4.334  10.346 -0.1823 -0.0704 -0.2630
 7888SOL    HW135297   0.374   4.292  10.391  0.7896 -2.5048 -0.9376
 7888SOL    HW235298   0.510   4.331  10.418 -0.8340 -1.8907  0.2223
 7889SOL     OW35299   1.448   0.166   7.825 -0.4855 -0.1644 -0.1252
 7889SOL    HW135300   1.392   0.240   7.848 -1.0172 -0.8103  0.6601
 7889SOL    HW235301   1.456   0.125   7.911  1.0453  1.7077  0.6179
 7890SOL     OW35302   2.603   1.862   7.421 -0.4976 -0.0142 -0.0517
 7890SOL    HW135303   2.610   1.797   7.491 -2.1972 -0.8945 -0.6878
 7890SOL    HW235304   2.574   1.935   7.475  0.3057 -1.7464  2.7126
 7891SOL     OW35305   3.655   4.174  16.109 -0.0806 -0.0381  0.7329
 7891SOL    HW135306   3.623   4.084  16.111  1.2402 -0.4712  1.7774
 7891SOL    HW235307   3.632   4.204  16.197 -1.5543  1.7436 -0.2561
 7892SOL     OW35308   1.118   2.377   4.513  0.0076  0.8143 -0.4960
 7892SOL    HW135309   1.180   2.438   4.553 -0.0578  1.9081 -2.1044
 7892SOL    HW235310   1.074   2.345   4.593 -0.4302  0.7554 -0.7634
 7893SOL     OW35311   2.522   2.081   4.846 -0.0780  0.0825 -0.0770
 7893SOL    HW135312   2.549   2.037   4.765 -2.6721 -0.5612 -0.6050
 7893SOL    HW235313   2.596   2.142   4.841  0.5305 -0.5670  1.0765
 7894SOL     OW35314   0.816   1.850  15.394 -0.4396 -0.0304  0.0322
 7894SOL    HW135315   0.749   1.846  15.462 -0.8468 -1.0602 -0.4404
 7894SOL    HW235316   0.821   1.764  15.353  2.1625 -1.0716  2.5879
 7895SOL     OW35317   1.069   4.003   4.279  0.5916  0.2005 -0.0448
 7895SOL    HW135318   1.127   3.927   4.277  1.5681  0.9862 -1.3166
 7895SOL    HW235319   1.010   3.987   4.205 -0.3417 -0.4981  0.8474
 7896SOL     OW35320   4.029   4.524   9.880  0.0996 -0.2615 -0.1979
 7896SOL    HW135321   4.070   4.502   9.797  2.3900 -1.4702  1.2507
 7896SOL    HW235322   4.094   4.567   9.936  1.6186 -0.7413 -1.5955
 7897SOL     OW35323   2.624   0.729   7.144 -0.3534  0.0263  0.5803
 7897SOL    HW135324   2.653   0.772   7.065  1.5432  0.7027  1.6579
 7897SOL    HW235325   2.629   0.795   7.213 -1.6612  1.5152 -0.7528
 7898SOL     OW35326   4.520   4.598   4.075  0.4675  0.2179  0.1689
 7898SOL    HW135327   4.500   4.512   4.037 -0.8528  1.1948 -1.3566
 7898SOL    HW235328   4.432   4.634   4.059 -0.7185 -3.4212 -1.4731
 7899SOL     OW35329   1.269   3.574   1.229  0.5884  0.8765  0.2722
 7899SOL    HW135330   1.331   3.502   1.224 -3.1506 -2.4032  1.6484
 7899SOL    HW235331   1.294   3.621   1.309  0.3926 -0.4420  1.1040
 7900SOL     OW35332   2.041   2.964  17.243  0.1121  0.1083 -0.3570
 7900SOL    HW135333   2.009   3.025  17.177  0.2582  1.3000  0.6773
 7900SOL    HW235334   2.123   2.939  17.199 -0.8911 -1.2773 -1.4221
 7901SOL     OW35335   2.803   4.666   9.599  0.3322 -0.1946 -0.2163
 7901SOL    HW135336   2.862   4.603   9.556  0.3160  0.0480 -0.5936
 7901SOL    HW235337   2.871   4.731   9.616  0.4698 -0.5104  0.4265
 7902SOL     OW35338   1.245   4.373  14.959 -0.4523 -0.3880 -0.0312
 7902SOL    HW135339   1.164   4.390  15.006 -0.5017  1.4520 -0.7889
 7902SOL    HW235340   1.306   4.402  15.028  1.6276 -2.4587 -0.9996
 7903SOL     OW35341   3.585   1.056   6.230 -0.1485  0.1439 -0.1171
 7903SOL    HW135342   3.638   1.123   6.274 -1.3135  0.5017  0.7260
 7903SOL    HW235343   3.510   1.037   6.285 -1.4869  1.4519 -1.4664
 7904SOL     OW35344   1.071   0.901   4.682 -0.3166  0.3549  0.3731
 7904SOL    HW135345   1.012   0.837   4.723 -0.3935  1.0175  1.2926
 7904SOL    HW235346   1.012   0.955   4.629 -1.5451 -3.0529 -1.7313
 7905SOL     OW35347   3.803   3.371   3.293  0.2861 -0.0562 -0.3068
 7905SOL    HW135348   3.803   3.355   3.198 -0.3171 -1.3842 -0.0862
 7905SOL    HW235349   3.712   3.351   3.314  0.2065  0.7454  0.1082
 7906SOL     OW35350   1.728   4.463  17.640 -0.1206  0.1778 -0.0750
 7906SOL    HW135351   1.651   4.413  17.668 -0.4263  0.4200 -0.4753
 7906SOL    HW235352   1.711   4.549  17.679  0.7445  0.6980 -0.8483
 7907SOL     OW35353   2.469   0.695  16.038  0.6001  0.1763 -0.3597
 7907SOL    HW135354   2.406   0.738  16.097  2.3729  2.1362  0.1062
 7907SOL    HW235355   2.479   0.769  15.977 -0.0496  2.3156  2.1056
 7908SOL     OW35356   1.112   0.360   7.056  0.3738 -0.4565  0.1252
 7908SOL    HW135357   1.073   0.445   7.077 -1.4324 -1.5852  1.3680
 7908SOL    HW235358   1.039   0.326   7.003  1.7831 -0.6202 -1.6929
 7909SOL     OW35359   0.773   0.565  12.480 -0.1742  0.5434  0.1067
 7909SOL    HW135360   0.755   0.607  12.564 -0.8473  2.2710 -0.9037
 7909SOL    HW235361   0.684   0.565  12.444  0.1741  1.0000 -0.7518
 7910SOL     OW35362   2.151   1.573   8.537  0.4173 -0.7267  0.4393
 7910SOL    HW135363   2.131   1.618   8.619 -1.2684 -1.4598  0.4298
 7910SOL    HW235364   2.085   1.602   8.474  1.0921 -0.0551  0.0431
 7911SOL     OW35365   1.114   1.571  17.696  0.2258 -0.3459  0.4049
 7911SOL    HW135366   1.175   1.576   0.027 -0.1397  0.2108  0.6719
 7911SOL    HW235367   1.176   1.550  17.627  1.3993  3.0838  0.4431
 7912SOL     OW35368   2.951   0.962   7.138 -0.4260 -0.3495  0.5108
 7912SOL    HW135369   2.979   0.968   7.229  3.5918  1.4704 -0.8450
 7912SOL    HW235370   2.857   0.973   7.152 -0.3136  2.4509 -0.9298
 7913SOL     OW35371   0.131   1.850  16.315 -0.0552 -0.0725 -0.8492
 7913SOL    HW135372   0.196   1.780  16.305  1.1396  0.9586 -0.1407
 7913SOL    HW235373   0.074   1.816  16.384  1.0651  0.5842  0.3841
 7914SOL     OW35374   3.205   1.107   0.340 -0.1578  0.2475  0.0090
 7914SOL    HW135375   3.117   1.082   0.310  0.2711  0.3320 -1.3026
 7914SOL    HW235376   3.251   1.084   0.260  0.5314  2.3465 -0.1976
 7915SOL     OW35377   0.203   0.032  14.646 -0.0105 -0.5815 -0.1737
 7915SOL    HW135378   0.245   0.002  14.565  1.6738  0.6080  0.2598
 7915SOL    HW235379   0.134   0.084  14.606 -0.9411 -0.4822  1.5751
 7916SOL     OW35380   2.169   3.672   8.348 -0.1732 -0.0304  0.6872
 7916SOL    HW135381   2.264   3.662   8.339 -0.1774 -0.1086  0.7298
 7916SOL    HW235382   2.157   3.613   8.423 -0.0396 -0.2162  0.5623
 7917SOL     OW35383   0.196   0.385   3.535 -0.0274  0.1830 -0.1938
 7917SOL    HW135384   0.131   0.316   3.551  1.2622 -0.9490  0.2956
 7917SOL    HW235385   0.266   0.328   3.502  0.6571  0.7739  0.2476
 7918SOL     OW35386   0.917   2.107   4.527  0.0708  0.3403  0.1889
 7918SOL    HW135387   0.876   2.191   4.546 -0.0470  0.2132  0.5103
 7918SOL    HW235388   0.993   2.104   4.585  0.4482 -4.4509 -0.5309
 7919SOL     OW35389   1.143   2.176   5.907  0.3830 -0.1131 -0.4499
 7919SOL    HW135390   1.115   2.226   5.983 -1.3364  1.7599 -2.3197
 7919SOL    HW235391   1.238   2.187   5.914  0.5308 -1.0401 -1.0092
 7920SOL     OW35392   2.966   4.374   7.009  0.9622 -0.1713  0.2349
 7920SOL    HW135393   2.871   4.379   7.019  0.5267 -3.4152 -2.1423
 7920SOL    HW235394   2.965   4.301   6.947  0.9018  0.9351 -1.0460
 7921SOL     OW35395   1.421   4.361   7.128  0.6228  0.2205 -0.1616
 7921SOL    HW135396   1.497   4.338   7.074 -0.0241 -1.0663 -0.5160
 7921SOL    HW235397   1.352   4.377   7.064  0.7876 -0.2059 -0.4420
 7922SOL     OW35398   4.348   3.227   0.506 -0.3649  0.3152  0.0394
 7922SOL    HW135399   4.439   3.245   0.482 -0.3063  0.7345  0.5544
 7922SOL    HW235400   4.327   3.284   0.581 -2.4078 -1.1596  0.5769
 7923SOL     OW35401   3.254   4.334   2.117 -0.4044 -0.1226 -0.2974
 7923SOL    HW135402   3.267   4.381   2.200  1.1474  0.8858 -1.1128
 7923SOL    HW235403   3.168   4.370   2.094 -0.6285 -1.4600 -1.5377
 7924SOL     OW35404   0.014   4.393   7.870  0.7397  0.2506 -0.7033
 7924SOL    HW135405   4.726   4.417   7.780 -0.5188 -1.6839 -0.8825
 7924SOL    HW235406   4.666   4.400   7.916  0.5556 -1.8043 -0.7576
 7925SOL     OW35407   0.418   0.185   5.422  0.4586 -0.5556  0.2581
 7925SOL    HW135408   0.341   0.186   5.479 -0.9241 -1.8438 -1.6030
 7925SOL    HW235409   0.388   0.139   5.344 -0.3032 -1.1935  0.9275
 7926SOL     OW35410   1.886   1.369   8.517  0.0562 -0.4884 -0.4470
 7926SOL    HW135411   1.970   1.323   8.525  0.3658  0.0342 -0.6329
 7926SOL    HW235412   1.854   1.326   8.438  0.2811 -0.1359 -0.7311
 7927SOL     OW35413   1.071   0.159  15.252 -0.3920  0.1160  0.3186
 7927SOL    HW135414   1.003   0.209  15.206 -1.3358 -0.0624  1.4936
 7927SOL    HW235415   1.101   0.112  15.175  2.7332  0.1125  1.5661
 7928SOL     OW35416   3.417   0.478   7.719  0.3900 -0.3049  0.1789
 7928SOL    HW135417   3.448   0.471   7.629  2.6675  2.3951  0.7618
 7928SOL    HW235418   3.350   0.410   7.716  1.4381 -1.2839 -1.1124
 7929SOL     OW35419   4.577   0.039   3.149 -0.0854  0.0264  0.0887
 7929SOL    HW135420   4.500   4.726   3.119  1.2774 -0.6430 -2.3392
 7929SOL    HW235421   4.634   0.017   3.075  1.4767 -0.2296  1.3904
 7930SOL     OW35422   0.875   4.376  17.505 -0.0439 -0.4503  0.2301
 7930SOL    HW135423   0.947   4.425  17.466 -1.0003 -0.8366 -2.0679
 7930SOL    HW235424   0.901   4.380  17.597 -1.3220  2.1920  0.4891
 7931SOL     OW35425   2.725   0.219  15.492 -0.7894  0.0284  0.3154
 7931SOL    HW135426   2.784   0.209  15.567 -0.1900  1.0955 -0.0125
 7931SOL    HW235427   2.769   0.285  15.439 -2.2323  0.5410 -0.2505
 7932SOL     OW35428   2.203   1.908   8.654  0.4077  0.0355 -0.1387
 7932SOL    HW135429   2.159   1.967   8.715  1.1507 -0.9042  1.3208
 7932SOL    HW235430   2.174   1.824   8.689  1.8070 -0.6852 -0.6932
 7933SOL     OW35431   1.862   0.057   4.595 -0.2442  0.1874 -0.0915
 7933SOL    HW135432   1.861   0.151   4.580 -0.2825  0.3315  0.7747
 7933SOL    HW235433   1.770   0.035   4.606 -0.1267 -0.4813 -0.4352
 7934SOL     OW35434   4.506   0.026   6.587  0.3356 -0.5299  0.3635
 7934SOL    HW135435   4.413   0.037   6.571  1.0221  3.5710 -0.7742
 7934SOL    HW235436   4.518   4.669   6.566  1.4140 -0.1095 -0.8908
 7935SOL     OW35437   2.259   4.369   2.466 -0.0332 -0.0287 -0.4631
 7935SOL    HW135438   2.289   4.446   2.418 -2.2967  1.0417 -0.1542
 7935SOL    HW235439   2.322   4.304   2.435  0.8459  1.2177 -1.2837
 7936SOL     OW35440   0.149   2.734   5.910  0.3223  0.2311 -0.4987
 7936SOL    HW135441   0.234   2.699   5.883  0.5206  0.2478  0.1170
 7936SOL    HW235442   0.146   2.809   5.850  0.2974 -0.2726 -1.1277
 7937SOL     OW35443   1.592   2.573   1.633  0.1031 -0.4416  0.0401
 7937SOL    HW135444   1.504   2.589   1.601  0.5784  1.9893 -0.0476
 7937SOL    HW235445   1.636   2.649   1.595  1.5509  0.0625  2.6736
 7938SOL     OW35446   3.830   1.055   5.873 -0.0443  0.0868 -0.2938
 7938SOL    HW135447   3.902   1.117   5.879 -0.3141  0.3736 -0.0273
 7938SOL    HW235448   3.789   1.093   5.795 -1.1618 -2.6523 -1.0805
 7939SOL     OW35449   0.756   3.500   7.333 -0.0237  0.3725  0.2428
 7939SOL    HW135450   0.760   3.480   7.426  3.7611 -1.4730 -0.3006
 7939SOL    HW235451   0.847   3.529   7.325  0.3230 -1.4897 -2.4347
 7940SOL     OW35452   2.937   3.948  17.492  0.6137  0.2054  0.3474
 7940SOL    HW135453   2.903   3.958  17.403  0.7122 -0.4060  0.2425
 7940SOL    HW235454   2.876   3.878  17.517  0.4933 -0.2957 -1.3752
 7941SOL     OW35455   4.186   4.011   4.075 -0.5790  0.3316 -0.0774
 7941SOL    HW135456   4.253   3.989   4.010  0.4184  3.1632 -0.0262
 7941SOL    HW235457   4.216   4.090   4.120 -1.8682  0.2246  0.9570
 7942SOL     OW35458   3.233   4.336   7.060 -0.1368  0.3277 -0.3790
 7942SOL    HW135459   3.167   4.386   7.013 -0.8821  0.5148  0.8779
 7942SOL    HW235460   3.315   4.383   7.043 -0.6598  1.5763  0.5092
 7943SOL     OW35461   2.286   4.121   8.609  0.1484  0.0931  0.1946
 7943SOL    HW135462   2.298   4.212   8.581  0.1474  0.7939  2.5154
 7943SOL    HW235463   2.237   4.129   8.691  1.2887 -1.1088  0.9975
 7944SOL     OW35464   3.315   3.189  11.703 -0.1190  0.6864  0.5913
 7944SOL    HW135465   3.375   3.262  11.720  1.0608 -0.5514  1.7272
 7944SOL    HW235466   3.284   3.200  11.613 -0.8804  0.4318  0.8253
 7945SOL     OW35467   1.569   0.745  17.604 -0.4229 -0.4832  0.1184
 7945SOL    HW135468   1.657   0.722  17.634  0.7861  2.4717 -1.1905
 7945SOL    HW235469   1.538   0.661  17.570  1.8821 -1.7008  0.9850
 7946SOL     OW35470   3.084   2.072  17.096 -0.0478  0.4147 -0.1292
 7946SOL    HW135471   3.106   2.036  17.182 -0.4993 -1.8037 -0.9207
 7946SOL    HW235472   3.075   1.994  17.040 -1.4096 -1.3383  2.5347
 7947SOL     OW35473   4.215   4.118  17.055 -0.0634  0.1937  0.7414
 7947SOL    HW135474   4.210   4.165  16.972 -0.0964  0.6687  1.0129
 7947SOL    HW235475   4.124   4.092  17.067 -0.5105 -0.5372 -4.4923
 7948SOL     OW35476   3.775   1.664   5.748 -0.2505 -0.0778 -0.0383
 7948SOL    HW135477   3.773   1.577   5.708  1.0145  0.2232 -0.7739
 7948SOL    HW235478   3.694   1.709   5.726  0.0570  0.2023 -0.5993
 7949SOL     OW35479   0.635   0.504   6.748 -0.1760  0.2496  0.0050
 7949SOL    HW135480   0.614   0.593   6.721  2.4346  0.5621 -0.9890
 7949SOL    HW235481   0.573   0.449   6.700  1.3810  0.4437 -2.2384
 7950SOL     OW35482   0.657   0.928   3.259  0.4901  0.2117  0.0670
 7950SOL    HW135483   0.619   0.945   3.173  1.4177  1.9369 -0.0143
 7950SOL    HW235484   0.579   0.927   3.315  0.0171  0.1279 -0.5882
 7951SOL     OW35485   3.441   4.454   4.174 -0.3111 -0.2819  0.4535
 7951SOL    HW135486   3.513   4.424   4.119  0.6275  0.0412  1.5050
 7951SOL    HW235487   3.456   4.546   4.158  2.6194 -0.6276  1.2650
 7952SOL     OW35488   4.682   2.146   6.043 -0.2270 -0.3388 -0.5280
 7952SOL    HW135489   4.630   2.222   6.015 -3.8147 -2.5864  0.0849
 7952SOL    HW235490   4.688   2.087   5.968 -1.1868 -1.9726  0.6839
 7953SOL     OW35491   4.265   4.554   5.552 -0.0147 -0.9272 -0.0223
 7953SOL    HW135492   4.329   4.619   5.580  0.6712 -0.2727 -3.2257
 7953SOL    HW235493   4.240   4.586   5.466  1.1842 -0.0881 -0.0617
 7954SOL     OW35494   2.112   0.190  17.064  0.0275  0.5855  0.2333
 7954SOL    HW135495   2.146   0.159  17.148  0.0762  2.8689  1.0364
 7954SOL    HW235496   2.023   0.219  17.087 -0.5736 -0.4706 -0.7273
 7955SOL     OW35497   1.375   1.344   0.536  0.1728 -0.0819  0.1611
 7955SOL    HW135498   1.303   1.281   0.541 -0.2801  0.6057  2.3451
 7955SOL    HW235499   1.400   1.340   0.443  1.1406 -1.5256  0.4782
 7956SOL     OW35500   3.660   3.084   0.410  0.3641 -0.4607  0.1745
 7956SOL    HW135501   3.660   3.150   0.341 -0.4212  1.5964  2.1624
 7956SOL    HW235502   3.609   3.017   0.364  1.1719 -1.4016  0.6317
 7957SOL     OW35503   0.611   2.153   2.391 -0.0310 -0.1834  0.1907
 7957SOL    HW135504   0.639   2.064   2.408  3.0234  1.1180  2.0048
 7957SOL    HW235505   0.632   2.189   2.478  0.2358  2.2257 -0.8574
 7958SOL     OW35506   4.241   4.435   2.848  0.0289 -0.1615  0.4182
 7958SOL    HW135507   4.304   4.431   2.920  0.2416  0.5481  0.2781
 7958SOL    HW235508   4.182   4.360   2.857  0.1390 -0.1789  0.9527
 7959SOL     OW35509   1.977   0.012   4.159 -0.3157  0.0985  0.3190
 7959SOL    HW135510   2.028   0.057   4.227 -2.1997 -1.4193  2.7095
 7959SOL    HW235511   1.948   0.082   4.100 -0.7017 -0.2762  0.0686
 7960SOL     OW35512   0.560   1.610  10.492  0.3504  1.0446  0.1742
 7960SOL    HW135513   0.649   1.574  10.497 -0.0090 -0.0011 -0.9893
 7960SOL    HW235514   0.530   1.567  10.412  1.7794  2.6661 -1.2197
 7961SOL     OW35515   4.308   2.338  17.335 -0.0048 -0.4887  0.0042
 7961SOL    HW135516   4.282   2.247  17.350 -1.8351 -0.1947 -1.3882
 7961SOL    HW235517   4.400   2.343  17.360  1.0294 -2.5490 -3.4495
 7962SOL     OW35518   0.832   0.484   1.993  0.4167 -0.1843 -0.5377
 7962SOL    HW135519   0.900   0.477   2.060  0.8076  2.1176 -0.6905
 7962SOL    HW235520   0.866   0.441   1.914 -1.4039 -0.6902 -1.0273
 7963SOL     OW35521   4.161   3.549   8.596  0.5165 -0.2692 -0.0044
 7963SOL    HW135522   4.167   3.566   8.502  0.2641  0.2069  0.0681
 7963SOL    HW235523   4.075   3.586   8.615 -0.3863 -1.4539 -1.7036
 7964SOL     OW35524   0.773   4.323   5.864 -0.0316  0.2394  0.5121
 7964SOL    HW135525   0.776   4.412   5.829 -1.2766 -0.2927 -0.9217
 7964SOL    HW235526   0.806   4.342   5.952 -1.4679 -0.1404  1.1451
 7965SOL     OW35527   1.828   2.236   5.325  0.2402 -0.7674  0.3097
 7965SOL    HW135528   1.892   2.307   5.337 -2.1245  1.2764  0.7562
 7965SOL    HW235529   1.772   2.269   5.255  0.1015 -2.1594 -0.2362
 7966SOL     OW35530   2.914   2.130   7.851  0.0551 -0.5335  0.1259
 7966SOL    HW135531   2.879   2.181   7.778 -2.4988 -1.5953  0.6282
 7966SOL    HW235532   2.833   2.085   7.875 -0.5526  0.1289 -0.6971
 7967SOL     OW35533   0.325   0.449   6.135  0.1629  0.6299  0.6737
 7967SOL    HW135534   0.371   0.527   6.102 -0.7033 -0.0140 -2.0145
 7967SOL    HW235535   0.336   0.459   6.229 -1.5448 -0.7513  1.0085
 7968SOL     OW35536   3.880   0.095   3.378  0.2122  0.5584  0.8020
 7968SOL    HW135537   3.843   0.071   3.293  3.2276 -0.7036 -0.1395
 7968SOL    HW235538   3.852   0.019   3.428  3.4691  0.3654  2.3023
 7969SOL     OW35539   0.391   1.620  17.242  0.2608 -0.1098  0.0015
 7969SOL    HW135540   0.393   1.707  17.282  0.7781  0.6168 -1.5792
 7969SOL    HW235541   0.475   1.628  17.197  0.5622 -0.9833  0.4093
 7970SOL     OW35542   0.334   1.171   3.903  0.0329  0.5994  0.5715
 7970SOL    HW135543   0.260   1.111   3.889  1.1048 -1.1700  2.4724
 7970SOL    HW235544   0.410   1.114   3.888 -0.3948  0.5285 -1.3511
 7971SOL     OW35545   2.816   1.191   5.653 -0.7287  0.0429 -0.5900
 7971SOL    HW135546   2.847   1.135   5.725  4.1453  1.5538 -1.4965
 7971SOL    HW235547   2.728   1.154   5.650 -1.6872  2.5236 -3.1450
 7972SOL     OW35548   1.035   0.379  11.410  0.4408 -0.1118 -0.3200
 7972SOL    HW135549   1.006   0.338  11.329  1.1024  0.1008 -0.6705
 7972SOL    HW235550   1.015   0.472  11.404  1.1186 -0.1122 -2.5186
 7973SOL     OW35551   3.313   2.606   4.153 -0.6640  0.1121  0.2946
 7973SOL    HW135552   3.322   2.666   4.080  2.3035 -1.0038 -0.2790
 7973SOL    HW235553   3.275   2.531   4.106  0.5091 -1.5454  1.9900
 7974SOL     OW35554   4.222   3.068   5.954  0.0483 -0.2456  0.1791
 7974SOL    HW135555   4.146   3.017   5.927  1.2808 -0.6584 -2.6176
 7974SOL    HW235556   4.185   3.149   5.988  1.2002  0.6215 -0.6155
 7975SOL     OW35557   2.449   1.263   3.458  0.4954 -0.0884  0.0561
 7975SOL    HW135558   2.385   1.218   3.402  1.8557 -0.9080 -0.8543
 7975SOL    HW235559   2.455   1.210   3.537 -0.2694  1.3216  1.0548
 7976SOL     OW35560   1.592   3.071   3.060 -0.2484 -0.0898 -0.0870
 7976SOL    HW135561   1.657   3.002   3.043 -0.1318  0.3761 -1.5409
 7976SOL    HW235562   1.625   3.103   3.144 -0.6365 -0.6817  0.2916
 7977SOL     OW35563   0.116   0.259   1.128 -0.2414 -0.2371  0.3253
 7977SOL    HW135564   0.135   0.268   1.035  0.6529 -1.0099  0.4376
 7977SOL    HW235565   0.203   0.249   1.165 -0.8026  0.2239  1.7740
 7978SOL     OW35566   4.654   3.978  11.255  0.6394  0.0320  0.1758
 7978SOL    HW135567   4.722   3.919  11.288  2.5019  0.8974 -2.1415
 7978SOL    HW235568   4.610   3.991  11.339  1.6130 -0.9829  0.8422
 7979SOL     OW35569   4.609   3.197   6.629  0.2066 -0.0329 -0.0523
 7979SOL    HW135570   4.625   3.228   6.718 -0.5782  2.1991 -0.6883
 7979SOL    HW235571   4.515   3.207   6.617  0.6055  1.3772 -2.0410
 7980SOL     OW35572   4.459   4.098   6.855 -0.1419 -0.4298  0.2383
 7980SOL    HW135573   4.543   4.129   6.819 -1.9662  1.6988 -2.1950
 7980SOL    HW235574   4.424   4.187   6.850 -1.2573 -0.9153 -0.7046
 7981SOL     OW35575   0.603   4.637   5.491  0.2588 -0.1049  0.2789
 7981SOL    HW135576   0.542   4.598   5.553  2.2303  0.3114  2.4911
 7981SOL    HW235577   0.553   4.708   5.452  0.4309  0.8008  1.6910
 7982SOL     OW35578   3.296   1.932   6.685 -0.0489  0.3125 -0.4094
 7982SOL    HW135579   3.205   1.960   6.671  0.3138  1.6101 -0.1966
 7982SOL    HW235580   3.341   2.015   6.704 -1.3253  0.5548  1.5861
 7983SOL     OW35581   3.865   2.810   2.432 -0.9338 -0.0050  0.5009
 7983SOL    HW135582   3.851   2.756   2.510  0.5623  0.5809  1.1703
 7983SOL    HW235583   3.857   2.739   2.370  1.4963 -0.9281  1.2663
 7984SOL     OW35584   3.351   1.272  15.957  0.5523 -0.0686 -0.7192
 7984SOL    HW135585   3.273   1.229  15.921  0.5569  0.4006 -1.2862
 7984SOL    HW235586   3.400   1.303  15.881  1.7283 -1.9385 -0.7246
 7985SOL     OW35587   4.703   3.968   5.611  0.6315  0.4506 -0.2356
 7985SOL    HW135588   4.685   3.936   5.523 -1.5472 -0.2307  0.4428
 7985SOL    HW235589   4.669   4.058   5.607  0.1290  0.3581  2.2573
 7986SOL     OW35590   2.094   4.532   2.218 -0.3177  0.2856  0.2648
 7986SOL    HW135591   2.037   4.595   2.262 -1.4783 -0.5250 -0.0801
 7986SOL    HW235592   2.179   4.542   2.262 -1.4198  3.0552  1.7463
 7987SOL     OW35593   1.220   1.309  12.812  0.0859 -0.3216  0.2170
 7987SOL    HW135594   1.150   1.243  12.800  1.4229 -1.6113 -0.5345
 7987SOL    HW235595   1.192   1.394  12.778 -2.2102 -0.0950  2.6073
 7988SOL     OW35596   0.511   4.521   2.249 -0.4870  0.4328  0.4075
 7988SOL    HW135597   0.424   4.495   2.280 -0.2508 -1.6953 -0.6972
 7988SOL    HW235598   0.504   4.604   2.203  2.4573  1.0813  1.1548
 7989SOL     OW35599   2.008   0.105   7.989 -0.2851 -0.1656 -0.2271
 7989SOL    HW135600   1.947   0.156   7.936  0.0824 -0.5350 -1.0168
 7989SOL    HW235601   1.949   0.032   8.004  2.6459 -3.3946 -4.4393
 7990SOL     OW35602   0.058   2.876   1.727 -0.0084 -0.9254  0.1035
 7990SOL    HW135603   4.707   2.856   1.763 -1.0736  1.1269 -1.3625
 7990SOL    HW235604   0.098   2.791   1.748  1.0191 -0.3299  0.5309
 7991SOL     OW35605   4.255   3.339   8.235 -0.3852 -0.0696  0.1853
 7991SOL    HW135606   4.244   3.272   8.167  1.2638  1.0476 -1.2046
 7991SOL    HW235607   4.334   3.296   8.268  0.5789  1.8950  0.4296
 7992SOL     OW35608   0.678   3.455  16.868  0.5309 -0.8333  0.4030
 7992SOL    HW135609   0.635   3.383  16.914  0.4525 -2.4014 -2.1198
 7992SOL    HW235610   0.621   3.455  16.792  2.5606 -0.2732 -1.1078
 7993SOL     OW35611   3.644   1.198   7.489 -0.7122 -0.1199  0.2686
 7993SOL    HW135612   3.601   1.244   7.561  1.4728 -0.1720  1.6025
 7993SOL    HW235613   3.568   1.148   7.461  0.6902 -2.1555  0.1493
 7994SOL     OW35614   3.406   2.929   7.766 -0.2780 -0.3475 -0.0672
 7994SOL    HW135615   3.472   2.943   7.835 -0.6090  1.3704 -0.0966
 7994SOL    HW235616   3.328   2.946   7.819  0.6323  0.7583  0.9131
 7995SOL     OW35617   0.617   0.267   8.718  0.1732  0.5771 -0.1989
 7995SOL    HW135618   0.656   0.338   8.768 -0.7306  0.2098  1.0251
 7995SOL    HW235619   0.525   0.295   8.727  0.4886  2.0145 -1.4811
 7996SOL     OW35620   1.599   3.469   5.631 -0.1819  0.2852  0.1674
 7996SOL    HW135621   1.521   3.519   5.607 -0.7155 -1.1849 -1.1570
 7996SOL    HW235622   1.565   3.380   5.627 -0.6790  0.4421  0.9226
 7997SOL     OW35623   2.933   1.234   1.572 -0.5910  0.2038  0.1403
 7997SOL    HW135624   2.861   1.193   1.620  0.5762  0.8733  2.4869
 7997SOL    HW235625   2.935   1.192   1.486 -0.2457  0.6012 -0.0454
 7998SOL     OW35626   2.086   0.802  12.759  0.8992 -0.8022  0.0941
 7998SOL    HW135627   2.061   0.749  12.683 -0.0844  1.1452 -0.9183
 7998SOL    HW235628   2.015   0.795  12.823  0.0341  0.6395 -0.6985
 7999SOL     OW35629   3.742   1.061   0.264 -0.3708 -0.5598 -0.3959
 7999SOL    HW135630   3.720   1.040   0.173  2.9082  3.1828 -2.0521
 7999SOL    HW235631   3.810   0.996   0.281  1.0380  1.0112 -0.0074
 8000SOL     OW35632   3.350   3.836   5.554  0.6003 -0.3051  0.4729
 8000SOL    HW135633   3.379   3.752   5.517 -1.3487 -1.0458  0.6580
 8000SOL    HW235634   3.424   3.895   5.539  0.9961 -0.4976  1.6770
 8001SOL     OW35635   4.576   0.761   6.674 -0.2890 -0.0822 -0.3674
 8001SOL    HW135636   4.558   0.749   6.767  1.1399  1.0727  0.0539
 8001SOL    HW235637   4.565   0.672   6.640 -0.0030 -0.4053  0.3782
 8002SOL     OW35638   4.331   3.573   3.958  0.3596  0.5857  0.2787
 8002SOL    HW135639   4.364   3.484   3.965 -1.5357 -0.0294  1.3455
 8002SOL    HW235640   4.387   3.605   3.887  0.8045  0.0845  0.3987
 8003SOL     OW35641   1.462   1.470   4.430 -0.8753  0.4255 -0.0622
 8003SOL    HW135642   1.472   1.438   4.341  2.5195  1.9182 -0.2210
 8003SOL    HW235643   1.553   1.471   4.458 -0.2013  2.6144 -2.3239
 8004SOL     OW35644   1.128   1.418   3.657  0.1109 -0.3562  0.3836
 8004SOL    HW135645   1.076   1.432   3.736 -0.7272  0.8985 -0.3940
 8004SOL    HW235646   1.153   1.507   3.633  1.0397 -0.3824  1.2533
 8005SOL     OW35647   2.409   0.026   4.383  0.4734  0.1627 -0.3297
 8005SOL    HW135648   2.334   0.000   4.329  0.5509  0.5527 -0.6278
 8005SOL    HW235649   2.367   0.057   4.463  0.0561 -1.3121  0.0290
 8006SOL     OW35650   3.809   4.079  15.271 -0.0280  0.1659  0.3911
 8006SOL    HW135651   3.756   4.011  15.313 -1.0968  0.3209 -0.7204
 8006SOL    HW235652   3.750   4.153  15.290 -0.3780  0.2267 -0.9384
 8007SOL     OW35653   1.171   3.324   8.480 -0.0662  0.2057  0.3498
 8007SOL    HW135654   1.216   3.405   8.454  0.7304  0.6195  2.9834
 8007SOL    HW235655   1.109   3.311   8.408  0.0486  0.2611  0.2408
 8008SOL     OW35656   2.369   4.008   9.955  0.0348 -0.0204 -0.4826
 8008SOL    HW135657   2.327   4.083   9.996  0.2351  0.4318 -1.1060
 8008SOL    HW235658   2.335   3.940  10.013 -1.0664  2.1050  1.3812
 8009SOL     OW35659   3.404   1.053  13.801  0.7666 -0.4402  0.1159
 8009SOL    HW135660   3.347   1.119  13.762 -0.0854 -2.1935 -1.6410
 8009SOL    HW235661   3.360   1.036  13.884  0.1441  1.3376  0.1455
 8010SOL     OW35662   4.019   4.667   2.032 -0.2816 -0.5039 -0.2666
 8010SOL    HW135663   4.038   4.573   2.033 -1.8566 -0.7844  2.3759
 8010SOL    HW235664   3.925   4.681   2.043 -0.5716 -1.5438 -1.4675
 8011SOL     OW35665   0.614   4.571   6.201  0.6011  0.0586  0.0067
 8011SOL    HW135666   0.615   4.478   6.222  0.2903 -0.1539 -0.8883
 8011SOL    HW235667   0.548   4.600   6.264  1.0456 -0.3614  0.6572
 8012SOL     OW35668   2.676   4.555   3.427  0.5086  0.2408  0.2622
 8012SOL    HW135669   2.649   4.647   3.421  1.7614  0.6843  1.5402
 8012SOL    HW235670   2.721   4.562   3.511  1.3212  0.6440 -0.2110
 8013SOL     OW35671   0.276   3.451  16.233 -0.2572  0.0452  0.4183
 8013SOL    HW135672   0.355   3.432  16.284  0.3032  2.7795  0.5279
 8013SOL    HW235673   0.213   3.455  16.305 -1.1326  1.3397 -0.4433
 8014SOL     OW35674   2.242   4.376   8.207  0.1704  0.5180 -0.4857
 8014SOL    HW135675   2.312   4.310   8.212  1.0756  1.5042 -0.2655
 8014SOL    HW235676   2.253   4.432   8.284  1.6254 -2.7037  1.6618
 8015SOL     OW35677   3.268   0.043   9.511  0.2836  0.0650  0.0106
 8015SOL    HW135678   3.300   4.697   9.546  0.6203 -0.3486 -1.2731
 8015SOL    HW235679   3.274   0.094   9.592 -0.3830 -3.2107  2.0993
 8016SOL     OW35680   0.273   0.073   2.394 -0.0694 -0.0499  0.0422
 8016SOL    HW135681   0.237   0.077   2.306 -2.2552 -1.4221  0.8763
 8016SOL    HW235682   0.278   4.714   2.407  0.8461 -0.1321 -0.9310
 8017SOL     OW35683   4.097   0.053   6.594 -0.9205 -0.4279  0.3471
 8017SOL    HW135684   4.125   4.705   6.629  0.1070 -0.8899 -1.5832
 8017SOL    HW235685   4.162   0.062   6.524 -1.2089 -1.0983 -0.0044
 8018SOL     OW35686   1.288   2.041   4.180  0.0054  0.0083 -0.0567
 8018SOL    HW135687   1.243   1.973   4.230  0.7627  0.1104  0.7817
 8018SOL    HW235688   1.242   2.120   4.209  0.5151  0.7162 -1.1648
 8019SOL     OW35689   4.613   0.535   3.340  0.3696  0.1515  0.8738
 8019SOL    HW135690   4.669   0.562   3.267 -2.6429  0.2245 -1.4257
 8019SOL    HW235691   4.563   0.466   3.296  0.1926  1.5227 -1.0404
 8020SOL     OW35692   3.898   2.533   9.260 -0.1423 -0.2089  0.3653
 8020SOL    HW135693   3.943   2.587   9.325  0.7641 -1.4011  0.7404
 8020SOL    HW235694   3.842   2.484   9.320 -1.3188 -1.5412 -1.8145
 8021SOL     OW35695   4.156   0.062   3.056  0.2127 -0.5236  0.0136
 8021SOL    HW135696   4.168   0.089   2.965 -0.5271  0.8630  0.3307
 8021SOL    HW235697   4.068   0.095   3.071 -0.3362 -2.1989  0.5473
 8022SOL     OW35698   2.323   0.390   9.140  0.0953  0.0332 -0.0404
 8022SOL    HW135699   2.408   0.372   9.179  0.5646  1.0741 -0.5798
 8022SOL    HW235700   2.344   0.407   9.048  0.3252  0.1616  0.0383
 8023SOL     OW35701   4.086   1.290   7.346 -0.1740 -0.1171 -0.2360
 8023SOL    HW135702   4.132   1.329   7.421  3.0807 -0.1683 -2.2364
 8023SOL    HW235703   4.159   1.269   7.287 -2.3812 -1.1599 -2.5719
 8024SOL     OW35704   2.894   0.733   1.356  0.2612 -0.5944  0.4134
 8024SOL    HW135705   2.945   0.689   1.288  2.1491  0.5235  1.0872
 8024SOL    HW235706   2.813   0.757   1.312  0.6596  0.8291  0.4478
 8025SOL     OW35707   4.429   0.222   9.230 -0.0104 -0.0950 -0.1486
 8025SOL    HW135708   4.479   0.204   9.310  0.7700  1.1337 -0.3543
 8025SOL    HW235709   4.383   0.139   9.218  1.3994 -0.5405 -2.3884
 8026SOL     OW35710   3.223   0.865   0.640  0.4719 -0.6020 -0.1556
 8026SOL    HW135711   3.263   0.847   0.555  0.2472 -1.1639 -0.1378
 8026SOL    HW235712   3.178   0.947   0.622  0.2113 -0.5053  0.9050
 8027SOL     OW35713   2.056   0.362   6.012 -0.0252 -0.0285 -0.3174
 8027SOL    HW135714   2.068   0.418   5.935 -1.6756 -0.5109 -0.9246
 8027SOL    HW235715   2.087   0.278   5.978  1.0949  1.7524 -3.6833
 8028SOL     OW35716   3.085   1.456   9.007  0.4752 -0.2023 -0.2813
 8028SOL    HW135717   3.058   1.418   9.090 -0.8927  4.5025  1.4141
 8028SOL    HW235718   3.113   1.381   8.953 -3.0637 -1.5873 -0.1961
 8029SOL     OW35719   3.034   1.609  16.598  0.1753  0.0106 -0.0917
 8029SOL    HW135720   2.964   1.635  16.659  0.9488  2.5937 -0.2789
 8029SOL    HW235721   3.088   1.689  16.596 -2.1199  1.5680 -0.0989
 8030SOL     OW35722   0.018   4.414  15.233  0.1023  0.0902 -0.1396
 8030SOL    HW135723   4.670   4.377  15.258  0.0783 -0.8420 -1.5834
 8030SOL    HW235724   0.053   4.356  15.165 -1.3367 -0.6200 -0.2584
 8031SOL     OW35725   2.850   3.319   5.464  0.5199  0.0442  0.4847
 8031SOL    HW135726   2.816   3.283   5.382  0.2833 -0.1104  0.6525
 8031SOL    HW235727   2.903   3.248   5.500 -0.8970 -1.1412  0.2279
 8032SOL     OW35728   2.541   1.696   0.058  0.7182  0.2243 -0.5382
 8032SOL    HW135729   2.636   1.708   0.057  0.9837 -1.7958  0.4681
 8032SOL    HW235730   2.524   1.724  17.710 -1.1932 -1.8460 -0.8332
 8033SOL     OW35731   0.348   3.850   4.926 -0.0279  0.1781  0.4973
 8033SOL    HW135732   0.409   3.920   4.903 -0.5234  0.8041  1.0712
 8033SOL    HW235733   0.404   3.774   4.944  0.6342 -0.2286 -3.3361
 8034SOL     OW35734   4.536   0.952   5.639 -0.4387  0.0451 -0.0851
 8034SOL    HW135735   4.616   0.980   5.683  0.0377 -1.3333 -0.0548
 8034SOL    HW235736   4.512   0.876   5.693  1.0581  0.1766  0.7426
 8035SOL     OW35737   3.835   4.188   2.800  0.1680 -0.2951  0.0780
 8035SOL    HW135738   3.808   4.119   2.861  1.8259 -1.1041 -0.1062
 8035SOL    HW235739   3.758   4.221   2.755 -0.1874  0.0135  0.9178
 8036SOL     OW35740   1.078   3.927  13.637 -0.0055  0.0433  0.0531
 8036SOL    HW135741   1.036   3.973  13.565  3.6682  0.6417 -1.7437
 8036SOL    HW235742   1.123   4.001  13.678 -1.3408 -1.2100  3.7246
 8037SOL     OW35743   2.784   2.305   4.864  0.1664 -0.0660  0.0153
 8037SOL    HW135744   2.744   2.290   4.950 -1.4550  0.3688 -0.6524
 8037SOL    HW235745   2.874   2.275   4.875  0.3793  0.1841 -1.0207
 8038SOL     OW35746   1.426   3.125  10.144 -0.5285 -0.3694  0.1392
 8038SOL    HW135747   1.493   3.173  10.193  0.9655 -1.4403 -0.8633
 8038SOL    HW235748   1.413   3.174  10.063 -0.7396  2.4217  1.8185
 8039SOL     OW35749   2.084   3.234  15.018 -0.2398 -0.1140  0.3244
 8039SOL    HW135750   2.075   3.177  15.095  2.1352  0.5399  1.0799
 8039SOL    HW235751   1.996   3.242  14.979  0.0734  2.3777  0.1251
 8040SOL     OW35752   3.010   4.292   3.836  0.2099  0.3811 -0.2895
 8040SOL    HW135753   3.092   4.297   3.883 -0.1701  0.7969  0.3337
 8040SOL    HW235754   3.030   4.261   3.748 -0.0160  1.3649 -0.6947
 8041SOL     OW35755   1.636   1.542   8.812  0.0782 -0.1715 -0.5919
 8041SOL    HW135756   1.653   1.537   8.718 -1.2834 -2.4264 -0.7189
 8041SOL    HW235757   1.542   1.532   8.827 -0.2719  0.3721 -2.3824
 8042SOL     OW35758   3.522   4.034   1.846 -0.6666 -0.6450 -0.1270
 8042SOL    HW135759   3.522   4.125   1.818 -2.2293 -1.2736 -2.1717
 8042SOL    HW235760   3.531   4.036   1.941 -0.5980 -0.1069 -0.1471
 8043SOL     OW35761   0.163   2.578  11.631  0.2377  0.2310  0.1287
 8043SOL    HW135762   0.138   2.544  11.546 -0.4239  0.4835  0.2229
 8043SOL    HW235763   0.168   2.497  11.682  2.9039  0.3727  0.1027
 8044SOL     OW35764   1.785   3.531  16.499  0.4066 -0.2455 -0.2644
 8044SOL    HW135765   1.869   3.575  16.484  1.2067 -2.1628 -1.4440
 8044SOL    HW235766   1.722   3.602  16.492 -2.2518 -2.4707  1.1489
 8045SOL     OW35767   2.498   1.681   8.612  0.3009 -0.1195 -0.3547
 8045SOL    HW135768   2.588   1.677   8.644  1.3945  1.3767 -3.2924
 8045SOL    HW235769   2.502   1.603   8.556 -2.3365  0.3710 -1.2282
 8046SOL     OW35770   2.562   2.657  12.336  0.1568 -0.1739 -0.2072
 8046SOL    HW135771   2.548   2.572  12.378 -0.2216 -0.0153 -0.0121
 8046SOL    HW235772   2.563   2.717  12.410 -0.4225  0.8239 -0.9965
 8047SOL     OW35773   0.197   2.786  17.205 -0.0474  0.0205  0.2855
 8047SOL    HW135774   0.240   2.717  17.154  0.5704 -0.1777  1.0715
 8047SOL    HW235775   0.197   2.750  17.294 -1.3262  0.1685  0.3432
 8048SOL     OW35776   1.728   3.120  16.403 -0.5315  0.0905  0.0102
 8048SOL    HW135777   1.706   3.148  16.314 -0.7902  0.1557  0.0962
 8048SOL    HW235778   1.816   3.083  16.396 -0.2580  0.6700  0.3970
 8049SOL     OW35779   0.625   4.476  17.521 -0.3595 -0.3793  0.3865
 8049SOL    HW135780   0.651   4.565  17.544 -1.8853 -0.2799  1.7526
 8049SOL    HW235781   0.708   4.440  17.490 -0.0124  1.9876 -1.4435
 8050SOL     OW35782   1.686   1.854   5.210  0.6328  0.1083 -0.2108
 8050SOL    HW135783   1.603   1.890   5.178  0.3693 -0.2216  0.0954
 8050SOL    HW235784   1.749   1.866   5.139 -0.0869 -0.8299 -1.0018
 8051SOL     OW35785   4.197   1.939   8.289  0.3620  0.1882  0.1246
 8051SOL    HW135786   4.141   1.934   8.366 -1.7574 -0.4862 -1.4438
 8051SOL    HW235787   4.145   1.883   8.230  2.4481 -1.5644 -0.0416
 8052SOL     OW35788   0.175   3.669   3.153 -0.0711 -0.0070  0.3426
 8052SOL    HW135789   0.151   3.659   3.061  0.8244  0.8095  0.0102
 8052SOL    HW235790   0.244   3.735   3.150  0.0819 -0.0455  2.7573
 8053SOL     OW35791   3.963   2.803   3.409  0.2590  0.0181 -0.1482
 8053SOL    HW135792   3.912   2.760   3.340  1.4695  0.1643 -1.1505
 8053SOL    HW235793   3.900   2.812   3.480  2.0979  2.9411  1.1012
 8054SOL     OW35794   0.762   1.641  10.253  0.3650 -0.0260 -0.3881
 8054SOL    HW135795   0.694   1.622  10.189 -0.5607  0.5988  0.3875
 8054SOL    HW235796   0.748   1.736  10.263  1.0390 -0.0370  0.7268
 8055SOL     OW35797   1.308   1.147  12.026  0.3552  0.5576  0.2193
 8055SOL    HW135798   1.281   1.234  12.055  3.1059  1.8988 -1.2224
 8055SOL    HW235799   1.367   1.119  12.097  0.5994  0.3583 -0.0615
 8056SOL     OW35800   2.015   4.467   2.634 -0.3648 -0.1921 -0.3841
 8056SOL    HW135801   2.067   4.546   2.620 -1.9222  1.4118  2.8731
 8056SOL    HW235802   2.068   4.410   2.578 -0.7593 -2.3441  1.4684
 8057SOL     OW35803   3.635   4.700   6.710 -0.0697 -0.1016  0.0759
 8057SOL    HW135804   3.562   0.005   6.756  0.9452  1.4246  0.3261
 8057SOL    HW235805   3.674   4.633   6.766  0.9800  1.8787  1.7413
 8058SOL     OW35806   4.193   4.318   7.769 -0.7520  0.1523  0.3621
 8058SOL    HW135807   4.279   4.293   7.734 -0.3579 -0.3794  1.7306
 8058SOL    HW235808   4.190   4.304   7.863  1.1649  3.2300  0.8650
 8059SOL     OW35809   1.597   3.183  11.815  0.3440 -0.1069  0.5831
 8059SOL    HW135810   1.691   3.166  11.825  0.2266 -1.0585  0.0196
 8059SOL    HW235811   1.556   3.116  11.870 -0.9509  0.2689  0.0573
 8060SOL     OW35812   0.717   0.374   8.997 -0.3656 -0.6969 -0.1725
 8060SOL    HW135813   0.654   0.310   9.029 -0.2590 -0.1812  1.0769
 8060SOL    HW235814   0.773   0.369   9.074  0.9706  0.8814 -1.0331
 8061SOL     OW35815   3.177   3.806  17.542 -0.5844  0.7151  0.3740
 8061SOL    HW135816   3.111   3.864  17.505 -0.4826 -0.2140 -1.2535
 8061SOL    HW235817   3.132   3.778  17.622 -0.5201 -0.7935 -0.1220
 8062SOL     OW35818   1.377   2.045   8.923 -0.6483 -0.0279  0.0420
 8062SOL    HW135819   1.281   2.046   8.920 -0.5232  0.8974 -3.0542
 8062SOL    HW235820   1.406   2.136   8.925 -0.7497 -0.0230  1.2101
 8063SOL     OW35821   4.225   4.013   6.890 -0.5390 -0.3593  0.4176
 8063SOL    HW135822   4.199   3.992   6.979  2.0594 -1.4136  0.9327
 8063SOL    HW235823   4.315   4.043   6.904 -0.8117  0.4350  0.4672
 8064SOL     OW35824   4.205   3.610   8.237 -0.0332  0.1136 -0.0796
 8064SOL    HW135825   4.213   3.515   8.223 -2.0776  0.1150 -1.2710
 8064SOL    HW235826   4.279   3.624   8.296  0.6634 -1.0391 -0.6820
 8065SOL     OW35827   1.421   1.584  12.287  0.8903  0.2885  0.7577
 8065SOL    HW135828   1.515   1.565  12.287  0.8602  0.1279 -2.6529
 8065SOL    HW235829   1.420   1.677  12.311 -2.4647 -0.0267  1.7571
 8066SOL     OW35830   1.821   0.334   1.434 -0.0528  0.2314 -0.1443
 8066SOL    HW135831   1.854   0.403   1.376 -0.4136 -1.6018 -2.5147
 8066SOL    HW235832   1.904   0.302   1.471  0.5907 -2.0302 -3.5882
 8067SOL     OW35833   0.091   3.025   2.632 -0.5224 -0.2845  0.0301
 8067SOL    HW135834   0.014   2.967   2.631  0.0924 -1.0711 -2.8052
 8067SOL    HW235835   0.161   2.960   2.628  1.5170  1.7742  2.8052
 8068SOL     OW35836   3.770   1.093   4.833  0.0031  0.4501  0.3889
 8068SOL    HW135837   3.843   1.034   4.850 -0.8495  0.2100  3.2159
 8068SOL    HW235838   3.727   1.054   4.757  2.7628 -1.3588 -0.2435
 8069SOL     OW35839   1.004   0.397   8.899 -0.3628  0.2253 -0.1697
 8069SOL    HW135840   1.088   0.354   8.914 -1.1900 -0.9108  1.3103
 8069SOL    HW235841   0.949   0.320   8.912  0.0527 -0.6314 -3.6852
 8070SOL     OW35842   3.039   2.370  16.074  0.1742  0.1139  0.2978
 8070SOL    HW135843   3.068   2.297  16.129  0.5245  0.3664  0.4452
 8070SOL    HW235844   3.062   2.340  15.985  2.4818  0.7831  0.6798
 8071SOL     OW35845   2.299   0.264  16.869  0.5106  0.0582  0.6505
 8071SOL    HW135846   2.354   0.186  16.876 -0.0216 -0.0153  4.3237
 8071SOL    HW235847   2.239   0.245  16.941 -1.7285  0.2481 -1.1704
 8072SOL     OW35848   0.237   2.060   9.003 -0.3220  0.6182 -0.0096
 8072SOL    HW135849   0.240   2.099   9.090 -2.9040  0.9989 -0.0993
 8072SOL    HW235850   0.146   2.071   8.977 -0.5400  1.4436  1.1126
 8073SOL     OW35851   3.030   0.427   8.511  0.8972  1.2534  0.2154
 8073SOL    HW135852   3.047   0.505   8.458  0.4778  3.1545  2.8338
 8073SOL    HW235853   2.952   0.451   8.561 -0.2956 -1.8300 -0.2326
 8074SOL     OW35854   3.729   3.923   8.363  0.9135  0.1404 -0.4014
 8074SOL    HW135855   3.762   3.838   8.334  0.6790 -0.3321  0.6935
 8074SOL    HW235856   3.637   3.909   8.345  0.8819 -1.3618  0.9151
 8075SOL     OW35857   1.995   4.086   7.737  0.2911  0.0207 -0.3070
 8075SOL    HW135858   1.911   4.112   7.774  0.0427 -0.9990 -0.1458
 8075SOL    HW235859   1.982   4.099   7.643 -0.1009 -2.6116 -0.6174
 8076SOL     OW35860   3.958   1.667   7.283 -0.3217  0.0621 -0.6682
 8076SOL    HW135861   4.036   1.628   7.244  0.6649 -0.0206  1.4162
 8076SOL    HW235862   3.984   1.759   7.280  1.6266 -0.4921 -0.9875
 8077SOL     OW35863   2.596   2.305  13.331 -0.5048 -0.3808  0.5142
 8077SOL    HW135864   2.519   2.362  13.329 -0.6575 -0.5650  1.3802
 8077SOL    HW235865   2.664   2.356  13.287 -1.3759 -0.8066 -1.3277
 8078SOL     OW35866   1.192   4.328  17.357 -0.1048 -0.0635  0.0604
 8078SOL    HW135867   1.169   4.238  17.378 -1.9834  0.1572 -1.0273
 8078SOL    HW235868   1.126   4.340  17.288 -0.4105  2.7795  0.8323
 8079SOL     OW35869   1.476   4.292  17.365  0.5054  0.2944  0.2701
 8079SOL    HW135870   1.381   4.300  17.360  0.6367 -0.2749 -2.9056
 8079SOL    HW235871   1.484   4.219  17.426  0.3544 -1.7690 -2.2135
 8080SOL     OW35872   2.673   0.468   6.172 -1.0119 -0.1784 -1.1442
 8080SOL    HW135873   2.649   0.444   6.082 -2.3308 -0.7150 -0.6431
 8080SOL    HW235874   2.596   0.435   6.218 -0.9636  2.7837  1.0219
 8081SOL     OW35875   3.961   2.662  10.432 -0.2636  0.3232  0.5388
 8081SOL    HW135876   3.888   2.641  10.374 -0.1304 -0.1648  0.5429
 8081SOL    HW235877   3.924   2.707  10.508  1.4147 -0.4829  1.8304
 8082SOL     OW35878   3.527   3.310   6.126 -0.4345  0.4119  0.3846
 8082SOL    HW135879   3.454   3.309   6.063  1.0923  1.2062 -1.3929
 8082SOL    HW235880   3.522   3.398   6.164 -0.6131 -0.0320  1.3769
 8083SOL     OW35881   1.597   2.453   6.773  0.1403  0.4084  0.0904
 8083SOL    HW135882   1.540   2.377   6.775  0.9391 -0.1790  0.3720
 8083SOL    HW235883   1.677   2.413   6.806 -2.6872 -3.3514  2.3876
 8084SOL     OW35884   0.448   4.364   5.350  0.6100  0.4302 -0.0605
 8084SOL    HW135885   0.449   4.269   5.345 -0.2633  0.5268 -2.1345
 8084SOL    HW235886   0.501   4.392   5.425 -0.4145  1.2626  0.3628
 8085SOL     OW35887   3.376   2.687   8.973 -0.6943  0.3115  0.2022
 8085SOL    HW135888   3.466   2.663   8.950 -1.0573  0.6785 -1.5911
 8085SOL    HW235889   3.372   2.667   9.066 -0.3521  0.4002  0.2377
 8086SOL     OW35890   0.492   3.634   2.303  0.2557  0.0506  0.3990
 8086SOL    HW135891   0.420   3.604   2.359 -0.8225  2.4530  0.2729
 8086SOL    HW235892   0.527   3.696   2.367  0.7452  0.7631 -0.5567
 8087SOL     OW35893   2.782   3.570   4.020 -0.1324 -0.1674  0.2313
 8087SOL    HW135894   2.777   3.648   3.965 -1.7799 -1.1866 -1.0726
 8087SOL    HW235895   2.875   3.572   4.043 -0.4354  3.2699  1.1935
 8088SOL     OW35896   0.516   3.130   4.603 -1.6839  0.6085 -0.4177
 8088SOL    HW135897   0.439   3.108   4.655 -1.6441  0.7255 -0.3108
 8088SOL    HW235898   0.509   3.063   4.534  0.7570 -0.1734  0.1061
 8089SOL     OW35899   1.412   2.032   5.826 -0.6747 -0.0744  0.5275
 8089SOL    HW135900   1.438   2.124   5.831  0.9597 -0.3898 -2.0125
 8089SOL    HW235901   1.421   2.006   5.734 -0.9103  0.6917  0.2907
 8090SOL     OW35902   4.323   0.826   1.675  0.3378  0.0619 -0.2433
 8090SOL    HW135903   4.324   0.921   1.693 -0.5914 -0.4516  2.6218
 8090SOL    HW235904   4.257   0.789   1.734  0.2643 -0.7762 -0.8668
 8091SOL     OW35905   2.604   3.104  13.343  0.0347  0.0908  0.1459
 8091SOL    HW135906   2.654   3.090  13.263  0.2061 -1.0781  0.4638
 8091SOL    HW235907   2.577   3.015  13.365  0.2100 -0.2390 -0.9767
 8092SOL     OW35908   3.201   0.562   6.088 -0.1646  0.1562  0.5974
 8092SOL    HW135909   3.106   0.577   6.093  0.0927  1.3108  1.7955
 8092SOL    HW235910   3.222   0.633   6.026 -0.0928  0.4715  0.9853
 8093SOL     OW35911   0.232   2.458   2.506  0.0465  0.0357 -0.1693
 8093SOL    HW135912   0.224   2.547   2.472  1.1385  0.9545  1.9735
 8093SOL    HW235913   0.314   2.478   2.551 -0.1020 -0.1196  0.1715
 8094SOL     OW35914   3.812   0.992   3.977  0.2438 -0.5943  0.1551
 8094SOL    HW135915   3.815   0.950   3.891  2.1137  1.9203 -1.0313
 8094SOL    HW235916   3.848   0.926   4.036  0.6015  1.0772  1.8190
 8095SOL     OW35917   1.097   0.635   7.638 -0.5159 -0.3330  0.1118
 8095SOL    HW135918   1.105   0.544   7.611 -1.1997 -0.7130  1.1751
 8095SOL    HW235919   1.019   0.649   7.584 -0.5953  0.4328  0.4210
 8096SOL     OW35920   4.670   2.530  15.468 -0.4281  0.0390  0.0549
 8096SOL    HW135921   0.012   2.567  15.509  0.3778 -1.5576 -0.0224
 8096SOL    HW235922   4.621   2.498  15.543  2.9803 -0.2090  2.1970
 8097SOL     OW35923   2.172   0.546   8.817  0.7823  0.2313 -0.1881
 8097SOL    HW135924   2.245   0.489   8.844 -0.9525 -0.4138  3.1978
 8097SOL    HW235925   2.169   0.549   8.722 -1.2626  0.6835 -0.0939
 8098SOL     OW35926   3.369   1.878  14.064 -0.4214 -0.1196 -1.0832
 8098SOL    HW135927   3.384   1.793  14.024 -2.4313 -0.3657 -1.3264
 8098SOL    HW235928   3.449   1.884  14.116 -2.2933  1.1571  1.6957
 8099SOL     OW35929   3.518   1.578   1.014  0.1014  0.1376 -0.3124
 8099SOL    HW135930   3.590   1.597   1.075 -0.2655  1.3986 -0.2711
 8099SOL    HW235931   3.560   1.508   0.964  0.5450 -0.5682  1.0463
 8100SOL     OW35932   4.019   1.440   6.919 -0.3241 -0.2020  0.2515
 8100SOL    HW135933   4.087   1.438   6.986  0.2895 -0.6130 -0.3893
 8100SOL    HW235934   4.003   1.533   6.904 -1.6351 -0.4050  0.3887
 8101SOL     OW35935   0.470   2.116  13.627  0.0015  0.2846 -0.4369
 8101SOL    HW135936   0.458   2.064  13.548  0.3457 -1.1486  0.4681
 8101SOL    HW235937   0.411   2.185  13.596 -1.7661 -1.7160 -1.4582
 8102SOL     OW35938   2.520   4.670   8.356  0.0459  0.0923 -0.4396
 8102SOL    HW135939   2.440   4.720   8.374  0.2442  0.4510 -0.5675
 8102SOL    HW235940   2.551   4.666   8.447 -0.4545  1.3692 -0.2137
 8103SOL     OW35941   1.648   1.130   3.373  0.0447 -0.0337  0.4213
 8103SOL    HW135942   1.705   1.054   3.375 -0.5993 -0.5067  0.5832
 8103SOL    HW235943   1.581   1.102   3.310  0.7961  0.3588 -0.5453
 8104SOL     OW35944   1.844   1.555   3.848  0.1178  0.1750  0.1122
 8104SOL    HW135945   1.809   1.476   3.806 -3.7387  1.6319  0.5882
 8104SOL    HW235946   1.894   1.598   3.779 -0.2274  0.6635  0.1687
 8105SOL     OW35947   3.707   0.777   3.243  0.2058  0.3515 -0.3153
 8105SOL    HW135948   3.740   0.820   3.164 -3.3739  1.8482 -0.9896
 8105SOL    HW235949   3.749   0.830   3.310 -0.6503 -0.8215  1.1549
 8106SOL     OW35950   2.316   0.016   9.514 -0.3117  0.0967 -0.0684
 8106SOL    HW135951   2.308   4.714   9.427  0.6301 -1.0926  0.3704
 8106SOL    HW235952   2.402   0.055   9.498  0.3890 -1.4211 -0.0079
 8107SOL     OW35953   0.927   1.729  16.871 -0.1330 -0.4671 -0.4214
 8107SOL    HW135954   0.851   1.678  16.842 -1.6811  1.8253 -0.4326
 8107SOL    HW235955   0.998   1.679  16.831  0.4520 -1.2091  1.5471
 8108SOL     OW35956   3.688   1.753   2.755 -0.0098  0.3889  0.0818
 8108SOL    HW135957   3.627   1.726   2.823  0.1205  1.1330  0.5013
 8108SOL    HW235958   3.644   1.728   2.674 -1.0621  0.8564  0.4988
 8109SOL     OW35959   1.445   2.737   4.569 -0.0514  0.7263  0.0108
 8109SOL    HW135960   1.471   2.829   4.581  1.3451  0.1386  1.4884
 8109SOL    HW235961   1.352   2.731   4.589  0.7314 -0.2455  3.3384
 8110SOL     OW35962   0.236   2.254   0.539  0.2944  0.5109  0.5340
 8110SOL    HW135963   0.186   2.236   0.619 -1.3983  0.1280 -0.5882
 8110SOL    HW235964   0.169   2.228   0.475 -0.2927 -0.8793  1.7078
 8111SOL     OW35965   2.033   4.074  10.737  0.0306 -0.4353  0.1352
 8111SOL    HW135966   2.042   4.046  10.828  0.5303  0.2605  0.3042
 8111SOL    HW235967   2.120   4.099  10.706  0.3269  1.1298  2.2431
 8112SOL     OW35968   1.287   1.183   3.593  0.0063  0.6651  0.0480
 8112SOL    HW135969   1.222   1.143   3.536  0.2831  0.0210  0.1797
 8112SOL    HW235970   1.234   1.250   3.637  0.9750  1.8910 -0.6479
 8113SOL     OW35971   3.392   3.858   9.174  0.1525  0.3763 -0.6359
 8113SOL    HW135972   3.468   3.807   9.202  0.8959  1.6526 -0.3488
 8113SOL    HW235973   3.332   3.789   9.144  0.5826 -0.1713 -0.2454
 8114SOL     OW35974   2.698   0.070   8.239 -0.2588 -0.5530 -0.3442
 8114SOL    HW135975   2.653   0.002   8.290 -0.8869 -0.3820 -0.6684
 8114SOL    HW235976   2.640   0.082   8.164  0.6319 -0.4184 -1.0133
 8115SOL     OW35977   1.927   0.089  12.272 -0.5378  0.0727  0.4133
 8115SOL    HW135978   1.858   0.033  12.237  0.2488 -0.3243 -0.5065
 8115SOL    HW235979   1.926   0.161  12.210 -0.2748  1.6168  2.2090
 8116SOL     OW35980   4.070   2.494   4.947 -0.2733 -0.1983  0.3180
 8116SOL    HW135981   4.028   2.573   4.981  1.2381  1.2093 -1.0943
 8116SOL    HW235982   4.162   2.520   4.942 -0.7694  1.4829  0.0409
 8117SOL     OW35983   2.396   2.808  12.138  0.0749  0.1758 -0.5430
 8117SOL    HW135984   2.329   2.746  12.110  0.3827  0.1759 -1.2973
 8117SOL    HW235985   2.452   2.763  12.200  0.0688  0.8574 -0.0377
 8118SOL     OW35986   0.125   3.915  17.652 -0.2886 -0.1981 -0.3786
 8118SOL    HW135987   0.153   4.001  17.682 -1.5367  0.8499 -2.2362
 8118SOL    HW235988   0.206   3.871  17.681 -0.1307  1.0690  1.0998
 8119SOL     OW35989   1.668   2.052   7.477  0.5894 -0.2180 -0.3925
 8119SOL    HW135990   1.729   2.122   7.453  0.2257  0.4217  0.5413
 8119SOL    HW235991   1.693   2.022   7.565  0.9888 -0.6497 -0.6538
 8120SOL     OW35992   0.323   3.003   8.302 -0.2001 -0.1518  0.2726
 8120SOL    HW135993   0.278   3.008   8.387  0.5697  2.0872  0.5554
 8120SOL    HW235994   0.241   3.000   8.253 -0.7407  1.3153  1.0923
 8121SOL     OW35995   0.048   1.770   6.474 -0.1253  0.0496  0.5556
 8121SOL    HW135996   4.731   1.779   6.395  1.2468  2.0500 -0.1478
 8121SOL    HW235997   0.045   1.677   6.494 -0.7616 -0.0251  0.1210
 8122SOL     OW35998   1.213   3.452   9.547 -0.1567 -0.5658 -0.5066
 8122SOL    HW135999   1.231   3.412   9.632  1.1409  0.4410 -0.3120
 8122SOL    HW236000   1.183   3.376   9.497 -0.0264 -0.4583 -0.7479
 8123SOL     OW36001   3.466   4.473   6.156 -0.0703  0.2821  0.2586
 8123SOL    HW136002   3.378   4.477   6.192  0.1751 -0.4766  0.9371
 8123SOL    HW236003   3.452   4.508   6.068  2.5384  0.0124 -0.2895
 8124SOL     OW36004   2.333   1.663   5.830  0.5189  0.2688  0.0960
 8124SOL    HW136005   2.370   1.680   5.917 -1.2096 -3.9944  1.6491
 8124SOL    HW236006   2.263   1.604   5.858 -0.0628 -0.4729 -2.9258
 8125SOL     OW36007   3.902   1.703   6.539 -0.0035 -0.3719 -0.0566
 8125SOL    HW136008   3.818   1.717   6.583  1.6132 -0.6646  3.0808
 8125SOL    HW236009   3.895   1.773   6.474 -0.5159 -0.4675 -0.1034
 8126SOL     OW36010   3.211   2.476  12.817  0.1331 -0.2127 -0.8765
 8126SOL    HW136011   3.185   2.523  12.897  1.8008 -0.6961 -0.0512
 8126SOL    HW236012   3.190   2.387  12.845  1.6715 -0.0096  0.9638
 8127SOL     OW36013   1.808   2.640   3.945  0.6503  0.4825 -0.3688
 8127SOL    HW136014   1.762   2.711   3.988 -1.8037 -0.6027 -1.2006
 8127SOL    HW236015   1.745   2.612   3.878  0.8334 -0.2732 -0.2326
 8128SOL     OW36016   2.513   3.342   2.010 -0.1297 -0.1380  0.2753
 8128SOL    HW136017   2.522   3.247   2.020  2.1454  0.1557  1.1121
 8128SOL    HW236018   2.423   3.339   1.978  0.1938  0.3738 -0.6704
 8129SOL     OW36019   1.672   2.277   7.112 -0.0417  0.2071  0.0291
 8129SOL    HW136020   1.666   2.362   7.068 -0.1272  0.9701  1.4975
 8129SOL    HW236021   1.637   2.305   7.197  0.6048 -2.5932  1.2174
 8130SOL     OW36022   3.692   4.549  15.373  0.0999 -0.6128  0.1474
 8130SOL    HW136023   3.700   4.499  15.292 -1.0872 -2.5272  1.2069
 8130SOL    HW236024   3.784   4.546  15.400 -0.1547 -2.2068  0.8373
 8131SOL     OW36025   3.423   0.500   1.894  0.0457  0.1064 -0.0377
 8131SOL    HW136026   3.441   0.435   1.825 -0.9592  0.3922 -0.5663
 8131SOL    HW236027   3.492   0.562   1.873  0.3712 -0.1913  0.1482
 8132SOL     OW36028   0.632   3.219   0.791 -0.2500 -0.0774  0.1086
 8132SOL    HW136029   0.685   3.287   0.831  2.2652 -0.2883 -2.8440
 8132SOL    HW236030   0.681   3.196   0.711 -2.6253 -0.7120 -1.1681
 8133SOL     OW36031   1.773   2.795   6.982 -0.8464 -0.0016 -0.3129
 8133SOL    HW136032   1.780   2.879   7.028  0.1008 -1.6258  2.5453
 8133SOL    HW236033   1.808   2.823   6.898  1.8672 -1.7736  0.2438
 8134SOL     OW36034   2.267   4.301  15.349 -0.2796  0.5981 -0.2032
 8134SOL    HW136035   2.214   4.346  15.415 -0.5116  0.5917 -0.3870
 8134SOL    HW236036   2.257   4.358  15.273 -0.9276 -0.7054 -1.0909
 8135SOL     OW36037   3.483   3.626   1.292 -0.0023 -0.3223  0.6764
 8135SOL    HW136038   3.530   3.703   1.260 -1.3750  0.6072  0.9018
 8135SOL    HW236039   3.408   3.661   1.340 -0.8209 -0.0604 -0.7946
 8136SOL     OW36040   3.266   1.105   9.420 -0.1230 -0.1097  0.5568
 8136SOL    HW136041   3.186   1.124   9.469  0.0062 -2.4295  1.6626
 8136SOL    HW236042   3.321   1.179   9.445  3.1403 -2.6500  0.8702
 8137SOL     OW36043   4.560   2.321  15.037 -0.1830  0.4019 -0.1043
 8137SOL    HW136044   4.545   2.275  14.954 -1.9220 -0.3554  0.6274
 8137SOL    HW236045   4.525   2.407  15.013 -0.2799 -0.3467 -2.6589
 8138SOL     OW36046   0.374   2.787   5.005  0.8191  0.3896  0.1419
 8138SOL    HW136047   0.339   2.827   5.085 -1.4982 -2.0081  0.3381
 8138SOL    HW236048   0.429   2.721   5.048  1.0725  1.5552  1.5927
 8139SOL     OW36049   4.183   4.570   8.378  0.1522 -0.2855 -0.0486
 8139SOL    HW136050   4.199   4.600   8.467 -1.3491  0.6407 -0.0922
 8139SOL    HW236051   4.265   4.544   8.336 -0.7420 -2.9256 -0.1249
 8140SOL     OW36052   3.111   2.018   8.316 -0.2042  0.5166 -0.6757
 8140SOL    HW136053   3.154   1.936   8.293  0.4359  0.9795 -1.1451
 8140SOL    HW236054   3.026   1.975   8.324 -0.3121  0.2473 -3.1148
 8141SOL     OW36055   1.437   1.353  13.518  0.4090  0.3968 -0.1900
 8141SOL    HW136056   1.382   1.373  13.594 -1.2900 -0.4773 -1.1958
 8141SOL    HW236057   1.388   1.407  13.456 -0.9191  1.3606  1.6930
 8142SOL     OW36058   3.128   3.052  13.907  0.0962 -0.7745  0.2694
 8142SOL    HW136059   3.198   3.115  13.887  0.6909 -1.1736  1.0841
 8142SOL    HW236060   3.049   3.088  13.867  0.0032 -2.2665 -0.8897
 8143SOL     OW36061   3.150   4.056   0.060 -0.3146 -0.2192  0.5317
 8143SOL    HW136062   3.115   4.107   0.134  0.4314 -0.5362  1.0960
 8143SOL    HW236063   3.109   4.106  17.732 -0.5937  1.4519  1.8786
 8144SOL     OW36064   2.832   3.541   4.773 -0.1770  0.0692 -0.6690
 8144SOL    HW136065   2.806   3.555   4.864 -0.3758  2.1217 -1.0482
 8144SOL    HW236066   2.751   3.514   4.730  0.0598  1.0087 -1.7237
 8145SOL     OW36067   0.162   2.737   2.395  0.6813 -0.2560 -0.1928
 8145SOL    HW136068   0.238   2.778   2.437  1.2440 -1.7633  0.2744
 8145SOL    HW236069   0.116   2.807   2.349 -2.1647 -1.3369  1.0591
 8146SOL     OW36070   0.549   3.522   2.686 -0.1681 -0.2573 -0.2352
 8146SOL    HW136071   0.559   3.576   2.764 -1.1290 -0.1384 -0.1891
 8146SOL    HW236072   0.625   3.466   2.673  0.6684  0.6517  0.7689
 8147SOL     OW36073   4.372   4.475   1.906  0.2954 -0.1951 -0.2401
 8147SOL    HW136074   4.401   4.530   1.978  2.1800 -0.8147 -0.5291
 8147SOL    HW236075   4.403   4.389   1.934  0.4494  0.4334  1.5308
 8148SOL     OW36076   0.823   4.471  11.001  0.2915  0.3053  0.0157
 8148SOL    HW136077   0.918   4.460  11.014  0.3449  1.7418  0.8427
 8148SOL    HW236078   0.795   4.385  11.033 -2.5925  0.9517 -0.7601
 8149SOL     OW36079   1.754   2.365   2.692  0.1659 -0.3044 -0.3364
 8149SOL    HW136080   1.765   2.456   2.665 -2.3415 -0.1346 -0.8538
 8149SOL    HW236081   1.810   2.324   2.626 -2.1358  0.4954 -2.8108
 8150SOL     OW36082   4.635   1.166   8.833  0.2358  0.3957  0.4101
 8150SOL    HW136083   4.698   1.097   8.851 -1.4052 -1.2300 -0.0969
 8150SOL    HW236084   4.580   1.169   8.912 -0.9230 -0.7515 -0.3525
 8151SOL     OW36085   4.158   2.937   5.410  0.2930 -0.1591  0.0972
 8151SOL    HW136086   4.241   2.984   5.411 -0.2812  0.8461  0.5702
 8151SOL    HW236087   4.102   2.996   5.459  0.4439  0.5052 -0.5179
 8152SOL     OW36088   0.355   3.292   2.264 -0.5766 -0.2050  0.1192
 8152SOL    HW136089   0.430   3.280   2.322  0.6690  1.3471 -1.1649
 8152SOL    HW236090   0.289   3.262   2.326 -0.2893  1.3464  1.1813
 8153SOL     OW36091   1.808   0.122   9.130 -0.1579 -0.0986  0.2402
 8153SOL    HW136092   1.888   0.088   9.091 -0.4309 -2.2075  1.5355
 8153SOL    HW236093   1.854   0.155   9.208 -1.5582 -0.3235  1.1702
 8154SOL     OW36094   3.211   4.017   9.308  0.0738  0.9690 -0.2064
 8154SOL    HW136095   3.248   4.001   9.394  0.0108  1.8237 -0.0195
 8154SOL    HW236096   3.280   3.972   9.259  0.8809  1.4724  0.4749
 8155SOL     OW36097   2.586   4.046   6.306  0.2039 -0.1832 -0.4077
 8155SOL    HW136098   2.679   4.024   6.303  0.8545  2.1996  1.9595
 8155SOL    HW236099   2.589   4.126   6.253  0.4657 -0.1725 -0.3776
 8156SOL     OW36100   2.223   4.560   8.417 -0.4056 -0.0956 -0.2441
 8156SOL    HW136101   2.293   4.520   8.470 -1.3748 -2.2384 -0.5726
 8156SOL    HW236102   2.142   4.530   8.459  0.8274 -3.6280 -0.3409
 8157SOL     OW36103   4.678   0.624   3.824 -0.1047 -0.0363 -0.4163
 8157SOL    HW136104   4.725   0.642   3.743  1.2623 -0.9134  0.1941
 8157SOL    HW236105   4.652   0.713   3.851 -1.1726 -0.1537 -1.0558
 8158SOL     OW36106   4.498   3.587  10.590  0.5008  1.0277 -0.0719
 8158SOL    HW136107   4.464   3.514  10.641  0.3816  0.0211 -1.6073
 8158SOL    HW236108   4.486   3.660  10.651  0.6010  0.8478  0.1643
 8159SOL     OW36109   4.029   3.892  10.140  0.2381  0.0845  0.0277
 8159SOL    HW136110   4.093   3.879  10.210  1.9938 -2.6459 -2.1038
 8159SOL    HW236111   3.986   3.975  10.162 -0.5709  0.3275 -2.4497
 8160SOL     OW36112   4.416   2.041   3.983  0.1510 -0.5405  0.2954
 8160SOL    HW136113   4.355   2.037   4.056  0.7754 -0.7342  0.8082
 8160SOL    HW236114   4.363   2.015   3.908 -0.8918  0.3072  0.7548
 8161SOL     OW36115   4.520   1.736   4.066  0.4316 -0.6482 -0.5303
 8161SOL    HW136116   4.471   1.723   3.985  2.8229  0.7631 -2.2044
 8161SOL    HW236117   4.492   1.658   4.115 -0.9174  0.5577  0.6220
 8162SOL     OW36118   4.051   1.052  11.459  0.2686 -0.0597  0.2134
 8162SOL    HW136119   4.052   1.145  11.436  1.7763 -0.3549 -0.9324
 8162SOL    HW236120   4.137   1.046  11.502  1.0293  0.3353 -1.2802
 8163SOL     OW36121   4.734   4.203  11.134 -0.2326 -0.7183  0.0095
 8163SOL    HW136122   4.678   4.132  11.167 -0.4513 -0.0909  0.9822
 8163SOL    HW236123   0.084   4.167  11.157  1.9238  3.6824 -1.2607
 8164SOL     OW36124   2.130   4.593  15.359 -0.2976  0.3519 -0.3800
 8164SOL    HW136125   2.210   4.630  15.323 -0.3560  0.4216 -0.4370
 8164SOL    HW236126   2.101   4.566  15.272  1.3489  0.9370 -1.0961
 8165SOL     OW36127   0.287   2.047   3.155  0.6364  0.4318 -0.4321
 8165SOL    HW136128   0.261   2.008   3.071  2.0773  0.1038 -0.7303
 8165SOL    HW236129   0.321   1.964   3.188  1.2599  0.7436 -0.2972
 8166SOL     OW36130   1.927   1.575   6.558  0.4071 -0.6034  0.2153
 8166SOL    HW136131   1.934   1.491   6.514 -1.4498 -0.4042 -0.4333
 8166SOL    HW236132   1.834   1.583   6.579 -0.0210 -1.4543 -1.3674
 8167SOL     OW36133   0.391   3.395   8.435 -0.8806 -0.4618 -0.4247
 8167SOL    HW136134   0.482   3.367   8.451 -0.1921  1.1934 -1.4979
 8167SOL    HW236135   0.348   3.358   8.512 -0.5086 -1.0239 -0.4790
 8168SOL     OW36136   0.074   2.678   1.255 -0.0019  0.3255  0.2591
 8168SOL    HW136137   0.095   2.637   1.171  3.1406  0.4940  0.9490
 8168SOL    HW236138   0.162   2.714   1.268 -1.1152  2.9413  0.6127
 8169SOL     OW36139   3.152   3.282  14.355 -0.2089 -0.2579 -0.0832
 8169SOL    HW136140   3.089   3.242  14.295  0.3304 -1.1434 -0.0657
 8169SOL    HW236141   3.141   3.219  14.426  2.4003  0.2278  0.7298
 8170SOL     OW36142   2.605   3.455   4.672 -0.1379  0.1354 -0.3770
 8170SOL    HW136143   2.555   3.481   4.750  0.4293  1.8678 -0.5947
 8170SOL    HW236144   2.609   3.363   4.698  1.3103 -0.2881 -2.1385
 8171SOL     OW36145   3.850   3.911   1.131  0.1780  0.2173 -0.1500
 8171SOL    HW136146   3.835   3.845   1.063  0.6339  1.2555 -1.2500
 8171SOL    HW236147   3.795   3.981   1.098  1.2383 -0.7411 -3.8689
 8172SOL     OW36148   3.863   3.995   3.192  0.0676 -0.1602 -0.1558
 8172SOL    HW136149   3.823   3.988   3.279 -0.9992 -0.0615 -0.6367
 8172SOL    HW236150   3.897   4.083   3.209  0.2954 -0.1069 -0.8986
 8173SOL     OW36151   4.061   1.174  13.726  0.0455 -0.7655  0.7019
 8173SOL    HW136152   4.079   1.248  13.783  0.4474  0.9139 -1.5883
 8173SOL    HW236153   3.972   1.195  13.698  0.6474  2.9394  1.5569
 8174SOL     OW36154   3.250   3.602  13.759  0.3211 -0.2851  0.5010
 8174SOL    HW136155   3.330   3.559  13.790  0.3443 -1.9134 -1.8948
 8174SOL    HW236156   3.231   3.550  13.681 -1.0028 -0.1376  0.7320
 8175SOL     OW36157   2.288   0.849   1.821 -0.5103  0.6307  0.1791
 8175SOL    HW136158   2.239   0.927   1.846 -0.4503  0.4510  0.8642
 8175SOL    HW236159   2.379   0.870   1.840  0.0914 -1.7262 -0.0796
 8176SOL     OW36160   4.075   1.685   6.783  0.3445  0.3557  0.5984
 8176SOL    HW136161   4.080   1.780   6.771 -0.5881  0.2798 -0.3355
 8176SOL    HW236162   4.001   1.670   6.724  1.2536 -0.7183 -0.2787
 8177SOL     OW36163   4.228   4.049  14.801  0.0759 -0.3906 -0.0103
 8177SOL    HW136164   4.254   3.958  14.788 -3.6791 -0.9385 -3.9269
 8177SOL    HW236165   4.166   4.032  14.872 -2.2288 -0.5655 -2.0425
 8178SOL     OW36166   1.898   0.074   3.854 -0.2407 -0.3831 -0.1528
 8178SOL    HW136167   1.844   0.112   3.784  0.8297  1.4070 -0.0000
 8178SOL    HW236168   1.877   4.717   3.847  0.9275 -0.6351 -0.3207
 8179SOL     OW36169   4.020   3.414   8.988  0.0886 -0.0767  0.0935
 8179SOL    HW136170   4.014   3.336   8.932 -2.3975  0.1520  0.0438
 8179SOL    HW236171   4.090   3.474   8.963  0.0001  0.3078  0.7611
 8180SOL     OW36172   0.015   2.091   0.487 -0.5806  0.2599  0.2089
 8180SOL    HW136173   0.027   2.030   0.560 -1.7470 -0.3666 -0.1137
 8180SOL    HW236174   4.666   2.063   0.453  0.4285 -1.0451 -1.2538
 8181SOL     OW36175   3.407   3.090   7.138 -0.5498 -0.2192 -0.3331
 8181SOL    HW136176   3.497   3.073   7.166 -0.4010  3.7787  1.6695
 8181SOL    HW236177   3.360   3.077   7.221 -0.7366  1.2954 -0.2047
 8182SOL     OW36178   3.634   2.623  15.484  0.3025  0.1450 -0.5019
 8182SOL    HW136179   3.682   2.588  15.559  1.1256  2.9087  0.2639
 8182SOL    HW236180   3.652   2.549  15.426  0.6268 -1.2379  1.3442
 8183SOL     OW36181   4.644   2.025   6.574  0.0762 -0.2489  0.1710
 8183SOL    HW136182   4.688   1.948   6.538  5.8304  1.7970  2.7728
 8183SOL    HW236183   4.613   2.069   6.495  0.7333 -1.4651 -0.7587
 8184SOL     OW36184   3.618   0.810   6.076 -0.7906  0.1773 -0.5297
 8184SOL    HW136185   3.586   0.900   6.083 -0.3640  0.3851 -1.2236
 8184SOL    HW236186   3.604   0.777   6.164  0.4459 -1.2644 -0.8670
 8185SOL     OW36187   1.513   2.235  16.603 -0.2785  0.2855 -0.2931
 8185SOL    HW136188   1.427   2.277  16.604 -1.2339 -1.6412 -1.5303
 8185SOL    HW236189   1.496   2.150  16.643 -0.5340  0.5187  0.0948
 8186SOL     OW36190   2.540   3.086   2.104  0.1539  0.0010  0.5496
 8186SOL    HW136191   2.548   3.016   2.039  0.7912  0.2943  0.3095
 8186SOL    HW236192   2.617   3.064   2.156  0.4256 -0.8827 -0.2275
 8187SOL     OW36193   0.877   0.383   9.231  0.2174 -0.0521 -0.0891
 8187SOL    HW136194   0.887   0.324   9.306  1.6981  0.7612  0.3404
 8187SOL    HW236195   0.826   0.454   9.269 -1.4080 -1.7120  0.8294
 8188SOL     OW36196   3.442   0.997   4.891  0.3083 -0.5912  0.3550
 8188SOL    HW136197   3.499   0.939   4.841  1.9808 -0.4093  2.0245
 8188SOL    HW236198   3.413   0.946   4.966  1.8155 -1.7099  0.1689
 8189SOL     OW36199   4.039   3.269  10.891  0.2521 -0.6802  0.1787
 8189SOL    HW136200   4.102   3.319  10.839  0.1981 -1.1177 -0.3011
 8189SOL    HW236201   4.022   3.200  10.828  0.3801  0.1602 -0.7795
 8190SOL     OW36202   0.182   1.019   2.123  0.4903  0.2788 -0.0912
 8190SOL    HW136203   0.242   1.052   2.056 -0.5544 -0.2423 -1.2823
 8190SOL    HW236204   0.168   1.098   2.174  0.0996  1.6804 -2.3837
 8191SOL     OW36205   1.998   3.441  12.666 -0.3605  0.0367 -0.7390
 8191SOL    HW136206   2.059   3.478  12.730 -0.0942  0.3643 -1.1810
 8191SOL    HW236207   1.969   3.367  12.718  0.2458 -0.4661 -1.1214
 8192SOL     OW36208   3.640   3.690   0.007 -0.2428  0.0672  0.8395
 8192SOL    HW136209   3.633   3.662   0.099  2.9754  2.0024  1.6790
 8192SOL    HW236210   3.673   3.615  17.699  0.8651  0.8457  0.4105
 8193SOL     OW36211   4.111   2.244  17.088  0.2566 -0.0744 -0.0777
 8193SOL    HW136212   4.189   2.277  17.132  0.4835 -0.4299 -0.2119
 8193SOL    HW236213   4.036   2.283  17.133 -0.6393 -0.3148 -1.3272
 8194SOL     OW36214   2.599   0.382   4.960  0.5725  0.3490 -0.2520
 8194SOL    HW136215   2.642   0.347   4.882 -0.7347 -0.4871 -0.6007
 8194SOL    HW236216   2.642   0.327   5.024 -0.1387  1.6088  1.3147
 8195SOL     OW36217   4.557   1.219   5.637 -0.1872  0.1902  0.2347
 8195SOL    HW136218   4.540   1.128   5.616 -1.8571  0.4353  0.4463
 8195SOL    HW236219   4.651   1.224   5.622 -0.2622 -1.7097 -0.7980
 8196SOL     OW36220   2.431   2.393   2.960  0.1825  0.3004 -0.2489
 8196SOL    HW136221   2.501   2.454   2.937 -0.5487  0.9012 -0.8988
 8196SOL    HW236222   2.452   2.317   2.907 -0.0133 -1.6358  2.4621
 8197SOL     OW36223   0.853   4.060   5.869 -0.3900  0.6819  0.3995
 8197SOL    HW136224   0.843   4.154   5.882  1.6880  0.9004  0.3576
 8197SOL    HW236225   0.805   4.033   5.790 -0.8596  2.1777  0.1858
 8198SOL     OW36226   3.327   4.629   2.825 -0.2025  0.6755 -0.9944
 8198SOL    HW136227   3.264   4.691   2.862 -0.4949  0.0615 -0.4608
 8198SOL    HW236228   3.402   4.683   2.800  0.6436  0.4408  1.0402
 8199SOL     OW36229   3.842   4.203   1.992  0.2517  0.5179  0.1408
 8199SOL    HW136230   3.771   4.241   2.044 -0.5271 -0.7679  0.0069
 8199SOL    HW236231   3.810   4.138   1.929 -0.9053  0.7758  0.4682
 8200SOL     OW36232   1.985   1.414  12.522 -0.0031  0.5971  0.1834
 8200SOL    HW136233   1.939   1.457  12.451  1.0685 -0.4441 -1.1290
 8200SOL    HW236234   1.966   1.478  12.591  1.6448  1.2464  0.0327
 8201SOL     OW36235   3.503   4.320  11.676  0.5005 -0.1944  0.0238
 8201SOL    HW136236   3.556   4.307  11.597  1.8304 -2.3797  1.2955
 8201SOL    HW236237   3.511   4.236  11.721  1.5333 -1.3151 -2.2800
 8202SOL     OW36238   1.690   1.527   7.432 -0.2830 -0.0968  0.0548
 8202SOL    HW136239   1.751   1.541   7.505  0.1475 -0.9427 -0.1419
 8202SOL    HW236240   1.680   1.619   7.407 -1.6677 -0.8827 -2.3114
 8203SOL     OW36241   2.665   0.181   7.828  0.0121  0.3559  0.0084
 8203SOL    HW136242   2.708   0.113   7.777 -0.4988  0.8792 -1.1303
 8203SOL    HW236243   2.590   0.209   7.774  0.7967  3.1727  0.3954
 8204SOL     OW36244   0.024   4.423  12.159  0.0325  0.7801  0.1435
 8204SOL    HW136245   0.073   4.346  12.133 -0.3284  0.3905  0.6299
 8204SOL    HW236246   4.711   4.400  12.237  2.7498  3.4272  2.6798
 8205SOL     OW36247   1.966   1.313  11.690 -0.6921  0.5382  0.0923
 8205SOL    HW136248   1.969   1.384  11.626 -1.3772  0.2062 -0.3033
 8205SOL    HW236249   1.875   1.286  11.679  0.3588 -2.4744 -1.3594
 8206SOL     OW36250   2.913   2.914   3.205  0.3927 -0.3235 -0.4896
 8206SOL    HW136251   2.856   2.986   3.178  1.9227  1.5962  1.4122
 8206SOL    HW236252   2.973   2.948   3.271 -0.1030  1.3746 -0.9102
 8207SOL     OW36253   0.929   2.577  13.069 -0.0388  0.1803  0.7174
 8207SOL    HW136254   0.909   2.663  13.031 -1.5400 -0.4101  0.1459
 8207SOL    HW236255   0.914   2.527  12.989  0.7664  1.1844 -0.0567
 8208SOL     OW36256   0.847   3.352   4.761 -0.3844 -0.4976  0.2255
 8208SOL    HW136257   0.894   3.269   4.754 -0.2956 -0.4156 -0.1677
 8208SOL    HW236258   0.798   3.346   4.843 -2.6070 -1.4276 -1.2028
 8209SOL     OW36259   0.941   2.392   8.950  0.6316  0.3414 -0.0992
 8209SOL    HW136260   0.936   2.352   9.037 -2.1744  1.2705  0.1677
 8209SOL    HW236261   0.875   2.459   8.971 -0.8617 -1.1837  0.0162
 8210SOL     OW36262   0.698   2.187   3.500 -0.5155 -0.0073 -0.1645
 8210SOL    HW136263   0.645   2.108   3.509 -0.7890  0.3720  1.5245
 8210SOL    HW236264   0.720   2.183   3.593 -1.1576  1.2103  0.0319
 8211SOL     OW36265   0.444   1.478   2.631 -0.2914  0.2800  0.0497
 8211SOL    HW136266   0.382   1.547   2.606 -0.8139  0.4602  1.8368
 8211SOL    HW236267   0.413   1.473   2.721  1.3993 -0.9928  0.5633
 8212SOL     OW36268   2.602   0.028  15.358 -0.3582  0.2335 -0.3306
 8212SOL    HW136269   2.624   0.098  15.421  1.9467 -0.3459 -0.5078
 8212SOL    HW236270   2.683   4.715  15.344 -0.2796  0.2904 -0.0793
 8213SOL     OW36271   1.359   4.158   9.984  0.1614 -0.1125 -0.3909
 8213SOL    HW136272   1.294   4.219  10.018 -1.6400 -2.1498 -0.1290
 8213SOL    HW236273   1.385   4.201   9.903 -1.5710  1.2661 -0.1996
 8214SOL     OW36274   3.821   4.652   5.638 -0.2623 -0.2080 -0.4632
 8214SOL    HW136275   3.794   4.672   5.548  1.3241 -0.2534 -0.9576
 8214SOL    HW236276   3.843   0.001   5.678 -1.2740 -0.4034  0.4938
 8215SOL     OW36277   3.465   0.564   3.859 -0.0749  0.4198 -0.5855
 8215SOL    HW136278   3.402   0.529   3.797  1.4892 -1.6705 -1.0262
 8215SOL    HW236279   3.543   0.534   3.812 -0.6363 -0.9889 -0.6345
 8216SOL     OW36280   4.608   3.528  16.923  0.1026 -0.0411  0.1513
 8216SOL    HW136281   4.684   3.510  16.869  0.8168 -0.3735  1.2565
 8216SOL    HW236282   4.607   3.623  16.908 -0.4123 -0.1770 -0.6088
 8217SOL     OW36283   1.466   0.008   7.307 -0.1432  0.2535 -0.0407
 8217SOL    HW136284   1.547   4.696   7.328  0.1042  0.9421  0.5967
 8217SOL    HW236285   1.485   0.049   7.223  2.7666 -0.2941  0.3443
 8218SOL     OW36286   0.727   4.208   3.899 -0.2926 -0.2295 -0.8332
 8218SOL    HW136287   0.775   4.286   3.928  1.8515 -1.8273 -0.0515
 8218SOL    HW236288   0.651   4.213   3.956  0.4564 -0.3915  0.1796
 8219SOL     OW36289   4.576   3.038  16.397  0.0152 -0.0594  0.2156
 8219SOL    HW136290   4.529   3.054  16.316  0.2595  0.3310  0.1523
 8219SOL    HW236291   4.666   3.067  16.384  0.2357 -0.2723  1.2471
 8220SOL     OW36292   3.622   3.729   8.179 -0.1925  0.1375 -0.1582
 8220SOL    HW136293   3.636   3.643   8.141 -0.0012  1.1100 -2.2928
 8220SOL    HW236294   3.534   3.752   8.151 -0.2634 -0.7592 -0.6354
 8221SOL     OW36295   1.308   3.988   6.156  0.5509  0.6717  0.3304
 8221SOL    HW136296   1.296   3.979   6.061  2.1375  1.5697  0.0432
 8221SOL    HW236297   1.387   3.935   6.157 -0.5173 -0.9471  0.3987
 8222SOL     OW36298   4.376   0.693  14.365  0.3901  0.5440  0.2762
 8222SOL    HW136299   4.417   0.710  14.450 -0.3905 -0.3779  0.8376
 8222SOL    HW236300   4.360   0.599  14.370 -2.0796  0.9420 -0.1034
 8223SOL     OW36301   3.399   2.181   5.246  0.9485 -0.1911  0.6747
 8223SOL    HW136302   3.486   2.217   5.231 -0.3958  2.3717 -1.0472
 8223SOL    HW236303   3.345   2.247   5.203  1.9501  0.6283  0.6940
 8224SOL     OW36304   1.648   3.444  16.829 -0.6196  0.1468  0.0351
 8224SOL    HW136305   1.718   3.509  16.838 -0.6374  0.4351 -1.8179
 8224SOL    HW236306   1.694   3.376  16.780 -0.3085 -1.1975  2.2060
 8225SOL     OW36307   1.812   4.027  14.229  0.3535 -0.3430 -0.3370
 8225SOL    HW136308   1.808   3.983  14.314  1.3526  1.5037  0.6511
 8225SOL    HW236309   1.895   3.993  14.196 -0.6750 -1.4751 -1.8016
 8226SOL     OW36310   2.493   4.282   6.973 -0.2895 -0.4165 -0.0673
 8226SOL    HW136311   2.403   4.263   6.998 -0.0554 -1.6200 -0.1641
 8226SOL    HW236312   2.511   4.217   6.905  2.6390  1.2363 -0.8910
 8227SOL     OW36313   0.534   0.673   5.826  0.1049 -0.5851  0.2347
 8227SOL    HW136314   0.624   0.703   5.811  0.1910 -2.1584 -2.4254
 8227SOL    HW236315   0.506   0.641   5.740  1.9411  1.1620 -1.0027
 8228SOL     OW36316   4.235   4.666   7.438  0.0666  0.2025 -0.9890
 8228SOL    HW136317   4.288   0.010   7.434  1.3489 -0.6707 -1.0373
 8228SOL    HW236318   4.170   4.686   7.370 -1.4523  0.9289  0.6630
 8229SOL     OW36319   4.195   0.190   0.746  0.2071  0.0038 -0.1765
 8229SOL    HW136320   4.250   0.115   0.722  1.1608  0.6816 -0.1141
 8229SOL    HW236321   4.115   0.147   0.717  0.4426 -1.5561  1.5170
 8230SOL     OW36322   4.234   2.659   1.852  0.1705  0.2494  0.0266
 8230SOL    HW136323   4.288   2.737   1.864 -0.9280  0.8728  0.9194
 8230SOL    HW236324   4.172   2.683   1.784  0.6486  1.4904  0.0318
 8231SOL     OW36325   2.854   2.043   3.782  0.7471  0.3727 -0.4753
 8231SOL    HW136326   2.768   2.000   3.777  0.1382  1.5477 -0.1334
 8231SOL    HW236327   2.833   2.132   3.810 -0.6487  0.0844 -0.6121
 8232SOL     OW36328   1.516   3.419   8.259 -0.3608  0.3055  0.1156
 8232SOL    HW136329   1.530   3.408   8.165 -0.5778  1.5323 -0.0602
 8232SOL    HW236330   1.471   3.337   8.277  0.9482 -0.4425 -0.0462
 8233SOL     OW36331   3.926   2.258   3.498  0.0875  0.2252 -0.3175
 8233SOL    HW136332   3.978   2.178   3.500  1.8505  1.3465 -0.6060
 8233SOL    HW236333   3.837   2.225   3.508 -0.3253  1.4784  0.2508
 8234SOL     OW36334   0.129   0.735   4.344 -0.2921 -0.1043 -0.3013
 8234SOL    HW136335   0.077   0.758   4.421  0.3466 -2.0760  0.7211
 8234SOL    HW236336   0.079   0.664   4.305 -0.4641 -0.9141  1.3933
 8235SOL     OW36337   3.006   4.434  10.313 -0.3948 -0.2036 -0.5739
 8235SOL    HW136338   2.934   4.379  10.282  0.3481 -0.3414 -2.0375
 8235SOL    HW236339   3.055   4.445  10.232 -3.1107  1.9971 -1.8932
 8236SOL     OW36340   4.293   0.219   0.991  0.1718  0.1811  0.1775
 8236SOL    HW136341   4.352   0.144   0.994 -0.3461 -0.1958  0.7980
 8236SOL    HW236342   4.265   0.212   0.900  0.2990  1.2963  0.0507
 8237SOL     OW36343   0.396   3.481   3.040 -0.2390  0.0541 -0.2123
 8237SOL    HW136344   0.319   3.493   3.096  0.3666 -1.2289  0.8648
 8237SOL    HW236345   0.422   3.572   3.024  1.1350 -0.2929  0.0771
 8238SOL     OW36346   1.752   2.797  10.539 -0.3121 -0.0123  0.0003
 8238SOL    HW136347   1.746   2.871  10.479  2.3794 -0.4491 -0.8151
 8238SOL    HW236348   1.739   2.832  10.627  1.9217 -2.0416  1.1275
 8239SOL     OW36349   4.420   0.490   9.207 -0.0262  0.0044  0.3813
 8239SOL    HW136350   4.336   0.532   9.191  0.6562  1.9738  1.9429
 8239SOL    HW236351   4.396   0.400   9.185  0.4743 -0.1914  0.6156
 8240SOL     OW36352   1.345   3.806   3.243 -0.0147  0.5822 -0.0205
 8240SOL    HW136353   1.407   3.876   3.226  1.0573 -0.4410 -0.3607
 8240SOL    HW236354   1.397   3.740   3.289  0.2858  0.1629 -0.9599
 8241SOL     OW36355   2.329   3.206  13.428 -0.0522 -0.0651  0.2744
 8241SOL    HW136356   2.402   3.169  13.377  0.1240  0.1486  0.3757
 8241SOL    HW236357   2.361   3.295  13.440  1.1835 -0.5380  0.5077
 8242SOL     OW36358   0.613   1.748  14.631 -0.0492 -0.6252 -0.1985
 8242SOL    HW136359   0.672   1.794  14.571 -0.4668  0.2025  0.0296
 8242SOL    HW236360   0.536   1.763  14.576  0.1696 -0.8341 -0.5658
 8243SOL     OW36361   1.982   1.224  13.827 -0.3973 -0.2003  0.2475
 8243SOL    HW136362   2.002   1.317  13.837  3.6061 -0.9650 -0.4187
 8243SOL    HW236363   1.908   1.223  13.767  0.4322  1.3396 -0.7949
 8244SOL     OW36364   0.266   3.472   5.712  0.4722  0.6938 -0.4261
 8244SOL    HW136365   0.259   3.498   5.804  1.4852  1.2902 -0.5085
 8244SOL    HW236366   0.290   3.556   5.673 -0.2650  0.4344 -1.4341
 8245SOL     OW36367   3.783   0.540   2.258 -0.0211 -0.2244 -0.3787
 8245SOL    HW136368   3.694   0.505   2.263  0.0035 -0.2893 -0.3929
 8245SOL    HW236369   3.826   0.486   2.324 -1.7494 -2.1611 -0.8427
 8246SOL     OW36370   4.456   3.636   1.512 -0.0041  0.0047 -0.5595
 8246SOL    HW136371   4.536   3.621   1.562  1.1274  3.3486 -1.3735
 8246SOL    HW236372   4.501   3.630   1.428  1.5440 -1.2648  0.3521
 8247SOL     OW36373   0.516   1.481   8.978 -0.2687  0.3625  0.4566
 8247SOL    HW136374   0.476   1.454   8.895 -0.9424 -1.0248  1.2269
 8247SOL    HW236375   0.444   1.458   9.037 -0.9178  1.0108 -0.0744
 8248SOL     OW36376   2.667   0.670   2.079  0.1921  0.3269 -0.6385
 8248SOL    HW136377   2.697   0.637   1.995 -0.0495  1.5975 -1.2166
 8248SOL    HW236378   2.658   0.584   2.121  0.0848  1.2270  1.2196
 8249SOL     OW36379   1.496   0.401   1.877 -0.4660 -0.2463 -0.5080
 8249SOL    HW136380   1.485   0.476   1.817 -0.1147  0.2039 -0.0152
 8249SOL    HW236381   1.573   0.361   1.836 -0.2521  0.8061 -1.1379
 8250SOL     OW36382   3.232   3.955   4.718 -0.5199  0.3278 -0.0389
 8250SOL    HW136383   3.281   4.022   4.765 -0.5862  0.5510 -0.2943
 8250SOL    HW236384   3.205   4.006   4.642 -1.1723  0.7135  0.4560
 8251SOL     OW36385   0.799   1.880  12.259 -0.0037 -0.0229 -1.0553
 8251SOL    HW136386   0.846   1.849  12.182 -0.3208  0.4792 -1.4498
 8251SOL    HW236387   0.845   1.963  12.270  2.2655 -1.6350  1.4043
 8252SOL     OW36388   0.817   4.111   1.662  0.1393  0.2628  0.0174
 8252SOL    HW136389   0.813   4.154   1.747  0.4113  2.7297 -1.2030
 8252SOL    HW236390   0.779   4.028   1.690  0.3749  0.0523 -0.2815
 8253SOL     OW36391   3.340   3.658   3.543 -0.1049 -0.3126 -0.2825
 8253SOL    HW136392   3.435   3.662   3.539 -0.1134 -1.0958 -1.4767
 8253SOL    HW236393   3.318   3.712   3.467 -2.4518 -0.5340  0.2319
 8254SOL     OW36394   1.260   3.241   3.180  0.8024 -0.0983 -0.1101
 8254SOL    HW136395   1.323   3.311   3.162 -0.1407  0.8870  0.4100
 8254SOL    HW236396   1.299   3.224   3.266  0.7202  0.8377  0.1180
 8255SOL     OW36397   0.269   4.198  10.504 -0.8943 -0.2400  0.1356
 8255SOL    HW136398   0.187   4.190  10.553  0.7404 -1.1625  2.7289
 8255SOL    HW236399   0.302   4.108  10.500 -0.2692  0.0059 -0.3364
 8256SOL     OW36400   0.347   1.775   7.529 -0.0845 -0.2327 -0.2110
 8256SOL    HW136401   0.393   1.805   7.450 -0.0418 -1.2914 -0.5798
 8256SOL    HW236402   0.254   1.779   7.508 -0.0710  0.4013 -0.1607
 8257SOL     OW36403   2.076   2.721   2.333 -0.1925 -0.0484 -0.1860
 8257SOL    HW136404   1.987   2.740   2.305 -0.0363 -0.2194 -0.8009
 8257SOL    HW236405   2.091   2.809   2.369 -0.7883 -0.0199 -0.0097
 8258SOL     OW36406   0.573   1.890   8.310  0.9405 -0.4038 -0.0929
 8258SOL    HW136407   0.542   1.809   8.350 -0.6804  0.0817 -0.3643
 8258SOL    HW236408   0.619   1.918   8.389  2.2452  0.2516 -1.0636
 8259SOL     OW36409   3.095   1.610   1.271  0.3089 -0.4693 -0.6477
 8259SOL    HW136410   3.106   1.522   1.236  0.1049 -1.0939  0.8539
 8259SOL    HW236411   3.108   1.590   1.364 -1.4621  0.0077 -0.2994
 8260SOL     OW36412   4.327   0.864   3.252  0.4624  0.0213  0.3966
 8260SOL    HW136413   4.254   0.925   3.263 -0.4557 -0.8748 -0.8821
 8260SOL    HW236414   4.394   0.932   3.240 -0.1970  0.5874 -0.1104
 8261SOL     OW36415   3.872   1.989   1.717 -0.1999  0.0931 -0.1362
 8261SOL    HW136416   3.956   1.998   1.762  0.3039  2.5737 -1.5493
 8261SOL    HW236417   3.817   1.983   1.795  2.2111 -1.0158  1.4633
 8262SOL     OW36418   0.358   2.584  17.146 -0.2676 -0.1420  0.0961
 8262SOL    HW136419   0.448   2.601  17.175 -0.0780 -1.8289  0.5069
 8262SOL    HW236420   0.372   2.495  17.112  0.7712  0.4330 -0.9652
 8263SOL     OW36421   4.712   3.115   3.295  0.0746  0.0119 -0.0331
 8263SOL    HW136422   0.024   3.045   3.340 -1.2462 -1.7257 -1.2784
 8263SOL    HW236423   4.634   3.099   3.348  0.7974 -0.9814  0.7399
 8264SOL     OW36424   2.285   2.252   8.789  1.3880  0.5723  0.2707
 8264SOL    HW136425   2.282   2.285   8.879  0.2747  1.3332 -0.0447
 8264SOL    HW236426   2.361   2.199   8.765  1.4070  0.6433  0.1733
 8265SOL     OW36427   3.654   1.449  14.020 -0.1978  0.9964 -0.0126
 8265SOL    HW136428   3.703   1.463  14.101  0.2445  0.8673 -0.2582
 8265SOL    HW236429   3.679   1.358  14.002 -2.3759  0.5962 -1.0287
 8266SOL     OW36430   3.930   1.434   3.318  0.0903  0.0147 -0.3934
 8266SOL    HW136431   3.922   1.409   3.226 -2.6436  0.6554 -0.3212
 8266SOL    HW236432   3.835   1.434   3.327  0.0745  1.9802 -0.4627
 8267SOL     OW36433   3.566   0.035   2.775  0.3129  0.4721  0.1964
 8267SOL    HW136434   3.638   4.712   2.753 -0.5078 -0.3286 -0.3366
 8267SOL    HW236435   3.586   0.071   2.862  0.1268 -1.1808  0.9219
 8268SOL     OW36436   2.948   3.335   7.798  0.0125 -0.0633  0.3347
 8268SOL    HW136437   2.889   3.306   7.728  0.2808 -0.3177  0.2165
 8268SOL    HW236438   3.034   3.313   7.763  0.5463  1.2058  0.8265
 8269SOL     OW36439   1.807   0.595   8.764 -0.3791  0.2453 -0.0550
 8269SOL    HW136440   1.763   0.636   8.689  1.0869  0.4431 -0.8129
 8269SOL    HW236441   1.784   0.503   8.765 -0.9941  0.4041  0.3976
 8270SOL     OW36442   1.564   3.956  10.257  0.1443  0.1866 -0.4623
 8270SOL    HW136443   1.524   4.043  10.261  1.0306  0.6526 -1.7357
 8270SOL    HW236444   1.656   3.980  10.249  0.3395 -0.5995 -0.5678
 8271SOL     OW36445   3.109   1.386   2.953  0.5912  0.1484  0.5651
 8271SOL    HW136446   3.153   1.314   2.908 -1.4859  0.1881 -1.5424
 8271SOL    HW236447   3.017   1.364   2.940 -0.2540  2.2468  3.0676
 8272SOL     OW36448   0.336   1.838   8.180  0.0913  0.1244 -1.1232
 8272SOL    HW136449   0.276   1.858   8.251 -0.5967  1.0296 -1.9689
 8272SOL    HW236450   0.414   1.857   8.233 -0.5069 -1.4332  0.3219
 8273SOL     OW36451   1.524   2.398   7.341 -0.6843  0.3863 -0.2021
 8273SOL    HW136452   1.527   2.487   7.307 -1.3831  0.3055 -0.4680
 8273SOL    HW236453   1.508   2.419   7.433 -1.4627 -0.6625 -0.0931
 8274SOL     OW36454   0.411   0.065  15.462 -0.4759  0.3126  0.2599
 8274SOL    HW136455   0.440   0.086  15.551 -2.4026 -0.5410  1.1067
 8274SOL    HW236456   0.316   0.081  15.459 -0.2381  1.4691 -1.1014
 8275SOL     OW36457   2.225   2.439  12.274 -0.2231 -0.2993  0.6643
 8275SOL    HW136458   2.319   2.453  12.285 -0.3636  1.6214 -0.4726
 8275SOL    HW236459   2.212   2.499  12.200 -0.1802 -2.2694 -0.9597
 8276SOL     OW36460   3.763   0.622   8.060 -0.2375 -0.2588 -0.1096
 8276SOL    HW136461   3.753   0.713   8.035 -0.3010  0.1138  1.2820
 8276SOL    HW236462   3.717   0.567   7.996  1.2762  0.5181 -1.8630
 8277SOL     OW36463   3.599   2.999  15.830 -0.8378  0.9736 -0.0714
 8277SOL    HW136464   3.555   2.963  15.753  0.1640 -0.5502  0.0661
 8277SOL    HW236465   3.608   3.093  15.816  0.9212  1.1101  1.9221
 8278SOL     OW36466   2.738   3.738   5.664  0.0854  0.5713  0.0706
 8278SOL    HW136467   2.766   3.705   5.579 -2.2643  1.1005 -0.8950
 8278SOL    HW236468   2.647   3.709   5.671  1.4030 -3.4559  0.3006
 8279SOL     OW36469   4.419   0.746  13.999 -0.4098  0.3615  0.1512
 8279SOL    HW136470   4.372   0.676  14.046  0.1053  0.9671  1.5727
 8279SOL    HW236471   4.451   0.789  14.078  1.6700  0.1998 -0.6005
 8280SOL     OW36472   2.373   0.720   8.034  0.1733  0.5667 -0.6751
 8280SOL    HW136473   2.404   0.670   7.958 -1.7997 -1.8424  0.1299
 8280SOL    HW236474   2.434   0.793   8.044 -0.2828  0.3902  3.4677
 8281SOL     OW36475   2.666   1.190   8.082  0.3109 -0.1244 -0.3042
 8281SOL    HW136476   2.696   1.274   8.047 -0.0124 -0.2421 -0.8632
 8281SOL    HW236477   2.575   1.198   8.053  0.7554 -2.0525 -2.1943
 8282SOL     OW36478   1.919   1.251  14.634 -0.3740 -0.2403  0.2002
 8282SOL    HW136479   1.903   1.243  14.728 -1.2133  1.5351  0.2074
 8282SOL    HW236480   1.834   1.290  14.612  0.2014  0.4416 -0.8040
 8283SOL     OW36481   4.117   3.381   3.123 -0.3896  0.2594 -0.5078
 8283SOL    HW136482   4.157   3.321   3.185 -1.0317  1.2968  0.9067
 8283SOL    HW236483   4.135   3.340   3.039  1.1387  0.0263 -0.0512
 8284SOL     OW36484   4.688   4.530   3.444  0.4746  0.3120  0.6613
 8284SOL    HW136485   4.682   4.478   3.524 -0.8418 -4.6868 -2.6873
 8284SOL    HW236486   0.045   4.547   3.451  0.8980 -0.7337 -2.7290
 8285SOL     OW36487   1.384   2.302   5.920 -0.2511 -0.0954 -0.4226
 8285SOL    HW136488   1.409   2.260   6.002  1.9644  0.2158 -0.9470
 8285SOL    HW236489   1.433   2.384   5.932 -0.7016  0.1256 -0.0959
 8286SOL     OW36490   3.131   1.073   3.045 -0.1711 -0.0158  0.3791
 8286SOL    HW136491   3.145   1.149   3.103  1.1110 -1.1161  1.5152
 8286SOL    HW236492   3.038   1.052   3.052 -0.5308  0.9050 -1.6337
 8287SOL     OW36493   4.213   2.776   0.599  0.3006  0.6076  0.6651
 8287SOL    HW136494   4.217   2.857   0.650  0.8249  1.4538 -0.7361
 8287SOL    HW236495   4.227   2.813   0.512  0.2900  0.5964  0.6586
 8288SOL     OW36496   3.188   0.975   2.650  0.1370 -0.6291 -0.1141
 8288SOL    HW136497   3.214   0.985   2.558 -2.0190  2.4787 -0.4198
 8288SOL    HW236498   3.112   1.033   2.658  0.8034  0.3098 -0.5326
 8289SOL     OW36499   1.118   4.578   7.023 -0.5112  0.2355  0.4845
 8289SOL    HW136500   1.055   4.516   7.059  1.2768 -2.6507 -1.3128
 8289SOL    HW236501   1.109   4.648   7.087 -0.9123 -0.4137  1.1292
 8290SOL     OW36502   0.256   4.310  14.338 -0.7007  0.3256  0.2162
 8290SOL    HW136503   0.221   4.331  14.252  2.2013  3.7405 -0.0953
 8290SOL    HW236504   0.204   4.234  14.364  0.4998 -0.7126 -0.4561
 8291SOL     OW36505   1.580   2.980  16.580  0.1622  0.7226  0.0486
 8291SOL    HW136506   1.659   3.014  16.536  1.0076 -0.8367  0.3712
 8291SOL    HW236507   1.607   2.889  16.566 -1.4752  0.6284 -2.4495
 8292SOL     OW36508   0.581   2.132   4.318  0.3891 -0.1382 -0.5742
 8292SOL    HW136509   0.545   2.128   4.407  0.8039 -1.2564 -0.4657
 8292SOL    HW236510   0.587   2.038   4.304  0.3146  0.0575 -1.9415
 8293SOL     OW36511   3.830   1.918   6.366 -1.0207  0.3914  0.1077
 8293SOL    HW136512   3.735   1.930   6.359 -1.0100  0.5921  0.3077
 8293SOL    HW236513   3.862   1.997   6.322  0.0489  1.1326  2.2098
 8294SOL     OW36514   2.055   0.588   7.246  0.0374  0.0159 -0.7969
 8294SOL    HW136515   2.150   0.601   7.254  0.0597  0.4858 -1.8518
 8294SOL    HW236516   2.020   0.669   7.282 -1.1285 -0.5141 -0.7448
 8295SOL     OW36517   2.918   0.348   4.668 -0.3306 -0.2193 -0.1402
 8295SOL    HW136518   2.836   0.302   4.683 -0.2324 -0.0754  0.8224
 8295SOL    HW236519   2.969   0.280   4.624  1.1065  2.4053 -2.6091
 8296SOL     OW36520   2.634   0.930   1.525 -0.1473  0.5708  0.3137
 8296SOL    HW136521   2.672   0.900   1.442 -0.4872 -1.2870  0.8435
 8296SOL    HW236522   2.578   0.857   1.549  2.1455 -0.6777  1.7540
 8297SOL     OW36523   0.894   4.011   4.037  0.2993  0.2412 -0.2151
 8297SOL    HW136524   0.846   4.093   4.023  1.7341  1.3110  0.9868
 8297SOL    HW236525   0.933   4.004   3.950  1.2040  0.3591  0.1751
 8298SOL     OW36526   1.962   1.673   7.420 -0.0354 -0.0433  0.4922
 8298SOL    HW136527   1.933   1.608   7.484  0.3862 -0.6131  0.1076
 8298SOL    HW236528   2.022   1.622   7.366 -0.1698 -0.3511  0.6312
 8299SOL     OW36529   1.703   2.872  15.904  0.4849  0.2766 -0.1691
 8299SOL    HW136530   1.771   2.938  15.915  0.2584  0.5252 -0.2722
 8299SOL    HW236531   1.762   2.799  15.882 -0.1542  0.4847 -2.5650
 8300SOL     OW36532   0.933   0.145   6.651 -0.0562 -0.1366  0.3029
 8300SOL    HW136533   1.017   0.111   6.681  0.7401  1.2923 -0.2788
 8300SOL    HW236534   0.939   0.113   6.561  1.7218  1.3707 -0.1192
 8301SOL     OW36535   0.855   4.590  16.709  0.6975 -0.0609 -0.3136
 8301SOL    HW136536   0.767   4.616  16.682  0.5572 -0.8523 -0.6303
 8301SOL    HW236537   0.908   4.595  16.629 -0.0940 -1.1853 -0.9144
 8302SOL     OW36538   2.720   3.875   3.194  0.6540 -0.4722 -0.0381
 8302SOL    HW136539   2.809   3.845   3.213  0.5956 -1.8969 -2.0586
 8302SOL    HW236540   2.738   3.969   3.184 -1.8009 -0.0117  0.0015
 8303SOL     OW36541   0.894   1.314   3.136  0.4758 -0.1716  0.2581
 8303SOL    HW136542   0.836   1.268   3.075  0.0707  2.0459 -1.0265
 8303SOL    HW236543   0.869   1.273   3.219 -2.4123  1.9102  0.4022
 8304SOL     OW36544   1.382   2.634   0.793  0.7395 -0.2231  0.0363
 8304SOL    HW136545   1.475   2.654   0.790  0.6479  0.4195  1.4548
 8304SOL    HW236546   1.396   2.555   0.844  2.5921  0.8609  1.1693
 8305SOL     OW36547   4.526   2.317   3.910 -0.6048 -0.7830  0.2712
 8305SOL    HW136548   4.485   2.246   3.960 -1.9374 -1.6702 -2.0420
 8305SOL    HW236549   4.497   2.398   3.953 -1.1335 -1.1960  0.6957
 8306SOL     OW36550   0.103   2.930   0.195 -0.2530 -0.0110 -0.2989
 8306SOL    HW136551   0.130   2.841   0.174 -2.2886 -1.3958  3.0209
 8306SOL    HW236552   0.101   2.943   0.290  0.1893 -0.7745 -0.1905
 8307SOL     OW36553   1.361   4.482  10.327 -0.0633  0.1830  0.2407
 8307SOL    HW136554   1.314   4.488  10.244 -1.0943 -0.2329  0.7887
 8307SOL    HW236555   1.380   4.574  10.345 -0.8058  0.1865  1.0318
 8308SOL     OW36556   2.684   4.399   8.499  0.3839  0.3555 -0.3712
 8308SOL    HW136557   2.730   4.321   8.530 -0.6412  0.3021  1.0224
 8308SOL    HW236558   2.741   4.440   8.434 -1.3406  0.0912 -2.0413
 8309SOL     OW36559   3.512   0.838   3.787  0.0707  0.3264 -0.0587
 8309SOL    HW136560   3.501   0.744   3.804  0.0724  0.4412  0.5896
 8309SOL    HW236561   3.607   0.832   3.776 -0.2579 -1.8015 -1.6426
 8310SOL     OW36562   2.089   0.840   9.373 -0.0299  0.4064  0.0145
 8310SOL    HW136563   2.055   0.847   9.284 -0.2960 -0.9555  0.0189
 8310SOL    HW236564   2.056   0.754   9.400 -0.5219  0.2370 -1.1454
 8311SOL     OW36565   3.707   2.884   7.234  0.4946  0.1484 -0.2581
 8311SOL    HW136566   3.741   2.803   7.196  0.9298  0.8855 -1.4506
 8311SOL    HW236567   3.710   2.954   7.168 -0.2543 -0.2981 -0.7702
 8312SOL     OW36568   2.093   1.337   2.754  0.2706 -0.0334  0.5021
 8312SOL    HW136569   2.028   1.348   2.823  0.6867  0.6432  0.7937
 8312SOL    HW236570   2.065   1.253   2.719 -0.3523  1.3076 -2.2641
 8313SOL     OW36571   3.124   1.972   7.717  0.1210  0.0530  0.1126
 8313SOL    HW136572   3.199   2.015   7.676  0.6445  0.6373  1.6792
 8313SOL    HW236573   3.094   2.038   7.780 -1.8189  0.0788 -0.8241
 8314SOL     OW36574   4.333   3.773  15.044  0.1957 -0.1301  0.1488
 8314SOL    HW136575   4.333   3.677  15.044 -0.8529 -0.1312 -0.0841
 8314SOL    HW236576   4.364   3.797  14.957  1.6986 -0.0254  0.7111
 8315SOL     OW36577   1.169   3.855   5.006  0.2145  0.8814  0.7493
 8315SOL    HW136578   1.218   3.788   4.959  1.2755  0.6479  2.1960
 8315SOL    HW236579   1.237   3.911   5.044  0.1195  0.1185  2.0310
 8316SOL     OW36580   4.491   3.327   1.224  0.0193  0.1933 -0.6568
 8316SOL    HW136581   4.539   3.259   1.178  0.1580 -0.1108 -0.0503
 8316SOL    HW236582   4.478   3.287   1.310  1.5283 -0.1517 -0.6001
 8317SOL     OW36583   0.551   3.391   5.698  0.4394  0.0639 -0.5698
 8317SOL    HW136584   0.564   3.324   5.632 -1.8375 -0.8962 -0.0373
 8317SOL    HW236585   0.457   3.401   5.682  0.1110 -1.7967  0.2436
 8318SOL     OW36586   4.057   1.860   8.939 -0.4880 -0.2724 -0.3084
 8318SOL    HW136587   4.121   1.843   9.009 -0.9602 -0.9393 -0.0374
 8318SOL    HW236588   3.974   1.892   8.974 -0.9640 -0.1755 -1.5590
 8319SOL     OW36589   1.869   4.491   8.888  0.4074 -0.3700 -0.7030
 8319SOL    HW136590   1.916   4.555   8.834 -0.7714  0.0267 -1.2676
 8319SOL    HW236591   1.791   4.539   8.919  0.6086 -1.5702  1.6578
 8320SOL     OW36592   1.570   1.603   7.111 -0.0977  0.1547  0.1712
 8320SOL    HW136593   1.504   1.592   7.180  0.9519 -0.0776  1.1552
 8320SOL    HW236594   1.506   1.601   7.040 -2.7392 -0.5129  2.5694
 8321SOL     OW36595   0.390   4.304   8.782  0.3849 -0.1437  0.3090
 8321SOL    HW136596   0.455   4.356   8.735 -0.5268 -0.5681 -1.4511
 8321SOL    HW236597   0.353   4.378   8.829 -1.8573 -1.1894  0.1686
 8322SOL     OW36598   0.835   1.365   9.143 -1.1080  0.4335  0.6053
 8322SOL    HW136599   0.771   1.321   9.087  0.3095  1.3365 -1.7572
 8322SOL    HW236600   0.806   1.344   9.231  0.7142  0.6928  1.2727
 8323SOL     OW36601   3.352   4.672  17.203  0.2627  0.2339 -0.1365
 8323SOL    HW136602   3.322   4.716  17.123  0.0065 -0.2615 -0.3139
 8323SOL    HW236603   3.435   4.632  17.178 -0.2214 -1.1622  0.4847
 8324SOL     OW36604   3.586   4.676  10.035 -0.7261  0.1155  0.3067
 8324SOL    HW136605   3.670   4.631  10.028 -0.6769 -0.2067  2.9955
 8324SOL    HW236606   3.551   4.629  10.110  0.2269 -0.1972  0.5545
 8325SOL     OW36607   2.357   2.357   0.482  0.1184  0.3062 -0.0304
 8325SOL    HW136608   2.330   2.410   0.557 -0.7912 -0.8882  0.4699
 8325SOL    HW236609   2.380   2.280   0.533 -3.7438 -0.5300  0.4462
 8326SOL     OW36610   4.669   2.724   5.377  0.0523 -0.2719  0.2024
 8326SOL    HW136611   4.583   2.695   5.347  0.1706  1.9424 -2.2263
 8326SOL    HW236612   4.697   2.771   5.298 -0.8710 -0.0733  0.0029
 8327SOL     OW36613   1.922   1.309   6.416 -0.1120  0.3139  0.3060
 8327SOL    HW136614   1.832   1.327   6.388  0.6021  1.8941 -0.9781
 8327SOL    HW236615   1.961   1.288   6.331 -0.9644  2.1764 -0.5448
 8328SOL     OW36616   0.147   1.893   4.640 -0.0493  0.1962  0.0282
 8328SOL    HW136617   0.155   1.954   4.714  2.1558  0.2045 -0.2280
 8328SOL    HW236618   0.057   1.897   4.607 -1.0811 -0.4881  2.7215
 8329SOL     OW36619   2.435   1.688   3.611 -0.3691  0.3043  0.0631
 8329SOL    HW136620   2.390   1.768   3.638 -0.2513  0.4647 -0.2135
 8329SOL    HW236621   2.522   1.724   3.592  0.2328 -1.0865  0.1598
 8330SOL     OW36622   1.129   0.807  16.487  0.5754 -0.0945  0.2694
 8330SOL    HW136623   1.180   0.881  16.521 -0.2748  0.4214  0.4056
 8330SOL    HW236624   1.129   0.749  16.563  0.2054  0.0349  0.3664
 8331SOL     OW36625   1.317   0.779  12.663 -0.2516  0.3098 -0.2529
 8331SOL    HW136626   1.331   0.766  12.569  0.6274 -3.5974  0.4106
 8331SOL    HW236627   1.255   0.852  12.664 -1.1018 -0.4706  2.2399
 8332SOL     OW36628   2.975   0.593   3.035 -0.2637  0.1946  0.0990
 8332SOL    HW136629   2.946   0.658   2.971  0.5843  0.5216  0.0480
 8332SOL    HW236630   3.059   0.633   3.056 -0.9421  0.8822  1.4649
 8333SOL     OW36631   4.434   1.306   8.150  0.9090  0.1809  0.7893
 8333SOL    HW136632   4.369   1.243   8.178 -0.2877  0.8527 -0.4788
 8333SOL    HW236633   4.443   1.282   8.057  2.0243  2.1583  0.3927
 8334SOL     OW36634   3.991   2.723   7.442 -0.4411 -0.8521 -0.2743
 8334SOL    HW136635   4.032   2.650   7.489  0.0453  0.5368  1.4648
 8334SOL    HW236636   4.062   2.770   7.398  0.5718 -1.9092  0.2231
 8335SOL     OW36637   0.250   4.611   7.434  0.5990 -0.0198 -0.1250
 8335SOL    HW136638   0.328   4.653   7.398  0.7398 -1.3339 -1.3498
 8335SOL    HW236639   0.284   4.576   7.516 -0.1368  0.8664  0.5504
 8336SOL     OW36640   1.323   3.684   6.976  0.4699 -0.2093 -0.4557
 8336SOL    HW136641   1.384   3.673   6.903  0.2597 -0.1651 -0.6394
 8336SOL    HW236642   1.243   3.706   6.928  0.1197 -0.2334  0.1229
 8337SOL     OW36643   3.653   2.956  13.566  0.5604 -0.2205 -0.2910
 8337SOL    HW136644   3.670   3.047  13.540 -1.1429  1.1194  3.3872
 8337SOL    HW236645   3.605   2.970  13.647  0.0416 -4.1597  0.0672
 8338SOL     OW36646   2.315   3.278   7.653 -0.6586 -0.6942  0.0918
 8338SOL    HW136647   2.260   3.248   7.726  0.5118 -1.7360  0.5432
 8338SOL    HW236648   2.393   3.229   7.680 -1.6702 -2.2215  0.2307
 8339SOL     OW36649   0.167   0.701   5.810 -0.0324  0.0886 -0.3517
 8339SOL    HW136650   0.138   0.698   5.901 -1.0874  0.9517 -0.6628
 8339SOL    HW236651   0.231   0.772   5.809 -1.1203  1.0737 -0.3927
 8340SOL     OW36652   0.589   3.012   4.365 -0.1463 -0.0590  0.6570
 8340SOL    HW136653   0.654   2.975   4.425 -0.0250 -0.9211  0.0070
 8340SOL    HW236654   0.574   2.935   4.309 -0.9072  1.2867 -0.9752
 8341SOL     OW36655   0.951   4.352  17.188 -0.8326  0.4735 -0.3460
 8341SOL    HW136656   0.870   4.396  17.215 -1.9327 -2.1176  0.5158
 8341SOL    HW236657   0.938   4.350  17.093  0.2538  0.5648 -0.4999
 8342SOL     OW36658   0.180   3.888  14.469  0.0152  0.5243 -0.2951
 8342SOL    HW136659   0.238   3.870  14.394 -0.5385 -1.4097 -0.2537
 8342SOL    HW236660   0.165   3.982  14.458  0.3431  0.7065  0.7872
 8343SOL     OW36661   2.303   0.095   5.313 -0.0417  0.1978 -0.1100
 8343SOL    HW136662   2.392   0.084   5.278 -0.3088 -0.6797 -0.5211
 8343SOL    HW236663   2.259   0.024   5.266  0.2544  0.5174 -0.8871
 8344SOL     OW36664   1.539   0.135   7.084  0.0997 -0.6319 -0.5152
 8344SOL    HW136665   1.490   0.211   7.115  1.3432 -0.8856  2.0653
 8344SOL    HW236666   1.531   0.150   6.989 -0.4870  2.1979 -0.0329
 8345SOL     OW36667   2.471   0.397   6.356  0.0467 -0.2046  0.0584
 8345SOL    HW136668   2.527   0.363   6.425 -1.6195 -0.9021  1.0765
 8345SOL    HW236669   2.405   0.435   6.415 -0.5240 -0.3215 -0.5019
 8346SOL     OW36670   0.211   3.236   2.534 -0.4719 -0.4172 -0.0264
 8346SOL    HW136671   0.170   3.158   2.571 -0.7080  0.8139  2.3140
 8346SOL    HW236672   0.132   3.290   2.522 -1.6914 -2.6942 -2.1685
 8347SOL     OW36673   0.977   2.542  14.243 -0.1278 -0.4652  0.6073
 8347SOL    HW136674   0.894   2.579  14.214  0.8852  2.3837  1.3940
 8347SOL    HW236675   0.968   2.450  14.217 -1.4482 -0.1022 -0.2596
 8348SOL     OW36676   0.315   1.242   0.914 -0.0552  0.2232  0.5550
 8348SOL    HW136677   0.406   1.268   0.927  0.9765 -2.3814 -1.3574
 8348SOL    HW236678   0.327   1.155   0.954  2.9442  0.9081  1.1631
 8349SOL     OW36679   4.161   0.063   2.217 -0.3753  0.0824  0.3569
 8349SOL    HW136680   4.122   0.003   2.154  0.3554  1.1883 -1.1621
 8349SOL    HW236681   4.169   0.146   2.169  0.7723  0.6048  1.4445
 8350SOL     OW36682   1.327   2.648   9.724 -0.0519  0.3150 -0.1239
 8350SOL    HW136683   1.406   2.619   9.769 -0.7710  0.6023  1.3189
 8350SOL    HW236684   1.309   2.575   9.665  0.6325 -1.4483  1.8652
 8351SOL     OW36685   0.252   2.410   2.997 -0.0330 -0.7253  0.4030
 8351SOL    HW136686   0.217   2.326   3.024 -0.6307 -0.1972  1.2607
 8351SOL    HW236687   0.339   2.372   2.989  0.0250 -0.4429 -0.3128
 8352SOL     OW36688   4.542   4.536  14.380  0.2529  0.6132  0.0824
 8352SOL    HW136689   4.559   4.540  14.286 -0.6280  0.4139 -0.0904
 8352SOL    HW236690   4.616   4.490  14.419 -0.3910 -1.1949 -0.8782
 8353SOL     OW36691   0.717   2.778   6.060 -0.2989 -0.6427  0.2676
 8353SOL    HW136692   0.760   2.728   5.990 -0.7361 -0.5505 -0.0623
 8353SOL    HW236693   0.670   2.707   6.105 -0.5236 -0.4953  0.2597
 8354SOL     OW36694   3.799   2.798   1.937  0.1876 -0.2954  0.1736
 8354SOL    HW136695   3.729   2.845   1.893 -1.0859 -1.0643  1.4083
 8354SOL    HW236696   3.800   2.722   1.878 -4.2111 -0.2707  0.1315
 8355SOL     OW36697   3.136   0.083   2.974 -0.4179 -0.0341 -0.1431
 8355SOL    HW136698   3.105   0.081   2.883  0.4234  1.2521 -0.4609
 8355SOL    HW236699   3.148   0.176   2.993 -0.7428 -0.0781  0.2761
 8356SOL     OW36700   4.004   0.637   6.459  0.3076 -0.5183 -0.1619
 8356SOL    HW136701   4.043   0.716   6.422 -0.5653  0.6722  1.4607
 8356SOL    HW236702   3.915   0.651   6.427 -0.6508  0.8271  3.0448
 8357SOL     OW36703   3.971   2.205   0.982  0.3650  0.0143  0.0764
 8357SOL    HW136704   3.973   2.211   0.887  2.2222 -0.4081  0.0954
 8357SOL    HW236705   4.064   2.199   1.002  0.2470  0.1381  0.6823
 8358SOL     OW36706   3.521   2.210  16.119 -0.5348 -0.3359 -0.2691
 8358SOL    HW136707   3.468   2.277  16.078  1.4372  1.4977  0.1861
 8358SOL    HW236708   3.490   2.128  16.080 -1.6572  0.0738 -0.2168
 8359SOL     OW36709   0.034   0.453   5.481 -0.3341  0.1531 -0.1274
 8359SOL    HW136710   0.029   0.423   5.572  2.0616  0.4740  0.1113
 8359SOL    HW236711   4.730   0.539   5.495  3.8494  2.0410  0.2670
 8360SOL     OW36712   2.531   3.636   6.719  0.4704 -0.1670  0.4805
 8360SOL    HW136713   2.558   3.583   6.793 -0.1222  0.7335  1.3335
 8360SOL    HW236714   2.504   3.714   6.768  2.3524  2.4332 -2.5897
 8361SOL     OW36715   4.693   4.587   2.200 -0.3315  0.5838 -0.1667
 8361SOL    HW136716   4.703   4.681   2.217  0.1459  0.1952  1.7604
 8361SOL    HW236717   4.605   4.579   2.237  0.0431 -0.8366  0.4313
 8362SOL     OW36718   1.402   2.322   9.077 -0.2017  0.2918  0.3471
 8362SOL    HW136719   1.493   2.345   9.058 -0.4069  1.5695  0.8631
 8362SOL    HW236720   1.361   2.381   9.013 -1.8785  0.0507  1.1889
 8363SOL     OW36721   2.808   4.679   1.882  0.3008  0.2210  0.9160
 8363SOL    HW136722   2.843   0.007   1.820  1.6810  0.1864  1.6529
 8363SOL    HW236723   2.789   4.604   1.827 -0.3324 -0.7071  2.3959
 8364SOL     OW36724   3.810   0.923  11.749  0.0223  0.4364 -0.0292
 8364SOL    HW136725   3.748   0.852  11.731 -2.7459  2.8345  0.0586
 8364SOL    HW236726   3.894   0.876  11.750 -0.1681  0.1239  1.1913
 8365SOL     OW36727   1.296   1.679   4.463 -0.0563 -0.0313 -0.3079
 8365SOL    HW136728   1.293   1.662   4.369 -0.5948 -0.5336 -0.1980
 8365SOL    HW236729   1.337   1.596   4.487 -0.3127 -0.5254 -1.5821
 8366SOL     OW36730   3.732   2.851   1.646 -0.7859 -0.2166  0.2157
 8366SOL    HW136731   3.741   2.757   1.661 -0.8192 -0.0909  0.9816
 8366SOL    HW236732   3.822   2.879   1.632 -0.1573 -0.7045  3.3589
 8367SOL     OW36733   3.937   3.917   4.144  0.9373 -0.1519 -0.4528
 8367SOL    HW136734   4.022   3.947   4.112  1.2176 -0.0753  0.3491
 8367SOL    HW236735   3.969   3.865   4.218  2.0203 -3.9814 -3.6100
 8368SOL     OW36736   1.776   2.552   7.679  0.4164  0.0918  0.0920
 8368SOL    HW136737   1.761   2.487   7.747  1.0945 -0.3261 -0.1545
 8368SOL    HW236738   1.840   2.515   7.618 -0.5510  0.5743 -1.2289
 8369SOL     OW36739   0.886   3.680   5.366 -0.1999  0.1415  0.2920
 8369SOL    HW136740   0.798   3.716   5.361  0.4156  1.6044  0.0287
 8369SOL    HW236741   0.900   3.690   5.460  0.6643  0.9864  0.0773
 8370SOL     OW36742   1.308   2.914   9.645 -0.4974  0.2382  0.0882
 8370SOL    HW136743   1.319   2.891   9.553 -0.3647 -1.4801  0.5325
 8370SOL    HW236744   1.267   2.835   9.678 -0.4779  1.1899  2.3756
 8371SOL     OW36745   3.655   1.372   2.257  0.1474 -0.1145 -0.2803
 8371SOL    HW136746   3.644   1.456   2.300 -1.7612 -1.3774  1.7036
 8371SOL    HW236747   3.564   1.343   2.264 -0.2078  1.5346  1.8802
 8372SOL     OW36748   4.205   1.480   5.778 -0.2775  0.2038 -0.1689
 8372SOL    HW136749   4.165   1.558   5.741  1.0405  0.5634 -0.8210
 8372SOL    HW236750   4.252   1.519   5.852  1.2555  0.8733 -1.5007
 8373SOL     OW36751   3.207   0.140   3.602 -0.1183  0.3041  0.0913
 8373SOL    HW136752   3.253   0.073   3.552 -1.4222  1.1771 -2.2894
 8373SOL    HW236753   3.154   0.079   3.652  0.3722 -1.9962 -2.1627
 8374SOL     OW36754   1.068   1.428   5.132  0.1496 -0.0353  0.1088
 8374SOL    HW136755   1.064   1.517   5.095  0.5755 -0.2020 -0.3404
 8374SOL    HW236756   1.005   1.442   5.202  1.4417  3.5217  0.5827
 8375SOL     OW36757   3.794   1.795   5.282  0.2306 -0.1546  0.3668
 8375SOL    HW136758   3.800   1.700   5.291 -1.1176 -0.4113 -1.5427
 8375SOL    HW236759   3.797   1.809   5.187  1.2940 -0.0777  0.4112
 8376SOL     OW36760   0.054   3.354   3.814  0.3478 -0.1000 -0.7382
 8376SOL    HW136761   0.067   3.449   3.811 -2.3410  0.3196  1.7146
 8376SOL    HW236762   0.017   3.334   3.727 -0.8900  2.0222 -0.6847
 8377SOL     OW36763   0.190   0.068   5.006 -0.5417 -0.0422 -0.7590
 8377SOL    HW136764   0.147   0.021   4.935 -0.5397 -0.0063 -0.7835
 8377SOL    HW236765   0.114   0.081   5.062  0.5562  1.2543  0.4186
 8378SOL     OW36766   3.127   1.773  13.638 -0.1777  0.3128  0.2406
 8378SOL    HW136767   3.095   1.708  13.576  0.9984 -1.1636  1.1715
 8378SOL    HW236768   3.067   1.758  13.712 -1.2313  1.2487 -0.4325
 8379SOL     OW36769   4.544   3.392   8.527  0.1427 -0.1966  0.2800
 8379SOL    HW136770   4.514   3.440   8.604  1.0151 -0.7040  0.9351
 8379SOL    HW236771   4.549   3.302   8.561 -0.1867  0.1102  1.1417
 8380SOL     OW36772   4.570   1.741   5.876 -0.0479  0.2020 -0.0585
 8380SOL    HW136773   4.628   1.700   5.812 -1.2950 -0.9079 -0.4850
 8380SOL    HW236774   4.521   1.665   5.907  1.5445 -0.7000  0.2201
 8381SOL     OW36775   0.748   0.314   8.377 -0.3553 -0.8033  0.3729
 8381SOL    HW136776   0.818   0.340   8.437 -2.8461 -0.4406  3.1081
 8381SOL    HW236777   0.690   0.390   8.384 -1.5428 -1.6364 -0.3292
 8382SOL     OW36778   0.955   3.674   2.790  0.7689 -0.1959  0.4520
 8382SOL    HW136779   0.998   3.591   2.810  1.8802  0.1889 -0.3711
 8382SOL    HW236780   1.031   3.732   2.792 -1.2437  2.4485  0.1265
 8383SOL     OW36781   2.952   1.647  17.058  0.0267  0.2680 -0.1055
 8383SOL    HW136782   2.953   1.668  17.151  0.0645  0.4186 -0.1392
 8383SOL    HW236783   3.011   1.712  17.020 -1.8841  1.9444 -0.2030
 8384SOL     OW36784   0.591   0.786   7.789  0.3427 -0.3797 -0.0287
 8384SOL    HW136785   0.513   0.745   7.826  1.0418 -0.5809  1.2303
 8384SOL    HW236786   0.571   0.796   7.696  0.8835  2.1495  0.1418
 8385SOL     OW36787   1.243   3.809   6.552 -0.0569 -0.4350 -0.5511
 8385SOL    HW136788   1.167   3.829   6.497  0.0037  2.7207  0.5427
 8385SOL    HW236789   1.199   3.778   6.631 -1.5122  0.8483 -0.8529
 8386SOL     OW36790   2.936   1.900   6.090 -0.0916 -0.1440 -0.4676
 8386SOL    HW136791   2.849   1.899   6.050  0.5548  1.3487 -1.9270
 8386SOL    HW236792   2.969   1.989   6.076  0.7740 -1.0518 -4.2102
 8387SOL     OW36793   3.948   3.102   6.606  0.3980 -0.0424 -0.5360
 8387SOL    HW136794   3.992   3.164   6.548 -0.6610  1.1194 -0.1109
 8387SOL    HW236795   3.967   3.020   6.560  2.6746  0.6812 -0.8454
 8388SOL     OW36796   4.162   1.301   6.096  0.1298 -0.3852 -0.2118
 8388SOL    HW136797   4.248   1.294   6.054  0.0677  0.8847 -0.5769
 8388SOL    HW236798   4.161   1.394   6.121  0.1932 -0.1856 -0.9380
 8389SOL     OW36799   0.065   4.099   6.196  0.2625 -0.1430  0.4304
 8389SOL    HW136800   4.728   4.108   6.135  0.6567 -1.4113 -0.2280
 8389SOL    HW236801   0.089   4.009   6.174 -0.8834 -0.7489  1.6473
 8390SOL     OW36802   4.114   2.450   0.575  0.0125  0.5494 -0.1690
 8390SOL    HW136803   4.165   2.483   0.649 -0.8145  2.4792 -0.4563
 8390SOL    HW236804   4.036   2.505   0.582  0.8759  1.9571 -1.6668
 8391SOL     OW36805   4.084   3.795   7.273  0.3659  0.7203 -0.0854
 8391SOL    HW136806   4.051   3.860   7.211  0.6474 -0.4927 -1.4991
 8391SOL    HW236807   4.114   3.720   7.222  0.4338  0.5919  0.1427
 8392SOL     OW36808   3.188   3.347   7.639  0.2664  0.8086  0.2965
 8392SOL    HW136809   3.283   3.348   7.646  0.2669 -0.4176  0.5377
 8392SOL    HW236810   3.162   3.394   7.560 -1.8080 -0.0036  0.4881
 8393SOL     OW36811   1.018   1.098   6.165  0.1225  0.1675 -0.6173
 8393SOL    HW136812   0.976   1.066   6.245  0.6056 -0.5545 -0.6481
 8393SOL    HW236813   0.981   1.186   6.152  1.7331  0.2239 -4.6235
 8394SOL     OW36814   0.117   2.013   4.264  0.2791  0.1746  0.1576
 8394SOL    HW136815   0.034   1.985   4.225  1.2034 -3.0419  0.4741
 8394SOL    HW236816   0.111   2.102   4.230 -0.2595  0.1838  0.2711
 8395SOL     OW36817   2.358   4.591   7.445 -0.0869  0.6504 -0.4714
 8395SOL    HW136818   2.333   4.572   7.535  2.6403 -2.1991 -0.3064
 8395SOL    HW236819   2.453   4.600   7.458 -0.0761  1.2631 -0.9636
 8396SOL     OW36820   0.487   0.055   8.014 -0.4936  0.1779  0.3935
 8396SOL    HW136821   0.526   0.015   8.092  0.0418  2.4246  1.2603
 8396SOL    HW236822   0.416   0.109   8.050 -0.8054  0.9004 -1.3405
 8397SOL     OW36823   2.437   4.256   2.169 -0.1503 -0.4828  0.2094
 8397SOL    HW136824   2.453   4.177   2.118  1.0360 -1.4933  2.1730
 8397SOL    HW236825   2.348   4.273   2.138  0.0412 -2.5171 -1.5099
 8398SOL     OW36826   4.332   4.285   7.108 -0.0899 -0.1293 -0.1847
 8398SOL    HW136827   4.247   4.249   7.133  0.3940 -1.5989 -0.6620
 8398SOL    HW236828   4.338   4.365   7.161 -0.7220 -0.2915  0.1398
 8399SOL     OW36829   2.403   2.325  15.881 -0.4732 -0.1873  0.2711
 8399SOL    HW136830   2.314   2.343  15.912 -0.1440  1.1560  0.4355
 8399SOL    HW236831   2.439   2.410  15.906 -0.3880 -0.2876  0.4899
 8400SOL     OW36832   1.108   1.699   5.078  0.2674 -0.6114  0.0820
 8400SOL    HW136833   1.143   1.773   5.128  0.8263 -1.7063  1.3017
 8400SOL    HW236834   1.017   1.722   5.098  0.4931  1.0114 -0.7243
 8401SOL     OW36835   0.261   4.004   0.201  0.7687  0.3055 -0.2914
 8401SOL    HW136836   0.249   4.082   0.146 -0.5221  0.2190 -0.1225
 8401SOL    HW236837   0.354   4.002   0.224  0.2256  2.5916  2.1961
 8402SOL     OW36838   0.350   1.440   8.502 -0.3363  0.7780  0.0622
 8402SOL    HW136839   0.336   1.398   8.417 -3.0605 -0.2344  1.0077
 8402SOL    HW236840   0.382   1.527   8.476 -1.1213 -0.2181 -4.2805
 8403SOL     OW36841   0.937   4.510   4.641 -0.0437 -0.1089  0.1044
 8403SOL    HW136842   0.912   4.558   4.720  1.0445  1.0576 -0.2507
 8403SOL    HW236843   0.893   4.426   4.655 -0.0233  0.0305  1.0317
 8404SOL     OW36844   1.867   4.655  14.754 -0.6838  1.0533  0.0992
 8404SOL    HW136845   1.861   4.722  14.685 -0.1473  0.3239 -0.6621
 8404SOL    HW236846   1.786   4.607  14.740  0.2970  0.2830 -3.0271
 8405SOL     OW36847   3.403   4.199   5.615  0.6248  0.3322  0.6437
 8405SOL    HW136848   3.313   4.170   5.632  0.3718  0.8040  0.1252
 8405SOL    HW236849   3.399   4.245   5.531  0.0142  1.0733  1.0729
 8406SOL     OW36850   1.433   2.766   3.859 -0.0420  0.0897  0.3287
 8406SOL    HW136851   1.482   2.755   3.777  1.4432 -0.2665  1.2571
 8406SOL    HW236852   1.420   2.672   3.870 -0.3495 -0.0985 -1.5095
 8407SOL     OW36853   0.627   3.378   6.446  0.1769  0.3351 -0.7353
 8407SOL    HW136854   0.684   3.401   6.372 -0.8099  2.4181 -0.8483
 8407SOL    HW236855   0.577   3.459   6.441  1.3822  1.1596  0.7317
 8408SOL     OW36856   4.524   4.251   8.332 -0.4961  0.4126  0.3190
 8408SOL    HW136857   4.526   4.321   8.267  3.2322  0.1126  0.0933
 8408SOL    HW236858   4.611   4.250   8.373 -0.7603 -0.9961  0.8519
 8409SOL     OW36859   1.948   1.745   5.754 -0.4869  0.5387 -0.3287
 8409SOL    HW136860   1.982   1.694   5.680 -0.4713 -0.6303  0.4875
 8409SOL    HW236861   1.879   1.687   5.786  2.0920 -1.3765  1.7339
 8410SOL     OW36862   2.820   1.816   3.370 -0.2127  0.1027 -0.0827
 8410SOL    HW136863   2.746   1.860   3.413  0.0257 -0.5840  1.0407
 8410SOL    HW236864   2.862   1.775   3.446  0.0897  1.2161  0.3407
 8411SOL     OW36865   4.475   0.687  11.299  0.0478  0.5505  0.3423
 8411SOL    HW136866   4.551   0.680  11.356  0.7141 -1.1803 -0.7579
 8411SOL    HW236867   4.463   0.781  11.311  1.3250  0.5781  1.4065
 8412SOL     OW36868   4.308   4.610  10.732  0.0097  0.0685 -0.3268
 8412SOL    HW136869   4.378   4.624  10.669  1.5145 -2.1580  0.8633
 8412SOL    HW236870   4.249   4.686  10.727  3.6121  2.8594 -0.4944
 8413SOL     OW36871   0.424   1.202   5.303 -0.4352 -0.0461 -0.0020
 8413SOL    HW136872   0.478   1.239   5.234  1.4159 -0.1671  1.4017
 8413SOL    HW236873   0.391   1.283   5.343  0.3352  0.6106 -0.7047
 8414SOL     OW36874   4.203   4.073   4.851 -0.6907 -0.3952 -0.1634
 8414SOL    HW136875   4.266   4.073   4.779 -0.3115  0.5110  0.1679
 8414SOL    HW236876   4.141   4.015   4.808  0.8691  1.4023 -4.8031
 8415SOL     OW36877   2.700   1.852   6.677  0.6038  0.1977  0.0879
 8415SOL    HW136878   2.712   1.932   6.728 -2.1868  1.7398 -1.6522
 8415SOL    HW236879   2.783   1.812   6.703 -0.3324 -0.7534  1.5902
 8416SOL     OW36880   3.102   1.420   8.430  0.0557  0.5376  0.3625
 8416SOL    HW136881   3.071   1.357   8.365 -0.5487  1.1176  0.0785
 8416SOL    HW236882   3.195   1.399   8.433 -0.8257 -3.4996 -0.7725
 8417SOL     OW36883   3.282   3.563  12.213 -0.2805  0.2628  0.0073
 8417SOL    HW136884   3.354   3.623  12.194  0.0611  0.2250  1.2312
 8417SOL    HW236885   3.336   3.485  12.201 -1.1480 -0.7000  2.4002
 8418SOL     OW36886   3.556   3.113  15.522  0.1721 -0.4665  0.7704
 8418SOL    HW136887   3.640   3.140  15.560  0.2990 -1.4567  1.2042
 8418SOL    HW236888   3.580   3.082  15.435 -1.6970  2.4961 -0.7836
 8419SOL     OW36889   3.951   0.351  17.197 -0.1099  0.1367 -0.0477
 8419SOL    HW136890   4.032   0.308  17.171  1.2816  1.7385  1.5568
 8419SOL    HW236891   3.956   0.428  17.141  2.1895 -0.1170 -0.1770
 8420SOL     OW36892   0.202   2.653   0.261  1.0013  0.3575  0.2191
 8420SOL    HW136893   0.268   2.611   0.316 -0.5073 -1.3635  0.7320
 8420SOL    HW236894   0.240   2.628   0.176  0.6789  2.0295 -0.4061
 8421SOL     OW36895   2.413   0.273   1.829 -0.1556  0.1285 -0.5221
 8421SOL    HW136896   2.447   0.197   1.782  2.1083  0.2034  0.9960
 8421SOL    HW236897   2.335   0.233   1.870 -0.0686  1.5058  0.9852
 8422SOL     OW36898   1.440   3.690   3.797 -0.3215 -0.4905  0.0526
 8422SOL    HW136899   1.351   3.696   3.832 -0.9916 -0.6795 -1.6411
 8422SOL    HW236900   1.445   3.750   3.723  0.5518  0.2621  0.7175
 8423SOL     OW36901   1.283   1.822   7.045 -0.6062 -0.3173  0.1491
 8423SOL    HW136902   1.242   1.848   6.962 -0.1063  3.3918  1.0440
 8423SOL    HW236903   1.301   1.730   7.028  0.8874  0.0047 -0.0864
 8424SOL     OW36904   2.054   3.000   4.196  0.3714  0.3483 -0.4225
 8424SOL    HW136905   2.063   3.069   4.262 -1.3216  0.2877 -0.1217
 8424SOL    HW236906   1.965   2.971   4.218  0.4105  2.1854  2.0912
 8425SOL     OW36907   2.869   1.431  13.642 -0.3248 -0.6683 -0.0130
 8425SOL    HW136908   2.851   1.371  13.714  1.7076  1.0123  1.9296
 8425SOL    HW236909   2.806   1.502  13.657 -1.3303 -1.2078 -1.7762
 8426SOL     OW36910   2.528   2.670   3.500 -0.0913 -0.0371  0.0135
 8426SOL    HW136911   2.489   2.584   3.510 -1.1196  0.1547 -2.4543
 8426SOL    HW236912   2.542   2.671   3.405  1.4677  0.7163  0.2416
 8427SOL     OW36913   3.961   0.025   3.923 -0.6686 -0.0007 -0.2697
 8427SOL    HW136914   3.966   0.111   3.965 -2.4358 -0.1953  0.3652
 8427SOL    HW236915   3.933   4.718   4.004 -0.7121  2.0475  0.8158
 8428SOL     OW36916   2.589   3.674   2.413 -0.7195  0.0440 -0.2358
 8428SOL    HW136917   2.671   3.724   2.421  0.2833 -1.9366  2.0499
 8428SOL    HW236918   2.568   3.670   2.507 -1.6829  0.4709 -0.4406
 8429SOL     OW36919   3.214   1.821  16.641 -0.1386  0.8484 -0.3370
 8429SOL    HW136920   3.304   1.820  16.675 -0.1581  1.5934 -0.2653
 8429SOL    HW236921   3.202   1.902  16.591 -1.3971  1.2621  0.6450
 8430SOL     OW36922   0.199   3.965   1.991  0.8333 -0.1101 -0.0833
 8430SOL    HW136923   0.231   3.880   2.022  1.7858 -0.2154 -1.3733
 8430SOL    HW236924   0.270   4.006   2.040  2.4636  0.0637 -2.5961
 8431SOL     OW36925   3.196   2.655   4.919  0.0018 -0.1653  0.0413
 8431SOL    HW136926   3.150   2.586   4.967  0.7910 -1.2130 -0.6962
 8431SOL    HW236927   3.148   2.672   4.838  0.2683 -1.3584 -0.3619
 8432SOL     OW36928   3.505   3.932  12.227  0.0796  0.6313 -0.3086
 8432SOL    HW136929   3.495   3.959  12.319  0.6833 -0.6263  0.1273
 8432SOL    HW236930   3.437   3.985  12.186 -0.8998 -0.9779 -0.7813
 8433SOL     OW36931   2.118   4.587  14.377 -0.1381  0.0433 -0.4036
 8433SOL    HW136932   2.136   4.671  14.418 -2.0357  0.4484 -0.4058
 8433SOL    HW236933   2.204   4.544  14.379 -0.0259  0.2705 -0.3537
 8434SOL     OW36934   1.405   0.006   1.354  0.3539  0.1447 -0.2996
 8434SOL    HW136935   1.457   4.674   1.311  2.0190  1.3519 -0.2167
 8434SOL    HW236936   1.419   0.073   1.287  1.2909  0.4925  0.2421
 8435SOL     OW36937   2.350   4.701   1.832  0.4279  0.1197  0.6895
 8435SOL    HW136938   2.423   4.646   1.803 -0.4734 -0.4060 -0.6060
 8435SOL    HW236939   2.312   4.643   1.897 -0.0520  0.8844  1.0842
 8436SOL     OW36940   0.892   4.731  12.920 -0.1324 -0.2775  0.2744
 8436SOL    HW136941   0.881   0.049  12.842  0.4769 -0.3037  0.1752
 8436SOL    HW236942   0.902   0.062  12.987 -0.1359  0.5746 -0.5758
 8437SOL     OW36943   4.434   0.149   7.377 -0.3295 -0.1515 -0.1660
 8437SOL    HW136944   4.440   0.117   7.467 -1.9824 -1.4819 -0.5335
 8437SOL    HW236945   4.505   0.096   7.339 -0.6169  0.0179 -0.9416
 8438SOL     OW36946   0.668   2.194   6.252  0.0874  0.3954  0.6398
 8438SOL    HW136947   0.623   2.229   6.328 -2.0857  1.6280 -1.2058
 8438SOL    HW236948   0.661   2.101   6.273  0.1076  0.1829 -0.2938
 8439SOL     OW36949   1.009   4.416   2.048 -0.1760 -0.2470 -0.2494
 8439SOL    HW136950   0.994   4.398   1.955 -1.4898 -1.3029  0.1678
 8439SOL    HW236951   1.028   4.510   2.058 -1.3679  0.0466 -0.7174
 8440SOL     OW36952   4.389   0.169  17.423  0.4103 -0.2650  0.4018
 8440SOL    HW136953   4.440   0.113  17.481 -1.6023 -2.3356  0.1895
 8440SOL    HW236954   4.418   0.146  17.334  1.6051  1.6882  0.2965
 8441SOL     OW36955   2.406   3.687   6.424  0.5728  0.2086 -0.4917
 8441SOL    HW136956   2.406   3.719   6.514  0.1081 -3.2924  0.7575
 8441SOL    HW236957   2.340   3.740   6.378 -0.7126 -0.9332  0.0307
 8442SOL     OW36958   1.826   4.541   6.132 -0.5124 -0.1298  0.3726
 8442SOL    HW136959   1.870   4.554   6.215 -0.0371 -1.6120  0.3431
 8442SOL    HW236960   1.748   4.501   6.171 -0.9012  0.5045  0.2481
 8443SOL     OW36961   1.826   0.254   2.951  0.1933  0.0029 -0.2614
 8443SOL    HW136962   1.867   0.171   2.930 -1.7385 -0.9321 -0.2844
 8443SOL    HW236963   1.733   0.234   2.949  1.1277 -4.0925 -2.0714
 8444SOL     OW36964   4.119   2.193  15.403  0.5124 -0.2138  0.0451
 8444SOL    HW136965   4.043   2.154  15.445  0.9460  0.5852  1.5862
 8444SOL    HW236966   4.182   2.161  15.469  1.7041 -2.6998 -2.2936
 8445SOL     OW36967   1.176   4.105  13.849  0.0774  0.8251 -0.6044
 8445SOL    HW136968   1.211   4.082  13.935 -0.0834  1.3563 -0.4022
 8445SOL    HW236969   1.108   4.169  13.868 -1.2248 -1.3837  2.1557
 8446SOL     OW36970   2.415   2.544  11.058 -0.6010  0.1653  0.4823
 8446SOL    HW136971   2.407   2.611  10.990  1.0748 -1.5009 -1.3649
 8446SOL    HW236972   2.502   2.515  11.031 -0.1845  2.9688 -1.2118
 8447SOL     OW36973   3.153   4.672   7.581 -0.4159 -0.6122 -0.0962
 8447SOL    HW136974   3.182   4.658   7.671 -0.7809 -0.5792  0.0282
 8447SOL    HW236975   3.188   4.595   7.537  1.3691 -1.0035  1.9628
 8448SOL     OW36976   3.858   0.425   5.547 -0.4334  0.4846 -0.1057
 8448SOL    HW136977   3.834   0.514   5.523  0.4281  0.8865  0.5414
 8448SOL    HW236978   3.945   0.438   5.586 -1.4620 -0.7094  2.5817
 8449SOL     OW36979   2.012   1.203   3.711  0.0385 -0.0934 -0.3708
 8449SOL    HW136980   1.925   1.237   3.693  0.1791  1.0796  1.0890
 8449SOL    HW236981   2.038   1.245   3.794 -0.7860  0.6026 -0.4691
 8450SOL     OW36982   1.181   3.934  10.360 -0.0122  0.4828  0.0455
 8450SOL    HW136983   1.173   4.029  10.348 -0.8581  0.1866 -1.7673
 8450SOL    HW236984   1.153   3.912  10.271  2.6081 -2.2069 -0.1162
 8451SOL     OW36985   1.824   2.790   2.244  0.0407 -0.2682  0.2605
 8451SOL    HW136986   1.818   2.696   2.229  1.5587 -0.0657 -1.6161
 8451SOL    HW236987   1.749   2.806   2.302 -0.6748  0.5514 -0.8921
 8452SOL     OW36988   2.664   0.981  17.143  0.7720 -0.3023 -0.4461
 8452SOL    HW136989   2.721   1.006  17.215  1.1250  1.9903 -1.5107
 8452SOL    HW236990   2.732   0.944  17.087  2.9106  0.0918  1.9286
 8453SOL     OW36991   2.000   0.243   5.605  0.2618  0.0763 -0.3044
 8453SOL    HW136992   2.069   0.197   5.557  2.4820  0.5502  2.4393
 8453SOL    HW236993   1.983   0.320   5.550 -3.5072 -0.1100  0.5979
 8454SOL     OW36994   0.228   4.377   8.511  0.4530 -0.0715  0.1539
 8454SOL    HW136995   0.322   4.380   8.494  0.9978  0.3300  3.2724
 8454SOL    HW236996   0.219   4.431   8.590 -0.4796  1.5905 -1.0835
 8455SOL     OW36997   1.135   2.968   5.552  0.3466  0.4620  0.4145
 8455SOL    HW136998   1.112   3.015   5.632  0.6828  1.3484 -0.0132
 8455SOL    HW236999   1.218   2.926   5.575 -0.0072 -0.4406  0.0545
 8456SOL     OW37000   0.346   1.804   1.996  0.6789 -0.7656  0.1291
 8456SOL    HW137001   0.414   1.846   1.942  1.3438 -0.9881  0.8059
 8456SOL    HW237002   0.319   1.876   2.053  2.3705 -0.6192  0.7247
 8457SOL     OW37003   3.110   3.474   5.990  0.3278 -0.3575 -0.1944
 8457SOL    HW137004   3.196   3.516   5.979  0.8186 -1.4693 -0.5717
 8457SOL    HW237005   3.092   3.446   5.901  1.0987  0.5261 -0.6301
 8458SOL     OW37006   2.085   3.218   6.714 -0.0437 -0.0410  0.6121
 8458SOL    HW137007   1.997   3.228   6.749 -0.4940 -1.8191  0.0001
 8458SOL    HW237008   2.082   3.226   6.619 -3.2023  0.3120  0.7376
 8459SOL     OW37009   0.907   3.595   7.054 -0.2010 -0.3810  0.1907
 8459SOL    HW137010   0.966   3.574   7.127 -0.2257 -1.4208 -0.0921
 8459SOL    HW237011   0.840   3.651   7.094 -1.3218 -0.3167 -1.7635
 8460SOL     OW37012   4.526   0.258   5.545  0.0778 -0.0156  0.0140
 8460SOL    HW137013   4.461   0.316   5.586  0.2379  0.8301 -0.9158
 8460SOL    HW237014   4.602   0.287   5.595 -0.4272  0.5463  0.4572
 8461SOL     OW37015   4.464   2.762   9.616 -0.5501 -0.3194 -0.0363
 8461SOL    HW137016   4.459   2.852   9.585 -0.6937 -0.4371 -0.3500
 8461SOL    HW237017   4.439   2.771   9.708  1.6325  1.8254  0.3515
 8462SOL     OW37018   3.818   0.288   3.749  0.0731  0.1151  0.3239
 8462SOL    HW137019   3.797   0.355   3.684  0.7548  2.6906  2.7283
 8462SOL    HW237020   3.900   0.318   3.787 -0.4523  2.4827 -0.4074
 8463SOL     OW37021   2.342   2.323   7.205  0.1741  0.0189 -0.1451
 8463SOL    HW137022   2.395   2.396   7.172 -0.3292  1.1779  1.5645
 8463SOL    HW237023   2.323   2.280   7.122 -0.3070  1.3260 -0.7165
 8464SOL     OW37024   1.139   3.883  12.380  0.1660 -0.0391  0.4738
 8464SOL    HW137025   1.211   3.841  12.332  1.3069  2.6718 -0.2287
 8464SOL    HW237026   1.192   3.921  12.450 -1.1505  2.8700 -0.1225
 8465SOL     OW37027   1.023   2.163   8.324 -0.0950  0.5993  0.0917
 8465SOL    HW137028   0.981   2.246   8.302 -0.8072  0.3241  0.4336
 8465SOL    HW237029   0.954   2.129   8.381  1.6847 -0.4838  1.6097
 8466SOL     OW37030   4.088   2.035   3.493  0.0425 -0.2499 -0.1303
 8466SOL    HW137031   4.122   1.961   3.442  3.1240  0.3351  1.0994
 8466SOL    HW237032   4.170   2.075   3.521  0.6075 -2.8263  1.9266
 8467SOL     OW37033   3.800   3.977  14.473  0.0006 -0.0969 -0.5916
 8467SOL    HW137034   3.871   3.979  14.408  1.0824 -0.4509  0.5758
 8467SOL    HW237035   3.845   4.022  14.544  0.9181 -1.6584 -0.1914
 8468SOL     OW37036   3.743   3.677   7.159  0.0352 -0.0076 -0.3842
 8468SOL    HW137037   3.659   3.723   7.166  0.8322  1.5330 -0.9575
 8468SOL    HW237038   3.732   3.604   7.221  0.2589 -0.2687 -0.6529
 8469SOL     OW37039   1.705   2.505   3.710 -0.4294 -0.0066 -0.1129
 8469SOL    HW137040   1.800   2.499   3.717 -0.6032 -3.1740 -0.4558
 8469SOL    HW237041   1.671   2.427   3.665 -0.5416  0.9896 -1.7604
 8470SOL     OW37042   2.104   3.127  14.591  0.2029 -0.2855  0.0651
 8470SOL    HW137043   2.179   3.186  14.581 -2.1230  2.7592  0.2986
 8470SOL    HW237044   2.049   3.177  14.530  0.2494 -1.5314 -0.9765
 8471SOL     OW37045   2.142   3.489  12.088  0.2172 -0.2148  0.0683
 8471SOL    HW137046   2.102   3.438  12.158 -0.3422 -0.9128 -0.7511
 8471SOL    HW237047   2.068   3.522  12.037  2.1716 -1.0228 -3.3318
 8472SOL     OW37048   2.529   4.275   2.763  0.6451  0.0198 -0.6129
 8472SOL    HW137049   2.531   4.202   2.826  1.3580  0.2888 -0.3184
 8472SOL    HW237050   2.441   4.311   2.766  0.7105  0.0639  0.9030
 8473SOL     OW37051   3.791   4.504   9.691 -0.5614 -0.1859  0.1860
 8473SOL    HW137052   3.853   4.505   9.765  1.1607 -4.8369 -1.1436
 8473SOL    HW237053   3.788   4.408   9.689 -0.0271 -0.1449 -1.9097
 8474SOL     OW37054   3.564   4.261   3.558 -0.7682  0.1204 -0.6286
 8474SOL    HW137055   3.531   4.343   3.595  1.7067 -0.4758  2.9028
 8474SOL    HW237056   3.623   4.291   3.489 -1.2862  1.7529 -0.3610
 8475SOL     OW37057   3.766   0.674   5.494 -0.2577 -0.5411  0.1133
 8475SOL    HW137058   3.705   0.710   5.430 -0.0315  1.5496  1.0699
 8475SOL    HW237059   3.809   0.753   5.527  0.5450 -0.5138 -1.0009
 8476SOL     OW37060   0.537   0.865   4.812 -0.8732  0.1123 -0.4026
 8476SOL    HW137061   0.585   0.910   4.881 -1.6992 -1.0359  0.9088
 8476SOL    HW237062   0.469   0.819   4.861 -1.0893  2.0566  1.1473
 8477SOL     OW37063   3.084   3.889   5.645 -0.7991 -0.1822  0.6372
 8477SOL    HW137064   3.158   3.846   5.603 -1.1862  0.4799 -0.7094
 8477SOL    HW237065   3.057   3.817   5.703 -0.6383 -0.3425  0.5138
 8478SOL     OW37066   4.086   1.410   2.735 -0.3129 -0.1699 -0.6390
 8478SOL    HW137067   4.052   1.448   2.817  3.5501  2.1357 -0.1140
 8478SOL    HW237068   4.046   1.457   2.662 -0.8201  0.2462 -0.1048
 8479SOL     OW37069   2.689   2.500   7.000  0.0883  0.0046  0.0366
 8479SOL    HW137070   2.739   2.559   7.057  0.3292  0.9418 -1.1442
 8479SOL    HW237071   2.705   2.556   6.924 -1.5162  0.8577  0.3266
 8480SOL     OW37072   3.989   3.139  11.184  0.5169 -0.4958 -0.2542
 8480SOL    HW137073   3.997   3.210  11.248 -0.5128 -0.9472  0.3732
 8480SOL    HW237074   3.984   3.167  11.093  2.2475  0.9726  0.0958
 8481SOL     OW37075   4.439   1.570   1.632  0.4794  0.1200 -0.0571
 8481SOL    HW137076   4.523   1.561   1.588 -0.0000 -0.8315 -0.7663
 8481SOL    HW237077   4.468   1.616   1.711  0.0755  3.0414 -1.6118
 8482SOL     OW37078   0.654   1.149  11.216 -0.5077  0.3580  0.5275
 8482SOL    HW137079   0.730   1.111  11.260 -0.8952 -1.3377 -0.2542
 8482SOL    HW237080   0.623   1.199  11.291  0.9462  1.3233  0.4715
 8483SOL     OW37081   0.877   4.137   8.643 -0.4238  0.1643 -0.6553
 8483SOL    HW137082   0.849   4.165   8.556 -2.1432  1.3480  0.2833
 8483SOL    HW237083   0.831   4.053   8.650  2.0203 -1.1318  0.0306
 8484SOL     OW37084   0.792   3.616   5.091  0.3342 -0.3491 -0.4323
 8484SOL    HW137085   0.724   3.549   5.104 -0.8041  1.2419  1.7314
 8484SOL    HW237086   0.766   3.675   5.161 -1.0262  0.2861 -1.4813
 8485SOL     OW37087   4.028   0.316   3.478  0.0807 -0.3734 -0.0935
 8485SOL    HW137088   3.957   0.253   3.470 -1.3054  1.4464 -2.0892
 8485SOL    HW237089   4.051   0.305   3.571 -0.5949 -0.3878  0.0744
 8486SOL     OW37090   4.374   0.102   7.906  0.2474 -0.4474 -0.5195
 8486SOL    HW137091   4.317   0.085   7.981  1.0724 -1.4149 -0.1150
 8486SOL    HW237092   4.466   0.082   7.925  0.7984  1.6907 -0.9670
 8487SOL     OW37093   4.004   3.788   1.317 -0.3100  0.0937  0.4959
 8487SOL    HW137094   3.952   3.838   1.254  0.8100 -0.4727 -0.8890
 8487SOL    HW237095   4.054   3.721   1.271  0.7344  1.8963 -0.9854
 8488SOL     OW37096   0.209   2.367   0.023  0.0982  0.4896 -0.0167
 8488SOL    HW137097   0.262   2.446   0.031  1.2404 -0.1090 -1.7945
 8488SOL    HW237098   0.178   2.341   0.110  2.3972  2.5222  1.4001
 8489SOL     OW37099   2.445   0.944   6.581 -0.6354 -0.3197  0.1426
 8489SOL    HW137100   2.375   0.908   6.635  1.0189 -2.0594  1.1564
 8489SOL    HW237101   2.484   0.862   6.549  1.2406  0.0449  1.4553
 8490SOL     OW37102   2.643   4.280   4.981 -0.0724  0.5835  0.8051
 8490SOL    HW137103   2.608   4.195   4.956  2.1029  0.2105 -0.9613
 8490SOL    HW237104   2.730   4.282   4.942  0.4866  0.3536  2.0684
 8491SOL     OW37105   3.453   0.717   2.670  0.1068 -0.0711 -0.0595
 8491SOL    HW137106   3.398   0.711   2.591 -0.4834 -1.6272  0.4591
 8491SOL    HW237107   3.543   0.725   2.637  0.2846 -1.5801  0.0204
 8492SOL     OW37108   0.348   0.847   8.313  0.1225  0.0230 -0.3914
 8492SOL    HW137109   0.378   0.871   8.401  1.5691 -0.3420 -0.7863
 8492SOL    HW237110   0.273   0.905   8.307 -0.3988 -0.5212  0.8710
 8493SOL     OW37111   0.152   1.617   4.377 -0.3536  0.0200 -0.3036
 8493SOL    HW137112   0.110   1.562   4.311 -0.0852  0.5816 -0.9410
 8493SOL    HW237113   0.100   1.601   4.456  0.5771 -2.1587 -0.1343
 8494SOL     OW37114   0.672   3.976  15.588 -0.6152 -0.1804  0.1414
 8494SOL    HW137115   0.649   4.068  15.580 -2.6624 -0.7654 -0.5478
 8494SOL    HW237116   0.720   3.976  15.671  1.0979 -1.0338 -0.8534
 8495SOL     OW37117   3.043   4.650   3.694 -0.3641  0.2059 -0.3835
 8495SOL    HW137118   3.034   4.580   3.759 -0.2527  0.6635  0.1144
 8495SOL    HW237119   3.019   4.599   3.616  0.8144 -1.5313  0.3969
 8496SOL     OW37120   1.962   3.992  11.563 -0.0826 -0.2134  0.2147
 8496SOL    HW137121   1.908   4.006  11.486  0.4248 -0.5402 -0.2012
 8496SOL    HW237122   2.045   3.979  11.517  0.5414 -1.2022  1.5874
 8497SOL     OW37123   1.884   3.789   2.666 -0.3569  0.2432 -0.0322
 8497SOL    HW137124   1.952   3.854   2.684  0.8577 -1.6807  2.3112
 8497SOL    HW237125   1.871   3.813   2.574 -2.2954  0.6174  0.3362
 8498SOL     OW37126   0.861   1.699   2.318  0.2460 -0.8004  0.0547
 8498SOL    HW137127   0.849   1.607   2.341 -1.7604 -0.3794  0.7868
 8498SOL    HW237128   0.950   1.719   2.344  0.1380 -0.8960  0.5106
 8499SOL     OW37129   1.061   3.603   7.337  0.4331  0.4606  0.0621
 8499SOL    HW137130   1.048   3.685   7.384 -1.0893 -0.3355  1.0497
 8499SOL    HW237131   1.149   3.591   7.374 -0.2716 -0.1210  1.5405
 8500SOL     OW37132   0.783   0.787   2.769 -0.3329  0.0027 -0.1030
 8500SOL    HW137133   0.690   0.791   2.747  0.0173  2.3378 -1.2385
 8500SOL    HW237134   0.813   0.875   2.746  0.7579 -0.4403 -0.3959
 8501SOL     OW37135   0.913   4.466  14.065  0.4210  0.4053  0.0985
 8501SOL    HW137136   0.921   4.378  14.030 -0.4270  0.5358 -0.4159
 8501SOL    HW237137   0.833   4.490  14.019  0.7393  0.9888 -0.1512
 8502SOL     OW37138   3.770   4.582   1.689  0.1842  0.0057 -0.3814
 8502SOL    HW137139   3.783   4.667   1.647 -0.9326  0.6821  0.6114
 8502SOL    HW237140   3.858   4.553   1.668  0.0802  0.2935 -1.2252
 8503SOL     OW37141   4.274   3.820   2.556  0.0506 -0.2250 -0.4139
 8503SOL    HW137142   4.288   3.901   2.605  0.2036 -0.6382  0.2366
 8503SOL    HW237143   4.187   3.827   2.516 -1.0736  0.0601  2.0226
 8504SOL     OW37144   4.676   0.666  11.501  0.3300  0.4936 -0.2108
 8504SOL    HW137145   4.625   0.698  11.575 -1.5813 -2.2260 -0.3671
 8504SOL    HW237146   0.015   0.626  11.544 -0.1486  0.5389  0.6638
 8505SOL     OW37147   2.523   4.076   9.020 -0.2703 -0.0221 -0.1140
 8505SOL    HW137148   2.554   4.093   9.109 -1.0611 -2.3046  0.5803
 8505SOL    HW237149   2.601   4.100   8.969 -0.6868  3.0006  0.6703
 8506SOL     OW37150   3.435   3.431   3.849  0.7575 -0.1444 -0.2058
 8506SOL    HW137151   3.486   3.511   3.843  1.2152 -0.2838  1.7924
 8506SOL    HW237152   3.422   3.429   3.944  0.6647 -0.6110 -0.2281
 8507SOL     OW37153   1.022   0.791   2.259 -0.4150  0.3090 -0.5026
 8507SOL    HW137154   1.105   0.838   2.269 -0.1428 -0.2401 -0.1804
 8507SOL    HW237155   1.015   0.788   2.164 -1.5830 -0.6950 -0.3789
 8508SOL     OW37156   1.200   3.248   2.755 -0.1555 -0.5979  0.0608
 8508SOL    HW137157   1.267   3.256   2.687 -1.7651  0.9215 -1.3571
 8508SOL    HW237158   1.233   3.173   2.804 -1.2090 -1.1647 -0.0865
 8509SOL     OW37159   4.250   3.854  10.751  0.5751 -0.1805  0.0537
 8509SOL    HW137160   4.336   3.895  10.757  0.7572 -0.4287 -0.9103
 8509SOL    HW237161   4.201   3.883  10.828  2.6056  0.6449  1.0113
 8510SOL     OW37162   0.448   1.699   4.553  0.2746 -0.3420  0.1752
 8510SOL    HW137163   0.408   1.708   4.467 -1.0512 -0.2554  0.7974
 8510SOL    HW237164   0.504   1.621   4.545  0.0859 -0.3223 -1.2887
 8511SOL     OW37165   2.226   1.923  15.350  0.0778  0.0826  0.4880
 8511SOL    HW137166   2.316   1.894  15.359 -0.0059  0.1348  1.4490
 8511SOL    HW237167   2.223   1.980  15.427 -0.5783 -0.8854  1.1698
 8512SOL     OW37168   2.872   2.844  14.637  0.2768 -0.4233 -0.0931
 8512SOL    HW137169   2.887   2.864  14.729  0.6123  0.8410 -0.4257
 8512SOL    HW237170   2.784   2.878  14.622 -0.2118 -1.5423  0.2052
 8513SOL     OW37171   2.085   3.392   5.932 -0.0909 -0.1444 -0.4433
 8513SOL    HW137172   2.001   3.391   5.979 -0.3383  0.5787 -0.8693
 8513SOL    HW237173   2.110   3.484   5.941 -0.4514  0.0251 -1.1449
 8514SOL     OW37174   3.428   4.681   8.794  0.1915 -0.1603 -0.4456
 8514SOL    HW137175   3.392   4.595   8.776  0.8278 -0.2979 -1.0191
 8514SOL    HW237176   3.494   4.681   8.725  0.5692 -2.7930 -0.0665
 8515SOL     OW37177   2.971   1.288   1.899 -0.1558 -0.5268 -0.4415
 8515SOL    HW137178   2.881   1.302   1.928  0.5201 -2.0170  2.3649
 8515SOL    HW237179   2.992   1.198   1.927 -0.8519 -0.4595  0.2867
 8516SOL     OW37180   3.021   1.736   8.983 -0.0500  0.4453  0.7687
 8516SOL    HW137181   3.051   1.648   9.003  0.4086  0.3159 -0.4551
 8516SOL    HW237182   3.076   1.784   9.045  1.3096 -0.2016  0.0764
 8517SOL     OW37183   3.314   1.950   4.717  0.3034  0.0108 -0.0417
 8517SOL    HW137184   3.258   1.919   4.788  0.3619  0.8236  0.3514
 8517SOL    HW237185   3.287   1.886   4.650 -1.1768  0.2040  0.3779
 8518SOL     OW37186   1.431   1.496   7.613  0.1523 -0.1552 -0.4009
 8518SOL    HW137187   1.339   1.506   7.589 -0.5659 -1.2831  1.9210
 8518SOL    HW237188   1.480   1.525   7.536  0.7573  1.2705  0.5148
 8519SOL     OW37189   0.911   2.759   5.408 -0.2164 -0.3145 -0.1837
 8519SOL    HW137190   0.944   2.830   5.353  0.3858 -0.7997 -0.4531
 8519SOL    HW237191   0.981   2.772   5.472  0.9719  2.3749 -2.0432
 8520SOL     OW37192   2.606   1.246   3.199  0.0074 -0.5347  0.3960
 8520SOL    HW137193   2.534   1.183   3.202  0.5590 -1.3095 -2.6073
 8520SOL    HW237194   2.611   1.287   3.285 -0.5391  0.7345 -0.1720
 8521SOL     OW37195   4.369   3.776   2.084 -0.2909 -0.1033  0.7939
 8521SOL    HW137196   4.346   3.692   2.124 -0.4567 -1.8032 -2.7982
 8521SOL    HW237197   4.284   3.819   2.084 -0.2577 -0.0360 -0.9178
 8522SOL     OW37198   2.253   0.210  16.601  0.5514 -0.1612  0.6095
 8522SOL    HW137199   2.218   0.294  16.574 -1.1922 -0.5860  1.5341
 8522SOL    HW237200   2.275   0.215  16.694 -1.6139 -0.5158  1.1438
 8523SOL     OW37201   0.288   0.583   3.714  0.4835 -0.1981  0.2721
 8523SOL    HW137202   0.288   0.529   3.635  1.2707 -1.4659  1.1368
 8523SOL    HW237203   0.199   0.620   3.717  0.7694  0.5279 -0.2422
 8524SOL     OW37204   1.113   3.817   7.483 -0.2636 -0.0761 -0.1910
 8524SOL    HW137205   1.059   3.896   7.493  1.7850  1.3318 -0.2405
 8524SOL    HW237206   1.133   3.785   7.570 -1.8513  1.8658  0.8892
 8525SOL     OW37207   4.269   2.818   3.774 -0.5227  0.5352  0.5940
 8525SOL    HW137208   4.225   2.834   3.691 -1.7715  0.5825  1.2661
 8525SOL    HW237209   4.208   2.866   3.830  0.9702  4.2433 -0.9669
 8526SOL     OW37210   0.093   3.200   7.562 -0.1101 -0.0166  0.1207
 8526SOL    HW137211   0.078   3.291   7.537  0.3147 -0.2090 -0.8104
 8526SOL    HW237212   0.068   3.153   7.483 -1.6424 -0.5339  0.9204
 8527SOL     OW37213   3.604   1.982   4.517  0.6666 -0.1149 -0.0423
 8527SOL    HW137214   3.670   2.037   4.558 -0.3332  0.4204  0.8448
 8527SOL    HW237215   3.545   2.057   4.508 -0.7091 -1.2213 -0.2109
 8528SOL     OW37216   2.326   1.259  14.014 -0.0663 -0.6259 -0.3362
 8528SOL    HW137217   2.331   1.353  14.034  0.5105 -0.6281 -0.4815
 8528SOL    HW237218   2.400   1.232  14.068  0.1247 -2.2458 -1.4151
 8529SOL     OW37219   1.163   3.175  16.964  0.7944  0.2098 -0.0696
 8529SOL    HW137220   1.080   3.127  16.969  1.3790 -0.8894 -1.2407
 8529SOL    HW237221   1.138   3.238  16.896  1.5762 -0.2784 -0.8036
 8530SOL     OW37222   3.638   4.177  12.475 -0.1346 -0.3058 -0.5971
 8530SOL    HW137223   3.660   4.248  12.535  0.6804  1.1109 -2.5708
 8530SOL    HW237224   3.663   4.225  12.396  0.4128  0.3254 -0.0305
 8531SOL     OW37225   3.081   0.127   8.448 -0.0355  0.0233 -0.3358
 8531SOL    HW137226   3.101   0.155   8.358 -0.5562 -0.7053 -0.6744
 8531SOL    HW237227   3.033   0.203   8.483  0.3010 -0.9002  2.1049
 8532SOL     OW37228   0.791   3.420   2.618 -0.5485 -0.2380  0.2999
 8532SOL    HW137229   0.877   3.379   2.605 -0.3479  1.0150 -2.5099
 8532SOL    HW237230   0.811   3.513   2.606 -1.8563  0.0597  0.4272
 8533SOL     OW37231   0.663   0.341   5.364 -0.1071  0.0752 -0.3419
 8533SOL    HW137232   0.731   0.312   5.425 -1.5841  0.2076  1.3624
 8533SOL    HW237233   0.588   0.285   5.387  0.0940  0.7215  1.9131
 8534SOL     OW37234   0.504   0.783   9.223 -0.3082  0.3836  0.1292
 8534SOL    HW137235   0.462   0.859   9.265  1.3557  1.2459  0.2211
 8534SOL    HW237236   0.535   0.823   9.143  3.6360  1.2679  2.1220
 8535SOL     OW37237   1.744   1.977   5.686 -0.4896 -0.2573  0.2283
 8535SOL    HW137238   1.807   1.930   5.740  0.6958  1.8654  0.6893
 8535SOL    HW237239   1.721   1.913   5.619  0.1251 -2.2461  1.9475
 8536SOL     OW37240   2.997   2.821   4.029 -0.2910 -0.3445 -0.2764
 8536SOL    HW137241   2.974   2.774   3.949 -0.4529  0.5127 -0.7371
 8536SOL    HW237242   3.067   2.871   3.985  0.6151 -1.2498  0.1501
 8537SOL     OW37243   0.383   1.630   1.411  0.1867 -0.1718  0.5308
 8537SOL    HW137244   0.370   1.645   1.317  0.2166 -0.8029  0.4266
 8537SOL    HW237245   0.302   1.669   1.445 -0.9453 -2.0442 -0.0538
 8538SOL     OW37246   3.593   0.343  11.521 -0.5220  0.3346  0.4771
 8538SOL    HW137247   3.610   0.379  11.434 -5.0111 -2.2564 -1.4286
 8538SOL    HW237248   3.522   0.389  11.565 -0.0708 -1.7282  3.3460
 8539SOL     OW37249   3.912   3.657   3.356  0.0946 -0.3445  0.2186
 8539SOL    HW137250   3.866   3.575   3.337  2.3366 -1.4065 -0.6274
 8539SOL    HW237251   3.935   3.656   3.449  1.1296  2.1966  0.0109
 8540SOL     OW37252   0.976   4.301   6.887 -0.0814  0.3638  0.6815
 8540SOL    HW137253   0.945   4.331   6.973  0.3236  4.5078 -0.6178
 8540SOL    HW237254   0.906   4.235   6.881 -1.8130  2.0971  1.7809
 8541SOL     OW37255   4.347   1.455   2.796  0.0482 -0.2466 -0.3602
 8541SOL    HW137256   4.360   1.513   2.721  1.7139 -0.6646 -0.3886
 8541SOL    HW237257   4.251   1.453   2.791 -0.0614  1.0566  0.9243
 8542SOL     OW37258   2.826   4.211   5.440  0.2303 -0.3327  0.5718
 8542SOL    HW137259   2.870   4.129   5.414  0.4939  0.6373 -2.0407
 8542SOL    HW237260   2.844   4.220   5.533 -0.1680  1.4928  0.4671
 8543SOL     OW37261   0.131   2.867   9.019 -0.1193  0.2452 -0.5670
 8543SOL    HW137262   0.071   2.834   9.087  2.2869  1.8414  2.3442
 8543SOL    HW237263   0.153   2.785   8.974  1.6277 -0.3378  1.3565
 8544SOL     OW37264   0.864   2.528   6.224  0.3541  0.1063  0.2885
 8544SOL    HW137265   0.883   2.576   6.143 -0.6652  0.2979  0.1654
 8544SOL    HW237266   0.840   2.440   6.195 -1.9675  1.1203 -0.8229
 8545SOL     OW37267   1.040   3.098  15.320  0.3810  0.4927 -0.4141
 8545SOL    HW137268   0.981   3.113  15.395  0.7489 -5.1603  1.0249
 8545SOL    HW237269   1.126   3.092  15.361  0.2773 -0.6316 -0.3497
 8546SOL     OW37270   0.466   0.473   3.919 -0.1926  0.4051  0.5287
 8546SOL    HW137271   0.393   0.417   3.946  0.5427 -0.2316  1.1948
 8546SOL    HW237272   0.429   0.506   3.837  0.1099  0.0713  0.2561
 8547SOL     OW37273   1.621   1.395   2.593  0.2184 -0.6330 -0.0034
 8547SOL    HW137274   1.705   1.422   2.631  1.2979 -2.1548 -1.3029
 8547SOL    HW237275   1.578   1.481   2.592  1.3970 -0.0772 -2.3842
 8548SOL     OW37276   1.262   1.894   9.236  0.0018 -0.4202  0.2280
 8548SOL    HW137277   1.191   1.957   9.251  1.7742  1.6250  0.0378
 8548SOL    HW237278   1.215   1.837   9.175  0.2999  1.1609 -1.4762
 8549SOL     OW37279   3.002   3.289   4.983 -0.1061  0.3245  0.5660
 8549SOL    HW137280   2.942   3.303   4.909 -0.3375 -2.6013  0.1663
 8549SOL    HW237281   3.051   3.370   4.995 -2.4770  2.2020 -2.3503
 8550SOL     OW37282   1.682   3.586  15.017  0.2108  0.0301  0.1974
 8550SOL    HW137283   1.696   3.633  14.935 -0.2103  0.8484  0.5957
 8550SOL    HW237284   1.603   3.630  15.048 -0.0942 -0.7920  0.5816
 8551SOL     OW37285   3.170   1.753   8.638  0.7209  0.2142 -0.7941
 8551SOL    HW137286   3.240   1.702   8.597  1.4674  1.5463 -1.1733
 8551SOL    HW237287   3.105   1.684   8.654  4.0671 -2.2733  2.1479
 8552SOL     OW37288   1.773   0.161   8.843 -0.4539 -0.1331 -0.1968
 8552SOL    HW137289   1.857   0.116   8.841 -0.0423  0.5919  0.8666
 8552SOL    HW237290   1.707   0.092   8.850 -0.2045 -0.2936  0.5534
 8553SOL     OW37291   3.724   3.914   2.367  0.0620 -0.1166 -0.0580
 8553SOL    HW137292   3.735   4.009   2.379  0.3361 -0.1356 -0.1436
 8553SOL    HW237293   3.652   3.908   2.430 -0.7711 -1.1016 -1.1122
 8554SOL     OW37294   2.869   2.765   8.533  0.0858  0.0935  0.1540
 8554SOL    HW137295   2.845   2.681   8.574 -1.3139  0.8287  0.8477
 8554SOL    HW237296   2.892   2.744   8.443  0.5120  0.1861  0.2415
 8555SOL     OW37297   1.875   3.546  13.120  0.4702 -0.1975  0.1469
 8555SOL    HW137298   1.917   3.632  13.129  0.7451 -0.3698  0.4657
 8555SOL    HW237299   1.785   3.578  13.112  1.0416  0.6735 -2.9282
 8556SOL     OW37300   2.424   1.621   4.152  0.0987 -0.5008  0.2811
 8556SOL    HW137301   2.414   1.657   4.064 -2.2981 -1.9320 -0.0614
 8556SOL    HW237302   2.349   1.560   4.153 -0.5561  0.2684 -0.9619
 8557SOL     OW37303   4.165   4.538  16.981 -0.1401 -0.0263  0.1955
 8557SOL    HW137304   4.136   4.571  17.066 -1.9697  1.1522 -0.8728
 8557SOL    HW237305   4.124   4.452  16.985 -0.9049  0.4000  1.5579
 8558SOL     OW37306   2.933   2.061   3.335  0.2539 -0.0607  0.5626
 8558SOL    HW137307   2.934   2.111   3.254 -0.8843 -1.1222 -0.1156
 8558SOL    HW237308   2.863   1.997   3.320 -1.0740  1.2488  1.2202
 8559SOL     OW37309   3.037   4.674   8.832  0.8228 -0.1490 -0.1240
 8559SOL    HW137310   3.030   4.620   8.910  1.0498  1.3395  0.9302
 8559SOL    HW237311   3.112   4.731   8.851 -0.4577  0.5678  2.8102
 8560SOL     OW37312   0.739   3.441   2.997  0.2378 -0.4940 -0.2624
 8560SOL    HW137313   0.683   3.363   2.999  0.0278 -0.3433 -0.3512
 8560SOL    HW237314   0.820   3.390   3.008 -0.3713 -1.4314 -0.1359
 8561SOL     OW37315   1.452   2.422   0.984  1.0728 -0.2797  0.1060
 8561SOL    HW137316   1.511   2.379   1.046 -1.1777 -1.5773  1.3615
 8561SOL    HW237317   1.470   2.511   1.015 -3.0297  0.7467 -0.4387
 8562SOL     OW37318   2.777   1.678   1.005  0.4455  0.2524  0.0079
 8562SOL    HW137319   2.785   1.583   1.004  2.4721  0.4425 -1.2082
 8562SOL    HW237320   2.690   1.689   1.043 -0.7627 -4.6454 -1.3555
 8563SOL     OW37321   3.171   4.518  15.768  0.3873 -0.5345 -0.1329
 8563SOL    HW137322   3.151   4.601  15.812  0.7038 -0.3817 -0.2776
 8563SOL    HW237323   3.253   4.541  15.724  0.4656 -0.5279  0.0153
 8564SOL     OW37324   1.255   2.560  14.254  0.6325  0.0160  0.4138
 8564SOL    HW137325   1.167   2.572  14.218  0.5673 -2.2458 -0.1538
 8564SOL    HW237326   1.306   2.593  14.180  1.0594 -1.6129 -0.0323
 8565SOL     OW37327   4.536   3.007  15.393 -0.0177  0.1673  0.2331
 8565SOL    HW137328   4.552   2.913  15.402  0.5312  0.4018  1.8132
 8565SOL    HW237329   4.466   2.998  15.328  1.4332 -2.2311 -1.0094
 8566SOL     OW37330   1.605   0.666   6.342 -0.3582 -0.0301  0.4660
 8566SOL    HW137331   1.677   0.720   6.311 -1.8003  1.4223 -0.3489
 8566SOL    HW237332   1.551   0.676   6.263  0.7145 -1.5473 -0.4703
 8567SOL     OW37333   3.546   1.459  13.096 -0.1219  0.3553 -0.4211
 8567SOL    HW137334   3.547   1.432  13.188  0.8799 -0.0411 -0.5500
 8567SOL    HW237335   3.499   1.387  13.055 -1.4222  2.5153 -2.7403
 8568SOL     OW37336   2.132   1.354  13.404 -0.1943 -0.2062  0.2682
 8568SOL    HW137337   2.091   1.371  13.319  0.8885  0.7664 -0.0783
 8568SOL    HW237338   2.202   1.420  13.401 -1.2347  0.8823 -0.0165
 8569SOL     OW37339   1.067   1.810  13.940 -0.7834  0.0150  0.3106
 8569SOL    HW137340   1.101   1.727  13.973 -2.9002 -0.4698  1.2721
 8569SOL    HW237341   1.007   1.772  13.875 -0.7253  1.5690 -0.6521
 8570SOL     OW37342   3.318   1.457   4.438  0.3813 -0.4245 -0.3853
 8570SOL    HW137343   3.230   1.486   4.463 -0.3295  0.0213 -3.4743
 8570SOL    HW237344   3.345   1.397   4.508 -0.1952 -0.6848 -0.3799
 8571SOL     OW37345   1.095   3.856   3.314  0.2658 -0.1144  0.3964
 8571SOL    HW137346   1.062   3.770   3.290  0.2218 -0.4232  1.5695
 8571SOL    HW237347   1.187   3.846   3.290 -0.3172 -2.3230 -0.8705
 8572SOL     OW37348   3.274   2.989   4.027 -0.4838 -0.3315 -0.5096
 8572SOL    HW137349   3.359   2.972   4.068  0.1333  1.6995 -0.8943
 8572SOL    HW237350   3.297   3.065   3.972 -0.9529 -0.4448 -0.8602
 8573SOL     OW37351   1.418   4.581  13.020 -0.5005  0.4510  0.3168
 8573SOL    HW137352   1.323   4.585  13.028 -0.7090  0.7922 -2.3372
 8573SOL    HW237353   1.434   4.660  13.072  0.4507  1.9199 -2.2133
 8574SOL     OW37354   3.849   0.971   6.691 -0.2484  0.2069 -0.6747
 8574SOL    HW137355   3.825   0.902   6.629  0.2850  0.5619 -1.2814
 8574SOL    HW237356   3.760   0.990   6.722  0.2703  0.2892  0.7519
 8575SOL     OW37357   3.524   3.996   5.177  0.0868 -0.0421 -0.4312
 8575SOL    HW137358   3.544   3.903   5.166 -3.3775 -1.0720  2.0273
 8575SOL    HW237359   3.507   4.018   5.269  2.2911 -1.2514  0.2824
 8576SOL     OW37360   3.013   3.189  14.149  0.0899  0.6221 -0.1335
 8576SOL    HW137361   3.045   3.255  14.089 -0.4726  0.8857 -0.1409
 8576SOL    HW237362   2.995   3.114  14.093  0.2147  0.6946 -0.2692
 8577SOL     OW37363   4.201   2.736   7.096  0.6705 -0.2615 -0.1730
 8577SOL    HW137364   4.296   2.728   7.093  0.5155 -2.0160 -0.5341
 8577SOL    HW237365   4.194   2.778   7.182  0.3780 -0.7143  0.0255
 8578SOL     OW37366   0.832   2.355  15.976  0.1421 -0.2542  0.1249
 8578SOL    HW137367   0.814   2.341  15.883 -1.2409 -0.0958  0.3762
 8578SOL    HW237368   0.811   2.269  16.011  0.8905 -0.0069  1.1751
 8579SOL     OW37369   4.594   0.996   8.090 -0.4713 -0.3773 -0.2120
 8579SOL    HW137370   4.565   0.905   8.091  0.0323 -0.5265  0.5088
 8579SOL    HW237371   4.527   1.030   8.030 -1.6279 -2.6772 -0.2112
 8580SOL     OW37372   3.300   4.198   4.837 -0.7243 -0.5381  0.0863
 8580SOL    HW137373   3.280   4.265   4.771  2.3211 -0.2562 -0.5353
 8580SOL    HW237374   3.266   4.246   4.912 -1.7828 -0.2916 -0.5556
 8581SOL     OW37375   2.690   3.894  16.989  0.3945  0.0377 -0.4632
 8581SOL    HW137376   2.688   3.871  16.896 -1.1244  0.6593 -0.5829
 8581SOL    HW237377   2.699   3.811  17.036 -1.9428 -0.5634 -1.0484
 8582SOL     OW37378   2.112   1.277   6.608  0.2668  0.0728 -0.1206
 8582SOL    HW137379   2.177   1.326   6.558  0.4038  0.1344  0.1178
 8582SOL    HW237380   2.044   1.274   6.541 -0.0795 -2.3249  0.3175
 8583SOL     OW37381   0.876   2.503   8.051 -0.5077 -0.0668  0.5461
 8583SOL    HW137382   0.949   2.563   8.035  0.4107 -1.7127 -1.3982
 8583SOL    HW237383   0.891   2.482   8.143  4.1698 -0.7444 -0.4109
 8584SOL     OW37384   0.410   1.846   2.749  0.4320 -0.5583  0.1414
 8584SOL    HW137385   0.497   1.840   2.789  1.0226 -0.7041 -1.1394
 8584SOL    HW237386   0.399   1.941   2.747  0.0538 -0.6277 -0.9415
 8585SOL     OW37387   0.029   1.385   7.175 -0.3338  0.2601  0.1160
 8585SOL    HW137388   4.686   1.330   7.167  0.6419 -1.2062  0.5517
 8585SOL    HW237389   0.001   1.467   7.135  0.4031 -0.6775 -2.3457
 8586SOL     OW37390   1.162   0.945   9.470  0.0406  0.1847  0.0905
 8586SOL    HW137391   1.161   1.032   9.431  4.2835  0.8908  1.5556
 8586SOL    HW237392   1.238   0.950   9.529  0.7408  1.5851 -0.9304
 8587SOL     OW37393   4.657   3.391   3.196 -0.0209  0.2030  0.7254
 8587SOL    HW137394   4.697   3.307   3.220 -0.2529 -0.7923 -2.4349
 8587SOL    HW237395   4.564   3.367   3.207  0.1867 -1.3022 -0.8574
 8588SOL     OW37396   2.389   0.675   7.351  0.1657  0.1097  0.5442
 8588SOL    HW137397   2.369   0.763   7.322 -0.3273 -0.0405  0.4257
 8588SOL    HW237398   2.379   0.627   7.269 -2.6303  0.3447  0.7741
 8589SOL     OW37399   1.028   1.474   1.999 -0.5000 -0.3358 -0.0201
 8589SOL    HW137400   1.031   1.528   1.920 -0.8331 -1.6466 -0.9298
 8589SOL    HW237401   1.103   1.519   2.038 -0.4853  0.4439 -0.9595
 8590SOL     OW37402   4.538   3.465   2.177  0.1792  0.3806  0.0273
 8590SOL    HW137403   4.616   3.491   2.127 -0.3735  0.4544 -0.7939
 8590SOL    HW237404   4.563   3.500   2.262 -2.5599 -0.4014  1.1419
 8591SOL     OW37405   2.716   2.585   3.970 -0.2088 -0.7503 -0.2131
 8591SOL    HW137406   2.658   2.575   3.894  0.0360  1.0240 -0.6281
 8591SOL    HW237407   2.789   2.606   3.911 -1.7783  1.6522 -1.3158
 8592SOL     OW37408   4.038   4.303   2.454 -0.0944  0.8672 -0.2201
 8592SOL    HW137409   4.119   4.283   2.407 -0.9127 -1.2889 -0.6977
 8592SOL    HW237410   4.001   4.218   2.478  0.2787  0.3730 -1.4226
 8593SOL     OW37411   4.426   2.925   0.308 -0.6672 -0.8283  0.6587
 8593SOL    HW137412   4.460   2.870   0.379  0.3688  0.7844  1.4180
 8593SOL    HW237413   4.488   2.998   0.304 -0.3966 -1.0825  0.2760
 8594SOL     OW37414   2.262   1.716   0.098  0.0003  0.3105 -0.4496
 8594SOL    HW137415   2.352   1.690   0.079  0.1814 -0.5107  1.5898
 8594SOL    HW237416   2.267   1.743   0.190 -1.4960  0.1111 -0.3126
 8595SOL     OW37417   1.365   3.673  16.004 -0.0561  0.6228 -0.0632
 8595SOL    HW137418   1.289   3.725  16.028  0.8763  0.8285  2.4954
 8595SOL    HW237419   1.354   3.594  16.056 -2.2863  0.6982 -0.4256
 8596SOL     OW37420   3.034   2.385   4.353 -0.7213 -0.2713 -0.4821
 8596SOL    HW137421   3.000   2.435   4.279 -0.1736  3.7778  1.9916
 8596SOL    HW237422   3.112   2.340   4.321 -1.4168  0.3509 -2.9937
 8597SOL     OW37423   1.557   4.024   8.370 -0.2964  0.0511 -0.0009
 8597SOL    HW137424   1.644   4.048   8.403  0.3709  0.9899 -2.4566
 8597SOL    HW237425   1.507   4.104   8.382 -0.7530 -0.3245  0.5930
 8598SOL     OW37426   1.341   2.839   2.185 -0.0497  0.5246  0.2593
 8598SOL    HW137427   1.246   2.839   2.173 -0.1292 -0.5254  0.9511
 8598SOL    HW237428   1.373   2.789   2.110 -0.2118 -1.0014  1.2291
 8599SOL     OW37429   3.899   0.835   1.789  0.2742 -0.4584 -0.4869
 8599SOL    HW137430   3.868   0.846   1.879  1.5792 -1.1661  0.0487
 8599SOL    HW237431   3.994   0.841   1.793  0.0475  1.5285  1.8795
 8600SOL     OW37432   3.175   1.354   1.580  0.0916  0.1781 -0.0616
 8600SOL    HW137433   3.238   1.309   1.525  0.3869 -1.5786  1.7159
 8600SOL    HW237434   3.092   1.314   1.553  0.1255  0.5341 -0.6971
 8601SOL     OW37435   2.400   3.253   2.288 -0.1271 -0.2435  0.5849
 8601SOL    HW137436   2.487   3.284   2.316 -0.6626  0.7854  1.1381
 8601SOL    HW237437   2.425   3.193   2.218  0.3666 -0.6517  1.1165
 8602SOL     OW37438   1.034   3.316   9.356 -0.5715  0.0622  0.3297
 8602SOL    HW137439   1.083   3.273   9.285 -1.5263  0.1935 -0.4141
 8602SOL    HW237440   1.029   3.245   9.420  0.7304 -0.0585  0.3003
 8603SOL     OW37441   3.250   2.664   3.235  0.2336  0.3264  0.5634
 8603SOL    HW137442   3.230   2.613   3.156 -2.1475 -0.6515  1.8136
 8603SOL    HW237443   3.295   2.590   3.277  0.8732  0.0107 -0.6700
 8604SOL     OW37444   3.253   1.249  13.727 -0.2044  0.3679  0.0206
 8604SOL    HW137445   3.281   1.337  13.752 -1.2924  0.6005  0.4331
 8604SOL    HW237446   3.225   1.253  13.636  3.3852  0.1385 -1.1028
 8605SOL     OW37447   2.700   0.180   4.811  0.1147  0.2360  0.0207
 8605SOL    HW137448   2.682   0.092   4.844 -1.4090  0.5826  0.1406
 8605SOL    HW237449   2.621   0.191   4.757  0.1303 -0.0753 -0.0627
 8606SOL     OW37450   0.086   4.175   8.230  0.2033 -0.1186  0.5606
 8606SOL    HW137451   0.043   4.106   8.180 -0.0043  0.5561 -0.1912
 8606SOL    HW237452   0.148   4.121   8.279 -0.4171 -0.9579  0.4143
 8607SOL     OW37453   1.472   0.574  13.266 -0.0368 -0.4683 -0.3757
 8607SOL    HW137454   1.416   0.581  13.189  0.1263  0.9876 -0.3581
 8607SOL    HW237455   1.406   0.559  13.334 -0.2680  0.6096 -0.3753
 8608SOL     OW37456   0.329   2.152  14.899 -0.4353  0.3813  0.3897
 8608SOL    HW137457   0.340   2.168  14.805  0.9083  0.5785  0.5931
 8608SOL    HW237458   0.243   2.193  14.910 -0.2886  0.4617  1.2243
 8609SOL     OW37459   0.632   1.087   6.198 -0.4394 -0.3099 -0.2101
 8609SOL    HW137460   0.710   1.034   6.184  0.1851  1.3506 -3.0130
 8609SOL    HW237461   0.672   1.169   6.228 -0.8674  0.1040 -0.7675
 8610SOL     OW37462   4.147   0.079  17.459  0.3556  0.6056 -0.4631
 8610SOL    HW137463   4.233   0.116  17.439  0.6849  0.1175  0.0460
 8610SOL    HW237464   4.163   0.056  17.551  1.7124 -0.8720 -1.0567
 8611SOL     OW37465   1.134   2.773  14.832 -0.3113 -0.5151  0.5766
 8611SOL    HW137466   1.230   2.767  14.832 -0.2019  1.0622  4.9712
 8611SOL    HW237467   1.116   2.863  14.808  0.5286 -0.1311  1.3687
 8612SOL     OW37468   1.393   2.084   9.642 -0.9507  0.1540 -0.1951
 8612SOL    HW137469   1.326   2.061   9.707  1.1991 -2.0620  1.2453
 8612SOL    HW237470   1.413   1.994   9.619  0.5202  0.5447 -0.4516
 8613SOL     OW37471   2.949   3.141   0.237  0.1222 -0.0477  0.2014
 8613SOL    HW137472   3.024   3.168   0.183 -1.6874  2.1147 -1.2125
 8613SOL    HW237473   2.872   3.166   0.187  1.3028  1.6835 -0.7581
 8614SOL     OW37474   2.751   0.968   6.337  0.0385 -0.1208  0.3849
 8614SOL    HW137475   2.666   0.929   6.354  0.9679 -0.7761  3.5710
 8614SOL    HW237476   2.799   0.886   6.321  0.3833  0.2981 -0.7199
 8615SOL     OW37477   2.726   2.923   4.913 -0.4618 -0.2541  0.5708
 8615SOL    HW137478   2.778   2.866   4.970 -3.4741 -1.9936  1.5691
 8615SOL    HW237479   2.723   2.868   4.835 -0.0391 -0.9243  1.0274
 8616SOL     OW37480   3.876   1.888   7.490  0.4914 -0.2604  0.9101
 8616SOL    HW137481   3.830   1.924   7.566 -0.7743  0.9379 -0.4229
 8616SOL    HW237482   3.944   1.955   7.486  0.9007 -0.7870 -1.0532
 8617SOL     OW37483   2.551   2.895   5.359  0.1570  0.3445 -0.1002
 8617SOL    HW137484   2.505   2.906   5.276 -0.0406  0.9162  0.0803
 8617SOL    HW237485   2.482   2.860   5.416  0.3103 -1.4500 -1.0368
 8618SOL     OW37486   0.169   3.710  16.165  0.0855  0.2876  0.1622
 8618SOL    HW137487   0.222   3.631  16.162 -0.0597  0.2891 -2.0926
 8618SOL    HW237488   0.132   3.713  16.077 -1.0184  1.0705  0.6449
 8619SOL     OW37489   1.345   4.225   4.884 -0.5320  0.4729 -0.0160
 8619SOL    HW137490   1.438   4.247   4.885 -0.4650  0.1669  0.2733
 8619SOL    HW237491   1.325   4.222   4.790 -1.6775  0.6120  0.2182
 8620SOL     OW37492   4.399   2.542   4.017  0.3735  0.0292 -0.3374
 8620SOL    HW137493   4.444   2.619   3.983  1.8585 -0.6289  0.0791
 8620SOL    HW237494   4.328   2.577   4.071 -1.0435 -0.8066 -1.6769
 8621SOL     OW37495   3.609   4.726   5.444  0.0395 -0.2791 -0.1279
 8621SOL    HW137496   3.555   4.668   5.389 -3.0733  1.8110  0.7023
 8621SOL    HW237497   3.549   0.002   5.518 -0.8629 -0.8196 -0.7695
 8622SOL     OW37498   2.416   4.397   9.902 -0.1711 -0.9868  0.1486
 8622SOL    HW137499   2.382   4.451   9.831  0.7568 -2.2510 -1.2668
 8622SOL    HW237500   2.471   4.463   9.944 -1.7634 -0.7210  1.8302
 8623SOL     OW37501   0.981   2.221  17.595 -0.2692  0.8316  0.2081
 8623SOL    HW137502   0.981   2.183  17.683 -0.0351  3.2581  1.2524
 8623SOL    HW237503   0.888   2.241  17.581 -0.4653 -1.3025 -1.6604
 8624SOL     OW37504   3.732   2.443   6.583  0.4842 -0.2056 -0.2283
 8624SOL    HW137505   3.772   2.523   6.547  0.3967 -0.6854 -1.3887
 8624SOL    HW237506   3.805   2.399   6.626  0.2488 -1.1963 -0.8513
 8625SOL     OW37507   4.606   0.603   1.655  0.5514  0.3186 -0.5421
 8625SOL    HW137508   4.697   0.596   1.683 -0.1116 -1.8855  0.9892
 8625SOL    HW237509   4.604   0.694   1.685  4.3492  0.7753 -1.6806
 8626SOL     OW37510   1.750   1.559   4.459  0.5744  0.1039  0.1681
 8626SOL    HW137511   1.780   1.468   4.461  0.8245  0.1648 -0.8784
 8626SOL    HW237512   1.820   1.610   4.498  0.0376  0.2973  0.8936
 8627SOL     OW37513   1.703   1.104  11.681 -0.2076  0.0094 -0.7205
 8627SOL    HW137514   1.620   1.149  11.668 -1.3210 -1.7845  0.2566
 8627SOL    HW237515   1.697   1.108  11.776  1.8750  0.6672 -0.6097
 8628SOL     OW37516   1.011   1.216   8.438 -0.4678  0.0278 -0.1430
 8628SOL    HW137517   0.940   1.186   8.494 -0.4858 -0.4592 -0.4293
 8628SOL    HW237518   0.980   1.306   8.453  1.6408  0.3605  2.2481
 8629SOL     OW37519   4.352   3.971  12.516 -0.4853  0.7379  0.8734
 8629SOL    HW137520   4.408   3.949  12.590  2.0527  0.1438 -1.2353
 8629SOL    HW237521   4.292   3.897  12.507 -0.4970  1.1854 -2.7866
 8630SOL     OW37522   0.750   4.181   9.367 -0.4955 -0.5529  0.0464
 8630SOL    HW137523   0.710   4.179   9.454 -1.7823 -0.5120 -0.5469
 8630SOL    HW237524   0.770   4.092   9.337 -1.9457  0.6053 -4.2202
 8631SOL     OW37525   1.200   1.522   9.205  0.0214  0.4229  0.4706
 8631SOL    HW137526   1.249   1.553   9.281  3.0499 -0.4929 -1.0868
 8631SOL    HW237527   1.177   1.601   9.155 -0.4492  1.0369  1.6531
 8632SOL     OW37528   2.708   0.034   0.864 -0.1153 -0.2984 -0.2750
 8632SOL    HW137529   2.768   4.696   0.857  1.9478  1.2093  1.6414
 8632SOL    HW237530   2.697   0.042   0.959 -0.2570 -1.1921 -0.2138
 8633SOL     OW37531   4.177   1.162   2.636 -0.1464  0.2357 -0.0344
 8633SOL    HW137532   4.205   1.198   2.552  0.6899  1.2252  0.6822
 8633SOL    HW237533   4.158   1.240   2.687  0.3152  0.8446 -0.8073
 8634SOL     OW37534   3.984   1.897   5.434  0.1943  0.4458  0.6554
 8634SOL    HW137535   4.032   1.816   5.452  0.0811  0.4333  0.9051
 8634SOL    HW237536   3.911   1.864   5.382 -1.3466  2.6250  1.4602
 8635SOL     OW37537   0.876   3.784   8.754  0.2845  0.0421 -0.2668
 8635SOL    HW137538   0.954   3.837   8.736  1.0464 -1.6904 -2.1333
 8635SOL    HW237539   0.901   3.699   8.717 -2.3907 -1.5786  1.6342
 8636SOL     OW37540   3.810   2.799   3.006 -0.8214 -0.0075  0.0417
 8636SOL    HW137541   3.815   2.750   3.088 -0.7034 -2.3339 -1.3591
 8636SOL    HW237542   3.785   2.887   3.035 -2.4163 -0.3013 -0.4612
 8637SOL     OW37543   1.037   0.268   7.781  0.5240 -0.2593  0.0342
 8637SOL    HW137544   0.976   0.329   7.821 -0.1802  0.2138 -1.7792
 8637SOL    HW237545   1.056   0.313   7.698  2.1435 -0.7304  0.1491
 8638SOL     OW37546   1.078   3.095   6.222 -0.5683  0.3500 -0.0139
 8638SOL    HW137547   1.150   3.055   6.269 -0.3100  2.0984  1.0869
 8638SOL    HW237548   0.999   3.095   6.276 -0.4158 -1.2052  0.2010
 8639SOL     OW37549   1.040   1.896   5.262  0.8562 -0.1057 -0.1664
 8639SOL    HW137550   1.037   1.908   5.357  1.6442  1.5635 -0.3543
 8639SOL    HW237551   1.003   1.978   5.230 -0.5884 -0.7181 -0.0621
 8640SOL     OW37552   4.337   0.429   6.991  0.2139 -0.1322  0.2332
 8640SOL    HW137553   4.417   0.476   7.014 -0.2875  0.0127  1.6698
 8640SOL    HW237554   4.280   0.502   6.969  2.4268  1.7005  0.6417
 8641SOL     OW37555   3.635   4.308   6.461 -0.3013  0.1643 -0.4334
 8641SOL    HW137556   3.601   4.233   6.412 -0.0961 -0.5415  0.4887
 8641SOL    HW237557   3.556   4.362   6.463 -0.3498  0.0820 -0.1549
 8642SOL     OW37558   0.606   4.581   3.889 -0.1717  0.4429 -0.0479
 8642SOL    HW137559   0.516   4.590   3.923 -0.2993  0.3141 -0.3553
 8642SOL    HW237560   0.587   4.553   3.800  0.9043  2.9488 -1.0496
 8643SOL     OW37561   0.728   0.253   6.840 -0.5200 -0.2828 -0.4163
 8643SOL    HW137562   0.670   0.313   6.793 -1.2813  0.1076  1.0336
 8643SOL    HW237563   0.809   0.263   6.791  0.4716  1.3535  1.5345
 8644SOL     OW37564   0.389   0.645   4.240 -0.1148 -0.3111  0.0629
 8644SOL    HW137565   0.315   0.670   4.185  0.9914  1.7233 -0.4952
 8644SOL    HW237566   0.339   0.628   4.320  0.7687  0.1357  0.7058
 8645SOL     OW37567   1.283   0.075   2.768  0.3673  0.3689  0.4145
 8645SOL    HW137568   1.220   0.030   2.825 -1.0391 -0.5841 -1.9002
 8645SOL    HW237569   1.257   0.039   2.684 -0.1659 -1.3408  1.3067
 8646SOL     OW37570   4.006   2.929   8.199 -0.2297 -0.6360 -0.1063
 8646SOL    HW137571   4.098   2.910   8.214 -0.0136  0.6791  0.2093
 8646SOL    HW237572   3.998   2.902   8.107  0.2875 -0.5839 -0.1633
 8647SOL     OW37573   1.545   0.105   2.940  0.1121  0.1476  0.1166
 8647SOL    HW137574   1.568   0.012   2.933 -4.3092 -0.7816 -1.4311
 8647SOL    HW237575   1.450   0.095   2.947  0.3306 -2.1031 -0.1926
 8648SOL     OW37576   1.045   0.670   4.890 -0.3490  0.1442  0.3773
 8648SOL    HW137577   1.076   0.658   4.801  0.0313 -1.0498  0.6719
 8648SOL    HW237578   0.959   0.707   4.872 -1.0723 -1.7371  0.0220
 8649SOL     OW37579   1.992   0.534   8.167  0.4083 -0.3899  0.0566
 8649SOL    HW137580   2.000   0.439   8.181  1.0753 -0.3999 -0.3586
 8649SOL    HW237581   1.942   0.537   8.085  1.6350  0.8996 -0.6311
 8650SOL     OW37582   0.050   0.905   8.898  0.5819 -0.5169  0.0785
 8650SOL    HW137583   0.111   0.899   8.972 -1.0951 -0.1742  1.4955
 8650SOL    HW237584   0.117   0.926   8.833  0.1060  0.6426 -0.0355
 8651SOL     OW37585   2.249   1.164   4.498  0.4012  0.0697 -0.2277
 8651SOL    HW137586   2.181   1.178   4.565 -0.7767 -0.5170 -1.3162
 8651SOL    HW237587   2.314   1.227   4.532 -0.4807  0.4158  0.8513
 8652SOL     OW37588   4.428   0.875   6.344  0.4715  0.2561 -0.1598
 8652SOL    HW137589   4.339   0.841   6.329  1.5295 -2.2249 -0.9706
 8652SOL    HW237590   4.404   0.946   6.402  1.2116 -0.7271  1.3369
 8653SOL     OW37591   2.612   2.799  11.961 -0.5239 -0.2632  0.1551
 8653SOL    HW137592   2.650   2.877  11.922  0.3401 -0.5880  0.3593
 8653SOL    HW237593   2.559   2.840  12.029 -0.6271  1.9863 -1.2790
 8654SOL     OW37594   0.757   0.951   5.502 -0.3455 -0.5050  0.7387
 8654SOL    HW137595   0.833   0.989   5.546 -0.6253  1.7391 -0.7293
 8654SOL    HW237596   0.746   0.876   5.561  0.8064 -1.3195 -0.0698
 8655SOL     OW37597   3.811   3.905   6.753  0.0736 -0.1292 -0.3819
 8655SOL    HW137598   3.720   3.886   6.778  0.1976 -0.5748 -0.2681
 8655SOL    HW237599   3.858   3.899   6.836  1.8286 -2.3446 -1.5363
 8656SOL     OW37600   1.386   4.466   6.176 -0.3625  0.1649 -0.0507
 8656SOL    HW137601   1.390   4.561   6.161  0.0687 -0.2444 -2.4358
 8656SOL    HW237602   1.297   4.468   6.209 -0.2563  0.1813  0.2350
 8657SOL     OW37603   0.476   1.839   3.260 -0.3591  0.3115 -0.1549
 8657SOL    HW137604   0.525   1.765   3.296 -0.2582  0.6900  0.4979
 8657SOL    HW237605   0.497   1.903   3.329  1.7056  1.3080 -1.7163
 8658SOL     OW37606   0.007   3.481  11.291  0.3131 -0.2005  0.1664
 8658SOL    HW137607   4.684   3.438  11.353 -0.1688  0.6043  0.2704
 8658SOL    HW237608   0.006   3.414  11.223  0.1750 -0.8954  0.8543
 8659SOL     OW37609   4.183   3.430   7.952  0.2370 -0.2464  0.4840
 8659SOL    HW137610   4.256   3.482   7.985  0.3141  0.7668 -1.2712
 8659SOL    HW237611   4.233   3.356   7.918  3.3373  2.2213 -0.3468
 8660SOL     OW37612   2.868   1.217   3.943 -0.3316 -0.2112 -0.1604
 8660SOL    HW137613   2.798   1.257   3.892 -0.8721 -2.2962 -1.0292
 8660SOL    HW237614   2.810   1.176   4.008 -2.0651 -0.2814 -1.7477
 8661SOL     OW37615   3.824   2.070   7.741 -0.0225  0.1773  0.0411
 8661SOL    HW137616   3.846   2.095   7.831  1.2712  1.6766 -0.7045
 8661SOL    HW237617   3.762   2.140   7.723 -0.3853 -0.2997 -0.5482
 8662SOL     OW37618   1.120   2.606  14.478  0.0630 -0.4373 -0.1129
 8662SOL    HW137619   1.210   2.576  14.482  0.4693  0.8137  0.0768
 8662SOL    HW237620   1.092   2.577  14.391  0.4296 -2.4030  0.4248
 8663SOL     OW37621   0.705   3.532  17.715 -0.6121  0.0130  0.2811
 8663SOL    HW137622   0.729   3.451   0.017  2.2072  0.9421  0.4457
 8663SOL    HW237623   0.628   3.510  17.662 -1.9117  3.0001  0.9182
 8664SOL     OW37624   3.331   2.034   8.549  0.7595 -0.3831  0.7069
 8664SOL    HW137625   3.394   1.968   8.578  0.2965 -0.6219  1.1654
 8664SOL    HW237626   3.273   1.990   8.486 -0.1081  3.5350 -1.2575
 8665SOL     OW37627   3.907   3.914   7.081 -0.2392  0.2641 -0.1527
 8665SOL    HW137628   3.871   3.965   7.153 -0.1142  1.3292 -0.8472
 8665SOL    HW237629   3.849   3.838   7.091  0.9512 -0.8836 -1.9829
 8666SOL     OW37630   2.758   2.632   2.084  0.2576  0.2509  0.2340
 8666SOL    HW137631   2.735   2.711   2.133  1.8519  0.1871  1.0689
 8666SOL    HW237632   2.848   2.653   2.060  0.0128  1.6693  0.5780
 8667SOL     OW37633   4.692   2.426   6.314 -0.4884  0.2431 -0.3556
 8667SOL    HW137634   4.727   2.495   6.257 -0.5969  0.1656 -0.5154
 8667SOL    HW237635   4.610   2.469   6.339 -0.5654  0.1783 -0.4952
 8668SOL     OW37636   1.422   0.288  12.040  0.0685  0.0121  0.6935
 8668SOL    HW137637   1.493   0.270  11.978 -1.1693 -0.1603 -0.6489
 8668SOL    HW237638   1.387   0.201  12.058 -1.2442  0.8609  2.2331
 8669SOL     OW37639   2.144   2.032   3.826  0.3485 -0.1765  0.0751
 8669SOL    HW137640   2.143   2.125   3.802 -0.7262 -0.3050 -0.3747
 8669SOL    HW237641   2.080   1.988   3.770 -2.9010  1.5903  2.3845
 8670SOL     OW37642   3.496   0.431   4.377  0.0723  0.4934 -0.0187
 8670SOL    HW137643   3.420   0.485   4.355 -0.0907 -0.6490 -2.2830
 8670SOL    HW237644   3.458   0.398   4.458 -0.5072 -0.8358 -0.8261
 8671SOL     OW37645   2.815   3.393   8.041 -0.4955 -0.0596  0.1329
 8671SOL    HW137646   2.864   3.354   7.969 -1.0776  0.3369 -0.4766
 8671SOL    HW237647   2.737   3.397   7.985 -1.4099 -0.3009  1.3904
 8672SOL     OW37648   2.136   0.090   5.972  0.5760 -0.7948  0.5840
 8672SOL    HW137649   2.168   0.027   6.037  1.3913  0.8941  1.8130
 8672SOL    HW237650   2.076   0.039   5.917  1.0027 -0.2268 -0.4037
 8673SOL     OW37651   3.668   4.734  16.857 -0.0121  0.0941 -0.4358
 8673SOL    HW137652   3.695   0.056  16.928 -0.2714  1.6256 -1.5839
 8673SOL    HW237653   3.746   4.711  16.806  0.4304 -1.4164  0.9347
 8674SOL     OW37654   0.496   2.782   8.120 -0.3623 -0.1014  0.1080
 8674SOL    HW137655   0.434   2.824   8.061  1.5555  0.7632 -1.2884
 8674SOL    HW237656   0.554   2.857   8.130  1.3270 -0.9006 -3.7656
 8675SOL     OW37657   4.108   1.946   5.826  0.0732  0.2363  0.4892
 8675SOL    HW137658   4.036   2.001   5.858 -0.8112 -0.3512 -0.4692
 8675SOL    HW237659   4.177   2.012   5.818 -0.8230  0.9377 -1.4283
 8676SOL     OW37660   1.136   3.956   7.798 -0.2339  0.5371 -0.2655
 8676SOL    HW137661   1.042   3.973   7.803 -0.1357  1.0266  0.0224
 8676SOL    HW237662   1.172   4.045   7.791  1.8381 -0.1702  1.1170
 8677SOL     OW37663   0.252   1.393   6.707  0.3883  0.0156 -0.0216
 8677SOL    HW137664   0.342   1.406   6.735  1.1531 -0.7290 -2.0934
 8677SOL    HW237665   0.257   1.305   6.670 -0.2763 -0.1935  0.3930
 8678SOL     OW37666   4.364   1.035  14.152  0.2631  1.0007 -1.0862
 8678SOL    HW137667   4.286   0.980  14.146  1.5087 -0.7698 -0.9947
 8678SOL    HW237668   4.441   0.979  14.158 -0.7122 -0.3497 -1.2666
 8679SOL     OW37669   1.113   4.147   0.559  0.4885  0.1116  0.0040
 8679SOL    HW137670   1.073   4.092   0.626  0.0558 -0.2357 -0.5368
 8679SOL    HW237671   1.068   4.121   0.479 -0.0470  0.3394  0.2283
 8680SOL     OW37672   0.724   1.003   8.308  0.0351  0.4887  0.7938
 8680SOL    HW137673   0.741   1.020   8.400  0.0590  1.2961  0.6394
 8680SOL    HW237674   0.700   1.092   8.283  2.8394  0.7172 -1.0337
 8681SOL     OW37675   4.393   3.066   5.430 -0.1907 -0.0155  0.0614
 8681SOL    HW137676   4.445   3.130   5.477  0.2599  0.8464 -1.5971
 8681SOL    HW237677   4.429   3.063   5.341  1.2545 -0.1750  0.6571
 8682SOL     OW37678   2.773   2.059  15.873 -0.0656  0.4255 -0.2675
 8682SOL    HW137679   2.722   2.013  15.806 -2.5246  0.5770  1.4968
 8682SOL    HW237680   2.701   2.110  15.909 -0.1151 -0.3534  0.7362
 8683SOL     OW37681   4.539   1.165   3.090 -0.0551  0.4409  0.3685
 8683SOL    HW137682   4.469   1.146   3.153  0.1209  0.0635  0.4487
 8683SOL    HW237683   4.504   1.230   3.029 -1.3399 -0.2320  0.3905
 8684SOL     OW37684   2.614   0.189   2.653  0.5360  0.3440  0.1288
 8684SOL    HW137685   2.599   0.281   2.631 -0.6909  0.6362  2.1607
 8684SOL    HW237686   2.603   0.185   2.749  1.7768 -1.2009  0.1975
 8685SOL     OW37687   0.042   3.753  11.410  0.0872 -0.6603 -0.0119
 8685SOL    HW137688   0.037   3.669  11.363  0.7467 -1.3776  1.1852
 8685SOL    HW237689   4.727   3.738  11.490 -0.7167 -0.5371 -0.4990
 8686SOL     OW37690   1.411   1.541  11.293  0.3984  0.1491 -0.2211
 8686SOL    HW137691   1.409   1.449  11.266  0.2047  0.0911 -0.0134
 8686SOL    HW237692   1.455   1.591  11.225  0.3119 -1.2357 -1.2969
 8687SOL     OW37693   1.824   3.918   6.472 -0.1318 -0.4199 -0.1332
 8687SOL    HW137694   1.860   3.860   6.405  2.3228  2.7815 -1.6412
 8687SOL    HW237695   1.763   3.854   6.509 -0.9793 -0.9125 -2.4105
 8688SOL     OW37696   3.893   4.186   4.803  0.5933  0.6850 -0.1302
 8688SOL    HW137697   3.822   4.157   4.745  0.4502  2.0212 -0.6355
 8688SOL    HW237698   3.899   4.110   4.861 -1.6943  0.6914  0.1033
 8689SOL     OW37699   0.927   1.873   8.899  0.1463 -0.7028 -0.2020
 8689SOL    HW137700   0.869   1.797   8.902 -1.3513  0.4595  0.5256
 8689SOL    HW237701   0.859   1.941   8.902  0.8779  0.0641 -1.1851
 8690SOL     OW37702   4.219   1.858   9.733  0.0147 -0.6699 -0.5750
 8690SOL    HW137703   4.196   1.914   9.808  0.2422 -1.3897  0.0369
 8690SOL    HW237704   4.253   1.917   9.666  0.5407  1.5772  1.6653
 8691SOL     OW37705   3.815   1.249  13.632  0.2458 -0.5283 -0.4029
 8691SOL    HW137706   3.757   1.243  13.557 -1.3949  1.2534  0.7391
 8691SOL    HW237707   3.784   1.333  13.666  2.9428 -0.1008  0.9968
 8692SOL     OW37708   0.865   0.439   5.196  0.7923 -0.3531  0.7224
 8692SOL    HW137709   0.819   0.405   5.273 -1.1413 -0.3131 -0.4235
 8692SOL    HW237710   0.837   0.530   5.207  3.5952  0.8061 -1.6542
 8693SOL     OW37711   0.916   3.446  17.321  0.4933 -0.3175 -0.2577
 8693SOL    HW137712   0.944   3.361  17.287  2.1356  0.3829 -0.6582
 8693SOL    HW237713   0.864   3.484  17.250  1.0373  0.7666 -0.0724
 8694SOL     OW37714   0.727   3.291  16.111 -0.0241  0.4028 -0.4149
 8694SOL    HW137715   0.754   3.330  16.028 -1.4045 -3.6950 -2.7785
 8694SOL    HW237716   0.803   3.241  16.141  0.9098  1.6754 -0.6411
 8695SOL     OW37717   2.391   2.656   6.815  0.0672 -0.3991  0.1124
 8695SOL    HW137718   2.376   2.604   6.735 -2.1371 -1.8507  1.4663
 8695SOL    HW237719   2.330   2.729   6.798 -1.6560 -1.9016 -0.2120
 8696SOL     OW37720   2.056   2.621   4.330  0.6123  0.2727  1.2965
 8696SOL    HW137721   2.125   2.571   4.372  1.0721 -0.1056  0.0707
 8696SOL    HW237722   1.992   2.566   4.285  1.5951 -0.0896  0.3468
 8697SOL     OW37723   4.602   4.685   5.595 -0.1878 -0.1313 -0.4575
 8697SOL    HW137724   4.655   4.674   5.674  0.7615 -0.2897 -1.1193
 8697SOL    HW237725   4.531   0.004   5.627 -1.5265 -1.2967 -1.4522
 8698SOL     OW37726   4.724   1.718  15.361  0.0215 -0.4589 -0.6627
 8698SOL    HW137727   0.051   1.731  15.290  0.9219  1.2667  0.4548
 8698SOL    HW237728   4.710   1.623  15.366  0.4425 -0.5114 -0.5213
 8699SOL     OW37729   2.718   4.537   4.634 -0.0329  0.3931 -0.4243
 8699SOL    HW137730   2.727   4.552   4.728  0.4820  0.0045 -0.4095
 8699SOL    HW237731   2.624   4.526   4.620  0.2370 -0.9826 -1.1489
 8700SOL     OW37732   3.895   2.607   6.178 -0.3794 -0.1758 -0.9000
 8700SOL    HW137733   3.826   2.652   6.225 -0.0460  1.0575 -1.5966
 8700SOL    HW237734   3.945   2.678   6.138 -1.6756  1.3527  0.2044
 8701SOL     OW37735   1.608   1.830   2.486 -0.3157 -0.5577  0.1123
 8701SOL    HW137736   1.580   1.760   2.544 -1.1886  0.2821  0.7042
 8701SOL    HW237737   1.522   1.838   2.445  0.6938 -0.2238 -1.9626
 8702SOL     OW37738   3.358   3.618   8.320 -0.3586 -0.2972 -0.0295
 8702SOL    HW137739   3.263   3.618   8.307 -0.4822  0.4088  0.9260
 8702SOL    HW237740   3.375   3.636   8.227 -0.1828  0.6249  0.1852
 8703SOL     OW37741   1.663   3.647   5.000  0.8330  0.0833  0.0507
 8703SOL    HW137742   1.729   3.587   5.033  1.3366 -0.2229 -1.4934
 8703SOL    HW237743   1.708   3.724   5.034 -1.3738  0.3047  2.4282
 8704SOL     OW37744   1.941   3.129   6.166  0.3618  0.7479  0.1591
 8704SOL    HW137745   1.961   3.195   6.233  1.2279  0.8405 -0.1902
 8704SOL    HW237746   1.887   3.061   6.207  0.4404  0.8157  0.3797
 8705SOL     OW37747   0.973   3.436  11.632 -0.0716  0.3428  0.1903
 8705SOL    HW137748   0.914   3.510  11.648 -3.5371 -2.0627 -1.2813
 8705SOL    HW237749   0.987   3.442  11.538  1.2414  0.7304  0.4199
 8706SOL     OW37750   3.415   0.410  17.555  0.0955  0.3476  0.0581
 8706SOL    HW137751   3.475   0.482  17.534  1.7400 -1.0565 -0.0123
 8706SOL    HW237752   3.447   0.394  17.644  0.3548 -0.0448 -0.1096
 8707SOL     OW37753   3.250   1.570   5.618  0.4114  0.6004 -0.3756
 8707SOL    HW137754   3.283   1.660   5.614  0.0890  0.6604 -1.5649
 8707SOL    HW237755   3.277   1.548   5.529  2.6500  1.6452  0.0202
 8708SOL     OW37756   1.002   4.691  16.932 -0.4477 -0.0759  0.3269
 8708SOL    HW137757   0.974   4.652  16.849  1.7078  0.8565 -0.8311
 8708SOL    HW237758   0.915   4.720  16.960  0.3880  2.7019  0.0158
 8709SOL     OW37759   2.800   2.983  11.474  0.6208 -0.5991  0.4412
 8709SOL    HW137760   2.869   3.023  11.527  0.0235  4.1628 -2.3040
 8709SOL    HW237761   2.837   2.900  11.442  2.6974  0.3656  0.3199
 8710SOL     OW37762   4.645   2.359   1.935  0.2215 -0.0047  0.0749
 8710SOL    HW137763   4.683   2.273   1.952  1.6960  0.6194 -0.0578
 8710SOL    HW237764   4.586   2.371   2.009  1.7440 -0.4661  1.3467
 8711SOL     OW37765   3.674   0.038   9.197  0.0941 -0.5077 -0.0868
 8711SOL    HW137766   3.735   4.721   9.146  0.1756 -0.2664 -0.2423
 8711SOL    HW237767   3.699   0.117   9.150 -2.2519  0.1111 -0.2794
 8712SOL     OW37768   2.995   3.559   9.545  0.0070  0.0559  0.4019
 8712SOL    HW137769   2.978   3.587   9.455 -0.3669  0.9080  0.7354
 8712SOL    HW237770   3.052   3.632   9.569 -1.1275  0.9508  0.3752
 8713SOL     OW37771   4.439   1.726   5.133  0.9606 -0.0235  0.0707
 8713SOL    HW137772   4.428   1.716   5.227 -0.8950  1.7345  0.0239
 8713SOL    HW237773   4.364   1.783   5.116  0.6784 -0.7581 -1.1746
 8714SOL     OW37774   3.489   1.626   6.407 -0.1882  1.2081 -0.2100
 8714SOL    HW137775   3.512   1.542   6.366 -1.4984  2.1167 -2.7893
 8714SOL    HW237776   3.560   1.636   6.471 -1.2498 -1.0969  1.3192
 8715SOL     OW37777   4.459   0.729   4.666  0.6688 -0.0374  0.1395
 8715SOL    HW137778   4.457   0.646   4.713 -0.1373  0.1295  0.4032
 8715SOL    HW237779   4.550   0.751   4.645  0.3045  0.1253 -1.2563
 8716SOL     OW37780   3.121   2.002   2.975 -0.7353  0.0662 -0.0129
 8716SOL    HW137781   3.036   2.044   2.961  0.1703  1.7413 -0.4713
 8716SOL    HW237782   3.117   1.917   2.931 -2.9979  0.5004 -0.6627
 8717SOL     OW37783   3.482   4.550   7.038  0.1482 -0.2104  0.3785
 8717SOL    HW137784   3.539   4.586   7.107 -1.4979  0.3570  1.4575
 8717SOL    HW237785   3.548   4.539   6.970  0.8606  1.7707  0.7433
 8718SOL     OW37786   1.948   3.033   3.176 -0.3150 -0.4079 -0.7554
 8718SOL    HW137787   2.003   3.022   3.253  0.1117 -1.2415 -1.1889
 8718SOL    HW237788   1.870   3.082   3.204 -0.2144  0.2080 -1.5436
 8719SOL     OW37789   3.985   2.909   5.830 -0.0074 -0.3464 -0.1470
 8719SOL    HW137790   3.901   2.924   5.873 -1.6337  0.0261 -3.4224
 8719SOL    HW237791   3.994   2.817   5.806  1.2266 -0.7094  1.7638
 8720SOL     OW37792   4.535   1.952   0.358  0.0785 -0.0232 -0.0487
 8720SOL    HW137793   4.444   1.982   0.350  0.3292  0.1979 -1.9927
 8720SOL    HW237794   4.512   1.859   0.365 -0.8554  0.2071  0.0365
 8721SOL     OW37795   3.276   3.958  13.079 -0.1575  0.0231  0.0491
 8721SOL    HW137796   3.365   3.928  13.098 -0.0174  1.1987  1.3047
 8721SOL    HW237797   3.295   4.050  13.098  0.1031  0.1827 -0.9951
 8722SOL     OW37798   4.646   1.420  10.163  0.1863  0.0556  0.1936
 8722SOL    HW137799   4.567   1.460  10.127 -1.0275 -1.9656  0.5939
 8722SOL    HW237800   4.626   1.442  10.253  1.3938  3.2883 -0.3426
 8723SOL     OW37801   4.403   0.830   2.372  0.0292  0.3040 -0.0964
 8723SOL    HW137802   4.400   0.742   2.410 -1.0557  0.4406  0.1398
 8723SOL    HW237803   4.495   0.856   2.365 -0.2269  1.1724 -0.2334
 8724SOL     OW37804   2.676   2.193   2.296  0.2678  1.0253  0.2058
 8724SOL    HW137805   2.699   2.125   2.233  1.2682  0.6397  0.9861
 8724SOL    HW237806   2.628   2.258   2.244  1.0236  2.2244  1.0186
 8725SOL     OW37807   0.981   2.003   1.896  0.0732 -0.1175 -0.4738
 8725SOL    HW137808   0.891   2.032   1.880  0.2095  0.2461 -0.5687
 8725SOL    HW237809   0.964   1.909   1.896  1.1091 -0.2964  0.4646
 8726SOL     OW37810   2.494   1.521   7.460 -0.4151 -0.5829  0.2319
 8726SOL    HW137811   2.467   1.474   7.539  2.2363  0.3751  1.7018
 8726SOL    HW237812   2.409   1.537   7.417  1.2653  3.1137 -1.7174
 8727SOL     OW37813   1.425   2.878   3.435  0.1740 -0.4911  0.1358
 8727SOL    HW137814   1.466   2.838   3.512 -1.4344 -1.8643  0.2730
 8727SOL    HW237815   1.444   2.815   3.365  1.5362 -1.1088  1.0661
 8728SOL     OW37816   0.251   3.174  16.511  0.3662  0.6300  0.1949
 8728SOL    HW137817   0.191   3.246  16.492  0.2449  0.5011  0.0913
 8728SOL    HW237818   0.224   3.116  16.439  0.7641  0.9082 -0.1792
 8729SOL     OW37819   3.013   1.639   9.250  0.3779 -0.3378 -0.5099
 8729SOL    HW137820   2.920   1.634   9.227  0.2978  1.1466 -0.5345
 8729SOL    HW237821   3.039   1.547   9.252 -0.5454 -0.5848  0.2388
 8730SOL     OW37822   4.104   3.889   0.838 -0.4777  0.1020  0.5999
 8730SOL    HW137823   4.140   3.817   0.891 -0.8047 -0.1177  0.5234
 8730SOL    HW237824   4.188   3.932   0.829 -1.1221  0.9326 -1.3418
 8731SOL     OW37825   3.993   2.130   7.479  0.2095  0.1190  0.5703
 8731SOL    HW137826   4.065   2.182   7.443 -0.5156  0.8452  0.1424
 8731SOL    HW237827   3.973   2.168   7.565 -1.6774 -0.6311  0.4567
 8732SOL     OW37828   3.736   3.728   1.849  0.3327  0.2834 -0.1833
 8732SOL    HW137829   3.740   3.639   1.884 -0.1205  0.7916  1.1767
 8732SOL    HW237830   3.697   3.768   1.927 -0.0931 -1.1273  0.3299
 8733SOL     OW37831   3.534   3.129   9.306 -0.3424 -0.1874 -1.2615
 8733SOL    HW137832   3.484   3.081   9.241 -3.9677 -1.1302  2.2682
 8733SOL    HW237833   3.584   3.183   9.244  0.4084 -0.9065 -1.2903
 8734SOL     OW37834   4.033   3.422   4.658 -0.6111 -0.0757  0.1587
 8734SOL    HW137835   3.970   3.451   4.592  0.3367  1.0329 -0.2655
 8734SOL    HW237836   4.040   3.328   4.643 -0.8313  0.1796 -1.4712
 8735SOL     OW37837   1.618   2.545   2.431  0.3012  0.0274 -0.4703
 8735SOL    HW137838   1.590   2.629   2.395 -1.0981 -1.3596 -2.6296
 8735SOL    HW237839   1.662   2.579   2.509 -1.5987 -1.6391  1.3446
 8736SOL     OW37840   3.539   2.269   2.348  0.1238  0.0808 -1.0960
 8736SOL    HW137841   3.496   2.258   2.433  1.2081  2.6931 -0.2188
 8736SOL    HW237842   3.492   2.209   2.290 -0.6900 -1.1333  0.8091
 8737SOL     OW37843   1.941   2.765   7.586 -0.6012 -0.1989  0.1546
 8737SOL    HW137844   1.865   2.720   7.623  0.0305 -1.0138  0.4756
 8737SOL    HW237845   2.025   2.722   7.602  0.1912  1.2037 -0.2165
 8738SOL     OW37846   3.230   4.679   7.263 -0.0570 -0.2591  0.3062
 8738SOL    HW137847   3.237   4.600   7.317  1.2112 -1.0410 -1.0167
 8738SOL    HW237848   3.256   0.012   7.325 -1.3789  0.2906  0.2521
 8739SOL     OW37849   0.310   1.894  11.676 -0.1160 -0.0294  0.2584
 8739SOL    HW137850   0.272   1.810  11.702 -0.7886  0.7514  1.7702
 8739SOL    HW237851   0.405   1.883  11.686  0.1492  0.6283 -1.4598
 8740SOL     OW37852   3.914   3.353   1.220 -0.3089  0.4774 -0.0642
 8740SOL    HW137853   3.851   3.382   1.286  2.2750  1.8039  1.8286
 8740SOL    HW237854   3.952   3.277   1.264 -0.1487  0.5062 -0.1525
 8741SOL     OW37855   4.161   2.248  11.346  0.8031  0.7597 -0.4869
 8741SOL    HW137856   4.185   2.241  11.254 -2.0017  0.6037 -1.2155
 8741SOL    HW237857   4.093   2.315  11.341  0.2743  0.0932 -2.1052
 8742SOL     OW37858   3.856   3.429   5.770 -0.2499  0.1874  0.2137
 8742SOL    HW137859   3.926   3.490   5.795 -2.2673  2.2121  0.9156
 8742SOL    HW237860   3.861   3.454   5.678  0.6019 -1.3127 -0.1488
 8743SOL     OW37861   2.463   0.343   7.349  1.0022  0.1167  0.0095
 8743SOL    HW137862   2.437   0.285   7.277 -0.9519  0.3605  0.5202
 8743SOL    HW237863   2.544   0.381   7.315  0.7813 -0.7103 -1.4407
 8744SOL     OW37864   4.329   4.452   6.308 -0.0699 -0.4897  0.6549
 8744SOL    HW137865   4.335   4.360   6.333 -1.3984 -0.4621  1.0541
 8744SOL    HW237866   4.237   4.460   6.285  0.8909  3.0189 -1.9968
 8745SOL     OW37867   3.277   1.526   7.751 -0.1059 -0.3078 -0.2168
 8745SOL    HW137868   3.252   1.590   7.684 -0.6441  0.4477  0.6995
 8745SOL    HW237869   3.219   1.558   7.820  1.0356 -2.1599  1.6142
 8746SOL     OW37870   4.275   3.512   4.503  0.1986 -0.2849 -0.1118
 8746SOL    HW137871   4.216   3.471   4.566  0.3304 -0.9168 -0.3923
 8746SOL    HW237872   4.225   3.506   4.422  1.4002 -0.7813 -0.8165
 8747SOL     OW37873   2.212   3.405   7.935 -0.4351  0.1193  0.0008
 8747SOL    HW137874   2.300   3.368   7.935 -0.0277  1.1004 -2.4974
 8747SOL    HW237875   2.168   3.325   7.962 -1.7369  1.2248  1.1906
 8748SOL     OW37876   1.610   0.783   6.605  0.4707  0.3977 -0.5391
 8748SOL    HW137877   1.635   0.871   6.576 -1.3450  1.9872  2.7930
 8748SOL    HW237878   1.625   0.734   6.524  1.1236  1.3710 -1.0094
 8749SOL     OW37879   3.141   1.126   6.074  0.0311  0.3483  0.5258
 8749SOL    HW137880   3.225   1.148   6.115  0.0567  0.8669  0.1887
 8749SOL    HW237881   3.081   1.148   6.145 -0.8075  1.1753 -0.4329
 8750SOL     OW37882   4.498   0.964  15.871  0.4957 -0.0267  0.8619
 8750SOL    HW137883   4.473   1.056  15.863  1.3653  0.1949  0.7529
 8750SOL    HW237884   4.586   0.968  15.835  0.0523 -0.1837 -0.2530
 8751SOL     OW37885   3.543   2.301   7.119  0.0881  0.0886  0.3556
 8751SOL    HW137886   3.607   2.242   7.158  0.0812 -1.1872 -1.5474
 8751SOL    HW237887   3.583   2.388   7.117  2.2656 -0.9563 -2.6028
 8752SOL     OW37888   0.430   1.178  13.367 -0.1605  0.1163  0.2700
 8752SOL    HW137889   0.410   1.139  13.282  0.9750  0.7662 -0.2952
 8752SOL    HW237890   0.519   1.210  13.355 -0.4762  0.9580  0.1791
 8753SOL     OW37891   4.577   3.669  17.405 -0.6122  0.0847 -0.1252
 8753SOL    HW137892   4.618   3.675  17.319  0.6488 -0.7132  0.4297
 8753SOL    HW237893   4.636   3.727  17.452 -2.6773  1.7528  0.4098
 8754SOL     OW37894   0.502   4.336   7.933  0.2113 -0.2857  0.3816
 8754SOL    HW137895   0.432   4.298   7.880  1.8112 -2.6314 -0.0346
 8754SOL    HW237896   0.460   4.329   8.019  1.9931  1.3151  1.3657
 8755SOL     OW37897   2.320   0.206   3.406  0.1267 -0.1292  0.3711
 8755SOL    HW137898   2.272   0.247   3.479  1.0729  2.0351 -0.2199
 8755SOL    HW237899   2.253   0.179   3.343  0.3647 -1.7356  0.8049
 8756SOL     OW37900   2.409   2.612  15.894 -0.2826 -0.0517 -0.2619
 8756SOL    HW137901   2.377   2.672  15.826 -2.4854  0.2277  1.0197
 8756SOL    HW237902   2.336   2.600  15.955 -1.3826  1.9704 -1.1922
 8757SOL     OW37903   3.533   1.846   8.611 -0.2978 -0.1272  0.1553
 8757SOL    HW137904   3.589   1.769   8.618  0.8962  0.4953 -2.3964
 8757SOL    HW237905   3.594   1.912   8.576  1.1865 -1.9639 -0.7151
 8758SOL     OW37906   2.373   2.078   5.071  0.3592 -0.6076 -0.0870
 8758SOL    HW137907   2.403   2.110   4.986 -1.4572 -2.2254 -1.3116
 8758SOL    HW237908   2.442   2.013   5.085 -0.2973 -0.9813  1.4423
 8759SOL     OW37909   0.692   0.101   5.151  0.2855  0.0364 -0.2020
 8759SOL    HW137910   0.645   0.127   5.072  1.3452  1.7203 -0.2766
 8759SOL    HW237911   0.687   0.174   5.212 -0.7780  1.8586 -2.4772
 8760SOL     OW37912   2.677   3.944   7.225  0.6303 -0.1659  0.0832
 8760SOL    HW137913   2.702   4.004   7.295  3.2308  0.6741 -1.5712
 8760SOL    HW237914   2.590   3.976   7.201  1.5527  2.8779  0.7152
 8761SOL     OW37915   4.135   4.351   3.723 -0.0012  0.2944  0.4202
 8761SOL    HW137916   4.135   4.267   3.770 -4.3090  0.9255  1.5399
 8761SOL    HW237917   4.217   4.394   3.745 -0.4275  1.9526 -1.2201
 8762SOL     OW37918   0.173   3.796  16.510  0.2919 -0.3712 -0.2659
 8762SOL    HW137919   0.200   3.871  16.562 -0.1096 -1.3646  1.3834
 8762SOL    HW237920   0.228   3.722  16.537  0.8441 -0.7615 -2.4801
 8763SOL     OW37921   0.621   2.570   8.260  0.4894  0.2615  0.2297
 8763SOL    HW137922   0.601   2.495   8.204  3.1881  0.6746 -1.3035
 8763SOL    HW237923   0.566   2.631   8.211 -1.1637 -0.6590  0.9255
 8764SOL     OW37924   3.607   0.102   9.445 -0.0988 -0.0436  0.5986
 8764SOL    HW137925   3.576   0.193   9.446 -2.4339 -0.8469  1.0278
 8764SOL    HW237926   3.624   0.082   9.352 -1.8279 -0.7656  0.4393
 8765SOL     OW37927   3.621   2.947   7.935  0.2041  0.0416 -0.0832
 8765SOL    HW137928   3.666   2.864   7.949  2.5399  1.2519 -0.3588
 8765SOL    HW237929   3.694   3.004   7.910 -0.2875  1.2431  1.1759
 8766SOL     OW37930   3.976   1.922  16.954  0.5994 -0.2142 -0.3082
 8766SOL    HW137931   3.995   1.829  16.942 -0.0730 -0.6575  1.8738
 8766SOL    HW237932   4.056   1.949  16.998  0.1054 -1.4103  1.3537
 8767SOL     OW37933   3.503   0.921   1.797 -0.2346  0.2487 -0.1495
 8767SOL    HW137934   3.558   0.930   1.720  0.4107 -0.5753  0.2135
 8767SOL    HW237935   3.512   0.999   1.852 -0.2877  2.0382 -2.6917
 8768SOL     OW37936   3.249   1.514  13.295 -0.1940 -0.6796 -0.0011
 8768SOL    HW137937   3.340   1.484  13.296 -0.1035 -0.3938  0.3605
 8768SOL    HW237938   3.214   1.437  13.339  0.9663 -0.8221  0.6756
 8769SOL     OW37939   1.724   1.239  13.634  0.4006  0.5097  0.3260
 8769SOL    HW137940   1.791   1.299  13.603  0.0911  0.2709 -0.7984
 8769SOL    HW237941   1.652   1.300  13.621  0.8861  1.3095  1.3949
 8770SOL     OW37942   0.181   4.288   7.650  0.1553 -0.1686  0.0114
 8770SOL    HW137943   0.195   4.383   7.645 -0.3977  0.0275  1.8946
 8770SOL    HW237944   0.184   4.278   7.746 -1.8021 -0.1156  0.0673
 8771SOL     OW37945   3.960   2.021   1.402 -0.7815 -0.1986 -0.0408
 8771SOL    HW137946   3.910   2.101   1.384 -1.2795 -0.4821  0.0615
 8771SOL    HW237947   3.990   1.986   1.318  0.5729  0.4465  0.1769
 8772SOL     OW37948   4.363   3.220   6.215  0.6097  0.3691 -0.0320
 8772SOL    HW137949   4.297   3.269   6.165  0.1200 -1.1137 -0.8366
 8772SOL    HW237950   4.385   3.287   6.280 -1.2228 -0.7183  1.7081
 8773SOL     OW37951   1.335   1.843   8.386  0.1041 -0.6920 -0.1177
 8773SOL    HW137952   1.402   1.814   8.448 -2.0154 -0.0698  2.4930
 8773SOL    HW237953   1.316   1.928   8.428  1.9816 -0.4181  0.1734
 8774SOL     OW37954   0.569   3.026   5.168 -0.7387  0.2419 -0.0526
 8774SOL    HW137955   0.627   3.056   5.238 -0.2079  3.2451 -1.7489
 8774SOL    HW237956   0.619   2.952   5.132 -0.2240  0.7153 -0.3144
 8775SOL     OW37957   3.540   0.693   1.542 -0.2488 -0.2630 -0.5059
 8775SOL    HW137958   3.621   0.743   1.528 -1.3797  1.8173  0.5212
 8775SOL    HW237959   3.581   0.608   1.562  2.4156  0.7859 -1.4753
 8776SOL     OW37960   4.609   3.626   8.188  0.3867  0.3739  0.1234
 8776SOL    HW137961   4.645   3.693   8.247  0.5533 -0.4459  0.9618
 8776SOL    HW237962   4.667   3.636   8.113  1.1217  2.3996  0.9600
 8777SOL     OW37963   3.676   3.308  10.491  0.1208  0.5538  0.2625
 8777SOL    HW137964   3.727   3.239  10.449  0.4778  1.8354 -1.4043
 8777SOL    HW237965   3.738   3.369  10.531  2.6522 -0.6828 -1.7816
 8778SOL     OW37966   0.253   3.380  14.520  0.1061 -0.3647 -0.1874
 8778SOL    HW137967   0.232   3.439  14.592  1.0658  0.9474 -0.9779
 8778SOL    HW237968   0.340   3.414  14.496  0.1826  0.4332  1.1998
 8779SOL     OW37969   1.069   4.287   9.103 -0.3067  0.3587  0.2827
 8779SOL    HW137970   1.092   4.209   9.053  0.3232 -0.0366  1.1969
 8779SOL    HW237971   1.137   4.289   9.170  0.9007 -1.1587 -0.8965
 8780SOL     OW37972   3.665   3.894  15.408 -0.2451  0.3988  0.4558
 8780SOL    HW137973   3.713   3.813  15.388  1.4084  1.7386 -0.9582
 8780SOL    HW237974   3.645   3.876  15.500 -0.4346  0.4595  0.4268
 8781SOL     OW37975   1.548   2.005   9.240 -0.0287 -0.1575 -0.0237
 8781SOL    HW137976   1.458   1.974   9.229  0.2913 -0.5415 -1.5868
 8781SOL    HW237977   1.604   1.929   9.251  0.0163 -0.0233  0.6756
 8782SOL     OW37978   2.943   4.305   4.636  0.5846  0.6414 -0.3107
 8782SOL    HW137979   2.917   4.263   4.718 -2.1334  0.4116 -1.2918
 8782SOL    HW237980   2.865   4.351   4.606  0.1870  0.4653  0.4396
 8783SOL     OW37981   4.735   3.722   4.305 -0.4668  0.2805  0.0731
 8783SOL    HW137982   0.080   3.715   4.254 -0.2105 -2.1952  0.8216
 8783SOL    HW237983   0.029   3.774   4.380  0.7679  0.3014 -0.4399
 8784SOL     OW37984   4.623   2.177   8.490 -0.0984 -0.6922 -0.4293
 8784SOL    HW137985   4.668   2.105   8.535 -0.2715 -0.8867 -0.5644
 8784SOL    HW237986   4.585   2.133   8.414 -0.6009  0.2099 -0.7006
 8785SOL     OW37987   4.148   3.043   8.544  0.1956 -0.2148  0.4047
 8785SOL    HW137988   4.077   3.078   8.490 -0.1414 -1.4041  0.0624
 8785SOL    HW237989   4.102   2.983   8.603 -0.9518  0.2926  0.0280
 8786SOL     OW37990   2.310   3.513   2.610  0.7294 -0.7355 -0.2971
 8786SOL    HW137991   2.260   3.531   2.530 -1.2725 -0.3316  1.0461
 8786SOL    HW237992   2.350   3.600   2.621  2.2116 -1.6029  1.1188
 8787SOL     OW37993   4.454   2.602   5.305  0.5485  0.0170 -0.0065
 8787SOL    HW137994   4.375   2.588   5.358  1.2331 -1.5121  0.6086
 8787SOL    HW237995   4.447   2.528   5.244  0.2892 -0.9060  1.1385
 8788SOL     OW37996   3.819   1.425   6.537  0.7446 -0.0258 -0.7192
 8788SOL    HW137997   3.781   1.415   6.624  1.8241 -0.9880 -0.3710
 8788SOL    HW237998   3.825   1.520   6.525  1.9418  0.0131  0.2893
 8789SOL     OW37999   3.615   0.573  10.494  0.0997  0.7520  0.6118
 8789SOL    HW138000   3.539   0.560  10.551 -0.1331 -0.8686 -0.0601
 8789SOL    HW238001   3.685   0.603  10.551  2.4301  1.5662 -2.6923
 8790SOL     OW38002   0.140   3.625   2.891  0.8160 -0.1806 -0.1140
 8790SOL    HW138003   0.174   3.695   2.836 -0.9715  0.5254 -0.3319
 8790SOL    HW238004   0.046   3.634   2.874  0.5033 -0.5934  1.4356
 8791SOL     OW38005   0.799   1.564  10.574  0.3384 -0.2489 -1.0190
 8791SOL    HW138006   0.879   1.608  10.543  0.7960  0.0451  0.5747
 8791SOL    HW238007   0.836   1.517  10.649 -1.5399  0.0036  0.0610
 8792SOL     OW38008   4.586   2.469  14.269  0.1331  0.4205  0.0721
 8792SOL    HW138009   4.645   2.409  14.314 -0.1401 -0.0005 -0.1273
 8792SOL    HW238010   4.641   2.547  14.258 -1.0654  1.1459 -0.8320
 8793SOL     OW38011   3.267   0.587   4.301  0.6986 -0.1711 -0.1125
 8793SOL    HW138012   3.177   0.566   4.276  0.8832 -0.0827 -0.8745
 8793SOL    HW238013   3.256   0.679   4.325  0.5144  0.5786 -3.0479
 8794SOL     OW38014   1.631   4.265   8.765 -0.1485 -0.4554 -0.4846
 8794SOL    HW138015   1.629   4.170   8.758  1.4829 -0.6771  1.9957
 8794SOL    HW238016   1.707   4.277   8.822 -0.2717 -1.3480 -0.1376
 8795SOL     OW38017   3.564   0.461   0.029 -0.2256 -0.2383 -0.6538
 8795SOL    HW138018   3.521   0.539   0.062  2.9023  0.8476  0.7868
 8795SOL    HW238019   3.625   0.432   0.096 -2.0221  2.7030  2.1921
 8796SOL     OW38020   1.309   2.538   2.229  0.3233  0.2660  0.2311
 8796SOL    HW138021   1.360   2.618   2.240 -0.7382  0.8687  0.7072
 8796SOL    HW238022   1.375   2.472   2.205  0.6314  0.5643  0.2493
 8797SOL     OW38023   0.828   1.158   7.944  0.5242  0.0537 -0.0758
 8797SOL    HW138024   0.882   1.179   8.019 -0.5510 -1.0566  1.0006
 8797SOL    HW238025   0.817   1.063   7.948 -0.1855  0.1029 -0.7320
 8798SOL     OW38026   1.199   2.103   1.747 -0.4606  0.0340 -0.0262
 8798SOL    HW138027   1.113   2.067   1.770 -0.1031 -1.1429 -0.5330
 8798SOL    HW238028   1.256   2.040   1.791  0.2429  0.1791 -0.7251
 8799SOL     OW38029   2.875   3.643   2.697  0.0629 -0.4872  0.0701
 8799SOL    HW138030   2.968   3.635   2.718  0.0809 -0.2721  0.0740
 8799SOL    HW238031   2.846   3.705   2.763 -0.5123 -0.3595 -0.3010
 8800SOL     OW38032   4.034   3.741   4.383 -0.0871 -0.4172 -0.5863
 8800SOL    HW138033   4.098   3.738   4.311  0.9783  0.7837  0.3176
 8800SOL    HW238034   4.083   3.773   4.459  1.0446 -1.0774 -1.0401
 8801SOL     OW38035   4.332   0.260   8.951 -0.5398 -0.0533 -0.0547
 8801SOL    HW138036   4.354   0.302   8.867 -0.4819  0.3148  0.1435
 8801SOL    HW238037   4.418   0.217   8.952 -0.0701  0.8731  0.3939
 8802SOL     OW38038   1.930   0.481  13.367 -0.3633 -0.5233 -0.2219
 8802SOL    HW138039   1.887   0.421  13.427 -0.8579 -0.4482 -0.5049
 8802SOL    HW238040   1.854   0.526  13.329  0.9038  2.2062  0.4380
 8803SOL     OW38041   4.439   0.009  17.193 -0.3340  0.2302 -0.1495
 8803SOL    HW138042   4.502   4.685  17.233  0.8504  2.2758  1.0432
 8803SOL    HW238043   4.487   0.064  17.131  0.1122  1.0479  0.9107
 8804SOL     OW38044   2.134   3.553   9.222  0.4326 -0.0540 -0.1554
 8804SOL    HW138045   2.164   3.605   9.148  1.0489 -1.6689 -1.0363
 8804SOL    HW238046   2.066   3.607   9.263  1.9388  1.7168  0.0022
 8805SOL     OW38047   1.691   0.646   1.668  0.1425  0.0952  0.6224
 8805SOL    HW138048   1.668   0.584   1.599 -0.0066  0.2939  0.4949
 8805SOL    HW238049   1.607   0.659   1.712  0.7634  0.7601  1.6083
 8806SOL     OW38050   1.607   0.213  11.846  0.1865  0.0646 -0.2724
 8806SOL    HW138051   1.622   0.308  11.848  0.7841 -0.0388  0.2934
 8806SOL    HW238052   1.593   0.196  11.753 -1.2653 -2.0704  0.3510
 8807SOL     OW38053   4.341   1.654   6.908  0.1811  0.0639 -0.0686
 8807SOL    HW138054   4.380   1.586   6.854  0.8269  0.8575 -0.6087
 8807SOL    HW238055   4.249   1.649   6.882  0.6923  1.7345 -2.1966
 8808SOL     OW38056   3.017   2.343   2.722 -0.4213  0.2224  0.2876
 8808SOL    HW138057   3.002   2.336   2.628  0.3890  1.0830  0.1045
 8808SOL    HW238058   3.048   2.432   2.734  0.0170 -0.3172  3.1840
 8809SOL     OW38059   3.895   4.664  17.051  0.1691 -0.8265  0.0863
 8809SOL    HW138060   3.870   0.020  17.051  2.7054 -0.1251  1.3036
 8809SOL    HW238061   3.951   4.670  17.129  2.4980 -0.4424 -1.5874
 8810SOL     OW38062   3.709   4.506   6.881  0.1584  0.2431  0.4327
 8810SOL    HW138063   3.701   4.411   6.871  2.7056  0.0839 -0.2092
 8810SOL    HW238064   3.803   4.508   6.902  0.4883 -1.1575 -0.8883
 8811SOL     OW38065   2.646   1.534   6.762 -0.0585 -0.9247  0.3166
 8811SOL    HW138066   2.566   1.535   6.709  0.2880  0.1862 -0.1819
 8811SOL    HW238067   2.706   1.521   6.688  0.8265 -0.7238  1.0016
 8812SOL     OW38068   3.242   3.128  10.244  0.3666 -0.0455 -0.1903
 8812SOL    HW138069   3.258   3.130  10.150  1.8675 -1.9974  0.0216
 8812SOL    HW238070   3.300   3.194  10.283 -0.3412 -0.1868  1.1078
 8813SOL     OW38071   0.136   3.612   3.680  0.0002 -0.1251 -0.0604
 8813SOL    HW138072   0.060   3.638   3.627 -0.7133  0.7253  1.3715
 8813SOL    HW238073   0.205   3.604   3.615  1.2510 -0.4736  1.3143
 8814SOL     OW38074   4.125   1.296   4.278  0.8584  0.4329 -0.0902
 8814SOL    HW138075   4.047   1.292   4.334  0.4904 -1.8519 -0.7567
 8814SOL    HW238076   4.133   1.391   4.283 -0.0549  0.5997 -2.0452
 8815SOL     OW38077   4.549   0.677   4.227  0.4727  0.4909 -0.1446
 8815SOL    HW138078   4.602   0.687   4.147  1.0811 -0.8319  0.0919
 8815SOL    HW238079   4.529   0.584   4.221 -1.3316  1.0483 -2.7520
 8816SOL     OW38080   3.325   0.103   9.803 -0.1793  0.8504 -0.4971
 8816SOL    HW138081   3.331   0.196   9.783 -1.3477  1.3397  1.3986
 8816SOL    HW238082   3.416   0.076   9.787  0.0059  0.9493  0.4125
 8817SOL     OW38083   1.222   0.498  11.617  0.1983 -1.1736 -0.1820
 8817SOL    HW138084   1.171   0.524  11.693  1.7262  0.6566  0.2300
 8817SOL    HW238085   1.179   0.543  11.545  0.9087 -1.6003 -0.8687
 8818SOL     OW38086   1.614   0.191   9.564  0.1187 -0.1012 -0.6465
 8818SOL    HW138087   1.623   0.280   9.598  0.9858 -0.1163 -0.8279
 8818SOL    HW238088   1.552   0.201   9.491  1.8802  2.6623 -1.7628
 8819SOL     OW38089   3.295   2.494   7.241  0.1940  0.1055 -0.3802
 8819SOL    HW138090   3.240   2.464   7.314 -0.5600 -0.6165 -1.2555
 8819SOL    HW238091   3.232   2.549   7.194  0.9786  0.7422 -0.6838
 8820SOL     OW38092   2.995   1.707   5.680 -0.4891 -0.1998 -0.0578
 8820SOL    HW138093   3.069   1.650   5.658 -3.1020 -3.0313 -1.5495
 8820SOL    HW238094   2.916   1.655   5.670 -0.8553  0.0514  1.5123
 8821SOL     OW38095   0.911   1.479   5.352  0.0419 -0.2867  0.1443
 8821SOL    HW138096   0.969   1.461   5.426  0.4734  1.4735  0.2422
 8821SOL    HW238097   0.861   1.552   5.387  0.5622  0.1951 -0.1166
 8822SOL     OW38098   2.481   2.815   5.621 -0.0544  0.0373  0.0389
 8822SOL    HW138099   2.454   2.747   5.684 -1.8386  1.0314  0.3446
 8822SOL    HW238100   2.574   2.814   5.641 -0.0551  2.3371  0.1403
 8823SOL     OW38101   0.330   2.610   4.109  0.3986  0.2912  0.5115
 8823SOL    HW138102   0.315   2.583   4.200  1.6186 -0.5582  0.4687
 8823SOL    HW238103   0.249   2.640   4.068  0.2543 -1.4486 -0.4707
 8824SOL     OW38104   1.672   2.865   6.012 -0.1849 -0.2543  0.1335
 8824SOL    HW138105   1.578   2.874   6.028 -0.4306 -1.6497 -0.5262
 8824SOL    HW238106   1.664   2.838   5.921  1.6638 -0.4409  0.0289
 8825SOL     OW38107   3.600   3.344   1.631 -0.1788 -0.2913 -0.1420
 8825SOL    HW138108   3.505   3.338   1.628 -0.3620  4.2167 -2.9371
 8825SOL    HW238109   3.633   3.344   1.541 -0.8313 -1.1536 -0.3865
 8826SOL     OW38110   3.325   3.357   1.618  0.3778 -0.7142 -0.2336
 8826SOL    HW138111   3.261   3.414   1.661  0.3679  1.5554 -3.3177
 8826SOL    HW238112   3.265   3.284   1.603  1.5277 -1.9007  0.9459
 8827SOL     OW38113   2.155   4.382   5.903  0.1090 -0.4901  0.5925
 8827SOL    HW138114   2.178   4.350   5.816 -2.2020  1.0196 -0.5877
 8827SOL    HW238115   2.222   4.339   5.955  0.4514  1.6910  1.9491
 8828SOL     OW38116   3.856   3.269   2.110  0.3223  0.3285 -0.4431
 8828SOL    HW138117   3.827   3.360   2.118  0.5080  0.4980 -1.7583
 8828SOL    HW238118   3.870   3.260   2.016  2.2545 -2.0239  0.0787
 8829SOL     OW38119   3.493   4.305   8.842 -0.1230  0.1950  0.0245
 8829SOL    HW138120   3.422   4.326   8.903 -2.0437 -1.0258 -1.7731
 8829SOL    HW238121   3.441   4.306   8.762 -1.4053  0.0242  0.8554
 8830SOL     OW38122   3.532   1.981  10.679  0.6329 -0.9622 -0.3043
 8830SOL    HW138123   3.517   1.991  10.773 -1.3811 -1.5551 -0.5761
 8830SOL    HW238124   3.445   1.985  10.639 -0.2630  1.2827  1.8755
 8831SOL     OW38125   1.672   4.021  14.891  0.2349  0.4034  0.0236
 8831SOL    HW138126   1.623   4.058  14.818  0.6150  0.0195 -0.4252
 8831SOL    HW238127   1.627   4.041  14.974 -0.2107  0.6797 -0.2855
 8832SOL     OW38128   0.586   1.539  17.547  0.1298  0.0822  0.4307
 8832SOL    HW138129   0.680   1.553  17.558  0.0781 -0.6586  1.8600
 8832SOL    HW238130   0.554   1.610  17.491  1.6823  0.6938  0.3056
 8833SOL     OW38131   1.657   0.078   6.257  0.6346 -0.3596 -0.0309
 8833SOL    HW138132   1.668   0.118   6.343 -0.0564 -0.6634  0.2007
 8833SOL    HW238133   1.743   0.095   6.219  0.3587 -0.5833 -0.7707
 8834SOL     OW38134   0.521   1.881   5.150 -0.2673 -0.2369 -0.0723
 8834SOL    HW138135   0.549   1.917   5.066 -0.5231 -0.1216 -0.1086
 8834SOL    HW238136   0.608   1.864   5.186  0.0523  0.8573 -0.3320
 8835SOL     OW38137   3.486   3.761   7.211 -0.3916 -0.2556  0.0409
 8835SOL    HW138138   3.434   3.839   7.229 -0.5422 -0.1663 -0.7802
 8835SOL    HW238139   3.498   3.777   7.117  2.0925  0.3861  0.4755
 8836SOL     OW38140   2.821   2.981   4.559  0.5387 -0.1608 -0.3131
 8836SOL    HW138141   2.869   2.899   4.549  0.5340 -0.4727  2.1692
 8836SOL    HW238142   2.890   3.037   4.524 -0.1445  0.4372 -0.6972
 8837SOL     OW38143   4.639   3.191   1.011 -0.9954 -0.0129  0.4483
 8837SOL    HW138144   4.625   3.104   0.976 -0.4008  0.4235 -0.8465
 8837SOL    HW238145   4.628   3.239   0.929 -1.1588 -0.1228  0.4061
 8838SOL     OW38146   1.106   1.700  14.926  0.0860  0.0086 -0.4562
 8838SOL    HW138147   1.048   1.727  14.854 -0.9026 -0.6174  0.1115
 8838SOL    HW238148   1.046   1.685  14.999  0.0072  0.5926 -0.3954
 8839SOL     OW38149   3.840   1.363   1.817  0.2187 -0.0068 -0.2335
 8839SOL    HW138150   3.876   1.440   1.773  1.7568  0.3157  1.5843
 8839SOL    HW238151   3.753   1.361   1.777  0.0837  0.2359  0.0480
 8840SOL     OW38152   3.964   2.390  13.741  0.1101 -0.3199  0.3722
 8840SOL    HW138153   3.879   2.434  13.745  0.2996  0.2603 -1.9891
 8840SOL    HW238154   3.996   2.411  13.829 -3.4011  1.0379  1.3116
 8841SOL     OW38155   1.922   4.424   8.391 -0.3365 -0.4803  0.8273
 8841SOL    HW138156   1.925   4.343   8.340 -2.5568  0.4229 -0.7476
 8841SOL    HW238157   1.992   4.406   8.454 -0.9963 -0.4004  1.5754
 8842SOL     OW38158   4.722   4.639  12.437 -0.7813 -0.2952 -0.2646
 8842SOL    HW138159   0.019   4.625  12.525 -0.4041  4.5543  0.3816
 8842SOL    HW238160   0.050   4.703  12.407 -0.4299 -1.5340 -2.1702
 8843SOL     OW38161   0.765   3.494   0.320 -0.3716  0.2582 -0.2648
 8843SOL    HW138162   0.726   3.428   0.263  0.0507  1.4764 -1.9774
 8843SOL    HW238163   0.685   3.527   0.360 -0.2196  1.1481 -0.6825
 8844SOL     OW38164   4.699   4.589   5.903 -0.2746 -0.4262 -0.9898
 8844SOL    HW138165   4.638   4.524   5.868 -0.4129 -1.2095  0.7224
 8844SOL    HW238166   4.735   4.540   5.977  2.1057 -1.2518 -2.6957
 8845SOL     OW38167   1.478   4.066   5.397  0.2341 -0.5974 -0.1159
 8845SOL    HW138168   1.484   4.031   5.487  0.0742 -3.3422 -1.1602
 8845SOL    HW238169   1.529   4.147   5.394 -0.4867 -0.2095 -1.9610
 8846SOL     OW38170   1.866   2.527   5.057 -0.3499  0.1142  0.1412
 8846SOL    HW138171   1.902   2.557   5.141  2.6797  0.4791 -1.2965
 8846SOL    HW238172   1.894   2.601   5.002 -0.3791  1.1163  1.4627
 8847SOL     OW38173   1.217   1.314   8.018  0.1585 -0.1457  0.0021
 8847SOL    HW138174   1.264   1.231   8.015 -2.0970 -1.3225 -2.5982
 8847SOL    HW238175   1.212   1.335   8.111 -0.4318 -1.5820  0.2866
 8848SOL     OW38176   3.216   4.070   1.555  0.3482 -0.7921 -0.2177
 8848SOL    HW138177   3.165   4.065   1.474 -0.3403  2.7621 -0.0197
 8848SOL    HW238178   3.258   4.156   1.544  0.8312 -0.8073  1.5282
 8849SOL     OW38179   0.786   2.897   8.824 -0.0294 -0.1639 -0.1373
 8849SOL    HW138180   0.757   2.969   8.768 -0.3002 -0.3163 -0.1897
 8849SOL    HW238181   0.879   2.915   8.839 -1.0084  3.2944  2.0242
 8850SOL     OW38182   0.790   4.700   6.049  0.0382  0.7205 -0.2060
 8850SOL    HW138183   0.852   4.726   6.117  0.8086 -0.9530 -0.2737
 8850SOL    HW238184   0.725   4.665   6.109  0.1365 -1.0100 -1.1213
 8851SOL     OW38185   3.555   3.286   8.712 -0.1008  0.3216  0.0034
 8851SOL    HW138186   3.485   3.348   8.731 -0.8938 -0.2602 -1.0632
 8851SOL    HW238187   3.614   3.355   8.681  1.1883 -1.0718 -0.6672
 8852SOL     OW38188   2.729   1.980   7.972 -0.4901  0.4258 -0.3872
 8852SOL    HW138189   2.746   2.006   8.062 -1.1833  2.0296 -0.6995
 8852SOL    HW238190   2.676   1.901   7.983  1.6080 -1.1308 -1.5143
 8853SOL     OW38191   2.773   4.130   3.087 -0.3995  0.6231 -0.1879
 8853SOL    HW138192   2.779   4.200   3.153  1.1170 -0.2763  0.6204
 8853SOL    HW238193   2.865   4.115   3.068 -0.5844 -1.5466  0.6400
 8854SOL     OW38194   1.022   0.334   3.387 -0.2734 -0.1824 -0.2358
 8854SOL    HW138195   1.040   0.252   3.340 -0.3762  1.2820 -2.8345
 8854SOL    HW238196   0.946   0.301   3.434 -0.9456 -0.8141 -1.7619
 8855SOL     OW38197   1.666   2.780   6.403  0.0027  0.5815  0.2171
 8855SOL    HW138198   1.604   2.795   6.474 -0.2772 -0.2346  0.1389
 8855SOL    HW238199   1.691   2.689   6.420 -1.6021  0.3674  1.4272
 8856SOL     OW38200   0.750   1.856   3.838 -0.0786 -0.0858 -0.2531
 8856SOL    HW138201   0.737   1.799   3.913 -1.6748  2.2085  1.2291
 8856SOL    HW238202   0.677   1.835   3.780  0.2416  1.6994 -1.3267
 8857SOL     OW38203   0.691   1.915   7.069 -0.1166  0.0852 -0.6692
 8857SOL    HW138204   0.716   2.007   7.071  1.4745 -0.3659  0.1715
 8857SOL    HW238205   0.774   1.874   7.094  0.8451  0.9233 -2.4788
 8858SOL     OW38206   3.735   0.771  12.076 -0.6653  0.1466 -0.4072
 8858SOL    HW138207   3.804   0.709  12.052 -1.6592 -0.8473 -0.6814
 8858SOL    HW238208   3.662   0.753  12.016 -0.8502 -0.6812  0.0560
 8859SOL     OW38209   0.789   4.492   9.309 -0.2030 -0.2655 -0.0328
 8859SOL    HW138210   0.806   4.398   9.313  1.2198  0.0209  0.6977
 8859SOL    HW238211   0.696   4.479   9.288  0.6476 -1.5200 -3.0056
 8860SOL     OW38212   4.471   3.428   6.394 -0.2468 -0.7717 -0.2220
 8860SOL    HW138213   4.533   3.468   6.455 -2.2561  0.9351  0.6687
 8860SOL    HW238214   4.478   3.488   6.320 -1.0347 -1.3376 -0.7484
 8861SOL     OW38215   0.335   3.568   4.317  0.0618  0.1964 -0.1611
 8861SOL    HW138216   0.419   3.524   4.298  0.1718  0.8192 -1.1096
 8861SOL    HW238217   0.342   3.601   4.407 -0.6734 -2.1307  0.7580
 8862SOL     OW38218   0.395   2.754   2.874  0.5903 -0.3178 -0.0353
 8862SOL    HW138219   0.352   2.751   2.959  0.4819 -0.9615 -0.1181
 8862SOL    HW238220   0.487   2.762   2.900  0.8137 -1.9278 -0.3783
 8863SOL     OW38221   0.036   3.548  12.222  0.1605  0.0240  1.0938
 8863SOL    HW138222   4.733   3.623  12.265  0.7814  0.2326  1.2857
 8863SOL    HW238223   0.101   3.594  12.168 -1.4594 -0.6977 -1.5068
 8864SOL     OW38224   2.070   3.564   5.090 -0.1582 -0.5539 -0.3313
 8864SOL    HW138225   2.101   3.522   5.010 -0.4205  0.4792 -0.9695
 8864SOL    HW238226   1.975   3.555   5.078 -0.1181  0.3139 -1.2407
 8865SOL     OW38227   4.490   3.818   0.684 -0.4279  0.2477  0.0912
 8865SOL    HW138228   4.541   3.759   0.738  2.0489  2.2073 -0.0649
 8865SOL    HW238229   4.457   3.874   0.755 -2.5373 -1.0671  0.1400
 8866SOL     OW38230   2.614   4.526   9.105 -0.0103  0.4296 -0.1282
 8866SOL    HW138231   2.572   4.493   9.184 -0.9138 -1.6239 -1.4487
 8866SOL    HW238232   2.668   4.447   9.096 -0.8107 -0.2013  0.5948
 8867SOL     OW38233   2.596   4.378   4.288 -0.4254  0.5158 -0.4039
 8867SOL    HW138234   2.549   4.321   4.348  2.8776 -0.0147  1.7224
 8867SOL    HW238235   2.574   4.346   4.200 -1.0721 -0.8416  0.2437
 8868SOL     OW38236   2.913   0.810   8.485  0.5963  1.0206 -0.4010
 8868SOL    HW138237   2.898   0.904   8.490 -2.3244  0.5969 -1.0867
 8868SOL    HW238238   2.833   0.771   8.450  0.7213 -0.3308  0.8366
 8869SOL     OW38239   0.151   0.135   7.478 -0.5293 -0.2796 -0.1969
 8869SOL    HW138240   0.157   0.040   7.465 -0.3526 -0.3767  0.6155
 8869SOL    HW238241   0.241   0.146   7.506 -0.0724 -1.8404 -0.9938
 8870SOL     OW38242   0.145   1.564   7.684 -0.0890 -0.1185  0.1815
 8870SOL    HW138243   0.213   1.611   7.733  0.5438 -1.5141  0.6264
 8870SOL    HW238244   0.148   1.618   7.605 -0.4195 -1.4111 -0.7146
 8871SOL     OW38245   4.704   4.465   6.752  0.3159 -0.2217  0.2006
 8871SOL    HW138246   4.617   4.480   6.715  0.7217  0.2060 -0.5713
 8871SOL    HW238247   4.698   4.487   6.845 -1.9243  0.3912 -0.0878
 8872SOL     OW38248   0.818   2.926   7.880 -0.2537  0.0464 -0.3936
 8872SOL    HW138249   0.889   2.862   7.886  0.7949  1.1746 -0.7514
 8872SOL    HW238250   0.866   3.006   7.902  1.6596 -1.5655  1.1413
 8873SOL     OW38251   2.484   0.244  12.875 -0.2771 -0.2627 -0.7952
 8873SOL    HW138252   2.512   0.183  12.807  0.3618  0.9143 -1.5852
 8873SOL    HW238253   2.408   0.284  12.832 -0.9740 -1.0286 -0.2713
 8874SOL     OW38254   1.097   1.433   8.974 -0.0080 -0.1806  0.5486
 8874SOL    HW138255   1.165   1.422   9.041 -0.4967  0.8489  1.2204
 8874SOL    HW238256   1.024   1.456   9.032 -1.4417 -1.1665 -0.8516
 8875SOL     OW38257   0.805   0.155   4.790  0.5158 -0.1003 -0.1758
 8875SOL    HW138258   0.833   0.232   4.840 -0.3899  0.1633 -0.0882
 8875SOL    HW238259   0.813   0.196   4.704 -0.0499  1.1170  0.3566
 8876SOL     OW38260   1.442   2.816  15.832 -0.3654  0.6593  0.1057
 8876SOL    HW138261   1.475   2.748  15.774 -0.4317  2.0496 -1.5670
 8876SOL    HW238262   1.521   2.840  15.880 -0.4811  0.1061  0.5744
 8877SOL     OW38263   4.235   3.614  17.257  0.0296 -0.2020 -0.3987
 8877SOL    HW138264   4.298   3.671  17.301  0.6735 -1.7926  0.7341
 8877SOL    HW238265   4.302   3.560  17.216  0.8299 -0.3060  1.0331
 8878SOL     OW38266   2.504   3.602  11.353 -0.0480 -0.7630  0.0695
 8878SOL    HW138267   2.542   3.550  11.424  0.0752 -2.6938 -1.3885
 8878SOL    HW238268   2.548   3.687  11.360  1.9044 -1.6550 -1.2561
 8879SOL     OW38269   4.559   0.529  16.458  0.1826 -0.6711  0.6949
 8879SOL    HW138270   4.600   0.601  16.411  1.6417 -2.1251 -0.2625
 8879SOL    HW238271   4.572   0.461  16.392 -0.0747 -0.0588  0.0168
 8880SOL     OW38272   0.569   0.695   8.715 -0.7082  0.1331  0.4445
 8880SOL    HW138273   0.654   0.708   8.758 -0.0319  1.0956 -1.2083
 8880SOL    HW238274   0.519   0.662   8.790 -1.0356 -0.1578  0.0940
 8881SOL     OW38275   2.835   2.299   8.393  0.0435 -0.0206  0.2637
 8881SOL    HW138276   2.806   2.349   8.470  0.2280 -0.0537  0.3548
 8881SOL    HW238277   2.923   2.328   8.369  0.0950 -0.7136 -0.3496
 8882SOL     OW38278   3.833   3.117  10.399 -0.4169  0.3175 -0.8306
 8882SOL    HW138279   3.789   3.046  10.352  2.3516 -3.4096  2.2195
 8882SOL    HW238280   3.918   3.115  10.355  0.4335  2.3657  0.7055
 8883SOL     OW38281   4.639   2.537   6.624 -0.8175  0.1938 -0.0768
 8883SOL    HW138282   4.716   2.569   6.578  0.0608 -0.9975  0.5484
 8883SOL    HW238283   4.589   2.615   6.603  0.5055  0.7644 -1.0730
 8884SOL     OW38284   3.913   1.807  15.734  0.0001  0.0881 -0.6545
 8884SOL    HW138285   3.871   1.836  15.653  1.3662  0.0015 -1.3857
 8884SOL    HW238286   3.841   1.774  15.788  1.0067  1.7018  1.6480
 8885SOL     OW38287   0.452   4.426   1.685 -0.1452  0.8072 -0.4447
 8885SOL    HW138288   0.444   4.480   1.764  0.3708  0.4265 -0.1276
 8885SOL    HW238289   0.376   4.459   1.637  2.2524  0.2544 -4.6659
 8886SOL     OW38290   2.019   3.631   2.477  0.3487  0.2432 -0.5321
 8886SOL    HW138291   1.969   3.577   2.538 -3.9681  2.3962 -2.1483
 8886SOL    HW238292   2.043   3.559   2.419 -0.7877 -0.2464 -0.3985
 8887SOL     OW38293   3.611   3.900   7.510  0.1486 -0.4079  0.2459
 8887SOL    HW138294   3.616   3.807   7.488 -0.3753 -0.6915  1.3090
 8887SOL    HW238295   3.581   3.934   7.426 -0.5037  0.0925  0.6782
 8888SOL     OW38296   4.526   1.240   6.273  0.4651  0.0850  0.3123
 8888SOL    HW138297   4.611   1.207   6.302  0.2754  0.0376  0.8031
 8888SOL    HW238298   4.510   1.314   6.331  1.0957 -0.2996  0.9716
 8889SOL     OW38299   1.401   2.652   8.566 -0.1283 -0.1786 -0.0235
 8889SOL    HW138300   1.471   2.587   8.564  2.2920  2.4518 -0.8169
 8889SOL    HW238301   1.455   2.707   8.622  0.5202 -1.3291  0.4971
 8890SOL     OW38302   2.002   1.812  13.982 -0.3069 -0.1733  0.1649
 8890SOL    HW138303   1.945   1.872  14.029 -0.5357 -0.9841  0.9074
 8890SOL    HW238304   1.948   1.779  13.910 -0.1754  1.8294 -0.8710
 8891SOL     OW38305   2.058   0.941   2.296  0.0121  0.5862  0.3964
 8891SOL    HW138306   2.018   0.931   2.209  1.3286 -0.1031 -0.1259
 8891SOL    HW238307   1.993   0.993   2.343  0.3623  1.0457  0.3668
 8892SOL     OW38308   3.834   1.548   6.150  0.4465  0.2235  1.0733
 8892SOL    HW138309   3.926   1.524   6.162  0.9286  0.6942 -1.6476
 8892SOL    HW238310   3.845   1.639   6.123  0.4691 -0.0365  0.1993
 8893SOL     OW38311   3.824   0.590   3.974  0.6400 -0.0605 -0.0307
 8893SOL    HW138312   3.736   0.585   4.014  0.3269  0.9565 -0.6169
 8893SOL    HW238313   3.824   0.662   3.912  1.6914 -0.0082  0.0325
 8894SOL     OW38314   0.562   1.289  16.479  0.0138  0.3206  0.5341
 8894SOL    HW138315   0.632   1.238  16.437  0.2996  0.1876  1.1742
 8894SOL    HW238316   0.531   1.237  16.553 -0.7538 -0.8974 -0.6257
 8895SOL     OW38317   1.785   2.637   3.423 -0.2048 -1.0512 -0.0006
 8895SOL    HW138318   1.838   2.631   3.343 -0.1952 -0.1732 -0.0664
 8895SOL    HW238319   1.720   2.706   3.409 -0.1462 -0.8463  0.7841
 8896SOL     OW38320   0.209   3.108   4.035 -0.3340  0.4143 -0.3508
 8896SOL    HW138321   0.228   3.181   4.094 -1.7095  0.7946 -0.3595
 8896SOL    HW238322   0.247   3.151   3.958  0.0281 -1.1036 -1.0236
 8897SOL     OW38323   3.568   3.490   6.455 -0.3545 -0.3462 -0.2284
 8897SOL    HW138324   3.566   3.395   6.438  2.8911 -0.3406 -0.6876
 8897SOL    HW238325   3.540   3.535   6.375 -0.2944 -0.5199 -0.3478
 8898SOL     OW38326   1.935   0.317   2.643  0.4823 -0.0415 -0.3888
 8898SOL    HW138327   2.015   0.287   2.686 -0.2791 -0.7788  0.5162
 8898SOL    HW238328   1.907   0.381   2.708  1.6306 -0.6705  0.7207
 8899SOL     OW38329   4.712   0.528   8.333 -0.5817 -0.5133  0.0255
 8899SOL    HW138330   4.735   0.592   8.266 -1.1988  0.5136  0.7861
 8899SOL    HW238331   0.057   0.503   8.376 -0.0542  3.4222  1.2119
 8900SOL     OW38332   4.212   0.462  14.387 -0.7295  0.3790 -0.1705
 8900SOL    HW138333   4.233   0.403  14.459 -0.2084  1.8405  0.8708
 8900SOL    HW238334   4.142   0.423  14.335  0.4165 -0.1350 -1.3176
 8901SOL     OW38335   2.463   2.987   1.483  0.3286  0.7154 -0.2395
 8901SOL    HW138336   2.437   3.056   1.422  0.9818  0.9172 -0.2919
 8901SOL    HW238337   2.527   3.030   1.539 -1.0962  2.2312  0.2248
 8902SOL     OW38338   3.326   4.316   8.189  0.4649 -0.4833 -0.0232
 8902SOL    HW138339   3.278   4.330   8.108 -1.8752  2.7409  1.9164
 8902SOL    HW238340   3.255   4.342   8.248  1.0971 -0.3933  0.6976
 8903SOL     OW38341   3.413   1.269   4.613  0.0594  0.2900  0.2793
 8903SOL    HW138342   3.502   1.302   4.624 -0.1332  1.2410 -1.0294
 8903SOL    HW238343   3.418   1.195   4.552 -0.2410  0.4806  0.0234
 8904SOL     OW38344   0.485   0.709   5.476 -0.7051 -0.0768 -0.4848
 8904SOL    HW138345   0.463   0.797   5.504  1.3582  0.9685 -2.1580
 8904SOL    HW238346   0.399   0.671   5.498 -0.6597 -0.1615 -0.4533
 8905SOL     OW38347   0.318   4.232   1.435  0.1244  0.0971 -0.0326
 8905SOL    HW138348   0.237   4.258   1.478 -0.7712  1.2305 -2.4286
 8905SOL    HW238349   0.318   4.291   1.359 -1.9227  1.5772  1.1504
 8906SOL     OW38350   3.378   0.134   7.440 -0.5184 -0.3800  0.8152
 8906SOL    HW138351   3.312   0.157   7.506 -0.5924  1.4119  0.1265
 8906SOL    HW238352   3.427   0.069   7.489  1.4042 -0.0824 -0.7422
 8907SOL     OW38353   1.215   1.107   5.377 -0.5349  0.5128 -1.0036
 8907SOL    HW138354   1.203   1.140   5.288 -2.9848 -0.5975 -1.0793
 8907SOL    HW238355   1.170   1.022   5.384  1.3591 -0.3526  0.7104
 8908SOL     OW38356   3.782   3.753  16.412  0.5105  0.6203 -0.1953
 8908SOL    HW138357   3.797   3.798  16.495 -1.5773  1.0662 -0.0503
 8908SOL    HW238358   3.750   3.827  16.360 -0.8401  0.7809  0.8496
 8909SOL     OW38359   4.727   4.626  15.512  0.1199  0.7441 -0.2571
 8909SOL    HW138360   4.651   4.570  15.495  1.1453  0.1900 -3.0217
 8909SOL    HW238361   4.691   4.689  15.575 -2.5263 -0.2080 -0.8035
 8910SOL     OW38362   2.137   0.722   3.648 -0.5274  0.6024  0.4842
 8910SOL    HW138363   2.199   0.649   3.653  0.1353  0.9856 -2.0530
 8910SOL    HW238364   2.200   0.793   3.641  0.6328 -0.5435 -0.7925
 8911SOL     OW38365   1.512   0.426   4.219  0.2350  0.1470 -0.6152
 8911SOL    HW138366   1.476   0.348   4.175 -0.4737 -0.2352  0.6345
 8911SOL    HW238367   1.487   0.409   4.310  1.3098  0.1963 -0.3144
 8912SOL     OW38368   1.110   2.255  10.512 -0.1111 -0.3001 -0.6191
 8912SOL    HW138369   1.184   2.289  10.563 -1.8639  2.0385  0.3679
 8912SOL    HW238370   1.058   2.335  10.503 -1.4188 -0.7326  3.0207
 8913SOL     OW38371   3.298   4.456   7.445 -0.2931  0.0130 -0.3625
 8913SOL    HW138372   3.356   4.472   7.519 -0.6148 -0.0286 -0.1040
 8913SOL    HW238373   3.316   4.366   7.417 -2.0169 -1.2549  2.5701
 8914SOL     OW38374   3.173   3.122   6.974  0.1215  0.2775  0.1329
 8914SOL    HW138375   3.219   3.125   7.058  1.3595  0.6438 -0.5688
 8914SOL    HW238376   3.191   3.034   6.942 -1.3621 -0.3615  1.0475
 8915SOL     OW38377   0.332   4.631  16.623  0.1568  0.0723  0.0187
 8915SOL    HW138378   0.315   4.581  16.543  0.5409 -0.7395  0.4484
 8915SOL    HW238379   0.276   4.586  16.686 -1.5561  0.9244 -0.9081
 8916SOL     OW38380   1.056   2.877   8.741 -0.2826  0.5832 -0.3076
 8916SOL    HW138381   1.080   2.959   8.698 -1.8745  1.3646  0.2747
 8916SOL    HW238382   1.007   2.831   8.673 -1.4315 -0.0051  0.9044
 8917SOL     OW38383   1.560   3.060  16.164  0.2381  0.4037 -0.4116
 8917SOL    HW138384   1.604   3.010  16.095  0.0836 -1.9610  1.2150
 8917SOL    HW238385   1.567   3.146  16.121  0.9042  0.6423  0.1814
 8918SOL     OW38386   1.365   2.748   3.046 -0.3217  0.3874 -0.6510
 8918SOL    HW138387   1.348   2.842   3.046  0.3776  0.5072  1.0369
 8918SOL    HW238388   1.397   2.734   2.957  2.4493 -3.1319  0.8960
 8919SOL     OW38389   0.887   1.437  10.791 -0.3197  0.9182 -0.4360
 8919SOL    HW138390   0.831   1.395  10.856 -1.1721  0.3955 -1.5065
 8919SOL    HW238391   0.937   1.506  10.834  0.1307 -0.3011  0.9932
 8920SOL     OW38392   1.562   3.125  16.830 -0.3744 -0.0887 -0.4305
 8920SOL    HW138393   1.638   3.160  16.784 -1.0832 -0.4174 -1.8373
 8920SOL    HW238394   1.515   3.083  16.758  0.1811  0.2849 -1.0159
 8921SOL     OW38395   3.775   0.742  11.011  0.2449 -0.1351  0.0085
 8921SOL    HW138396   3.856   0.759  10.963  0.7690 -0.5503  0.7466
 8921SOL    HW238397   3.798   0.797  11.086 -0.4085  0.8152 -0.4887
 8922SOL     OW38398   2.078   1.035   5.782 -0.5946  0.1767 -0.2329
 8922SOL    HW138399   2.049   1.020   5.872  1.0953 -0.0112  0.2718
 8922SOL    HW238400   2.163   1.073   5.802 -1.1441  1.7856 -0.9381
 8923SOL     OW38401   1.230   2.512   3.551 -0.1693 -0.7628  0.3188
 8923SOL    HW138402   1.225   2.599   3.509  0.4284 -0.3228  1.1673
 8923SOL    HW238403   1.138   2.488   3.561 -0.8004  1.1976 -0.7052
 8924SOL     OW38404   0.469   3.581   7.561 -0.3749  0.6807  0.1834
 8924SOL    HW138405   0.414   3.582   7.639  3.2915 -0.3611  2.8099
 8924SOL    HW238406   0.522   3.502   7.568  0.0534  0.8725 -0.9284
 8925SOL     OW38407   3.830   1.698   1.870 -0.6373 -0.1953 -0.2516
 8925SOL    HW138408   3.865   1.618   1.910 -0.0730  0.1949  0.0158
 8925SOL    HW238409   3.844   1.693   1.775 -0.2804 -1.2704 -0.1439
 8926SOL     OW38410   3.606   3.263   8.303 -0.2704  0.0484  0.1985
 8926SOL    HW138411   3.606   3.274   8.207 -0.9155  0.9599  0.3048
 8926SOL    HW238412   3.639   3.174   8.310 -1.0293 -0.3125 -0.7824
 8927SOL     OW38413   1.051   1.366   6.505 -0.6783 -0.1291  0.4244
 8927SOL    HW138414   1.005   1.302   6.561 -0.5368 -0.8482 -0.2773
 8927SOL    HW238415   1.126   1.316   6.475 -0.8645 -0.1410 -0.0185
 8928SOL     OW38416   2.425   1.326   2.408  0.0202 -0.0745 -0.2736
 8928SOL    HW138417   2.373   1.264   2.461  0.8749 -0.9981 -0.5230
 8928SOL    HW238418   2.494   1.264   2.387  0.9776  0.7705  0.4034
 8929SOL     OW38419   1.538   1.642   9.124  0.2866 -0.0692  0.0446
 8929SOL    HW138420   1.483   1.641   9.046 -1.1742  1.6585  1.0286
 8929SOL    HW238421   1.487   1.692   9.188  1.1990  0.1923  0.5669
 8930SOL     OW38422   1.024   1.938  13.051 -0.1508 -0.3984 -0.3927
 8930SOL    HW138423   1.046   2.023  13.088  0.3196 -0.2645 -0.9727
 8930SOL    HW238424   0.948   1.964  13.000 -0.2675 -0.7579 -0.4049
 8931SOL     OW38425   0.759   1.417   3.955 -0.2684 -0.6630  0.7917
 8931SOL    HW138426   0.665   1.408   3.938  0.0072  2.0328 -2.2768
 8931SOL    HW238427   0.787   1.332   3.989 -0.7638 -0.9895  0.3841
 8932SOL     OW38428   1.418   2.596   5.952 -0.3634  0.3196 -0.2803
 8932SOL    HW138429   1.352   2.666   5.956  0.4222  1.1520 -1.8520
 8932SOL    HW238430   1.448   2.606   5.861 -0.8045 -2.3350 -0.7309
 8933SOL     OW38431   3.200   0.740  14.799 -0.2725 -0.1890  0.5072
 8933SOL    HW138432   3.292   0.720  14.782  0.1184  0.9357  1.3080
 8933SOL    HW238433   3.178   0.657  14.842 -4.3399  0.7739  0.2334
 8934SOL     OW38434   2.954   3.680   6.351 -1.0844  0.4179 -0.0121
 8934SOL    HW138435   2.868   3.689   6.394 -0.1432  1.6728  1.5800
 8934SOL    HW238436   2.952   3.587   6.328  0.7716 -0.1614  2.2053
 8935SOL     OW38437   2.249   0.241   3.922  0.5208 -0.5970  0.0310
 8935SOL    HW138438   2.156   0.232   3.939  0.4205 -0.5642 -0.4882
 8935SOL    HW238439   2.254   0.207   3.832 -1.9200 -0.3339 -0.1957
 8936SOL     OW38440   1.756   1.316   4.289  0.0359 -0.5050  0.8062
 8936SOL    HW138441   1.807   1.391   4.259  1.8568 -2.0417  0.0328
 8936SOL    HW238442   1.749   1.269   4.207 -1.4648  0.8227  0.1797
 8937SOL     OW38443   2.399   0.298  12.459  0.3927  0.1847  0.1792
 8937SOL    HW138444   2.438   0.228  12.510  0.5295 -0.9520 -1.4649
 8937SOL    HW238445   2.310   0.291  12.494  1.3702 -0.7671  2.4031
 8938SOL     OW38446   4.057   1.658  16.913 -0.4122  0.3539  0.8144
 8938SOL    HW138447   4.081   1.608  16.835 -0.4884 -0.4304  1.2946
 8938SOL    HW238448   4.139   1.648  16.961  1.1290  1.2547 -1.6359
 8939SOL     OW38449   1.371   1.830   7.307 -0.2222 -0.1038 -0.3363
 8939SOL    HW138450   1.399   1.916   7.338 -1.0951 -0.3938  1.2198
 8939SOL    HW238451   1.353   1.849   7.215 -4.7794 -1.4318  0.2298
 8940SOL     OW38452   1.084   1.388   7.783 -0.1884 -0.1481  0.2436
 8940SOL    HW138453   1.139   1.345   7.717  1.5181  1.5370  0.5794
 8940SOL    HW238454   1.134   1.369   7.862  1.0572  1.9118 -0.0638
 8941SOL     OW38455   1.079   3.798  10.614 -0.0536 -0.6356 -0.2911
 8941SOL    HW138456   1.157   3.754  10.646  1.1406  0.6068 -1.4767
 8941SOL    HW238457   1.113   3.849  10.541 -0.0153 -3.0998 -1.9800
 8942SOL     OW38458   3.460   0.566   0.559  0.4940 -0.0377 -0.2347
 8942SOL    HW138459   3.479   0.638   0.619  0.9166 -0.4412  0.1117
 8942SOL    HW238460   3.500   0.595   0.477  0.4542  0.1405 -0.1910
 8943SOL     OW38461   2.831   1.199  15.375  0.2701 -0.2354  0.1305
 8943SOL    HW138462   2.884   1.209  15.296 -1.4534 -0.6846 -1.0510
 8943SOL    HW238463   2.750   1.158  15.346 -0.1471  0.2697  0.5804
 8944SOL     OW38464   2.248   0.334   3.101  0.4212  0.6434  0.1116
 8944SOL    HW138465   2.206   0.271   3.043  0.2821 -0.1326  1.0712
 8944SOL    HW238466   2.177   0.368   3.154 -1.8499 -1.0143 -1.8895
 8945SOL     OW38467   0.139   2.065   4.985  0.1293  0.3130  0.2730
 8945SOL    HW138468   0.184   2.114   4.917 -1.8827  1.4344 -0.2377
 8945SOL    HW238469   0.102   2.133   5.041  0.3944  0.0861  0.7305
 8946SOL     OW38470   0.333   2.914   5.247  0.0774  0.3456 -0.6332
 8946SOL    HW138471   0.412   2.966   5.232 -0.6396  1.6983  0.3319
 8946SOL    HW238472   0.270   2.986   5.248 -0.3896 -0.0584 -0.7791
 8947SOL     OW38473   4.238   3.514  12.657 -0.2314  0.0829  0.3940
 8947SOL    HW138474   4.240   3.449  12.727  0.1296  0.5302  0.7961
 8947SOL    HW238475   4.273   3.459  12.587 -2.0649  1.6012 -1.7333
 8948SOL     OW38476   4.610   2.935   0.901  0.8204  0.6330  0.2830
 8948SOL    HW138477   4.530   2.966   0.858  1.0892  1.6135  0.4829
 8948SOL    HW238478   4.615   2.851   0.857 -1.3910  0.5416  0.1706
 8949SOL     OW38479   1.468   1.337   3.900 -0.2871 -0.2268 -0.1819
 8949SOL    HW138480   1.539   1.317   3.960  0.1306  0.5265 -0.4308
 8949SOL    HW238481   1.494   1.270   3.836  1.7342 -1.0273  1.4772
 8950SOL     OW38482   1.399   4.487   2.714  0.2523  0.0697 -0.4688
 8950SOL    HW138483   1.449   4.427   2.659  1.9002  2.0598 -1.1597
 8950SOL    HW238484   1.366   4.540   2.641  0.0545 -0.0904 -0.4944
 8951SOL     OW38485   2.839   2.096  13.110  0.2073  0.0211  0.2271
 8951SOL    HW138486   2.857   2.177  13.063 -1.4886 -1.0811 -2.3801
 8951SOL    HW238487   2.755   2.078  13.067 -1.2454  2.3591  2.1075
 8952SOL     OW38488   3.753   1.360   3.963 -0.1111 -0.4368 -0.0260
 8952SOL    HW138489   3.843   1.343   3.934  0.5138 -0.3717  1.8484
 8952SOL    HW238490   3.773   1.356   4.056  0.8713 -1.6022 -0.2836
 8953SOL     OW38491   3.756   3.062  15.004  0.4917  0.2587  0.1725
 8953SOL    HW138492   3.779   3.147  15.042 -1.4236  0.8932 -0.0953
 8953SOL    HW238493   3.790   3.049  14.916 -1.0942  1.5677 -0.6279
 8954SOL     OW38494   1.419   2.220  13.247 -0.0768  0.1530 -0.3246
 8954SOL    HW138495   1.341   2.241  13.195 -0.6156 -1.9291 -0.3258
 8954SOL    HW238496   1.388   2.148  13.301  2.2414 -0.3092  0.3930
 8955SOL     OW38497   2.582   0.368   9.262 -0.6502 -0.0508  0.8201
 8955SOL    HW138498   2.587   0.280   9.225 -0.7987  0.4061 -0.2816
 8955SOL    HW238499   2.617   0.347   9.348  1.0306  1.3426  0.4773
 8956SOL     OW38500   1.818   0.609  12.841 -0.1599  0.1585  0.2915
 8956SOL    HW138501   1.863   0.627  12.924  0.4673 -1.1823  0.2499
 8956SOL    HW238502   1.860   0.529  12.808  1.3901  1.6271 -1.3499
 8957SOL     OW38503   3.804   3.074   8.642 -0.6094  0.1599  0.8022
 8957SOL    HW138504   3.814   3.146   8.580  2.7580 -0.5022  0.5455
 8957SOL    HW238505   3.827   3.001   8.585  0.2157  1.0739 -0.0392
 8958SOL     OW38506   3.999   1.586   2.230 -0.1038 -0.2335 -0.5970
 8958SOL    HW138507   3.930   1.642   2.265  0.0706 -1.1117  1.1396
 8958SOL    HW238508   3.943   1.538   2.169  0.0723 -0.5484 -0.5123
 8959SOL     OW38509   1.219   4.299   8.373  0.3182  0.1300  0.4200
 8959SOL    HW138510   1.225   4.254   8.288 -0.0536  0.8276  0.0219
 8959SOL    HW238511   1.192   4.390   8.356 -1.2610 -0.6217 -1.0927
 8960SOL     OW38512   3.671   3.642   7.921 -0.0439 -0.1762 -0.1719
 8960SOL    HW138513   3.632   3.729   7.924 -1.9194 -0.9330 -2.1574
 8960SOL    HW238514   3.634   3.612   7.838 -0.6176  0.8142 -0.2680
 8961SOL     OW38515   0.802   0.283   7.089 -0.5110  0.3233 -0.1904
 8961SOL    HW138516   0.782   0.278   6.995  1.5448  1.2085 -0.6775
 8961SOL    HW238517   0.815   0.189   7.102 -3.5355 -0.4600 -2.6213
 8962SOL     OW38518   3.692   3.855   6.486 -0.6358  0.2816  0.4562
 8962SOL    HW138519   3.766   3.915   6.498 -1.3442  0.9954  1.2124
 8962SOL    HW238520   3.739   3.772   6.496  0.1560  0.9005  1.8997
 8963SOL     OW38521   2.646   4.623   0.621  0.3145  0.1643 -0.3835
 8963SOL    HW138522   2.654   4.675   0.702 -1.4814 -0.2278  0.0407
 8963SOL    HW238523   2.563   4.577   0.632 -0.8185  1.9955 -1.3134
 8964SOL     OW38524   2.818   4.394   2.958 -0.4319  0.2361  0.4000
 8964SOL    HW138525   2.866   4.445   3.023 -0.5254  0.6590  0.1358
 8964SOL    HW238526   2.798   4.310   2.999  0.5052 -0.1766  0.0164
 8965SOL     OW38527   3.048   1.458   3.630 -0.0397 -0.2374  0.0709
 8965SOL    HW138528   3.003   1.406   3.563 -0.0438 -1.4035  0.9735
 8965SOL    HW238529   3.034   1.401   3.706 -1.8492  1.6876  1.1843
 8966SOL     OW38530   2.364   2.282   7.464 -0.6685 -0.4224  0.0342
 8966SOL    HW138531   2.359   2.281   7.369  1.9243  1.1065 -0.1129
 8966SOL    HW238532   2.328   2.370   7.469  1.1422  0.3718 -0.8683
 8967SOL     OW38533   0.889   0.851   9.538  0.1200  0.1839 -0.5365
 8967SOL    HW138534   0.937   0.788   9.592 -1.0860 -1.0748 -0.9225
 8967SOL    HW238535   0.958   0.910   9.507 -1.8599  1.7818 -1.9041
 8968SOL     OW38536   1.841   3.096   6.487  0.0238 -0.1172  0.1790
 8968SOL    HW138537   1.872   3.007   6.503 -0.9405 -0.6193 -0.7456
 8968SOL    HW238538   1.779   3.073   6.418  1.1739 -0.3851 -0.7514
 8969SOL     OW38539   3.686   1.215  13.410 -0.0517 -0.9693 -0.1406
 8969SOL    HW138540   3.672   1.121  13.420  0.2110 -0.8921  0.9701
 8969SOL    HW238541   3.762   1.204  13.354  0.5607 -1.0246  0.6925
 8970SOL     OW38542   4.564   2.006  11.909 -0.2675  0.0853 -0.1851
 8970SOL    HW138543   4.613   2.033  11.832 -0.4833  2.2876  0.4370
 8970SOL    HW238544   4.627   1.978  11.976 -0.0795  3.4786  1.0952
 8971SOL     OW38545   2.488   4.070   4.919 -0.0936 -0.2424 -0.6944
 8971SOL    HW138546   2.474   4.107   4.832 -0.9860 -1.7572 -1.2007
 8971SOL    HW238547   2.410   4.108   4.960  2.1331  1.0998  2.2750
 8972SOL     OW38548   3.461   4.452  13.628  0.2453 -0.3547  0.2020
 8972SOL    HW138549   3.539   4.482  13.676  1.1344  0.0479 -1.4770
 8972SOL    HW238550   3.416   4.533  13.604  1.8900  0.3917 -0.4061
 8973SOL     OW38551   4.001   0.715   5.670  0.1243 -0.3008  0.3730
 8973SOL    HW138552   4.038   0.790   5.718 -0.7949 -0.3817  1.1894
 8973SOL    HW238553   3.930   0.694   5.730  0.1748 -1.0217  0.1791
 8974SOL     OW38554   4.337   0.370   4.183 -0.3334  0.0067  0.4199
 8974SOL    HW138555   4.424   0.400   4.211 -0.5278  0.9412  0.0319
 8974SOL    HW238556   4.342   0.382   4.088  0.1784 -0.8745  0.3353
 8975SOL     OW38557   1.182   2.989   7.611 -0.5571 -0.4366 -0.6120
 8975SOL    HW138558   1.187   3.059   7.676 -1.3816 -2.3228  1.4693
 8975SOL    HW238559   1.271   2.994   7.576  0.4976 -2.5452  1.7870
 8976SOL     OW38560   1.664   1.247   8.732 -0.0096 -0.1991 -0.1601
 8976SOL    HW138561   1.745   1.244   8.782  1.0427  1.1864 -1.8282
 8976SOL    HW238562   1.677   1.320   8.672 -0.2674 -0.8819 -1.0416
 8977SOL     OW38563   0.340   2.681   6.881 -0.0591 -0.4804 -0.4288
 8977SOL    HW138564   0.381   2.696   6.795  1.6973 -0.8234  0.3396
 8977SOL    HW238565   0.384   2.750   6.930 -0.1636 -0.0946 -0.8835
 8978SOL     OW38566   2.121   2.508   5.728 -0.0009  0.2031 -0.5791
 8978SOL    HW138567   2.031   2.540   5.724 -0.1365 -0.1225 -0.1899
 8978SOL    HW238568   2.105   2.416   5.707  0.5775  0.2331 -1.1473
 8979SOL     OW38569   2.525   3.226   6.719 -0.0454  0.4853 -0.1607
 8979SOL    HW138570   2.568   3.311   6.718 -0.7297  0.8545  0.7398
 8979SOL    HW238571   2.530   3.188   6.631 -0.0224 -1.5631  0.7175
 8980SOL     OW38572   1.116   4.600  10.221 -0.3920  0.2565 -0.1127
 8980SOL    HW138573   1.040   4.639  10.179 -1.1158 -1.1934 -0.1816
 8980SOL    HW238574   1.161   4.682  10.239 -0.6508  0.2824  0.4205
 8981SOL     OW38575   1.857   3.100   2.676 -0.1330 -0.7217  0.0410
 8981SOL    HW138576   1.779   3.139   2.717  0.1880 -0.1291  0.0782
 8981SOL    HW238577   1.906   3.060   2.747 -1.2420 -1.0957  0.6020
 8982SOL     OW38578   3.184   2.573   6.958 -0.0443  0.2178  0.2550
 8982SOL    HW138579   3.123   2.519   6.908 -0.4181 -0.8048  1.8115
 8982SOL    HW238580   3.249   2.505   6.978  0.4948  1.6328  3.2317
 8983SOL     OW38581   2.524   1.265   4.057 -0.2753 -0.6016 -0.3677
 8983SOL    HW138582   2.556   1.281   4.145  0.2189  1.0878 -0.8423
 8983SOL    HW238583   2.481   1.180   4.063  2.0159 -1.8916 -2.6369
 8984SOL     OW38584   0.307   0.501   4.525 -0.2534 -0.5316 -0.0375
 8984SOL    HW138585   0.332   0.591   4.545 -1.8703 -0.1802  0.3829
 8984SOL    HW238586   0.235   0.487   4.586 -1.0005 -0.5104 -0.9151
 8985SOL     OW38587   0.464   3.205   4.990 -0.1260 -0.0082  1.0205
 8985SOL    HW138588   0.549   3.249   4.993  0.6695 -1.3897 -1.7088
 8985SOL    HW238589   0.475   3.145   5.063 -1.1641 -0.3378  0.9006
 8986SOL     OW38590   0.401   3.209   9.340 -0.2744  0.1405 -0.4616
 8986SOL    HW138591   0.462   3.137   9.359 -0.0175 -0.0087 -1.8346
 8986SOL    HW238592   0.440   3.273   9.399  0.3391  0.2640 -0.9966
 8987SOL     OW38593   3.281   0.620  15.170 -0.1456  0.2915  0.7538
 8987SOL    HW138594   3.310   0.624  15.261  0.8417 -2.5799  0.5652
 8987SOL    HW238595   3.346   0.671  15.121  0.6924 -0.3182  1.2446
 8988SOL     OW38596   0.887   3.837  13.856 -0.6522  0.5511 -0.0110
 8988SOL    HW138597   0.965   3.862  13.806  1.0979 -2.7350  1.0868
 8988SOL    HW238598   0.826   3.878  13.794 -2.1222 -1.1422  0.3178
 8989SOL     OW38599   2.719   3.902   8.055  1.0269 -0.0232  0.3916
 8989SOL    HW138600   2.799   3.879   8.102  0.7095 -1.8135  0.0303
 8989SOL    HW238601   2.707   3.850   7.976 -1.4759  0.5337  0.3783
 8990SOL     OW38602   1.956   2.648   3.166  0.2425 -0.4467  0.0594
 8990SOL    HW138603   2.022   2.631   3.098  1.0414  1.8100  0.2737
 8990SOL    HW238604   1.981   2.733   3.203 -0.8363  0.3651 -1.0738
 8991SOL     OW38605   1.433   3.739   5.656 -0.3462 -0.4711 -0.6155
 8991SOL    HW138606   1.379   3.817   5.669 -0.7479 -0.8245 -0.1631
 8991SOL    HW238607   1.439   3.724   5.562 -0.4082 -1.7111 -0.4222
 8992SOL     OW38608   2.836   0.811  12.740  0.3482  0.3035 -0.0591
 8992SOL    HW138609   2.918   0.858  12.724 -0.8482  1.6256 -2.1666
 8992SOL    HW238610   2.853   0.717  12.753 -2.1288 -0.4284 -2.2955
 8993SOL     OW38611   3.879   2.892   3.692 -0.2497  0.5316 -0.0543
 8993SOL    HW138612   3.930   2.912   3.771 -0.9853 -0.9877  0.7981
 8993SOL    HW238613   3.820   2.830   3.735 -1.0237  0.2921 -1.4880
 8994SOL     OW38614   4.284   3.881  11.489  0.2201  0.3218  0.4290
 8994SOL    HW138615   4.196   3.910  11.510  0.4000 -0.5258  2.3799
 8994SOL    HW238616   4.286   3.805  11.548 -1.0674 -1.1298 -1.4031
 8995SOL     OW38617   3.227   2.029   9.017  0.2396  0.3316 -0.5081
 8995SOL    HW138618   3.263   1.969   8.951  2.1266 -0.7804  1.5477
 8995SOL    HW238619   3.210   1.981   9.098 -0.2271 -0.2203 -0.9320
 8996SOL     OW38620   2.903   4.443   1.738 -0.2587  0.1233 -0.1232
 8996SOL    HW138621   2.979   4.393   1.767 -1.2266 -0.2878  1.6978
 8996SOL    HW238622   2.954   4.517   1.705 -1.3233  1.5575  1.4276
 8997SOL     OW38623   0.176   2.658  11.880 -0.2611 -0.1810 -0.1130
 8997SOL    HW138624   0.103   2.610  11.918 -1.6744  1.7470 -0.3899
 8997SOL    HW238625   0.168   2.641  11.787  0.9905  1.6924 -0.5596
 8998SOL     OW38626   0.032   3.624   4.760  0.2173  0.4634 -0.6129
 8998SOL    HW138627   0.037   3.717   4.738 -2.3715  1.4507  2.9834
 8998SOL    HW238628   4.705   3.589   4.697 -0.8764 -2.3078  2.0361
 8999SOL     OW38629   1.194   1.977  15.047  0.8526 -0.1298 -0.4434
 8999SOL    HW138630   1.171   1.907  14.986 -0.6129  0.1535 -0.2286
 8999SOL    HW238631   1.259   2.026  14.997  0.9190 -0.1457 -0.3739
 9000SOL     OW38632   2.218   0.474  16.692  0.0239 -0.0719 -0.2759
 9000SOL    HW138633   2.229   0.418  16.769 -0.2032  1.2322  0.7108
 9000SOL    HW238634   2.292   0.533  16.705 -0.1832  0.3290 -0.9035
 9001SOL     OW38635   3.988   3.154   8.360  0.3425  0.4637 -0.7526
 9001SOL    HW138636   4.034   3.221   8.309  1.4500 -0.2735 -0.7330
 9001SOL    HW238637   3.993   3.088   8.291  0.8098 -0.3758  0.0871
 9002SOL     OW38638   1.734   1.855   8.194  0.2451 -0.2408 -0.1200
 9002SOL    HW138639   1.672   1.925   8.176  0.8877  0.1597 -0.7743
 9002SOL    HW238640   1.806   1.889   8.142 -0.1566 -0.8627 -1.0712
 9003SOL     OW38641   2.045   0.016   8.957  0.0471 -0.0480  0.8634
 9003SOL    HW138642   2.121   0.049   9.004  0.2676 -0.9271  1.1101
 9003SOL    HW238643   2.090   0.020   8.873  0.2448  0.2949  0.9867
 9004SOL     OW38644   3.865   3.134   0.616 -0.3305  0.0962 -0.2105
 9004SOL    HW138645   3.893   3.223   0.594  0.8602 -0.0026  0.9019
 9004SOL    HW238646   3.790   3.127   0.556 -1.0788 -4.8853  1.2610
 9005SOL     OW38647   3.669   1.951  16.620  0.1767  0.4516 -0.6992
 9005SOL    HW138648   3.763   1.950  16.640  0.2850 -0.4528 -1.2844
 9005SOL    HW238649   3.638   1.911  16.702  0.5683  0.0141 -0.7628
 9006SOL     OW38650   4.537   1.345   8.638 -0.1041  0.2182  0.1310
 9006SOL    HW138651   4.584   1.287   8.698  0.8599  0.2670 -0.5895
 9006SOL    HW238652   4.452   1.343   8.682  0.3446  1.0395  1.0417
 9007SOL     OW38653   2.494   2.744  11.425  0.0235  0.3227  0.2545
 9007SOL    HW138654   2.586   2.726  11.444  0.0275  2.2547  2.1386
 9007SOL    HW238655   2.471   2.831  11.458 -0.4526 -0.6481  2.4923
 9008SOL     OW38656   1.631   3.097  17.678  0.4731 -0.3062  0.5438
 9008SOL    HW138657   1.643   3.010  17.715  3.2429 -1.1336 -2.3293
 9008SOL    HW238658   1.721   3.122  17.660  0.4084  0.7114  1.6545
 9009SOL     OW38659   3.512   3.483   2.565  0.5066 -0.0568 -0.2128
 9009SOL    HW138660   3.507   3.470   2.470 -0.4720 -0.9877 -0.0320
 9009SOL    HW238661   3.509   3.390   2.589  2.1602 -0.4897 -1.6455
 9010SOL     OW38662   1.397   2.294   8.769 -0.4004 -0.1510  0.7442
 9010SOL    HW138663   1.456   2.363   8.739  0.3269 -1.2668 -0.4094
 9010SOL    HW238664   1.319   2.346   8.786  0.1114  0.8650  0.0035
 9011SOL     OW38665   4.587   1.568   3.250 -0.2524  0.5175  0.3970
 9011SOL    HW138666   4.626   1.656   3.258  0.8887  0.3124 -2.7465
 9011SOL    HW238667   4.670   1.524   3.267  1.2532  3.1386 -0.0915
 9012SOL     OW38668   1.700   4.319   4.507  0.2901 -0.2085  0.8065
 9012SOL    HW138669   1.609   4.326   4.479  0.1744 -2.0590  0.6920
 9012SOL    HW238670   1.717   4.392   4.565  2.3778 -1.6431  2.0047
 9013SOL     OW38671   4.321   0.349   8.386  0.2472  0.7041 -0.5897
 9013SOL    HW138672   4.250   0.410   8.367 -0.7088  0.7757  3.1267
 9013SOL    HW238673   4.388   0.409   8.420 -1.4523  2.0918  0.2845
 9014SOL     OW38674   3.036   1.405  12.473 -0.2829  0.0744 -0.0958
 9014SOL    HW138675   3.074   1.441  12.553 -0.7627 -3.1565  1.5616
 9014SOL    HW238676   2.959   1.461  12.461 -0.1548  0.2936  0.1028
 9015SOL     OW38677   1.201   3.949   2.510  0.1754  0.0325 -0.2008
 9015SOL    HW138678   1.132   4.007   2.479  0.6752  0.9981  0.4987
 9015SOL    HW238679   1.278   3.993   2.473  1.2064 -2.2373 -0.7856
 9016SOL     OW38680   3.613   0.400  11.869  0.0106 -0.1617  0.3178
 9016SOL    HW138681   3.612   0.492  11.898  0.0768 -0.5574  1.6039
 9016SOL    HW238682   3.520   0.385  11.852  1.1893 -5.1763 -1.5538
 9017SOL     OW38683   2.288   2.071  15.827  0.1893 -0.1530 -0.2871
 9017SOL    HW138684   2.250   2.141  15.879  0.1446 -1.3705  1.3653
 9017SOL    HW238685   2.269   2.098  15.738  0.4253  0.3991 -0.1699
 9018SOL     OW38686   3.894   1.333   0.980  0.4058 -0.6379 -0.1351
 9018SOL    HW138687   3.923   1.259   1.033 -0.9462  0.3383  1.9510
 9018SOL    HW238688   3.922   1.402   1.039 -1.1063  1.2834 -1.6337
 9019SOL     OW38689   4.159   3.243   5.428 -0.2813 -0.1501  0.8697
 9019SOL    HW138690   4.111   3.200   5.499 -2.1088  0.2045 -0.1599
 9019SOL    HW238691   4.245   3.206   5.449 -0.6129 -1.4388 -0.0554
 9020SOL     OW38692   2.848   0.162   3.284 -0.3937  0.0444 -0.4587
 9020SOL    HW138693   2.891   0.081   3.311  0.4155  0.2930 -1.0025
 9020SOL    HW238694   2.800   0.137   3.205 -0.7937  0.4951 -0.3570
 9021SOL     OW38695   1.662   1.824  16.259  0.0808  0.2117  0.0404
 9021SOL    HW138696   1.593   1.842  16.323 -1.0058 -1.4916 -0.6437
 9021SOL    HW238697   1.740   1.833  16.314  0.2212  1.5619 -0.3700
 9022SOL     OW38698   0.284   4.489  15.833 -0.4364 -0.3196 -0.1891
 9022SOL    HW138699   0.377   4.472  15.819 -0.4018  0.7813 -1.2531
 9022SOL    HW238700   0.282   4.541  15.914 -1.9015  1.1774 -1.1779
 9023SOL     OW38701   4.189   0.540   5.910  0.1665 -0.3889 -0.0609
 9023SOL    HW138702   4.100   0.520   5.939 -0.4614  2.7639  0.1736
 9023SOL    HW238703   4.193   0.634   5.892 -1.1543 -0.3444 -0.1306
 9024SOL     OW38704   3.152   4.484   5.792  0.2148  0.0270 -0.0900
 9024SOL    HW138705   3.220   4.545   5.822 -0.1724  0.0062  0.8375
 9024SOL    HW238706   3.082   4.545   5.772 -2.0535 -2.7741 -0.6727
 9025SOL     OW38707   2.707   0.222   5.127  0.7624  0.0638  0.5107
 9025SOL    HW138708   2.669   0.252   5.210 -0.1745  1.7894 -0.5422
 9025SOL    HW238709   2.653   0.145   5.110 -0.8768  1.6032 -1.3165
 9026SOL     OW38710   0.798   0.593   8.855  0.3736  0.2748  0.6637
 9026SOL    HW138711   0.877   0.561   8.899  0.4373 -0.5279 -0.0397
 9026SOL    HW238712   0.735   0.522   8.870 -1.3011  1.4824 -0.7002
 9027SOL     OW38713   2.864   2.997   6.176  0.0586 -0.0398  0.3578
 9027SOL    HW138714   2.951   3.026   6.203 -1.0698  1.3935  2.3989
 9027SOL    HW238715   2.888   2.914   6.133 -0.6690 -0.6602  1.1393
 9028SOL     OW38716   0.540   3.471   5.158  0.0707  0.5237 -0.1618
 9028SOL    HW138717   0.516   3.520   5.237  1.2779  1.7200 -0.5230
 9028SOL    HW238718   0.469   3.408   5.161 -0.3789  1.0061 -0.4926
 9029SOL     OW38719   3.711   0.612  17.409 -0.2433  0.3586 -0.0406
 9029SOL    HW138720   3.770   0.685  17.391 -1.2383  0.8078 -1.4586
 9029SOL    HW238721   3.674   0.604  17.322  0.1654 -3.2299  0.0922
 9030SOL     OW38722   1.925   1.501   5.282  0.6253 -0.0038 -0.1260
 9030SOL    HW138723   1.920   1.548   5.198  2.0441  1.1603  0.4569
 9030SOL    HW238724   1.863   1.428   5.274  0.8601 -0.3712  1.5546
 9031SOL     OW38725   4.048   3.686  12.281 -0.4753 -0.1975  0.2729
 9031SOL    HW138726   4.062   3.746  12.207  1.0701  1.8760  2.2390
 9031SOL    HW238727   3.953   3.673  12.283 -0.3178 -1.8757 -2.8872
 9032SOL     OW38728   3.445   4.716   3.761 -0.0520  0.6568  0.2638
 9032SOL    HW138729   3.459   0.059   3.709 -1.1018  0.1995 -0.7046
 9032SOL    HW238730   3.537   4.693   3.771 -0.1206  0.8853  1.4725
 9033SOL     OW38731   1.341   0.876   2.587 -0.4665 -0.6316 -0.3033
 9033SOL    HW138732   1.311   0.942   2.525 -0.3654 -1.2605 -1.0263
 9033SOL    HW238733   1.345   0.801   2.528 -1.2844 -1.4020  0.6331
 9034SOL     OW38734   3.442   3.087   1.742  0.0498  0.1803 -0.6981
 9034SOL    HW138735   3.428   3.118   1.831 -1.0063  1.2805 -1.2408
 9034SOL    HW238736   3.384   3.143   1.691 -0.1812 -0.6549 -1.3640
 9035SOL     OW38737   2.232   1.107  13.445  0.0507 -0.0445 -0.3289
 9035SOL    HW138738   2.260   1.078  13.358  1.6621  1.7086 -0.3992
 9035SOL    HW238739   2.185   1.189  13.429 -1.3781 -0.0989  3.5628
 9036SOL     OW38740   0.086   4.606   4.757 -0.5600  0.5352  0.4721
 9036SOL    HW138741   0.071   4.512   4.761 -0.4111  0.5086  0.4049
 9036SOL    HW238742   0.015   4.639   4.812 -0.5933  0.8135  0.2632
 9037SOL     OW38743   1.897   2.010  15.669  0.0606 -0.0300 -0.1730
 9037SOL    HW138744   1.815   2.055  15.650  0.1587  0.4932  0.6323
 9037SOL    HW238745   1.940   2.015  15.584  1.5654 -0.9736  0.5450
 9038SOL     OW38746   4.517   4.564   5.367  0.0583 -0.7124  0.0288
 9038SOL    HW138747   4.546   4.582   5.456  0.6889 -0.9146 -0.1336
 9038SOL    HW238748   4.463   4.486   5.376 -1.6594  0.2056 -2.3576
 9039SOL     OW38749   3.340   3.709   8.045  0.2372 -0.1912  0.3509
 9039SOL    HW138750   3.293   3.792   8.053 -1.0484 -0.6203 -2.7509
 9039SOL    HW238751   3.289   3.661   7.980  0.9187  2.6264 -2.2627
 9040SOL     OW38752   1.115   2.084   8.889 -0.2616 -0.0303 -0.0023
 9040SOL    HW138753   1.101   2.133   8.808 -0.5621  1.1227  0.7405
 9040SOL    HW238754   1.058   2.009   8.872 -1.7548  1.4338 -1.3735
 9041SOL     OW38755   1.618   0.124  14.448 -0.1690  0.3652  0.1367
 9041SOL    HW138756   1.627   0.034  14.416 -0.0196  0.1580  0.7457
 9041SOL    HW238757   1.649   0.171  14.371 -0.3160 -0.3343 -0.3514
 9042SOL     OW38758   0.294   2.828   1.521  0.2368 -0.8136 -0.2340
 9042SOL    HW138759   0.226   2.834   1.588  0.0150 -0.8607 -0.4561
 9042SOL    HW238760   0.337   2.912   1.538 -3.5533  1.0209  0.3057
 9043SOL     OW38761   3.363   1.344   7.275  0.6326  0.2479  0.5343
 9043SOL    HW138762   3.268   1.340   7.266  0.8589  0.3902 -1.7746
 9043SOL    HW238763   3.379   1.426   7.323 -0.9249  0.6020  0.4572
 9044SOL     OW38764   2.993   3.273  15.005  0.0261  0.4359 -0.4191
 9044SOL    HW138765   3.079   3.294  14.967 -0.3953 -0.0522 -1.6434
 9044SOL    HW238766   2.993   3.329  15.082  0.8448 -0.5576  0.2992
 9045SOL     OW38767   2.620   2.488   1.895  0.3093 -0.5067  0.0015
 9045SOL    HW138768   2.532   2.524   1.882  0.0941 -1.4687 -1.2648
 9045SOL    HW238769   2.653   2.551   1.959 -1.4381  0.1951  0.2021
 9046SOL     OW38770   0.275   4.536   1.213 -0.4628  0.1097 -0.0528
 9046SOL    HW138771   0.313   4.526   1.125  1.1675  0.3178  0.6286
 9046SOL    HW238772   0.185   4.555   1.186 -0.2432 -0.3012 -1.0984
 9047SOL     OW38773   2.943   3.564   5.201 -0.0807  1.0578 -0.6990
 9047SOL    HW138774   3.018   3.612   5.235  0.7788 -1.6579  1.2392
 9047SOL    HW238775   2.986   3.535   5.121 -0.7020  1.0539 -1.0279
 9048SOL     OW38776   2.647   1.718   7.680 -0.2449  0.2445 -0.3441
 9048SOL    HW138777   2.574   1.765   7.721  0.1254 -1.8897  2.8202
 9048SOL    HW238778   2.609   1.633   7.659 -2.9361  0.9004  1.7247
 9049SOL     OW38779   4.572   1.920  10.855 -0.0239 -0.4136  0.0587
 9049SOL    HW138780   4.654   1.915  10.806 -0.2361  0.5869 -0.3942
 9049SOL    HW238781   4.582   1.999  10.908 -1.3887 -2.1095  2.8086
 9050SOL     OW38782   1.888   2.445  12.445  0.8510 -0.0039  0.9220
 9050SOL    HW138783   1.908   2.528  12.402 -1.8883 -0.6382 -1.5942
 9050SOL    HW238784   1.891   2.384  12.371 -1.6102  1.2583 -0.2021
 9051SOL     OW38785   1.630   1.789   7.387 -0.4282  0.1903  0.2796
 9051SOL    HW138786   1.538   1.776   7.365 -0.7154  1.6129  0.6687
 9051SOL    HW238787   1.630   1.878   7.422 -1.0196  1.3055 -2.5689
 9052SOL     OW38788   3.959   4.672   9.129 -0.6808  0.0597  0.7503
 9052SOL    HW138789   4.020   0.009   9.115 -0.1893 -0.1704  1.7059
 9052SOL    HW238790   3.936   4.658   9.037  1.5109  0.6223  0.1258
 9053SOL     OW38791   1.567   1.038  12.471  0.8159  0.3556  0.3709
 9053SOL    HW138792   1.634   1.086  12.521  2.5350 -1.6651  0.0092
 9053SOL    HW238793   1.492   1.055  12.529  1.0790  0.9094  0.5540
 9054SOL     OW38794   3.956   1.404  13.888  0.0448 -0.3014 -0.1761
 9054SOL    HW138795   3.964   1.401  13.983 -2.1230 -1.7079 -0.0191
 9054SOL    HW238796   3.861   1.398  13.876  0.1925 -1.2475 -0.8944
 9055SOL     OW38797   1.065   2.582   0.021  0.8919 -0.2630 -0.3794
 9055SOL    HW138798   1.131   2.530  17.719  1.8074  0.9263 -0.3911
 9055SOL    HW238799   1.113   2.620   0.094 -1.0932  0.0459  0.7878
 9056SOL     OW38800   1.535   4.453  15.463 -0.8608  0.1338  0.3539
 9056SOL    HW138801   1.442   4.445  15.445 -0.8431  0.2429  0.2125
 9056SOL    HW238802   1.571   4.525  15.411  0.9437 -0.2840  1.0332
 9057SOL     OW38803   3.679   3.729   3.223 -0.2135  0.0266  0.0220
 9057SOL    HW138804   3.665   3.676   3.301 -1.5201  1.1666  0.5604
 9057SOL    HW238805   3.772   3.749   3.231 -0.2552  0.3412 -0.2763
 9058SOL     OW38806   1.465   3.098   6.823 -0.2253  0.0170  0.2535
 9058SOL    HW138807   1.491   3.169   6.881  2.6237  0.7562 -1.9038
 9058SOL    HW238808   1.394   3.055   6.871 -1.0827 -0.0756 -1.0807
 9059SOL     OW38809   1.666   1.312   6.315 -0.2132  0.0124  0.7240
 9059SOL    HW138810   1.629   1.369   6.382  0.4496  1.0533  0.2069
 9059SOL    HW238811   1.601   1.312   6.245 -1.8862 -1.1085  2.2940
 9060SOL     OW38812   4.616   1.716  14.143  0.2193  0.4957  0.1462
 9060SOL    HW138813   4.602   1.646  14.207  3.3618  0.8476  1.2055
 9060SOL    HW238814   4.700   1.748  14.175 -1.2576  1.3686  3.1788
 9061SOL     OW38815   3.600   3.345   5.370  0.6601  0.3181 -0.2474
 9061SOL    HW138816   3.646   3.270   5.332 -0.4672  0.1310 -1.2319
 9061SOL    HW238817   3.542   3.372   5.299 -2.0473  1.0171  2.2468
 9062SOL     OW38818   4.402   4.011   0.232 -0.5056 -0.0434  0.1913
 9062SOL    HW138819   4.391   3.949   0.159  1.5774  1.2469 -1.2459
 9062SOL    HW238820   4.323   3.998   0.284  0.5809 -0.8631  1.6351
 9063SOL     OW38821   0.449   4.421   5.968  0.1250  0.4987  0.1960
 9063SOL    HW138822   0.461   4.434   6.062 -1.5079 -2.5016  0.8290
 9063SOL    HW238823   0.413   4.332   5.962  0.7614  0.2313  0.4136
 9064SOL     OW38824   2.591   3.811   2.872 -0.5275 -0.5283  1.3163
 9064SOL    HW138825   2.544   3.894   2.875  2.2961  1.1410 -0.1926
 9064SOL    HW238826   2.649   3.841   2.942 -0.3807 -0.1034  1.0153
 9065SOL     OW38827   0.826   3.048   2.518 -0.6466  0.3240  0.0584
 9065SOL    HW138828   0.844   2.954   2.517 -0.8771  0.3006 -1.8871
 9065SOL    HW238829   0.895   3.087   2.465 -0.4624  1.3755  1.0644
 9066SOL     OW38830   3.444   3.568   1.885  0.3345 -0.2338 -0.8979
 9066SOL    HW138831   3.466   3.652   1.846  1.6579 -0.5652 -0.8569
 9066SOL    HW238832   3.360   3.599   1.918 -0.0584 -0.7943 -1.3625
 9067SOL     OW38833   4.282   2.983   4.249  0.0594 -0.0856  0.0171
 9067SOL    HW138834   4.297   3.004   4.157 -0.0992 -2.2301 -0.4892
 9067SOL    HW238835   4.281   3.065   4.299  1.4652  0.6454 -1.1340
 9068SOL     OW38836   1.201   2.428  16.971  0.1350 -0.4084 -0.1252
 9068SOL    HW138837   1.232   2.463  17.054  1.1754  0.2409 -0.7907
 9068SOL    HW238838   1.240   2.488  16.908 -1.0120  1.0807  0.5865
 9069SOL     OW38839   1.881   0.324  17.096 -0.7791  0.2422 -0.3711
 9069SOL    HW138840   1.824   0.367  17.032  0.4724  3.2533  0.5004
 9069SOL    HW238841   1.896   0.390  17.164 -1.0591  0.5399 -0.5960
 9070SOL     OW38842   3.280   3.714  15.660 -0.1750 -0.0083 -0.2102
 9070SOL    HW138843   3.204   3.750  15.614  0.7876  0.1583 -1.6810
 9070SOL    HW238844   3.248   3.697  15.748 -0.0937  1.3730  0.0867
 9071SOL     OW38845   4.026   3.346  13.093 -0.2486 -0.3118 -0.1501
 9071SOL    HW138846   4.075   3.419  13.056 -2.1229  0.5728 -0.9057
 9071SOL    HW238847   4.045   3.346  13.187 -2.7146  0.7240  0.3551
 9072SOL     OW38848   1.448   2.618   6.916  0.2105  0.1681  0.6458
 9072SOL    HW138849   1.526   2.562   6.921  1.0285  1.1462 -1.3243
 9072SOL    HW238850   1.374   2.562   6.939  0.7873 -0.5415  0.7854
 9073SOL     OW38851   1.954   2.440   3.492  0.2379 -0.0602 -0.0293
 9073SOL    HW138852   1.893   2.511   3.470  2.2238  1.7585  0.3573
 9073SOL    HW238853   1.973   2.396   3.410  0.8720 -1.9793  1.1565
 9074SOL     OW38854   1.092   2.592   2.050  0.2642  0.2150  0.5370
 9074SOL    HW138855   1.098   2.501   2.020  1.4180  0.7080 -0.7346
 9074SOL    HW238856   1.148   2.594   2.127  1.5364  4.8774 -0.4779
 9075SOL     OW38857   3.562   1.665   4.243  0.2157 -0.5560 -0.7335
 9075SOL    HW138858   3.632   1.602   4.256  1.8086  1.4642  0.6073
 9075SOL    HW238859   3.598   1.749   4.272 -2.3857  0.3821 -0.1317
 9076SOL     OW38860   1.447   2.824   7.129 -0.5274 -0.3120 -0.1467
 9076SOL    HW138861   1.398   2.797   7.050  2.2684  0.8235 -2.2444
 9076SOL    HW238862   1.534   2.809   7.094  0.6760  2.2910  1.7893
 9077SOL     OW38863   1.135   0.380   7.544 -0.1349  0.5021 -0.1708
 9077SOL    HW138864   1.081   0.347   7.472 -1.6228 -0.4723  1.4077
 9077SOL    HW238865   1.214   0.327   7.532 -3.3546 -4.0477 -1.1738
 9078SOL     OW38866   0.324   0.165   6.488 -0.4556 -0.0799  0.5896
 9078SOL    HW138867   0.390   0.103   6.521 -0.4269 -0.2814  0.1592
 9078SOL    HW238868   0.243   0.118   6.472 -0.4822 -0.6647  2.4459
 9079SOL     OW38869   1.728   1.167   4.020  0.5858 -0.2994 -0.0776
 9079SOL    HW138870   1.815   1.129   4.032  1.3365  1.9297  1.6112
 9079SOL    HW238871   1.676   1.088   4.011  0.4323 -0.1972 -0.0986
 9080SOL     OW38872   1.506   3.228  13.626  1.1090 -0.1997 -0.2087
 9080SOL    HW138873   1.537   3.319  13.625  2.3831 -0.6700 -2.8128
 9080SOL    HW238874   1.487   3.215  13.533 -0.7749 -0.3634  0.2029
 9081SOL     OW38875   0.048   4.463  14.536  0.4085 -0.5940  0.1599
 9081SOL    HW138876   0.140   4.440  14.548 -0.3682 -3.2846  0.9889
 9081SOL    HW238877   0.057   4.557  14.554  0.5330 -0.4226 -0.7845
 9082SOL     OW38878   0.880   4.721  11.083 -0.3755 -0.2872 -0.6220
 9082SOL    HW138879   0.838   4.638  11.060  1.2307 -1.7363  1.7091
 9082SOL    HW238880   0.971   4.693  11.091 -0.1044  0.9061  0.5811
 9083SOL     OW38881   1.755   3.178   5.916 -0.1447 -0.8089 -0.1675
 9083SOL    HW138882   1.738   3.127   5.836  0.4856 -0.2684 -0.6444
 9083SOL    HW238883   1.795   3.123   5.983 -1.1357  0.5258  1.5276
 9084SOL     OW38884   4.195   2.344  13.121 -0.1926 -0.7486  0.9145
 9084SOL    HW138885   4.192   2.320  13.214  2.6588  2.5265  1.8905
 9084SOL    HW238886   4.101   2.355  13.107 -0.3049 -1.3646  1.1891
 9085SOL     OW38887   0.918   3.209   6.837 -0.0726 -0.5771 -0.6671
 9085SOL    HW138888   0.850   3.223   6.770  0.0417  3.2651  0.0124
 9085SOL    HW238889   0.881   3.255   6.912 -2.3249 -0.2073 -1.9752
 9086SOL     OW38890   3.302   4.000   9.565  0.8039 -0.0322 -0.2159
 9086SOL    HW138891   3.364   4.063   9.528  0.1857  2.0993  2.4310
 9086SOL    HW238892   3.348   3.959   9.637 -0.9320 -0.2919  0.7487
 9087SOL     OW38893   3.988   3.484   0.830  1.1733 -0.3373  0.4706
 9087SOL    HW138894   3.981   3.571   0.792 -1.4417 -1.7736 -2.3662
 9087SOL    HW238895   3.905   3.480   0.878  0.8101 -0.9102 -0.1939
 9088SOL     OW38896   4.038   0.643  10.805  0.0359  0.2498  0.5308
 9088SOL    HW138897   4.131   0.657  10.790 -0.2096  1.8923  0.5072
 9088SOL    HW238898   4.035   0.661  10.899 -2.2688  2.3073  0.0743
 9089SOL     OW38899   0.208   3.646  14.251 -0.9370  0.4398  0.3510
 9089SOL    HW138900   0.255   3.726  14.228  2.1648 -1.6710 -0.5488
 9089SOL    HW238901   0.181   3.665  14.341  0.2155  1.0190  0.5714
 9090SOL     OW38902   3.156   4.334   1.807  0.4410  0.7234 -0.2098
 9090SOL    HW138903   3.207   4.411   1.832  0.0014  0.3182  1.8920
 9090SOL    HW238904   3.209   4.292   1.738  0.4167 -2.7798  1.9042
 9091SOL     OW38905   0.077   3.543   8.012 -0.7103  0.6485  0.0719
 9091SOL    HW138906   0.128   3.470   8.045 -0.6097  0.1259 -1.2317
 9091SOL    HW238907   0.096   3.545   7.918  0.2439  2.0165  0.2814
 9092SOL     OW38908   4.235   3.915  10.308  0.2180  0.8487 -0.5549
 9092SOL    HW138909   4.307   3.976  10.289  1.7703 -1.1005 -0.9876
 9092SOL    HW238910   4.219   3.930  10.401 -1.2909  0.7047 -0.7846
 9093SOL     OW38911   4.188   2.754  10.325 -0.6630  0.2778 -0.0586
 9093SOL    HW138912   4.108   2.711  10.356 -0.9725 -1.2142 -2.9527
 9093SOL    HW238913   4.232   2.683  10.278 -0.3325  0.4791 -0.0494
 9094SOL     OW38914   0.195   4.489  14.869  0.2716 -0.3091 -0.0253
 9094SOL    HW138915   0.242   4.490  14.786  0.2697 -0.5251 -0.0278
 9094SOL    HW238916   0.110   4.452  14.846 -0.4439  0.3328  1.5445
 9095SOL     OW38917   4.440   4.221   7.631 -0.1431  0.1771  0.0920
 9095SOL    HW138918   4.493   4.300   7.637  0.1433  0.0221 -0.3859
 9095SOL    HW238919   4.506   4.153   7.614 -1.1784 -0.6269 -0.7021
 9096SOL     OW38920   3.114   1.831  16.922  0.6526  0.6356 -0.1456
 9096SOL    HW138921   3.069   1.818  16.839  0.4795 -0.5341  0.1283
 9096SOL    HW238922   3.203   1.824  16.889  0.0458 -1.2447 -1.3465
 9097SOL     OW38923   2.583   2.067   3.770  0.4678  0.3745 -0.2309
 9097SOL    HW138924   2.507   2.020   3.803  0.6104  0.3876  0.1106
 9097SOL    HW238925   2.562   2.160   3.774 -1.4229 -0.1705  2.2617
 9098SOL     OW38926   2.110   1.788  13.695 -0.1173 -0.5737 -0.1229
 9098SOL    HW138927   2.144   1.877  13.704  0.0903 -0.7403  0.7850
 9098SOL    HW238928   2.015   1.797  13.705 -0.1048 -0.7660  0.1750
 9099SOL     OW38929   1.682   0.309  10.227 -0.3526  0.0586  0.0301
 9099SOL    HW138930   1.659   0.219  10.203  1.6903 -0.2253 -0.8745
 9099SOL    HW238931   1.636   0.345  10.152 -0.9507 -0.3622  0.1935
 9100SOL     OW38932   1.632   3.346   6.391  0.5971  0.4627  0.0493
 9100SOL    HW138933   1.558   3.330   6.332  0.2712 -3.1645  1.4461
 9100SOL    HW238934   1.604   3.286   6.460  2.1227  0.7921  0.9432
 9101SOL     OW38935   0.678   2.568   1.572  0.9970  0.7062 -0.3016
 9101SOL    HW138936   0.613   2.585   1.503 -1.9038  1.3453  2.5683
 9101SOL    HW238937   0.628   2.605   1.645  1.1823  0.3946 -0.0215
 9102SOL     OW38938   3.268   1.143   8.124  0.2675  0.0658 -0.0268
 9102SOL    HW138939   3.286   1.235   8.142  2.5527  0.2822 -3.3310
 9102SOL    HW238940   3.249   1.151   8.030 -1.5006  1.5287  0.4692
 9103SOL     OW38941   0.279   1.181   7.754  0.0063  0.2281 -0.3148
 9103SOL    HW138942   0.225   1.217   7.684 -0.5482  1.1960  0.5955
 9103SOL    HW238943   0.210   1.178   7.821 -0.1969 -0.1148 -0.5410
 9104SOL     OW38944   0.926   0.046  11.504  0.1990  0.1972 -0.4913
 9104SOL    HW138945   0.995   0.070  11.441  1.1968 -0.2035  0.4512
 9104SOL    HW238946   0.849   0.076  11.455  0.6170  0.1743 -1.1689
 9105SOL     OW38947   3.692   0.886  12.862  0.3524  0.1197 -0.0773
 9105SOL    HW138948   3.603   0.922  12.871 -1.1006 -3.4645 -0.3007
 9105SOL    HW238949   3.723   0.940  12.789  2.1045 -0.8318 -0.0327
 9106SOL     OW38950   0.135   2.367  12.778 -0.1743 -0.1524  0.2357
 9106SOL    HW138951   0.095   2.280  12.780  0.5872 -0.4785  1.3821
 9106SOL    HW238952   0.229   2.352  12.777 -0.4230 -1.6793 -0.1112
 9107SOL     OW38953   2.008   2.052  12.029  0.1004  0.6493  0.0541
 9107SOL    HW138954   2.034   1.975  12.080 -1.2627 -0.4596 -0.9104
 9107SOL    HW238955   2.098   2.085  12.023  0.3511  0.1967  1.3668
 9108SOL     OW38956   2.214   0.809  12.367 -0.0188 -0.3802  0.3133
 9108SOL    HW138957   2.270   0.866  12.420  1.0090 -0.4700 -0.6778
 9108SOL    HW238958   2.171   0.881  12.321 -0.2912  0.2641  1.5580
 9109SOL     OW38959   3.324   2.263   5.479  0.4964  0.0118  0.0708
 9109SOL    HW138960   3.233   2.233   5.477  0.3405  0.4492  0.5692
 9109SOL    HW238961   3.353   2.205   5.409 -0.6206 -1.2229  0.6227
 9110SOL     OW38962   1.166   2.422   7.440 -0.1125 -0.6442 -0.6391
 9110SOL    HW138963   1.167   2.515   7.417  0.5984 -0.1911  1.2468
 9110SOL    HW238964   1.252   2.411   7.479 -0.7890 -2.0186  0.4555
 9111SOL     OW38965   4.087   1.040   3.344 -0.4126 -0.2826 -0.0085
 9111SOL    HW138966   3.999   1.076   3.357 -1.2336 -2.1114 -0.5397
 9111SOL    HW238967   4.066   0.947   3.347  0.7032 -0.5317  0.2788
 9112SOL     OW38968   2.118   3.726   3.676 -0.1466  0.1904 -0.8348
 9112SOL    HW138969   2.024   3.708   3.685  0.2474 -3.2411 -3.7946
 9112SOL    HW238970   2.157   3.648   3.716 -0.1974  0.8238  0.4374
 9113SOL     OW38971   3.091   2.024  13.058 -0.3444  0.3829 -0.3792
 9113SOL    HW138972   3.095   2.071  13.141  4.6888  2.4937 -1.7608
 9113SOL    HW238973   3.001   1.994  13.052  0.6415 -2.3253 -1.4896
 9114SOL     OW38974   4.432   2.263  11.163 -0.3457  0.0828 -0.1086
 9114SOL    HW138975   4.375   2.216  11.102  0.3098 -0.9505  0.0660
 9114SOL    HW238976   4.429   2.355  11.137 -1.0003  0.3887  1.0689
 9115SOL     OW38977   3.167   2.314   3.328  0.6192 -0.3774  0.7644
 9115SOL    HW138978   3.096   2.289   3.268  2.6141 -1.8195 -1.0170
 9115SOL    HW238979   3.136   2.280   3.412  1.2103 -2.0401  0.3281
 9116SOL     OW38980   1.400   0.254   4.480  0.0831  0.0687 -0.0163
 9116SOL    HW138981   1.400   0.164   4.445 -1.4042 -0.4549  1.3114
 9116SOL    HW238982   1.308   0.271   4.499  0.1844  1.5998 -0.9062
 9117SOL     OW38983   4.284   4.002  14.488  0.3058  0.5274 -0.4674
 9117SOL    HW138984   4.372   3.966  14.491  0.1882  0.0435 -2.6877
 9117SOL    HW238985   4.301   4.086  14.530 -0.1839  0.9608 -1.1259
 9118SOL     OW38986   1.157   4.580   1.294  0.2866 -0.2835 -0.3610
 9118SOL    HW138987   1.134   4.654   1.351 -0.5479 -0.6341 -0.2375
 9118SOL    HW238988   1.250   4.575   1.315  0.1096 -0.5410  0.3838
 9119SOL     OW38989   1.979   4.582   6.349  0.0120 -0.0089  0.2261
 9119SOL    HW138990   2.030   4.520   6.401  1.0709  0.1381 -0.6433
 9119SOL    HW238991   2.033   4.662   6.348  1.2307 -0.8294  0.4082
 9120SOL     OW38992   2.784   0.287   7.286 -0.6266  0.1072  0.2067
 9120SOL    HW138993   2.750   0.350   7.222  0.1807  1.8924  1.5570
 9120SOL    HW238994   2.781   0.333   7.370  1.1780  0.1189  0.2709
 9121SOL     OW38995   3.881   1.685   4.178 -0.3497 -0.0687  0.1684
 9121SOL    HW138996   3.895   1.746   4.105 -1.0037 -2.4798 -1.9822
 9121SOL    HW238997   3.852   1.751   4.241  2.1332  0.5394  0.6736
 9122SOL     OW38998   1.456   4.447   3.869  0.2547  0.5541  0.1266
 9122SOL    HW138999   1.500   4.387   3.809 -0.9213 -1.5076  1.3038
 9122SOL    HW239000   1.440   4.391   3.946 -0.9888 -0.0178 -0.5490
 9123SOL     OW39001   3.888   2.541  16.124  0.3470 -0.6755  0.2787
 9123SOL    HW139002   3.834   2.483  16.071  0.1931  1.7671 -2.2693
 9123SOL    HW239003   3.825   2.606  16.155 -1.3368 -2.4767  0.5926
 9124SOL     OW39004   1.954   4.405   3.785  0.1659 -0.1561 -0.1432
 9124SOL    HW139005   1.963   4.310   3.796 -1.3065 -0.4748 -1.6522
 9124SOL    HW239006   2.041   4.442   3.776  0.9359 -1.9063  0.0008
 9125SOL     OW39007   3.792   2.605   1.754 -0.1093  0.4741  0.2177
 9125SOL    HW139008   3.720   2.542   1.744  0.0700  0.6912 -2.4719
 9125SOL    HW239009   3.856   2.540   1.782  1.9321  1.7498 -1.4978
 9126SOL     OW39010   3.262   0.878   7.450 -0.0330  0.1230 -0.4670
 9126SOL    HW139011   3.171   0.908   7.447  0.5220  1.8952  0.3163
 9126SOL    HW239012   3.303   0.930   7.519 -0.4236  0.2561 -0.3299
 9127SOL     OW39013   0.683   0.432  16.648 -0.0372 -0.1528  0.4745
 9127SOL    HW139014   0.598   0.476  16.656  0.4496  0.6371  1.3442
 9127SOL    HW239015   0.650   0.343  16.638  0.2454 -0.2557  0.4539
 9128SOL     OW39016   4.510   3.768   1.802  0.0857 -0.1076 -0.2575
 9128SOL    HW139017   4.518   3.842   1.863  2.9466 -1.7621  1.4196
 9128SOL    HW239018   4.424   3.782   1.763 -0.6231  1.5563  1.8564
 9129SOL     OW39019   3.309   4.445   8.991  0.0536 -0.2526 -0.0973
 9129SOL    HW139020   3.223   4.433   9.031  0.5964 -0.9951  0.8426
 9129SOL    HW239021   3.303   4.540   8.983 -1.4980 -0.4513 -1.2222
 9130SOL     OW39022   3.230   4.673   9.254  0.8339 -0.1860  0.1594
 9130SOL    HW139023   3.253   4.719   9.172  1.9485 -2.7545 -0.9564
 9130SOL    HW239024   3.261   0.002   9.317  1.4582  0.4540 -0.7864
 9131SOL     OW39025   2.388   2.013   4.360  0.1205  0.3286 -0.1545
 9131SOL    HW139026   2.450   1.978   4.297  1.6156  0.8610  1.0211
 9131SOL    HW239027   2.321   2.048   4.301  0.3793  1.7639  0.4203
 9132SOL     OW39028   3.619   0.660   1.830 -0.3818  0.0524  0.0882
 9132SOL    HW139029   3.709   0.680   1.803 -0.3753  0.3989  0.3660
 9132SOL    HW239030   3.578   0.746   1.820  0.8111  0.7417  1.1198
 9133SOL     OW39031   0.714   3.334   5.018 -0.3627 -0.6226 -0.0069
 9133SOL    HW139032   0.782   3.284   5.063  0.7857  0.9440  0.0052
 9133SOL    HW239033   0.669   3.368   5.096  0.9379 -0.4126  0.6559
 9134SOL     OW39034   2.739   1.954   2.516  0.3108  0.3798 -0.5288
 9134SOL    HW139035   2.792   1.971   2.438  0.2451 -1.5162 -0.9929
 9134SOL    HW239036   2.778   1.875   2.554 -1.0136 -0.1082 -0.1623
 9135SOL     OW39037   3.827   2.825   8.534  0.3464  0.5933  0.4421
 9135SOL    HW139038   3.913   2.793   8.508 -0.8338 -2.5561  0.3966
 9135SOL    HW239039   3.799   2.767   8.605  1.5046 -0.8851 -0.3044
 9136SOL     OW39040   0.717   3.594   5.703  0.5324 -0.2994  0.0680
 9136SOL    HW139041   0.651   3.652   5.741  0.0151 -1.7272  1.3275
 9136SOL    HW239042   0.667   3.513   5.696 -0.8132  0.3853  1.6189
 9137SOL     OW39043   2.498   0.805   3.441 -1.5268 -0.2365  0.4434
 9137SOL    HW139044   2.561   0.740   3.471 -0.3180  0.2206 -1.1577
 9137SOL    HW239045   2.434   0.743   3.405 -0.3164 -1.7811  0.9506
 9138SOL     OW39046   3.603   0.227   2.994 -0.3136  0.0257  0.3056
 9138SOL    HW139047   3.588   0.258   3.083 -1.2060  0.5770 -0.0466
 9138SOL    HW239048   3.567   0.299   2.942  1.1292  1.7695  1.7250
 9139SOL     OW39049   3.510   3.261   3.122 -0.3483 -0.2812 -0.2103
 9139SOL    HW139050   3.484   3.169   3.114  1.0871 -0.5380 -2.0376
 9139SOL    HW239051   3.570   3.267   3.047 -0.1971  0.2075 -0.0480
 9140SOL     OW39052   3.904   3.519   5.529  0.2352  0.2696  0.2959
 9140SOL    HW139053   3.974   3.521   5.464  0.5063  1.7942  0.6374
 9140SOL    HW239054   3.828   3.556   5.484 -0.9885 -0.3958  1.8333
 9141SOL     OW39055   2.034   2.260   5.677  0.8834 -0.3953 -0.7974
 9141SOL    HW139056   2.062   2.186   5.731  0.3775  0.4162  0.5842
 9141SOL    HW239057   1.991   2.217   5.603 -1.6621 -1.1717  1.1668
 9142SOL     OW39058   1.062   3.217   8.896  0.3978 -0.0396 -1.1718
 9142SOL    HW139059   1.007   3.289   8.928  0.4308 -0.8109  0.6039
 9142SOL    HW239060   1.093   3.177   8.978 -1.4740  0.7119 -0.0750
 9143SOL     OW39061   1.061   3.595   3.290 -0.6766  0.2811  0.6168
 9143SOL    HW139062   1.079   3.513   3.244  0.1435 -0.0788  1.5615
 9143SOL    HW239063   0.967   3.580   3.304 -1.1856  1.8300 -1.1434
 9144SOL     OW39064   3.291   0.344   9.207  0.1469  0.3778 -0.6449
 9144SOL    HW139065   3.217   0.349   9.147  1.1737 -1.0772 -2.0251
 9144SOL    HW239066   3.238   0.310   9.279  2.6782 -1.0386  0.5284
 9145SOL     OW39067   0.213   1.618   0.904  0.0050  0.1242 -0.1051
 9145SOL    HW139068   0.266   1.607   0.825  0.9366  1.0741  0.3853
 9145SOL    HW239069   0.138   1.566   0.875 -0.0060 -0.1209  0.3535
 9146SOL     OW39070   2.952   3.563  15.625  0.5534  0.0619 -0.1424
 9146SOL    HW139071   2.984   3.630  15.565 -3.7993  2.6327  0.4055
 9146SOL    HW239072   3.010   3.561  15.701  1.5329 -3.1673 -0.9598
 9147SOL     OW39073   1.128   1.077  11.259 -0.3161 -0.4683  0.2191
 9147SOL    HW139074   1.167   1.046  11.340  0.0864  0.2372  0.2887
 9147SOL    HW239075   1.133   1.000  11.201  1.3375 -0.6564  0.6312
 9148SOL     OW39076   4.265   0.019  12.220  0.1253  0.2692  0.4709
 9148SOL    HW139077   4.260   0.001  12.126 -0.8552 -0.1912  0.6092
 9148SOL    HW239078   4.355   0.044  12.238 -0.1273  1.4086  0.1795
 9149SOL     OW39079   0.578   1.587   3.341 -0.1393 -0.3722 -0.0872
 9149SOL    HW139080   0.526   1.528   3.397  0.5633  0.0119  0.9694
 9149SOL    HW239081   0.660   1.582   3.389  0.9321  2.5294 -1.6114
 9150SOL     OW39082   2.191   2.611  16.376  0.1748  0.5002  0.4911
 9150SOL    HW139083   2.202   2.571  16.462  0.1947  0.4980  0.4877
 9150SOL    HW239084   2.104   2.581  16.352 -0.1380  1.7604  0.0224
 9151SOL     OW39085   0.294   3.049   4.386 -0.3730  0.1573  0.0913
 9151SOL    HW139086   0.385   3.057   4.358 -0.0806 -0.6818  0.8175
 9151SOL    HW239087   0.251   3.110   4.325  0.8666  0.9743  0.0244
 9152SOL     OW39088   1.721   1.001   2.359  0.6624 -0.3246  0.6281
 9152SOL    HW139089   1.649   1.003   2.296 -0.3022 -1.8185  1.6920
 9152SOL    HW239090   1.711   0.922   2.411  0.3359 -1.3241 -0.9650
 9153SOL     OW39091   2.628   3.365   2.385  0.0880  0.2578 -0.0445
 9153SOL    HW139092   2.587   3.446   2.355  0.7602  1.3435  1.9461
 9153SOL    HW239093   2.708   3.402   2.424  0.3144  0.5934 -0.8332
 9154SOL     OW39094   4.032   2.312   5.930  0.5511  0.6357 -0.2821
 9154SOL    HW139095   4.030   2.358   5.846 -1.5521  1.7847  0.4251
 9154SOL    HW239096   3.958   2.343   5.982  0.0957  0.2337 -0.6898
 9155SOL     OW39097   0.947   0.516  16.301  0.5415  0.1168  0.0386
 9155SOL    HW139098   1.027   0.494  16.253  0.2625 -1.2731  0.2074
 9155SOL    HW239099   0.958   0.608  16.325 -3.0916  0.1386  1.6268
 9156SOL     OW39100   4.064   4.346   6.529  0.1275  0.2715 -0.8658
 9156SOL    HW139101   3.980   4.380   6.560  1.2597  1.0989  1.3015
 9156SOL    HW239102   4.087   4.303   6.612 -1.1828 -0.4520 -0.8769
 9157SOL     OW39103   0.421   3.916   7.016 -0.0139  0.0087  0.1628
 9157SOL    HW139104   0.338   3.960   6.998  0.1077  0.8420  1.6216
 9157SOL    HW239105   0.420   3.928   7.111  1.6237 -1.7079  0.3990
 9158SOL     OW39106   3.946   4.449  13.036 -0.0768  0.7780 -0.0994
 9158SOL    HW139107   3.883   4.431  13.106  2.7695 -0.0503  2.1896
 9158SOL    HW239108   3.964   4.359  13.010  0.3997  0.9224 -0.2541
 9159SOL     OW39109   0.401   2.276  17.038 -0.4887  0.6039  0.5428
 9159SOL    HW139110   0.438   2.188  17.030 -1.0731  0.3708  0.3625
 9159SOL    HW239111   0.330   2.271  16.974 -0.9096  1.3568  0.9392
 9160SOL     OW39112   3.214   1.145   4.921 -0.2931 -0.2314  0.0119
 9160SOL    HW139113   3.291   1.090   4.914 -0.3499 -0.4107  0.7912
 9160SOL    HW239114   3.212   1.154   5.016 -0.2192 -2.0270  0.1687
 9161SOL     OW39115   3.774   3.396   0.950 -0.1029 -0.2829 -0.0906
 9161SOL    HW139116   3.810   3.324   0.898  0.4829 -1.2531  1.6673
 9161SOL    HW239117   3.802   3.374   1.038  0.8657 -0.2351 -0.3790
 9162SOL     OW39118   0.751   1.121   1.424 -0.1404 -0.3259  0.0209
 9162SOL    HW139119   0.762   1.091   1.333 -3.4420 -0.8457 -0.1989
 9162SOL    HW239120   0.751   1.215   1.407 -0.1130 -0.2989  0.1784
 9163SOL     OW39121   3.529   3.610  13.318 -0.1161  0.1285  0.4494
 9163SOL    HW139122   3.549   3.579  13.230  0.2261 -2.2447  1.3551
 9163SOL    HW239123   3.532   3.538  13.381  1.1413 -0.7045 -0.5794
 9164SOL     OW39124   2.866   1.308   5.155 -0.2570 -0.2205 -0.0100
 9164SOL    HW139125   2.924   1.356   5.214  1.3743 -3.0777  0.7040
 9164SOL    HW239126   2.837   1.235   5.208  1.1502 -1.7405 -1.3463
 9165SOL     OW39127   0.201   2.907   4.593  0.2875  0.3622 -0.2583
 9165SOL    HW139128   0.237   2.917   4.505 -1.2999  2.5704 -0.6628
 9165SOL    HW239129   0.191   3.002   4.597  0.0268  0.2289  2.6127
 9166SOL     OW39130   2.474   3.063   3.423  0.6121  0.4567  0.4746
 9166SOL    HW139131   2.542   3.128   3.438 -0.6001  1.7628  0.3701
 9166SOL    HW239132   2.489   3.032   3.334  0.1373 -1.3220  1.0146
 9167SOL     OW39133   3.620   2.645   4.201  0.5480  0.0527  0.4513
 9167SOL    HW139134   3.564   2.582   4.157  0.6453 -0.2622  0.7812
 9167SOL    HW239135   3.643   2.602   4.283  0.1268 -0.9836  0.0171
 9168SOL     OW39136   3.042   0.527   8.017 -0.4250  0.0604  0.1218
 9168SOL    HW139137   3.085   0.613   8.017 -0.8924  0.2949  1.2276
 9168SOL    HW239138   2.950   0.550   8.032 -1.3325 -3.3118 -0.3413
 9169SOL     OW39139   3.334   4.117  15.025 -0.1293  0.1467 -0.0104
 9169SOL    HW139140   3.404   4.067  15.067  0.6264 -0.0894 -1.5656
 9169SOL    HW239141   3.263   4.052  15.027 -0.1809  0.1925 -0.5553
 9170SOL     OW39142   3.131   3.068   4.254 -0.1622 -0.6486 -0.3176
 9170SOL    HW139143   3.050   3.019   4.243  0.4728 -1.3499 -1.8957
 9170SOL    HW239144   3.187   3.023   4.191 -0.9708 -0.6532 -1.0229
 9171SOL     OW39145   2.799   3.588   5.438 -0.4519 -0.6253 -0.2721
 9171SOL    HW139146   2.817   3.495   5.451 -1.5531 -0.6817  0.9072
 9171SOL    HW239147   2.840   3.600   5.352  0.0905  2.3895  0.3770
 9172SOL     OW39148   3.093   0.517   1.826 -0.3914  0.3268 -0.4419
 9172SOL    HW139149   3.172   0.569   1.840 -0.8903  1.3791 -1.5089
 9172SOL    HW239150   3.047   0.572   1.762  0.7831  1.4066 -0.3564
 9173SOL     OW39151   3.985   0.166   6.088 -0.4929 -0.4713 -0.0028
 9173SOL    HW139152   3.961   0.147   6.178  1.6424 -0.9783  0.4615
 9173SOL    HW239153   4.052   0.098   6.079 -0.5884 -0.7896  1.8172
 9174SOL     OW39154   2.839   3.122   9.048  0.1530 -0.0291 -0.6732
 9174SOL    HW139155   2.929   3.152   9.058 -0.4218  1.9174 -1.3236
 9174SOL    HW239156   2.805   3.188   8.987 -1.4038 -1.0181 -0.8840
 9175SOL     OW39157   3.501   2.077   4.877  0.2972 -0.1760 -0.2064
 9175SOL    HW139158   3.442   2.143   4.912  1.1406  2.1350 -3.1324
 9175SOL    HW239159   3.451   2.046   4.802 -1.9569  2.4807  0.1981
 9176SOL     OW39160   3.636   0.597   5.040  0.4958  0.2266 -0.1683
 9176SOL    HW139161   3.607   0.517   5.083 -2.1084 -0.3054 -2.9174
 9176SOL    HW239162   3.632   0.574   4.947  1.3746  0.1292 -0.1825
 9177SOL     OW39163   4.125   2.251   8.535  0.6325 -0.0044  0.1310
 9177SOL    HW139164   4.031   2.265   8.543  0.2272 -1.9734 -1.3716
 9177SOL    HW239165   4.148   2.324   8.593 -0.2785  0.4669 -0.0998
 9178SOL     OW39166   1.852   1.330  16.723  0.1318 -0.6644  0.0287
 9178SOL    HW139167   1.775   1.280  16.751 -3.0447  3.4294 -1.5236
 9178SOL    HW239168   1.910   1.314  16.798 -0.6327 -1.2410  0.5024
 9179SOL     OW39169   0.375   1.959  12.896 -0.3939 -0.9254 -0.7220
 9179SOL    HW139170   0.446   2.007  12.938 -1.0468  0.3013 -1.0234
 9179SOL    HW239171   0.297   2.010  12.919  0.3620  0.7249 -1.8663
 9180SOL     OW39172   1.588   1.324   6.875 -0.2932  0.1585 -0.0174
 9180SOL    HW139173   1.499   1.327   6.910 -0.6371 -1.6293 -0.7567
 9180SOL    HW239174   1.598   1.412   6.839  3.0109 -0.8626 -1.5872
 9181SOL     OW39175   4.536   3.618   4.624 -0.2501  0.1700 -0.3730
 9181SOL    HW139176   4.472   3.555   4.592  2.0793 -2.4326  0.1025
 9181SOL    HW239177   4.478   3.682   4.665  0.8111  0.5765  0.4741
 9182SOL     OW39178   2.974   1.335   4.893 -0.3968 -0.6336 -0.4166
 9182SOL    HW139179   3.061   1.299   4.876 -0.0603 -0.1913  0.3635
 9182SOL    HW239180   2.958   1.323   4.987 -0.1605 -0.3191 -0.3381
 9183SOL     OW39181   1.423   0.172  13.517 -0.4101  0.0082  0.2530
 9183SOL    HW139182   1.476   0.207  13.445 -0.2861  0.5158  0.5936
 9183SOL    HW239183   1.345   0.221  13.491  1.0466  2.0118 -0.3297
 9184SOL     OW39184   1.441   3.821  15.007  0.1825 -0.3472  0.4491
 9184SOL    HW139185   1.458   3.915  15.014 -1.9765  0.1489 -1.0089
 9184SOL    HW239186   1.421   3.793  15.096 -1.9891 -0.0842  0.0491
 9185SOL     OW39187   3.958   4.389   4.010  0.2087 -0.6230  0.0314
 9185SOL    HW139188   3.915   4.474   4.016 -1.5813 -1.6039  1.1368
 9185SOL    HW239189   3.903   4.332   3.956 -0.9216 -1.5649  2.1835
 9186SOL     OW39190   1.283   4.569   8.249 -0.0493  0.1797  0.0474
 9186SOL    HW139191   1.328   4.532   8.173 -2.5336  0.7638 -1.7013
 9186SOL    HW239192   1.290   4.662   8.230 -0.1352  0.3006  0.6108
 9187SOL     OW39193   0.711   4.540   7.005  0.1897 -0.2431  0.1017
 9187SOL    HW139194   0.705   4.579   6.918 -2.2192 -1.4191 -0.2493
 9187SOL    HW239195   0.638   4.479   7.014 -1.2255  1.4483 -0.0096
 9188SOL     OW39196   0.804   0.745   5.298 -0.4553  0.1011  0.1991
 9188SOL    HW139197   0.881   0.801   5.293  0.8009 -1.5408  1.6429
 9188SOL    HW239198   0.759   0.782   5.374 -1.2634  1.8195 -1.1304
 9189SOL     OW39199   3.061   4.030   3.055  0.1911  0.2075  0.2429
 9189SOL    HW139200   3.129   4.088   3.021  1.8418 -0.9639  1.6101
 9189SOL    HW239201   3.083   4.026   3.148  0.2290 -0.7768  0.1839
 9190SOL     OW39202   3.898   3.870  10.608 -0.1061  0.0547 -0.3112
 9190SOL    HW139203   3.974   3.902  10.560 -2.2783  3.2204 -1.6590
 9190SOL    HW239204   3.951   3.815  10.666 -0.4795 -0.0780 -0.0973
 9191SOL     OW39205   0.220   0.803   9.134  0.3304 -0.0586 -0.5806
 9191SOL    HW139206   0.162   0.756   9.194  0.7988  0.0553 -0.0351
 9191SOL    HW239207   0.250   0.863   9.202  0.1822 -2.2975  1.4660
 9192SOL     OW39208   1.725   4.602   7.880 -0.6651 -0.4193 -0.4547
 9192SOL    HW139209   1.694   4.593   7.970 -1.2761  1.3282 -0.4800
 9192SOL    HW239210   1.647   4.617   7.827 -1.6308  1.1573  1.4173
 9193SOL     OW39211   4.623   3.294   0.758 -0.0824  0.1707  0.4551
 9193SOL    HW139212   4.561   3.347   0.706  2.1436  0.2608 -2.1270
 9193SOL    HW239213   4.703   3.348   0.756  0.0353 -0.0584 -1.0107
 9194SOL     OW39214   0.097   4.208   5.881 -0.1049  0.6237  0.0872
 9194SOL    HW139215   0.065   4.277   5.939 -0.7567  0.4969 -0.1264
 9194SOL    HW239216   0.034   4.138   5.890 -0.6134  1.1348  0.4958
 9195SOL     OW39217   3.527   3.958   3.223  0.0670 -0.2618 -0.1574
 9195SOL    HW139218   3.607   3.906   3.209  1.8335  0.8412  5.6186
 9195SOL    HW239219   3.541   3.993   3.311 -1.6513 -1.4072  0.5830
 9196SOL     OW39220   2.939   1.094   8.043  0.0438 -0.2587  1.0341
 9196SOL    HW139221   2.941   1.014   8.096  1.0157 -0.8190  0.1393
 9196SOL    HW239222   2.844   1.102   8.036  0.1550 -1.5835 -1.8725
 9197SOL     OW39223   1.276   1.672   4.168  0.7379  0.3040  0.6383
 9197SOL    HW139224   1.207   1.677   4.102  2.0892  1.0317 -0.7577
 9197SOL    HW239225   1.347   1.714   4.119 -0.3765  1.8937  0.3925
 9198SOL     OW39226   1.412   3.293  14.181  0.1183 -0.2216 -0.4274
 9198SOL    HW139227   1.344   3.244  14.136 -0.2085  0.3349 -0.5372
 9198SOL    HW239228   1.470   3.219  14.197  2.7285  1.8894 -0.0645
 9199SOL     OW39229   3.775   2.337  16.000 -1.0499 -0.2470 -0.8048
 9199SOL    HW139230   3.697   2.331  16.055 -1.3892 -2.0774 -1.4877
 9199SOL    HW239231   3.745   2.286  15.925  1.2094 -0.8656 -1.2684
 9200SOL     OW39232   1.289   0.731  11.493 -0.8020 -0.2887  0.6085
 9200SOL    HW139233   1.356   0.688  11.440  0.2731 -0.2209  1.9327
 9200SOL    HW239234   1.327   0.704  11.577  2.5354  1.1623 -0.4561
 9201SOL     OW39235   2.079   0.857  11.396  0.4421  0.1082 -0.5144
 9201SOL    HW139236   2.013   0.912  11.438  0.1703 -0.4845 -0.1543
 9201SOL    HW239237   2.016   0.813  11.339 -0.7806 -1.2451  1.8316
 9202SOL     OW39238   4.117   1.495   4.023 -0.0035 -0.3282  0.0620
 9202SOL    HW139239   4.092   1.405   4.003  1.3370 -0.7581  0.3029
 9202SOL    HW239240   4.042   1.546   3.994  0.2412  0.8951  1.6000
 9203SOL     OW39241   4.411   4.704   4.630 -0.1396 -0.8991 -0.1519
 9203SOL    HW139242   4.366   0.029   4.689 -1.1885 -2.4059  0.6267
 9203SOL    HW239243   4.500   4.713   4.664 -0.9390 -1.8610  2.2573
 9204SOL     OW39244   3.424   1.090   4.402  0.3184  0.0213 -0.0659
 9204SOL    HW139245   3.473   1.159   4.356  0.9107 -0.5905 -0.3473
 9204SOL    HW239246   3.426   1.023   4.334  1.5470  1.1393 -1.1565
 9205SOL     OW39247   2.198   3.468   8.657  0.0949  0.7933 -0.3024
 9205SOL    HW139248   2.131   3.501   8.718  0.9785  1.6178  0.2189
 9205SOL    HW239249   2.259   3.541   8.659  1.6038 -0.5176  1.3821
 9206SOL     OW39250   0.482   4.653   8.772 -0.0415  0.2768 -0.6382
 9206SOL    HW139251   0.514   4.720   8.711  0.0120  0.6857 -0.1604
 9206SOL    HW239252   0.547   4.585   8.750 -1.4566 -1.5557  0.8431
 9207SOL     OW39253   2.367   0.776   2.108  0.4965 -0.2616  0.3377
 9207SOL    HW139254   2.334   0.690   2.082 -0.7560  0.6775 -1.1712
 9207SOL    HW239255   2.342   0.828   2.032  0.0147 -1.6125 -0.4414
 9208SOL     OW39256   3.529   4.728   7.609 -0.4378 -0.0231 -0.1486
 9208SOL    HW139257   3.525   4.642   7.651  0.7396  0.5785  1.1821
 9208SOL    HW239258   3.618   0.001   7.576 -0.3462 -2.6926 -0.5820
 9209SOL     OW39259   1.227   1.782   3.355  0.5695  0.1884  0.4017
 9209SOL    HW139260   1.157   1.799   3.418  0.5213  0.4875  0.2679
 9209SOL    HW239261   1.178   1.790   3.274  0.1724  0.2060  0.6456
 9210SOL     OW39262   2.962   0.168  12.884  0.0643 -0.1410  0.0418
 9210SOL    HW139263   3.050   0.199  12.861 -0.5318  1.7862  0.3513
 9210SOL    HW239264   2.990   0.140  12.971 -1.0153 -0.4199  0.2995
 9211SOL     OW39265   3.379   4.121   2.434 -0.2901 -0.5777 -0.5989
 9211SOL    HW139266   3.366   4.214   2.413 -1.2850 -1.0265 -1.9664
 9211SOL    HW239267   3.308   4.104   2.496 -0.3037  2.0055  0.0982
 9212SOL     OW39268   0.041   0.104   5.860 -0.1947 -0.1476 -0.1513
 9212SOL    HW139269   0.055   0.129   5.951 -2.0476 -0.1341  0.1172
 9212SOL    HW239270   0.008   0.015   5.869 -5.2414  1.6359 -1.1490
 9213SOL     OW39271   3.615   2.361   4.576  0.3398  0.0080  0.0252
 9213SOL    HW139272   3.530   2.318   4.572 -0.4048  1.4935 -0.3356
 9213SOL    HW239273   3.666   2.303   4.633  1.1540  1.0930  0.4111
 9214SOL     OW39274   1.825   4.723   8.270  0.0807  0.4133 -0.0818
 9214SOL    HW139275   1.818   4.628   8.263  1.0933  0.5069 -2.3641
 9214SOL    HW239276   1.917   4.725   8.297 -0.0136 -0.7302  0.3103
 9215SOL     OW39277   0.438   1.917  14.483  0.3223 -0.6868 -0.1069
 9215SOL    HW139278   0.486   1.987  14.440 -0.5584  0.5507  0.9231
 9215SOL    HW239279   0.345   1.940  14.476  0.5077 -0.5908 -2.2429
 9216SOL     OW39280   3.193   4.415   4.984 -0.1890 -0.5668  0.3456
 9216SOL    HW139281   3.245   4.480   4.938  0.6921 -0.9741  0.7647
 9216SOL    HW239282   3.185   4.467   5.063 -0.6746 -0.2685  0.0962
 9217SOL     OW39283   3.726   3.092   7.057  0.5116 -0.0676  0.0070
 9217SOL    HW139284   3.658   3.095   6.989 -0.0929  2.0742  0.7204
 9217SOL    HW239285   3.800   3.046   7.017  0.4342  1.9260 -2.4629
 9218SOL     OW39286   0.700   3.194  14.232 -0.0325 -0.3764 -0.3106
 9218SOL    HW139287   0.709   3.101  14.211  1.0228  0.0193 -1.5634
 9218SOL    HW239288   0.678   3.231  14.147 -1.7905 -0.7169 -0.0021
 9219SOL     OW39289   3.290   3.128   8.055 -0.1003  0.2279  0.6352
 9219SOL    HW139290   3.310   3.210   8.010 -0.4984 -0.1257 -0.2022
 9219SOL    HW239291   3.374   3.094   8.084  0.0202  0.6779  0.8007
 9220SOL     OW39292   3.345   3.189   0.457  0.6838 -0.8692  0.0432
 9220SOL    HW139293   3.358   3.140   0.539  0.3979 -0.7426  0.1632
 9220SOL    HW239294   3.385   3.122   0.402 -0.6036 -0.4601 -1.3912
 9221SOL     OW39295   0.259   0.605   8.692 -0.0606  0.1956 -0.4051
 9221SOL    HW139296   0.284   0.687   8.735  0.7758 -0.8943  1.1620
 9221SOL    HW239297   0.238   0.545   8.763  0.9152  0.9830  0.5549
 9222SOL     OW39298   0.942   0.326   5.903 -0.1794  0.7488 -0.0068
 9222SOL    HW139299   0.983   0.365   5.826  1.3320 -2.2966 -0.7620
 9222SOL    HW239300   1.008   0.257   5.915  0.0382  1.0592  0.5555
 9223SOL     OW39301   3.310   2.022   6.278  0.3991 -0.5210  0.1470
 9223SOL    HW139302   3.288   2.109   6.311 -0.5081 -0.5918 -0.2843
 9223SOL    HW239303   3.226   1.977   6.290  0.4643 -0.2783  1.5104
 9224SOL     OW39304   4.604   0.994   8.387  0.0724  0.6188 -0.2642
 9224SOL    HW139305   4.661   0.987   8.311  1.1807  0.3321  0.5943
 9224SOL    HW239306   4.614   1.088   8.404  0.9784  0.2803  1.0942
 9225SOL     OW39307   1.561   0.044   1.679  0.0372  0.4352 -0.0456
 9225SOL    HW139308   1.624   4.727   1.728 -1.5799 -0.7491  0.7459
 9225SOL    HW239309   1.619   0.068   1.607 -1.1582  3.1788 -0.0807
 9226SOL     OW39310   0.892   0.407   4.914 -0.7271  0.4726 -0.0264
 9226SOL    HW139311   0.943   0.488   4.911 -2.0346  1.3642  1.8563
 9226SOL    HW239312   0.862   0.410   5.005  0.9368  0.8200  0.5147
 9227SOL     OW39313   0.139   0.027  11.286  0.2407  0.4805 -0.0009
 9227SOL    HW139314   0.072   0.006  11.351 -0.0572 -1.8506 -1.0670
 9227SOL    HW239315   0.100   0.100  11.237 -0.4184 -0.5016 -0.9454
 9228SOL     OW39316   1.524   4.122   3.476  0.2456  0.2983 -0.0198
 9228SOL    HW139317   1.540   4.086   3.564  3.2169  0.1130 -0.6429
 9228SOL    HW239318   1.466   4.193   3.504 -3.5686 -2.4798 -1.0154
 9229SOL     OW39319   4.203   3.101   7.195  0.0444 -0.7899  0.0153
 9229SOL    HW139320   4.246   3.018   7.211  1.7177  0.3116  1.2532
 9229SOL    HW239321   4.121   3.074   7.237 -0.2132  0.9474  0.6370
 9230SOL     OW39322   0.983   1.362   2.787  0.3296  0.9423  0.6697
 9230SOL    HW139323   1.052   1.306   2.823 -0.1057 -0.3020 -0.4199
 9230SOL    HW239324   0.941   1.320   2.711  2.6744  2.1538 -1.3029
 9231SOL     OW39325   1.579   0.549  14.364  0.6007 -0.7702 -0.3393
 9231SOL    HW139326   1.632   0.522  14.289  1.1065 -2.2177  0.5416
 9231SOL    HW239327   1.615   0.638  14.363  1.2831 -1.0304  0.9354
 9232SOL     OW39328   4.400   1.631   7.310 -0.0822 -0.5390 -0.1085
 9232SOL    HW139329   4.488   1.598   7.325  0.6303  0.7695 -1.5114
 9232SOL    HW239330   4.413   1.726   7.308 -1.1908 -0.4018 -0.6850
 9233SOL     OW39331   3.110   3.500   6.642 -0.1545 -0.6694 -0.1870
 9233SOL    HW139332   3.109   3.580   6.694 -0.2950 -0.7567 -0.0561
 9233SOL    HW239333   3.205   3.487   6.637 -0.1301 -1.0666  1.2551
 9234SOL     OW39334   4.584   3.771   6.440 -0.4810 -0.1393  0.1733
 9234SOL    HW139335   4.661   3.731   6.399 -0.6618 -0.2481 -0.0543
 9234SOL    HW239336   4.518   3.762   6.371 -0.8397  1.4107  0.3245
 9235SOL     OW39337   4.269   1.960   3.766  0.7947 -0.3485  0.5590
 9235SOL    HW139338   4.178   1.984   3.783  1.1770  0.9063  0.8262
 9235SOL    HW239339   4.284   2.031   3.705  0.7597  0.7424  1.8200
 9236SOL     OW39340   0.504   1.183   5.025  0.2769 -0.2356  0.3334
 9236SOL    HW139341   0.449   1.106   5.041 -1.7892  0.9534 -1.0985
 9236SOL    HW239342   0.590   1.142   5.015  1.3742  1.8556  1.2775
 9237SOL     OW39343   0.121   0.591   6.786 -0.0479 -0.0643  0.2550
 9237SOL    HW139344   0.114   0.595   6.690 -2.6878 -2.6035  0.3324
 9237SOL    HW239345   0.180   0.665   6.797  0.4538 -0.0498 -2.4682
 9238SOL     OW39346   3.552   0.020  11.983  0.7328 -0.2831  0.5789
 9238SOL    HW139347   3.491   4.684  11.969 -0.1152  0.3609  1.0386
 9238SOL    HW239348   3.513   0.079  12.046 -2.8475 -0.6225 -1.3048
 9239SOL     OW39349   1.703   2.910   1.754  0.1419 -0.0039 -0.1756
 9239SOL    HW139350   1.648   2.964   1.811 -0.3948 -1.8446  1.0617
 9239SOL    HW239351   1.737   2.843   1.814 -1.0371 -1.2428 -0.8724
 9240SOL     OW39352   0.087   0.879   5.473 -0.6315 -0.1633 -0.2109
 9240SOL    HW139353   0.011   0.899   5.527  1.4432 -0.3378  2.7239
 9240SOL    HW239354   0.161   0.885   5.533 -0.7841  0.9000 -0.1225
 9241SOL     OW39355   3.984   0.719   6.114  0.7873 -0.4097 -0.0253
 9241SOL    HW139356   3.934   0.799   6.128  1.4010 -0.3061  1.5792
 9241SOL    HW239357   3.987   0.717   6.019  2.0909  0.5406 -0.0114
 9242SOL     OW39358   3.268   0.660   1.617  0.4376 -0.0484 -0.1097
 9242SOL    HW139359   3.265   0.745   1.659  1.0044  0.3172 -0.8024
 9242SOL    HW239360   3.355   0.658   1.576  0.8627 -3.1819  0.9689
 9243SOL     OW39361   3.127   2.861   6.915 -0.4678 -0.1116 -0.3075
 9243SOL    HW139362   3.138   2.768   6.933  2.0663  0.2378 -0.1005
 9243SOL    HW239363   3.080   2.860   6.832 -1.6008 -2.7130  0.3531
 9244SOL     OW39364   1.076   2.907   3.741  0.8253  0.1821  0.4747
 9244SOL    HW139365   1.062   2.945   3.655 -0.8591  3.5089  2.2248
 9244SOL    HW239366   1.110   2.822   3.711  2.0403  0.9775 -0.4108
 9245SOL     OW39367   0.879   0.932   6.964  0.2717 -0.1139  0.2255
 9245SOL    HW139368   0.792   0.900   6.987 -0.7531  2.4037 -0.1173
 9245SOL    HW239369   0.928   0.858   6.927 -1.9534 -0.8765 -1.1784
 9246SOL     OW39370   3.845   3.414   0.135  0.4769 -0.4424  0.1878
 9246SOL    HW139371   3.881   3.442   0.051  0.9961  0.0641  0.5784
 9246SOL    HW239372   3.899   3.339   0.160  1.5123 -0.4396 -2.0639
 9247SOL     OW39373   2.092   1.998   2.973 -0.5631 -0.3391  0.3700
 9247SOL    HW139374   2.023   1.963   2.916  0.2014  2.6074 -2.3506
 9247SOL    HW239375   2.049   2.074   3.011 -2.2768 -1.2720  0.2984
 9248SOL     OW39376   2.382   1.040   5.264  0.2488 -0.1349 -0.3301
 9248SOL    HW139377   2.449   1.103   5.289 -0.1617 -0.7768  2.3150
 9248SOL    HW239378   2.344   1.094   5.194  0.7946  0.4884 -0.1366
 9249SOL     OW39379   1.304   0.805   4.946  0.0877  0.2238 -0.0871
 9249SOL    HW139380   1.271   0.886   4.986  1.7722  0.2913  1.1890
 9249SOL    HW239381   1.279   0.741   5.012  1.4362  0.5364  0.7403
 9250SOL     OW39382   2.912   2.266   2.458  0.3107 -0.3440  0.3241
 9250SOL    HW139383   2.986   2.206   2.449  0.0628 -0.6362  0.2157
 9250SOL    HW239384   2.849   2.227   2.396  0.4759  0.7986 -0.5702
 9251SOL     OW39385   1.158   1.544  11.435  0.0841  0.1085  0.2669
 9251SOL    HW139386   1.235   1.504  11.396 -0.6140 -0.9707 -0.0029
 9251SOL    HW239387   1.179   1.637  11.426  1.5903 -0.2504  0.1739
 9252SOL     OW39388   1.615   0.817  14.391  0.4155  0.1110  0.3892
 9252SOL    HW139389   1.546   0.853  14.335  0.5009 -2.1208 -1.2005
 9252SOL    HW239390   1.680   0.887  14.391  1.0249 -0.4478 -3.5400
 9253SOL     OW39391   0.917   2.685   1.551  0.4531  0.4979 -1.0803
 9253SOL    HW139392   0.967   2.713   1.628 -0.8486  1.0121 -0.4180
 9253SOL    HW239393   0.840   2.646   1.592  0.6063  1.7545  0.3867
 9254SOL     OW39394   2.313   1.247   5.100  0.0951  0.3945 -0.3675
 9254SOL    HW139395   2.299   1.306   5.025 -2.0989  1.0536  0.5749
 9254SOL    HW239396   2.266   1.284   5.174 -2.0612  0.1811 -1.6280
 9255SOL     OW39397   3.358   0.692   7.867 -0.2267  0.1376  0.6068
 9255SOL    HW139398   3.377   0.611   7.818  0.8784  0.0792  1.1299
 9255SOL    HW239399   3.435   0.744   7.846 -0.1314  0.2993  1.3957
 9256SOL     OW39400   2.748   3.213   8.637  0.1027 -0.1533  0.3963
 9256SOL    HW139401   2.707   3.191   8.721 -0.7258 -0.6963 -0.1514
 9256SOL    HW239402   2.695   3.255   8.569 -0.6098 -2.2739 -0.3588
 9257SOL     OW39403   3.328   1.817   9.477  0.2436 -0.0768  0.1922
 9257SOL    HW139404   3.392   1.865   9.424  1.5158 -1.8634  0.1338
 9257SOL    HW239405   3.337   1.869   9.558 -1.7975 -0.1330  0.4684
 9258SOL     OW39406   0.587   1.855  11.756  0.3327  0.0183 -0.0325
 9258SOL    HW139407   0.612   1.945  11.779  0.1722 -0.0283  0.3254
 9258SOL    HW239408   0.631   1.801  11.822 -1.9373 -0.7711  0.8368
 9259SOL     OW39409   0.374   1.155   6.571  0.3463  0.3191 -1.3497
 9259SOL    HW139410   0.382   1.115   6.485 -1.0847 -2.0548 -0.3765
 9259SOL    HW239411   0.463   1.189   6.578  1.1179 -1.9765 -0.0947
 9260SOL     OW39412   3.234   2.483   3.036  0.2381  0.7468  0.1138
 9260SOL    HW139413   3.167   2.430   2.993  0.9386  0.2411 -0.3625
 9260SOL    HW239414   3.314   2.453   2.993 -1.0968  0.0200 -1.8715
 9261SOL     OW39415   0.240   3.582   5.962 -0.3896  0.2697 -0.3235
 9261SOL    HW139416   0.316   3.614   6.011  1.1298 -1.2061 -1.7336
 9261SOL    HW239417   0.197   3.536   6.034  1.4844 -0.4579  0.3522
 9262SOL     OW39418   0.613   0.262  14.829  1.1478  0.1399  0.0997
 9262SOL    HW139419   0.596   0.357  14.828  2.1977  0.3334  0.4517
 9262SOL    HW239420   0.531   0.215  14.811  1.6402  1.0290 -4.3800
 9263SOL     OW39421   1.798   0.928  15.274 -0.0490  0.0592  0.3160
 9263SOL    HW139422   1.857   0.859  15.303 -0.0939 -0.1320 -0.0430
 9263SOL    HW239423   1.765   0.971  15.353 -3.5828  0.9061 -1.6154
 9264SOL     OW39424   3.177   2.945   4.889 -0.0012  0.0733 -0.3060
 9264SOL    HW139425   3.196   2.860   4.847  1.9633  0.4632 -0.2346
 9264SOL    HW239426   3.202   2.932   4.980 -0.0169 -2.4452 -0.6486
 9265SOL     OW39427   4.091   3.727   3.807 -0.2377 -0.1135  0.0370
 9265SOL    HW139428   4.039   3.724   3.887 -1.1299 -0.4667 -0.5582
 9265SOL    HW239429   4.176   3.704   3.845 -0.7646 -1.4154  0.4123
 9266SOL     OW39430   0.294   1.621   3.751 -0.2114 -0.1059 -0.2425
 9266SOL    HW139431   0.268   1.529   3.754 -1.4608  0.2520 -0.3274
 9266SOL    HW239432   0.225   1.671   3.708 -1.0105 -2.7226 -2.0017
 9267SOL     OW39433   2.231   4.214   4.089 -0.3457  0.3031  0.2547
 9267SOL    HW139434   2.255   4.122   4.099  0.8151  0.2514 -3.0208
 9267SOL    HW239435   2.311   4.267   4.092 -0.2166  0.1962 -1.2117
 9268SOL     OW39436   0.867   3.217   5.236  0.0559 -0.2481 -0.5208
 9268SOL    HW139437   0.831   3.163   5.307  1.0129 -0.7615 -0.4253
 9268SOL    HW239438   0.936   3.265   5.282 -1.6369  1.2809  0.4534
 9269SOL     OW39439   1.009   4.048   4.538  0.2763  0.7721  0.0585
 9269SOL    HW139440   1.017   4.013   4.449  0.9154  3.1984 -0.8335
 9269SOL    HW239441   1.089   4.016   4.580 -0.0651  0.6599  0.6239
 9270SOL     OW39442   2.092   2.301  17.099  0.0217  0.4253  0.3586
 9270SOL    HW139443   2.103   2.339  17.186  0.8903 -1.4295  1.0576
 9270SOL    HW239444   2.039   2.223  17.119  0.6724 -0.1460 -0.1384
 9271SOL     OW39445   2.655   0.939   7.274  0.5512 -0.6453 -0.4056
 9271SOL    HW139446   2.675   1.030   7.253 -0.2588 -0.5003 -0.5617
 9271SOL    HW239447   2.641   0.942   7.369 -0.5221 -1.4123 -0.5378
 9272SOL     OW39448   2.721   3.505   3.725 -0.6036 -0.1663  0.2770
 9272SOL    HW139449   2.649   3.441   3.733 -0.2849 -0.5638 -0.0161
 9272SOL    HW239450   2.758   3.502   3.813 -0.2437 -0.8720  0.1006
 9273SOL     OW39451   2.518   0.111  12.627  0.2220  0.1557  0.4374
 9273SOL    HW139452   2.541   0.022  12.655  0.0146 -0.4242 -1.2854
 9273SOL    HW239453   2.584   0.138  12.564 -0.0520 -1.3595 -0.4836
 9274SOL     OW39454   3.337   3.671   0.574  0.3553 -0.1363 -0.2096
 9274SOL    HW139455   3.389   3.720   0.511  2.4034  0.5354  2.0060
 9274SOL    HW239456   3.366   3.582   0.552 -0.5016  0.0660 -2.2133
 9275SOL     OW39457   2.706   2.176   4.196 -0.3981 -0.2942 -0.5837
 9275SOL    HW139458   2.740   2.165   4.285  0.5175  1.9052 -0.6750
 9275SOL    HW239459   2.666   2.263   4.197 -0.1787 -0.1968 -0.4454
 9276SOL     OW39460   0.360   2.008   6.225 -0.0871 -0.4726 -0.3238
 9276SOL    HW139461   0.448   1.987   6.256 -1.8119 -1.1850  4.0913
 9276SOL    HW239462   0.312   1.985   6.304 -0.0318  0.6878  0.0436
 9277SOL     OW39463   4.343   2.201   6.316 -0.5592  0.3701  0.9010
 9277SOL    HW139464   4.306   2.131   6.263 -1.8802  1.8583 -0.1353
 9277SOL    HW239465   4.437   2.183   6.304 -1.1739 -2.1189 -0.1465
 9278SOL     OW39466   1.597   0.843   4.303  0.4143  0.3116  0.5164
 9278SOL    HW139467   1.595   0.937   4.287  1.5267  0.0015 -1.3570
 9278SOL    HW239468   1.657   0.812   4.236 -1.6545 -3.0852  0.2234
 9279SOL     OW39469   2.942   2.739   4.485 -0.6857  0.7600 -0.3227
 9279SOL    HW139470   2.863   2.688   4.473  0.7376 -1.3696 -0.5546
 9279SOL    HW239471   2.938   2.787   4.402 -0.9793 -0.4927 -1.0190
 9280SOL     OW39472   3.319   0.287   0.616  0.3287 -0.3624  0.3898
 9280SOL    HW139473   3.374   0.365   0.625 -0.1641  0.0007  0.2509
 9280SOL    HW239474   3.394   0.227   0.617  0.4904 -0.1601  0.6978
 9281SOL     OW39475   4.144   2.234  16.817 -0.0349  0.1466 -0.2291
 9281SOL    HW139476   4.132   2.221  16.911 -3.4428 -2.7962 -1.1031
 9281SOL    HW239477   4.117   2.326  16.809 -2.4427 -0.6503 -1.0997
 9282SOL     OW39478   1.947   0.475   9.622  0.4510  0.4588 -0.1790
 9282SOL    HW139479   1.976   0.541   9.558  1.7997  1.1131  1.1201
 9282SOL    HW239480   1.909   0.409   9.563  2.3157 -1.6702  1.0110
 9283SOL     OW39481   1.222   1.446  13.315 -0.1592 -0.4982 -0.3581
 9283SOL    HW139482   1.172   1.449  13.234 -0.9183  0.9180  0.1673
 9283SOL    HW239483   1.188   1.528  13.351 -0.1309 -1.3112  1.5449
 9284SOL     OW39484   4.484   0.811  16.881  0.4147  0.1198 -0.0002
 9284SOL    HW139485   4.542   0.886  16.885 -0.4938  0.6749  2.7913
 9284SOL    HW239486   4.512   0.762  16.803  0.5060 -0.1682  0.2114
 9285SOL     OW39487   4.129   0.168   9.449  0.2077 -0.3545 -0.5503
 9285SOL    HW139488   4.220   0.144   9.466 -0.0637 -1.6705 -0.9030
 9285SOL    HW239489   4.077   0.100   9.493  1.5829 -0.4071  0.9508
 9286SOL     OW39490   1.154   1.669   2.866 -0.3459 -0.0578  0.0702
 9286SOL    HW139491   1.242   1.685   2.899  0.1738  0.0476 -1.3916
 9286SOL    HW239492   1.138   1.760   2.841  0.7459  0.1179  0.0244
 9287SOL     OW39493   2.596   4.452   2.010  0.3787  0.2126 -0.0566
 9287SOL    HW139494   2.573   4.472   1.920 -2.0216 -0.8426  0.3216
 9287SOL    HW239495   2.563   4.369   2.043  1.7638 -1.0431 -1.8446
 9288SOL     OW39496   0.665   1.536   8.165 -0.4473 -0.1868 -0.3824
 9288SOL    HW139497   0.751   1.561   8.131 -1.3291  1.7387 -1.2255
 9288SOL    HW239498   0.606   1.559   8.093  1.2086 -0.1458 -1.7252
 9289SOL     OW39499   2.282   3.692  13.030 -0.3265 -0.0334  0.2025
 9289SOL    HW139500   2.315   3.780  13.012 -1.0882  0.2745  0.2803
 9289SOL    HW239501   2.247   3.700  13.119  2.0229  2.8354  0.8662
 9290SOL     OW39502   2.883   0.168  17.471  0.1477  0.1471  0.5381
 9290SOL    HW139503   2.924   0.087  17.440 -0.6199  0.1908 -0.5920
 9290SOL    HW239504   2.845   0.144  17.555 -0.1043  0.2891  0.4649
 9291SOL     OW39505   2.216   3.045   6.311  0.1089 -0.0614  0.8566
 9291SOL    HW139506   2.136   2.993   6.308  0.6343 -0.8360  0.0814
 9291SOL    HW239507   2.262   3.028   6.229 -0.1138  0.4708  0.6182
 9292SOL     OW39508   3.091   2.300   4.918 -0.0786  0.5537  0.3018
 9292SOL    HW139509   3.184   2.297   4.895 -0.1059  1.4665  0.0834
 9292SOL    HW239510   3.096   2.302   5.014  0.0871  0.4355  0.2970
 9293SOL     OW39511   3.466   4.044   7.954  0.3734  0.2525  0.1347
 9293SOL    HW139512   3.406   3.986   8.001  0.0708 -0.4926 -1.1856
 9293SOL    HW239513   3.497   3.983   7.887  1.1995 -1.0670  1.7271
 9294SOL     OW39514   4.047   1.828   6.179 -0.2524  0.7770  0.0582
 9294SOL    HW139515   3.978   1.819   6.113  0.7896 -1.2570 -0.7594
 9294SOL    HW239516   3.989   1.845   6.252 -0.5980 -0.2486  0.0189
 9295SOL     OW39517   4.275   1.353   8.761  0.2737 -0.1250  0.1016
 9295SOL    HW139518   4.197   1.406   8.780  1.7241  0.9753  3.0747
 9295SOL    HW239519   4.249   1.272   8.804 -0.3887  0.1041  0.1302
 9296SOL     OW39520   0.434   4.145   1.654  0.7690 -0.7871 -0.3661
 9296SOL    HW139521   0.423   4.155   1.560 -0.8918 -1.0664 -0.1946
 9296SOL    HW239522   0.435   4.235   1.685 -3.4914  0.3136 -3.6215
 9297SOL     OW39523   0.770   0.584   7.150  0.4990 -0.1374 -0.2100
 9297SOL    HW139524   0.861   0.613   7.154  0.0556  1.4663 -1.5801
 9297SOL    HW239525   0.790   0.493   7.126  1.9106  0.8565 -2.8805
 9298SOL     OW39526   3.270   2.501  12.114  0.1423 -0.0722  0.5703
 9298SOL    HW139527   3.259   2.413  12.078 -1.2637  0.1592  0.4207
 9298SOL    HW239528   3.179   2.526  12.130 -1.1398 -3.5036 -1.4676
 9299SOL     OW39529   1.154   1.829   6.462 -0.7113  0.6828  0.2513
 9299SOL    HW139530   1.111   1.768   6.403  2.9016  0.9036 -2.5380
 9299SOL    HW239531   1.108   1.813   6.545 -0.1854  1.4417  0.6874
 9300SOL     OW39532   1.465   3.081   1.713 -0.1582 -0.1113 -0.1748
 9300SOL    HW139533   1.422   2.999   1.692 -0.1846 -0.6595  2.0953
 9300SOL    HW239534   1.462   3.120   1.625  1.1365 -0.6960 -0.4648
 9301SOL     OW39535   3.702   1.746  13.792 -0.0586  0.2744  0.5590
 9301SOL    HW139536   3.752   1.788  13.862  2.0413  2.4544 -2.2579
 9301SOL    HW239537   3.710   1.822  13.734 -0.5162 -0.3971 -0.3707
 9302SOL     OW39538   3.692   4.615   6.160 -0.2528  0.0692  0.3218
 9302SOL    HW139539   3.611   4.564   6.167 -0.9818  1.1655  0.0535
 9302SOL    HW239540   3.746   4.536   6.156  0.1968  0.4212 -0.5116
 9303SOL     OW39541   4.434   4.335  16.949 -0.3503 -0.4487 -1.0112
 9303SOL    HW139542   4.341   4.326  16.932 -0.9642  1.8481  1.0714
 9303SOL    HW239543   4.465   4.247  16.928 -1.5608 -1.1086  0.0375
 9304SOL     OW39544   2.501   1.717   4.608  0.0673  0.3043 -0.3359
 9304SOL    HW139545   2.575   1.695   4.665  1.2041  1.2882 -1.4353
 9304SOL    HW239546   2.549   1.703   4.526 -0.1986 -1.2735 -0.2326
 9305SOL     OW39547   4.319   0.932  11.811  0.1077 -0.1180 -0.1405
 9305SOL    HW139548   4.376   0.859  11.787 -1.0518 -0.7494 -0.9789
 9305SOL    HW239549   4.310   0.964  11.721  0.8036  1.6588  0.4214
 9306SOL     OW39550   4.435   2.173   7.718 -0.3397  0.1688  0.1735
 9306SOL    HW139551   4.524   2.159   7.747 -1.1160 -2.2580  1.3646
 9306SOL    HW239552   4.414   2.097   7.664  0.1166 -2.1674  3.3209
 9307SOL     OW39553   1.081   3.086   3.496  0.5006  0.0164  0.5018
 9307SOL    HW139554   1.059   3.167   3.541 -2.1572 -1.4943  1.9258
 9307SOL    HW239555   0.998   3.075   3.449  0.7812  0.1557 -0.0277
 9308SOL     OW39556   2.021   1.497   9.704 -0.7623  0.0344 -0.1298
 9308SOL    HW139557   1.956   1.549   9.751  0.0581 -0.3145  1.3849
 9308SOL    HW239558   2.040   1.433   9.773 -2.3398 -0.1390  0.1413
 9309SOL     OW39559   0.827   2.629   5.861 -0.3510 -0.0278  0.5189
 9309SOL    HW139560   0.875   2.671   5.789 -1.2712  0.1022 -0.0245
 9309SOL    HW239561   0.777   2.564   5.812  0.4923  0.2940 -0.7843
 9310SOL     OW39562   0.061   3.296   1.317 -0.0902  0.2944  0.4656
 9310SOL    HW139563   0.024   3.238   1.250  0.0602  1.0535 -0.2785
 9310SOL    HW239564   4.713   3.313   1.359 -0.8346  1.0583 -1.3149
 9311SOL     OW39565   0.908   0.854   4.250 -0.1329 -0.0828  0.2180
 9311SOL    HW139566   0.926   0.948   4.243 -1.1877  0.1292  0.3160
 9311SOL    HW239567   0.994   0.822   4.223 -0.3520 -0.1115 -0.4451
 9312SOL     OW39568   1.920   4.352   6.726 -0.1876  0.5524 -0.2379
 9312SOL    HW139569   1.913   4.284   6.659  0.9805 -0.4036  0.6051
 9312SOL    HW239570   1.965   4.415   6.670 -0.2021  0.9544  0.1992
 9313SOL     OW39571   0.468   2.901   0.394  0.9194 -0.5172  0.3482
 9313SOL    HW139572   0.456   2.875   0.485 -4.0536  0.2408 -0.0781
 9313SOL    HW239573   0.540   2.965   0.401 -0.7254  1.4444 -0.6903
 9314SOL     OW39574   2.273   1.208   3.225 -0.1872  0.2077 -0.2781
 9314SOL    HW139575   2.203   1.146   3.205  0.5902 -0.5550 -0.6340
 9314SOL    HW239576   2.348   1.150   3.226 -1.4701 -1.4743 -1.0040
 9315SOL     OW39577   3.634   4.269   2.152 -0.2080 -0.2525 -0.1455
 9315SOL    HW139578   3.575   4.340   2.179  0.0264  0.2232 -0.8748
 9315SOL    HW239579   3.659   4.239   2.239 -0.9222  0.0790  0.1695
 9316SOL     OW39580   4.166   1.088   1.649 -0.3387 -1.1419  0.0805
 9316SOL    HW139581   4.170   1.175   1.608  1.9711 -0.7239  1.2145
 9316SOL    HW239582   4.112   1.106   1.726  0.5285  1.1694  0.1357
 9317SOL     OW39583   1.138   0.105   3.799  0.1771  0.2811  0.2407
 9317SOL    HW139584   1.044   0.124   3.807  0.1800  0.4378 -0.1030
 9317SOL    HW239585   1.176   0.158   3.869  0.8021  2.0464 -1.4296
 9318SOL     OW39586   0.276   4.491   2.410 -0.6812 -0.0336  0.0416
 9318SOL    HW139587   0.191   4.475   2.371  0.0621  1.4626 -2.1540
 9318SOL    HW239588   0.261   4.489   2.505 -0.9091  2.4357  0.0609
 9319SOL     OW39589   3.221   1.269   7.822 -0.0306  0.7459  0.2476
 9319SOL    HW139590   3.141   1.226   7.791  1.6749 -0.5567 -2.2935
 9319SOL    HW239591   3.222   1.351   7.773  1.2973 -1.0986 -2.8112
 9320SOL     OW39592   1.330   2.975   2.479  0.5529  0.7024  0.2690
 9320SOL    HW139593   1.349   3.053   2.427 -0.5083  1.0083  0.3364
 9320SOL    HW239594   1.261   2.945   2.419  1.8000  1.1718 -1.3857
 9321SOL     OW39595   2.786   1.298   3.586 -0.1094 -0.4142 -0.3451
 9321SOL    HW139596   2.760   1.225   3.643 -0.6011 -1.7416 -2.2738
 9321SOL    HW239597   2.709   1.355   3.591 -0.1181 -0.4297 -0.3042
 9322SOL     OW39598   1.176   1.568   2.619  0.1995  0.0219  0.0988
 9322SOL    HW139599   1.156   1.605   2.705 -4.0337  1.2159 -1.3923
 9322SOL    HW239600   1.170   1.476   2.645 -0.7967  0.5078  1.5875
 9323SOL     OW39601   3.375   3.904   0.047  0.0379 -0.4822  0.2229
 9323SOL    HW139602   3.301   3.964   0.051 -1.6855 -2.6403  0.7752
 9323SOL    HW239603   3.416   3.928  17.706  1.1887  0.0377  0.9329
 9324SOL     OW39604   4.669   0.259   8.476 -0.3699 -0.0809  0.9651
 9324SOL    HW139605   4.614   0.327   8.514 -0.4657  0.3071  0.1389
 9324SOL    HW239606   4.609   0.184   8.481  0.4780 -0.8007  0.3219
 9325SOL     OW39607   2.842   3.962  17.235 -0.3818  0.2851  0.4483
 9325SOL    HW139608   2.869   3.941  17.146  1.8128 -0.5981  1.3235
 9325SOL    HW239609   2.782   4.036  17.223 -0.6913 -0.3378 -1.8661
 9326SOL     OW39610   0.012   1.131   6.322 -0.1336 -0.6491  0.1949
 9326SOL    HW139611   0.086   1.125   6.261 -0.8820  1.3357 -0.9100
 9326SOL    HW239612   0.017   1.039   6.351  0.0191 -0.8632 -0.5045
 9327SOL     OW39613   1.398   3.462  16.186 -0.1331  0.1439  0.2323
 9327SOL    HW139614   1.340   3.486  16.258  1.2497 -0.1935  1.4661
 9327SOL    HW239615   1.427   3.382  16.230 -0.6936  0.3337  0.9478
 9328SOL     OW39616   1.458   3.327  16.442 -0.1129  0.1630 -0.4812
 9328SOL    HW139617   1.418   3.332  16.528  1.9485 -0.2135  0.4893
 9328SOL    HW239618   1.528   3.392  16.450  0.5898 -0.4618 -1.5411
 9329SOL     OW39619   4.204   1.289   2.383  0.0242  0.4680 -0.1775
 9329SOL    HW139620   4.111   1.310   2.375  0.2778  1.8087  0.4318
 9329SOL    HW239621   4.221   1.224   2.314  1.1779  0.2644  0.2942
 9330SOL     OW39622   1.634   1.553   8.522 -0.1380 -0.0202  0.6155
 9330SOL    HW139623   1.573   1.525   8.454 -1.3240 -1.6610  2.3418
 9330SOL    HW239624   1.717   1.511   8.500  0.6808  1.0433  1.6739
 9331SOL     OW39625   1.546   1.392  12.003  0.1925  0.6710  0.1036
 9331SOL    HW139626   1.465   1.342  12.010  0.5992 -0.4319 -2.9991
 9331SOL    HW239627   1.533   1.478  12.044  0.8091  0.8679 -0.1028
 9332SOL     OW39628   0.584   1.144   5.607  0.3783  0.8869 -0.1241
 9332SOL    HW139629   0.648   1.127   5.538  0.6659 -1.8310  0.8210
 9332SOL    HW239630   0.627   1.118   5.688  0.7124 -1.2940 -1.0201
 9333SOL     OW39631   1.394   1.734   6.666  0.0279  0.1370  0.4024
 9333SOL    HW139632   1.303   1.736   6.695 -0.2611  0.5348 -0.5270
 9333SOL    HW239633   1.379   1.712   6.574 -0.7471  0.4579  0.4482
 9334SOL     OW39634   1.395   1.803   1.733  0.4141 -0.4529  0.1610
 9334SOL    HW139635   1.368   1.843   1.815 -0.0158 -0.2223 -0.0922
 9334SOL    HW239636   1.445   1.726   1.761  0.6285 -0.4338 -0.1606
 9335SOL     OW39637   2.224   4.607   6.121  0.2144 -0.4580 -0.8703
 9335SOL    HW139638   2.181   4.527   6.091 -1.1123 -0.4929  1.0814
 9335SOL    HW239639   2.285   4.604   6.048  0.7062 -1.5707 -0.4135
 9336SOL     OW39640   0.933   2.888   7.575 -0.0730  0.3170  0.3621
 9336SOL    HW139641   0.936   2.801   7.613 -1.8723 -0.5942 -1.6009
 9336SOL    HW239642   1.023   2.916   7.591  0.8547  0.2752 -4.8122
 9337SOL     OW39643   3.179   0.769  11.363  0.0604  0.0982 -0.4485
 9337SOL    HW139644   3.119   0.697  11.380 -0.9733  0.3963 -2.8175
 9337SOL    HW239645   3.134   0.832  11.419 -1.2695 -1.1904 -0.0920
 9338SOL     OW39646   2.162   1.039   7.198 -0.1573  0.2871  0.2394
 9338SOL    HW139647   2.233   1.019   7.138  0.0604  1.8999 -0.0467
 9338SOL    HW239648   2.130   1.117   7.154 -2.0212 -0.2047  0.7330
 9339SOL     OW39649   3.935   2.420  15.600  0.2811 -0.2323  0.2447
 9339SOL    HW139650   4.014   2.453  15.557 -0.6256  0.1638 -1.1387
 9339SOL    HW239651   3.957   2.329  15.579 -0.2087 -0.1583 -0.6048
 9340SOL     OW39652   1.217   0.663   8.276 -0.2054  0.1506  0.4486
 9340SOL    HW139653   1.168   0.608   8.215  1.8327 -1.8031  0.5580
 9340SOL    HW239654   1.256   0.731   8.221  0.2291 -0.1242  0.4145
 9341SOL     OW39655   0.523   0.644   2.094  0.4255 -0.4791 -0.5344
 9341SOL    HW139656   0.459   0.702   2.135  0.4040 -0.5560 -0.4596
 9341SOL    HW239657   0.543   0.618   2.184 -0.6164  0.9360  0.0988
 9342SOL     OW39658   3.465   1.678   2.876  0.6382  0.3865 -0.0189
 9342SOL    HW139659   3.407   1.650   2.947 -2.2652  1.0922 -2.1034
 9342SOL    HW239660   3.425   1.630   2.803 -1.0243  0.6718  0.7131
 9343SOL     OW39661   0.918   3.105  15.834 -0.0838  0.1408 -0.2869
 9343SOL    HW139662   0.950   3.116  15.923  0.5945 -0.9067 -0.3920
 9343SOL    HW239663   0.855   3.176  15.830  0.2119  0.3152 -2.0969
 9344SOL     OW39664   2.544   1.298   5.967  0.3343  0.2051 -0.8028
 9344SOL    HW139665   2.631   1.303   6.007  0.0345  0.5809 -0.1904
 9344SOL    HW239666   2.488   1.334   6.036 -0.1702  0.2435 -1.2313
 9345SOL     OW39667   1.653   3.936   1.674 -0.8093  0.5492  0.1681
 9345SOL    HW139668   1.680   3.928   1.583 -2.4037 -0.4586 -0.2100
 9345SOL    HW239669   1.720   3.999   1.700  0.6204 -0.4433 -1.1090
 9346SOL     OW39670   4.070   3.944   3.321 -0.1221  0.5127 -1.0411
 9346SOL    HW139671   4.010   3.950   3.247 -1.2012  2.8028  0.0268
 9346SOL    HW239672   4.067   3.848   3.327  2.0986  0.4926 -0.1700
 9347SOL     OW39673   2.947   3.677   5.840  0.5426 -0.4549 -0.8457
 9347SOL    HW139674   2.933   3.594   5.886  1.8834 -0.0008  0.3857
 9347SOL    HW239675   2.875   3.682   5.778 -0.1801 -0.9303 -0.0456
 9348SOL     OW39676   3.900   1.755  16.283  0.6401  0.2909  0.4872
 9348SOL    HW139677   3.854   1.837  16.305  1.8471  1.0322  0.2194
 9348SOL    HW239678   3.953   1.742  16.361  0.1360  0.6292  0.8892
 9349SOL     OW39679   4.226   2.198   7.898  0.2585  0.0248 -0.0319
 9349SOL    HW139680   4.176   2.280   7.891 -0.7610 -0.5662  0.2835
 9349SOL    HW239681   4.312   2.222   7.863  0.2899 -0.0355  0.0039
 9350SOL     OW39682   0.193   0.521   8.971 -1.1989  0.2099  0.0129
 9350SOL    HW139683   0.121   0.484   9.022  1.7224 -1.6056  2.7904
 9350SOL    HW239684   0.210   0.599   9.024 -1.2959 -1.1870  2.0947
 9351SOL     OW39685   1.575   2.807   2.359  0.0133 -0.7149 -0.4125
 9351SOL    HW139686   1.604   2.888   2.402  0.3867 -1.9763  1.7272
 9351SOL    HW239687   1.504   2.839   2.304 -0.5144 -0.9192  0.1443
 9352SOL     OW39688   3.374   1.297   5.401 -0.3026  0.1664  0.7216
 9352SOL    HW139689   3.345   1.226   5.344  1.1143 -0.0530  0.2669
 9352SOL    HW239690   3.463   1.318   5.371 -0.6215 -1.5690 -1.4423
 9353SOL     OW39691   0.691   2.183  17.590  0.7830  0.0049 -0.0418
 9353SOL    HW139692   0.715   2.095  17.561 -2.5618 -1.4657  1.5799
 9353SOL    HW239693   0.662   2.225  17.509  1.1159 -0.6453 -0.5019
 9354SOL     OW39694   1.829   0.421   1.989 -0.6052  0.1761  0.2791
 9354SOL    HW139695   1.813   0.386   1.901 -1.5570 -0.0472  0.5321
 9354SOL    HW239696   1.779   0.501   1.976 -0.6661  0.1348  0.2556
 9355SOL     OW39697   2.549   0.771   6.374 -0.3250 -0.2832 -0.4524
 9355SOL    HW139698   2.489   0.748   6.303  0.5144 -3.0204 -0.2427
 9355SOL    HW239699   2.543   0.692   6.427  1.4608  0.9273  1.5562
 9356SOL     OW39700   1.133   3.154   7.822  0.5586  0.4152 -0.4402
 9356SOL    HW139701   1.102   3.244   7.818 -0.0551  0.1677 -1.0872
 9356SOL    HW239702   1.224   3.179   7.836  0.6326 -1.0686  1.9052
 9357SOL     OW39703   1.713   0.089   1.451  0.5820  0.3973 -0.0718
 9357SOL    HW139704   1.695   0.043   1.369 -1.4607 -0.2159  0.7301
 9357SOL    HW239705   1.744   0.173   1.419  0.4753  0.5478  0.2248
 9358SOL     OW39706   1.367   2.434  15.820  0.4163 -0.5769  0.4521
 9358SOL    HW139707   1.330   2.397  15.740  0.9671  0.0871 -0.1041
 9358SOL    HW239708   1.294   2.489  15.851 -0.7038 -1.0653 -1.3078
 9359SOL     OW39709   1.003   4.435   7.801 -0.1301  0.0385 -0.3156
 9359SOL    HW139710   0.997   4.465   7.892 -1.2427  4.4470 -1.8422
 9359SOL    HW239711   0.968   4.512   7.756  0.6882 -1.5468 -3.6146
 9360SOL     OW39712   0.842   0.776   7.502  0.0876  0.6987 -0.5822
 9360SOL    HW139713   0.763   0.825   7.522  0.7509  1.6561 -0.3132
 9360SOL    HW239714   0.794   0.696   7.481  0.6652 -0.1248  1.2729
 9361SOL     OW39715   3.546   0.797   9.026 -0.1813 -0.3226 -0.4462
 9361SOL    HW139716   3.504   0.867   9.076 -2.6377 -0.8759 -1.6807
 9361SOL    HW239717   3.483   0.725   9.037  0.8658 -1.1353  0.2542
 9362SOL     OW39718   4.472   4.427   4.663  0.2971 -0.1665 -0.1478
 9362SOL    HW139719   4.466   4.523   4.671 -1.8270 -0.2382 -0.8440
 9362SOL    HW239720   4.535   4.426   4.591  0.6665 -1.8549  0.2192
 9363SOL     OW39721   2.842   3.760   7.121  0.0539 -0.4216  0.4337
 9363SOL    HW139722   2.900   3.790   7.051  1.1310  1.4568  2.1458
 9363SOL    HW239723   2.788   3.838   7.126  0.3328 -0.2207  0.3223
 9364SOL     OW39724   0.401   0.089  14.827 -0.2290  0.4102  0.4754
 9364SOL    HW139725   0.321   0.079  14.774 -0.9893  1.3841  1.4229
 9364SOL    HW239726   0.363   0.069  14.912 -0.4326  2.9211  0.9878
 9365SOL     OW39727   4.709   1.440   6.867 -0.0341 -0.0011 -0.4916
 9365SOL    HW139728   0.007   1.529   6.856 -0.1581  0.1888  0.6403
 9365SOL    HW239729   0.030   1.386   6.812 -0.6981 -1.1585 -0.0368
 9366SOL     OW39730   1.996   4.301   3.226 -0.2804  0.3313 -0.3297
 9366SOL    HW139731   1.971   4.238   3.158 -1.1827  1.1650 -0.7579
 9366SOL    HW239732   1.991   4.248   3.305  1.1864 -0.6707 -0.9003
 9367SOL     OW39733   3.194   4.466  17.286 -0.2935  0.5503  0.4293
 9367SOL    HW139734   3.216   4.543  17.339  0.0730 -0.3151  1.5380
 9367SOL    HW239735   3.242   4.490  17.206  0.4550 -0.7096  0.4909
 9368SOL     OW39736   0.273   0.194   8.120 -0.3968  0.4874 -0.2946
 9368SOL    HW139737   0.233   0.268   8.073  0.4347  0.8280 -0.4630
 9368SOL    HW239738   0.239   0.209   8.208  1.1731 -0.6720  0.5022
 9369SOL     OW39739   4.329   1.092   4.262  0.7146 -0.0818  0.5289
 9369SOL    HW139740   4.347   1.054   4.348  1.0152  0.8499  0.8709
 9369SOL    HW239741   4.273   1.167   4.282 -1.0312 -1.8559  2.3196
 9370SOL     OW39742   4.142   0.330  10.840 -0.2873  0.1898  0.3026
 9370SOL    HW139743   4.195   0.324  10.919 -1.9395 -1.5070  1.2833
 9370SOL    HW239744   4.075   0.393  10.864 -0.0119  0.4433  0.4017
 9371SOL     OW39745   2.059   0.635   2.257 -0.8190 -0.1557 -0.0369
 9371SOL    HW139746   2.083   0.547   2.286  0.1684  0.4016  0.8274
 9371SOL    HW239747   2.029   0.652   2.346 -0.6203  0.2414 -0.0435
 9372SOL     OW39748   4.068   2.779   4.966 -0.3855 -0.2261  0.1888
 9372SOL    HW139749   4.131   2.848   4.943  1.0313 -1.1073  1.4093
 9372SOL    HW239750   4.088   2.762   5.058 -2.4200  0.0313  0.6583
 9373SOL     OW39751   1.728   1.572   6.905 -0.1750  0.4710  0.4428
 9373SOL    HW139752   1.823   1.571   6.921  0.2105  0.8330 -1.8800
 9373SOL    HW239753   1.692   1.564   6.994 -1.3107  2.1859  0.1169
 9374SOL     OW39754   2.195   1.873   1.745  0.3391  0.1415 -0.6060
 9374SOL    HW139755   2.143   1.929   1.687  1.4365 -0.9087 -2.5821
 9374SOL    HW239756   2.136   1.846   1.815  0.0594  0.2908 -0.7850
 9375SOL     OW39757   3.243   2.344   2.276 -0.3116  0.3120  0.2083
 9375SOL    HW139758   3.299   2.292   2.219 -0.3490 -0.2401  0.6739
 9375SOL    HW239759   3.189   2.277   2.319 -1.9766  0.2936 -1.8927
 9376SOL     OW39760   2.929   2.469  13.461 -0.1753  0.5680  0.3549
 9376SOL    HW139761   2.946   2.520  13.381  0.8806 -0.3342  0.0166
 9376SOL    HW239762   3.004   2.485  13.518 -0.2273 -0.7968  0.7837
 9377SOL     OW39763   0.878   2.565   2.838 -0.2764 -0.5122 -0.1079
 9377SOL    HW139764   0.956   2.620   2.825 -0.2287  0.4046  4.1628
 9377SOL    HW239765   0.841   2.576   2.750 -1.8103  0.0623  0.6184
 9378SOL     OW39766   3.727   3.094   2.753 -0.0595  0.2721 -1.0224
 9378SOL    HW139767   3.808   3.135   2.782 -0.3719  0.2338 -0.0949
 9378SOL    HW239768   3.746   3.074   2.661  1.0783  2.0879 -1.1847
 9379SOL     OW39769   3.104   1.145   5.813  0.5293  0.0827 -0.2028
 9379SOL    HW139770   3.091   1.238   5.793 -2.9572  0.0920  2.1633
 9379SOL    HW239771   3.123   1.152   5.906  0.3223  2.0513 -0.3039
 9380SOL     OW39772   0.669   1.921   6.320 -0.0179  0.2073 -0.4550
 9380SOL    HW139773   0.762   1.932   6.340 -0.4319 -0.9302  2.0635
 9380SOL    HW239774   0.672   1.828   6.297  1.7905 -0.2652  1.6814
 9381SOL     OW39775   3.732   2.173   1.592 -0.3362 -0.2985 -0.0139
 9381SOL    HW139776   3.802   2.107   1.598  1.0301  0.7813 -3.9812
 9381SOL    HW239777   3.774   2.243   1.543  1.1881  0.9373  3.0507
 9382SOL     OW39778   3.420   2.096   3.541 -0.4139  0.6138 -0.4872
 9382SOL    HW139779   3.391   2.116   3.452 -2.9834 -0.0715  0.1653
 9382SOL    HW239780   3.334   2.077   3.580 -0.2170  1.9997  0.6461
 9383SOL     OW39781   3.868   1.723  10.455 -0.2961 -0.2665 -0.2116
 9383SOL    HW139782   3.950   1.741  10.502  0.3792  0.6110 -1.7252
 9383SOL    HW239783   3.860   1.627  10.457  0.9549 -0.3801 -0.7153
 9384SOL     OW39784   1.747   4.426   9.561  0.1265  0.3895 -0.3838
 9384SOL    HW139785   1.669   4.474   9.533 -0.0128  0.1172 -0.4581
 9384SOL    HW239786   1.769   4.478   9.638  2.6559 -1.4119  0.1286
 9385SOL     OW39787   0.905   1.552   2.977 -1.0684  0.6832  0.0200
 9385SOL    HW139788   0.955   1.499   2.915 -2.0869  2.1534 -2.0673
 9385SOL    HW239789   0.887   1.482   3.040 -0.8597 -0.5512 -1.2886
 9386SOL     OW39790   2.133   3.298  13.057  0.4346 -0.3245  0.4921
 9386SOL    HW139791   2.109   3.300  13.150  0.1240 -0.3743  0.4104
 9386SOL    HW239792   2.208   3.358  13.059  0.8975 -0.8881 -0.1159
 9387SOL     OW39793   2.239   0.119   6.864  0.1099  0.0265 -0.4781
 9387SOL    HW139794   2.270   0.029   6.874 -0.0439  0.0836  0.4990
 9387SOL    HW239795   2.173   0.119   6.933  0.0316 -2.2439 -0.5823
 9388SOL     OW39796   0.675   1.464   1.238 -0.4854 -0.3418  0.0591
 9388SOL    HW139797   0.633   1.409   1.171 -1.0614  2.9728 -2.2974
 9388SOL    HW239798   0.675   1.546   1.189 -1.2745  0.2540  1.0647
 9389SOL     OW39799   2.081   0.453   4.366  0.0214  0.3214 -0.5734
 9389SOL    HW139800   2.067   0.546   4.380 -1.8655  0.0768 -0.8328
 9389SOL    HW239801   2.001   0.410   4.395 -0.2648  1.2683  0.0483
 9390SOL     OW39802   2.900   0.327   6.216 -0.3715  0.4258 -0.0182
 9390SOL    HW139803   2.869   0.255   6.162 -1.9544  0.7304  0.4821
 9390SOL    HW239804   2.828   0.388   6.200 -0.4568 -0.2058 -2.0050
 9391SOL     OW39805   4.012   0.326  16.034  0.5524  0.6657 -0.0417
 9391SOL    HW139806   3.964   0.403  16.062 -1.2545  0.3538 -2.2289
 9391SOL    HW239807   4.042   0.304  16.122 -0.2253  0.8203  0.2639
 9392SOL     OW39808   2.391   1.676   2.501  0.3345 -0.1764  0.2271
 9392SOL    HW139809   2.375   1.769   2.518  2.0490  0.1415  0.1584
 9392SOL    HW239810   2.329   1.639   2.564 -1.0580  1.0654 -0.4163
 9393SOL     OW39811   1.424   1.146  11.631  0.0718  0.5663 -0.7778
 9393SOL    HW139812   1.392   1.124  11.543 -2.2948 -0.4677  0.3331
 9393SOL    HW239813   1.345   1.128  11.682  0.8712 -1.3201 -0.2172
 9394SOL     OW39814   3.137   0.603   4.656 -0.1428 -0.3067 -0.2190
 9394SOL    HW139815   3.106   0.635   4.741 -0.9128 -1.2549 -0.1294
 9394SOL    HW239816   3.057   0.575   4.612 -1.6570  0.8914  1.7546
 9395SOL     OW39817   4.237   0.102   2.797  0.1325  0.0356  0.1060
 9395SOL    HW139818   4.297   0.162   2.752  0.0541 -0.1388 -0.2263
 9395SOL    HW239819   4.229   0.020   2.748 -0.7988 -0.0441  0.3788
 9396SOL     OW39820   3.739   1.902   4.302  0.1320  0.0928 -0.1318
 9396SOL    HW139821   3.699   1.931   4.384  1.7394  0.6276  0.4530
 9396SOL    HW239822   3.747   1.979   4.245 -1.2791 -0.2321 -0.7720
 9397SOL     OW39823   3.290   1.741   1.080  0.1995  0.2278  0.0280
 9397SOL    HW139824   3.357   1.677   1.056 -0.3608 -0.0565 -0.7363
 9397SOL    HW239825   3.216   1.680   1.088  1.6127 -1.4603  0.3096
 9398SOL     OW39826   0.100   0.616   4.783  0.1684 -0.2359  0.0522
 9398SOL    HW139827   0.081   0.690   4.725  1.3036  0.5290  0.6617
 9398SOL    HW239828   0.041   0.644   4.852 -0.5353 -0.4983 -0.4457
 9399SOL     OW39829   0.914   1.390  16.212  0.1526 -0.1910  0.4993
 9399SOL    HW139830   0.855   1.342  16.153  1.8064  0.1949 -1.4903
 9399SOL    HW239831   0.953   1.318  16.260  0.4186 -0.1640  0.3245
 9400SOL     OW39832   2.489   4.341   7.553 -0.0012  0.2052 -0.5735
 9400SOL    HW139833   2.525   4.265   7.507 -0.0309  0.7023 -1.4218
 9400SOL    HW239834   2.396   4.321   7.539 -0.6024  1.0549  2.1989
 9401SOL     OW39835   0.312   1.738   7.796 -0.3558  0.3761 -0.1884
 9401SOL    HW139836   0.345   1.743   7.707  4.1241 -1.0664  1.4223
 9401SOL    HW239837   0.301   1.832   7.808 -2.8795  0.0490  0.0719
 9402SOL     OW39838   2.564   0.181  13.927 -0.4252  0.1604  0.0611
 9402SOL    HW139839   2.642   0.126  13.927 -1.0500 -0.7309  1.6173
 9402SOL    HW239840   2.539   0.171  14.019  0.1272  1.5303  0.3560
 9403SOL     OW39841   2.599   2.270  16.658 -0.1710  0.1167 -0.2450
 9403SOL    HW139842   2.517   2.237  16.697  0.6723 -1.4360  0.2262
 9403SOL    HW239843   2.662   2.205  16.689 -0.3148 -1.0049 -2.2868
 9404SOL     OW39844   0.101   2.782   6.783  0.2816  0.6323  0.5098
 9404SOL    HW139845   0.162   2.736   6.841  0.0556 -1.1366 -0.6726
 9404SOL    HW239846   0.122   2.724   6.710  0.8122  2.0336 -0.4473
 9405SOL     OW39847   3.495   3.895   5.808  0.1364 -0.4722 -0.6573
 9405SOL    HW139848   3.439   3.858   5.741 -0.6229  0.0970 -0.3456
 9405SOL    HW239849   3.460   3.984   5.822  1.1637 -0.5313  2.2684
 9406SOL     OW39850   2.251   3.374   4.379 -0.0557  0.5682  0.2950
 9406SOL    HW139851   2.254   3.443   4.313  1.2572 -0.2963 -0.5454
 9406SOL    HW239852   2.340   3.354   4.406  0.0908  1.1097  0.1989
 9407SOL     OW39853   0.225   2.508   2.020 -0.1758 -0.2506 -0.1376
 9407SOL    HW139854   0.288   2.520   2.090  0.9978 -3.9282 -0.5473
 9407SOL    HW239855   0.215   2.413   2.018  0.9161 -0.3655 -0.4521
 9408SOL     OW39856   4.554   0.973  13.877 -0.1257  0.0515 -0.8153
 9408SOL    HW139857   4.474   0.994  13.829 -0.9072 -3.1997 -0.9443
 9408SOL    HW239858   4.529   0.885  13.904  1.3498 -0.0364  0.2619
 9409SOL     OW39859   0.514   2.934   7.332 -0.1407 -0.1645  0.6169
 9409SOL    HW139860   0.528   3.023   7.363 -0.1581  0.8680 -2.3280
 9409SOL    HW239861   0.575   2.882   7.384  1.7780 -2.5040 -3.9541
 9410SOL     OW39862   0.032   2.161   7.042 -0.2730 -0.1090 -0.0687
 9410SOL    HW139863   0.093   2.176   6.969  0.7903 -2.1436  0.3862
 9410SOL    HW239864   0.097   2.122   7.101 -0.0472  1.2334  0.5710
 9411SOL     OW39865   2.655   0.627   9.335  0.0826 -0.0679  0.0907
 9411SOL    HW139866   2.636   0.545   9.289 -0.2207  0.2086 -0.2827
 9411SOL    HW239867   2.735   0.590   9.372 -0.2304  0.8914  1.7484
 9412SOL     OW39868   3.916   1.235   7.962  0.2303  0.4483  0.6038
 9412SOL    HW139869   3.908   1.304   7.896  0.5815 -0.1298 -0.0405
 9412SOL    HW239870   3.934   1.165   7.899  0.6422  1.1840 -0.0976
 9413SOL     OW39871   1.554   2.840   9.954  0.1432 -0.5069 -0.0406
 9413SOL    HW139872   1.551   2.744   9.945  2.0706 -0.5176 -0.6863
 9413SOL    HW239873   1.599   2.846  10.038  0.4885  3.5638 -0.5396
 9414SOL     OW39874   2.109   2.131   2.057  0.2710 -0.4472 -0.1531
 9414SOL    HW139875   2.148   2.101   2.139 -0.0238  0.7035  0.4046
 9414SOL    HW239876   2.190   2.134   2.005  1.4374  0.3637  1.6899
 9415SOL     OW39877   1.109   4.539  17.517  0.3811 -0.3233  0.0863
 9415SOL    HW139878   1.149   4.526  17.603 -0.2162 -0.4278  0.3455
 9415SOL    HW239879   1.160   4.476  17.465  0.5063  0.2349 -0.4792
 9416SOL     OW39880   1.033   1.315   2.442  0.3099  0.2269  0.0736
 9416SOL    HW139881   1.099   1.288   2.505  0.2913  1.6931  0.7358
 9416SOL    HW239882   1.057   1.279   2.357 -0.4375  0.1083 -0.0908
 9417SOL     OW39883   2.881   1.834   5.107  0.4419 -0.0355 -0.1126
 9417SOL    HW139884   2.918   1.886   5.178  0.6988 -0.9158  0.3942
 9417SOL    HW239885   2.878   1.750   5.151  1.3130  0.2261  0.4487
 9418SOL     OW39886   2.684   3.686   7.839 -0.3001 -0.0085  0.1493
 9418SOL    HW139887   2.594   3.712   7.860  0.0744  0.3446  1.3380
 9418SOL    HW239888   2.672   3.594   7.863  0.2905 -0.3776 -0.9732
 9419SOL     OW39889   2.171   2.328   3.879  0.4675  0.2272  0.5482
 9419SOL    HW139890   2.147   2.351   3.969 -1.6116  0.8298 -0.1481
 9419SOL    HW239891   2.120   2.395   3.833  2.5504  0.5424 -1.2991
 9420SOL     OW39892   1.153   2.698   5.927 -0.5155  0.2484  0.2325
 9420SOL    HW139893   1.150   2.726   5.836 -0.3819 -0.0005  0.1494
 9420SOL    HW239894   1.101   2.765   5.972 -0.9372 -0.5247  0.9068
 9421SOL     OW39895   4.010   4.375   1.274 -0.3716 -0.1373 -0.0020
 9421SOL    HW139896   4.006   4.312   1.346 -0.6037 -1.8314 -1.5028
 9421SOL    HW239897   4.037   4.455   1.318  3.4190  0.2709 -3.1278
 9422SOL     OW39898   4.368   1.987   1.510  0.3514 -0.1438 -0.0394
 9422SOL    HW139899   4.294   1.932   1.484  1.9564 -2.8278  1.0574
 9422SOL    HW239900   4.394   1.950   1.595  2.3434  2.3627  0.4390
 9423SOL     OW39901   4.382   3.032   3.973 -0.4084  0.3055  0.4364
 9423SOL    HW139902   4.381   2.969   3.900  0.9111  0.2548  0.4604
 9423SOL    HW239903   4.476   3.032   3.992 -0.5082 -0.8905  0.9007
 9424SOL     OW39904   0.734   3.998   4.267  0.8746  0.1128 -0.1695
 9424SOL    HW139905   0.769   4.018   4.180 -1.8383  0.6828 -1.1271
 9424SOL    HW239906   0.741   3.902   4.262  1.2600  0.2178 -1.6750
 9425SOL     OW39907   3.397   2.818   1.754 -0.1882 -0.3205 -0.6353
 9425SOL    HW139908   3.439   2.901   1.733 -3.0920  1.8151  2.0318
 9425SOL    HW239909   3.454   2.775   1.818 -1.0917  0.4926  0.7064
 9426SOL     OW39910   2.105   3.139   3.965  0.2189  0.0075 -0.5035
 9426SOL    HW139911   2.078   3.092   4.044  1.5743 -0.1482 -0.1295
 9426SOL    HW239912   2.194   3.167   3.988  0.2530 -1.4533  1.2004
 9427SOL     OW39913   2.788   4.115   0.012  0.2555 -0.0085 -0.6975
 9427SOL    HW139914   2.859   4.081  17.700  0.6511  0.5946 -0.5586
 9427SOL    HW239915   2.833   4.151   0.088 -1.4570  1.5518 -0.4224
 9428SOL     OW39916   0.638   2.946  10.452  0.3315  0.0876  0.0110
 9428SOL    HW139917   0.683   3.023  10.486  0.4464 -0.6343  1.4899
 9428SOL    HW239918   0.545   2.967  10.450  0.4040  0.2868 -1.2830
 9429SOL     OW39919   1.783   2.851   4.260 -0.2258 -0.1328  0.0121
 9429SOL    HW139920   1.729   2.817   4.189  0.7444 -0.5600 -0.5345
 9429SOL    HW239921   1.772   2.778   4.322 -2.2233 -1.2787 -1.7191
 9430SOL     OW39922   0.513   1.454  10.282 -0.3647 -0.0472  0.1532
 9430SOL    HW139923   0.476   1.435  10.196  1.7202 -0.2496 -0.7096
 9430SOL    HW239924   0.530   1.365  10.315 -1.4026  0.4004  1.8877
 9431SOL     OW39925   3.052   4.367   3.319 -0.1134 -0.6427 -0.1812
 9431SOL    HW139926   3.131   4.362   3.372  0.8347 -0.5839 -1.5860
 9431SOL    HW239927   3.082   4.400   3.234  0.0177 -0.2023  0.0374
 9432SOL     OW39928   1.742   4.322   3.595 -0.3565 -0.1284 -0.2903
 9432SOL    HW139929   1.742   4.228   3.613 -2.4135 -0.1347 -0.3857
 9432SOL    HW239930   1.793   4.358   3.668 -2.3330 -0.7445  1.3945
 9433SOL     OW39931   1.646   3.268   1.800  0.3760  0.3468 -0.4769
 9433SOL    HW139932   1.564   3.220   1.812  1.0345 -0.6115  0.2045
 9433SOL    HW239933   1.623   3.356   1.831 -0.7369 -0.3652  0.7127
 9434SOL     OW39934   3.086   4.092   2.156 -0.2632  0.8301  0.0889
 9434SOL    HW139935   3.179   4.116   2.166  0.2168 -0.1657 -1.7925
 9434SOL    HW239936   3.048   4.179   2.143  0.1590  1.1550  1.0571
 9435SOL     OW39937   0.707   3.223   4.244  0.2772 -0.4729 -0.4366
 9435SOL    HW139938   0.760   3.154   4.204  0.1365 -0.4213 -0.7070
 9435SOL    HW239939   0.645   3.164   4.287  0.5655 -0.8521 -0.5338
 9436SOL     OW39940   2.287   3.709  13.339 -0.4750 -0.0659  0.3470
 9436SOL    HW139941   2.325   3.629  13.375  0.6258  0.9724  1.4707
 9436SOL    HW239942   2.204   3.719  13.385 -0.1496 -1.8546  1.3111
 9437SOL     OW39943   3.234   2.887  12.302  0.2386  0.0799 -0.4476
 9437SOL    HW139944   3.174   2.818  12.331  0.8532 -0.9757 -1.6908
 9437SOL    HW239945   3.285   2.895  12.383  1.4996  1.0664 -1.3375
 9438SOL     OW39946   1.537   3.754   7.481  0.4122 -0.1973 -0.1529
 9438SOL    HW139947   1.521   3.684   7.418  1.5778 -0.4616 -0.1558
 9438SOL    HW239948   1.473   3.819   7.453  0.0153 -1.1701 -1.4885
 9439SOL     OW39949   2.528   1.626   7.006  0.8255  0.8716  0.4833
 9439SOL    HW139950   2.582   1.603   6.930  0.2216  0.6605  0.1248
 9439SOL    HW239951   2.503   1.540   7.040  0.3027  0.9110  0.1843
 9440SOL     OW39952   1.905   4.545  15.518  0.6281  0.0243  0.0852
 9440SOL    HW139953   1.861   4.569  15.437 -0.0580 -0.4897  0.3051
 9440SOL    HW239954   1.997   4.550  15.493  1.1943 -1.4855  1.8134
 9441SOL     OW39955   1.110   0.816  11.150  0.0097 -0.3518 -0.5785
 9441SOL    HW139956   1.198   0.779  11.155 -0.1855 -0.8336 -0.6621
 9441SOL    HW239957   1.077   0.780  11.067 -0.0809  1.7846 -1.4763
 9442SOL     OW39958   2.031   3.900   4.324  0.0542  0.2537 -0.5470
 9442SOL    HW139959   2.008   3.830   4.385 -1.6567  0.6280 -0.7501
 9442SOL    HW239960   1.959   3.961   4.341 -0.4121 -0.3355 -0.3962
 9443SOL     OW39961   2.837   3.114   1.969 -0.4818  0.4264 -0.4950
 9443SOL    HW139962   2.822   3.040   1.910 -1.0189  0.7415 -0.7535
 9443SOL    HW239963   2.820   3.188   1.911  1.7423  2.3558  1.3059
 9444SOL     OW39964   0.597   3.297   1.370 -0.2975 -0.4312  0.0719
 9444SOL    HW139965   0.503   3.286   1.353 -0.0607 -3.5324  0.6724
 9444SOL    HW239966   0.615   3.353   1.295  0.6477  0.1663  0.7541
 9445SOL     OW39967   0.183   3.204   1.815  0.1229  0.1925  0.2690
 9445SOL    HW139968   0.095   3.166   1.819  0.4493 -0.7378 -1.4812
 9445SOL    HW239969   0.173   3.260   1.737 -0.6216 -0.6520 -0.2390
 9446SOL     OW39970   1.338   2.129  14.886  0.7342  0.4555 -0.0666
 9446SOL    HW139971   1.316   2.143  14.794  1.7359  1.0428 -0.2122
 9446SOL    HW239972   1.360   2.219  14.909  2.4948  0.0138 -0.0300
 9447SOL     OW39973   1.090   2.334   1.959  0.3951  0.2364  0.1270
 9447SOL    HW139974   1.104   2.264   2.023 -0.4134 -1.6361 -1.7400
 9447SOL    HW239975   1.131   2.292   1.883 -1.3673 -2.7138  0.7838
 9448SOL     OW39976   4.572   0.531   5.877 -0.1091  0.3276 -0.8166
 9448SOL    HW139977   4.648   0.499   5.925  0.1193  0.5249 -1.0452
 9448SOL    HW239978   4.509   0.479   5.927 -1.0662  1.3903 -0.9168
 9449SOL     OW39979   3.100   0.786   3.584  0.0692 -0.0128 -0.1778
 9449SOL    HW139980   3.028   0.849   3.577  0.1654 -0.0434 -1.4464
 9449SOL    HW239981   3.172   0.820   3.531  0.7309  0.1528  0.8151
 9450SOL     OW39982   3.229   2.576  15.719 -0.0522  0.6781 -0.1684
 9450SOL    HW139983   3.178   2.503  15.756  1.0807  0.6354  1.3169
 9450SOL    HW239984   3.260   2.620  15.798  0.0567  0.7785 -0.2666
 9451SOL     OW39985   4.485   3.996  15.176  0.4316 -0.2924  0.2712
 9451SOL    HW139986   4.429   3.923  15.153 -0.1759  0.5280 -0.8586
 9451SOL    HW239987   4.562   3.970  15.125 -0.0030  0.3086 -0.7029
 9452SOL     OW39988   0.259   1.186  15.192 -0.3664  0.3803 -0.2721
 9452SOL    HW139989   0.250   1.205  15.286  1.5913 -0.9979  0.2012
 9452SOL    HW239990   0.304   1.102  15.203  0.7262  0.9952 -0.0666
 9453SOL     OW39991   0.111   2.505   5.088 -0.0234  1.1460 -0.2356
 9453SOL    HW139992   0.202   2.522   5.114  0.3157 -0.0006 -0.6669
 9453SOL    HW239993   0.087   2.468   5.172  0.9179 -1.8447 -1.2818
 9454SOL     OW39994   4.061   0.708   3.701  0.0453  0.0088 -0.0554
 9454SOL    HW139995   4.037   0.617   3.721  1.2791 -0.5786 -1.2663
 9454SOL    HW239996   4.110   0.717   3.783  3.6033 -1.2879 -2.0299
 9455SOL     OW39997   4.027   0.009  13.367  0.3592 -0.3152 -0.4777
 9455SOL    HW139998   4.087   4.721  13.437  0.5482  0.5658 -0.3288
 9455SOL    HW239999   4.022   0.105  13.372  1.3652 -0.3842  1.6573
 9456SOL     OW40000   1.817   0.199   6.813 -0.4872 -0.2147  0.0571
 9456SOL    HW140001   1.881   0.270   6.806  1.2650 -1.7543  0.5592
 9456SOL    HW240002   1.732   0.239   6.830  0.2463  0.9035  1.1012
 9457SOL     OW40003   1.294   2.388  16.594 -0.8255 -0.1059 -0.5034
 9457SOL    HW140004   1.337   2.456  16.646  0.4476 -2.2852  1.2970
 9457SOL    HW240005   1.263   2.446  16.524  0.3335  1.0031 -0.1167
 9458SOL     OW40006   2.658   2.225   1.853  0.0156 -0.2479  0.4395
 9458SOL    HW140007   2.741   2.252   1.812 -0.1171  0.7996  0.8511
 9458SOL    HW240008   2.635   2.315   1.876 -1.5261 -0.7805  0.9495
 9459SOL     OW40009   0.324   4.332   3.975 -0.0985  0.2592  0.1535
 9459SOL    HW140010   0.406   4.284   3.975  0.6476  1.5181  2.8273
 9459SOL    HW240011   0.325   4.381   4.057 -1.5889  0.4701  0.0575
 9460SOL     OW40012   1.363   4.358   8.786  0.2056 -0.4493 -0.0565
 9460SOL    HW140013   1.389   4.434   8.734  1.5273  1.0845  2.8567
 9460SOL    HW240014   1.444   4.308   8.779  0.5191  0.4146 -2.2382
 9461SOL     OW40015   4.460   4.725   2.046 -0.1982 -0.0877  0.0677
 9461SOL    HW140016   4.401   0.034   1.986 -0.8618 -1.1849 -0.0966
 9461SOL    HW240017   4.529   4.715   1.980 -0.8078  2.8861 -1.0113
 9462SOL     OW40018   4.669   2.219   5.438  0.1967  0.1342  0.7887
 9462SOL    HW140019   4.731   2.150   5.462  1.3173  1.0159  0.4578
 9462SOL    HW240020   4.590   2.191   5.484  0.0281 -0.2458  0.2686
 9463SOL     OW40021   4.682   3.836   2.904  0.3908 -0.2400  0.6518
 9463SOL    HW140022   4.672   3.864   2.813 -0.4114 -1.7354  0.2911
 9463SOL    HW240023   4.590   3.828   2.926 -0.1142 -1.0242 -1.7795
 9464SOL     OW40024   1.153   4.323   7.489  1.0234 -0.8718  0.2248
 9464SOL    HW140025   1.181   4.266   7.418 -2.2291 -0.3715 -1.4673
 9464SOL    HW240026   1.176   4.403   7.443 -0.9469  0.8213  2.1734
 9465SOL     OW40027   4.318   2.155   0.647  0.3262 -0.2871  0.5945
 9465SOL    HW140028   4.294   2.110   0.565 -1.4910  0.5447  0.6769
 9465SOL    HW240029   4.410   2.130   0.660  1.1974  1.0875 -2.9221
 9466SOL     OW40030   0.637   2.611   6.783  0.1741 -0.0878  0.5545
 9466SOL    HW140031   0.675   2.697   6.802 -2.6132  1.4174 -0.5626
 9466SOL    HW240032   0.634   2.585   6.875  1.7183  2.4976  1.3509
 9467SOL     OW40033   4.294   1.569  16.724 -0.2279 -0.0122  0.6402
 9467SOL    HW140034   4.324   1.659  16.711  1.7228 -1.2461 -3.2084
 9467SOL    HW240035   4.351   1.537  16.794 -2.1079 -2.2682  1.1356
 9468SOL     OW40036   3.377   3.529   6.660 -0.3768  0.2052  0.0830
 9468SOL    HW140037   3.465   3.528   6.622 -0.0790  1.1877  0.7527
 9468SOL    HW240038   3.403   3.580   6.737  2.3218  0.9193 -1.2939
 9469SOL     OW40039   3.163   1.748   8.328  0.2378 -0.1643 -0.3695
 9469SOL    HW140040   3.118   1.680   8.278  0.8733 -0.3666 -0.6746
 9469SOL    HW240041   3.221   1.694   8.382  0.4853 -0.2441 -0.7126
 9470SOL     OW40042   2.241   2.842   7.071  0.0901 -0.3903  0.0375
 9470SOL    HW140043   2.268   2.903   7.002 -1.4558  1.3049  0.9206
 9470SOL    HW240044   2.174   2.892   7.118 -0.5457 -0.4772 -0.7731
 9471SOL     OW40045   3.751   0.081   2.325  0.1787  0.0282 -0.6414
 9471SOL    HW140046   3.713   0.166   2.349  1.5724  0.0232  1.6245
 9471SOL    HW240047   3.744   0.080   2.230 -0.2361 -0.1128 -0.6093
 9472SOL     OW40048   1.396   1.312  12.438 -0.2112  0.0826 -0.4928
 9472SOL    HW140049   1.310   1.289  12.402 -0.4647 -0.6976  0.5915
 9472SOL    HW240050   1.407   1.256  12.516 -1.1347 -0.3585 -0.6771
 9473SOL     OW40051   1.992   0.697  12.516 -0.0960 -0.4021  0.7101
 9473SOL    HW140052   2.060   0.748  12.473 -0.1991 -1.4151 -0.6370
 9473SOL    HW240053   2.022   0.613  12.483 -0.3242  0.5968 -1.9978
 9474SOL     OW40054   1.592   1.976  12.041  0.1093  0.4341 -0.1563
 9474SOL    HW140055   1.508   2.015  12.065  1.6196  3.0561  0.8465
 9474SOL    HW240056   1.617   1.968  12.133  3.0482 -0.0092 -0.9923
 9475SOL     OW40057   3.900   2.337   4.102  0.0507  0.8274  0.2665
 9475SOL    HW140058   3.859   2.364   4.184 -1.1428  0.7952 -0.3009
 9475SOL    HW240059   3.823   2.327   4.045 -2.0036  2.3683  2.7526
 9476SOL     OW40060   1.205   1.186   9.359 -0.1059 -0.8870  0.4617
 9476SOL    HW140061   1.296   1.201   9.335 -0.4649  1.0281  0.2910
 9476SOL    HW240062   1.149   1.261   9.339  0.3664 -0.3265  1.2503
 9477SOL     OW40063   3.938   0.748  12.704  0.2044  0.1867  0.2795
 9477SOL    HW140064   3.931   0.832  12.751 -1.5257  1.3479 -2.0627
 9477SOL    HW240065   3.918   0.687  12.775 -0.6963  0.0717 -0.0701
 9478SOL     OW40066   1.234   0.988   0.037 -0.1272  0.7678  0.6259
 9478SOL    HW140067   1.275   0.938   0.107 -2.3134 -0.6026  0.9284
 9478SOL    HW240068   1.198   1.056   0.095  3.7568  1.5652  2.0804
 9479SOL     OW40069   4.133   2.273   0.330  0.3043 -0.1940  0.6289
 9479SOL    HW140070   4.133   2.335   0.403  1.6575 -1.2950  1.5392
 9479SOL    HW240071   4.062   2.309   0.276 -0.0491  0.7545  1.7074
 9480SOL     OW40072   2.070   0.379  13.130 -0.5625 -0.3219  0.1470
 9480SOL    HW140073   2.112   0.458  13.097 -0.9121 -0.5647 -0.8775
 9480SOL    HW240074   2.036   0.413  13.213  0.5237  0.9975  0.0502
 9481SOL     OW40075   0.631   1.673   6.261 -0.2270  0.1236 -0.1006
 9481SOL    HW140076   0.586   1.632   6.335 -3.8116 -0.1918 -2.4553
 9481SOL    HW240077   0.567   1.650   6.194  0.0770  0.1362 -0.3936
 9482SOL     OW40078   1.228   0.285  17.159  0.2179 -0.2854 -0.4516
 9482SOL    HW140079   1.249   0.212  17.217  2.2217 -0.6614 -1.6437
 9482SOL    HW240080   1.195   0.247  17.077 -1.3960  0.1727 -0.0210
 9483SOL     OW40081   1.116   1.272  10.059  0.4207  0.6850 -0.5766
 9483SOL    HW140082   1.022   1.251  10.057  0.1579  1.8755 -0.7453
 9483SOL    HW240083   1.136   1.257  10.151  1.5625  5.0803 -0.1194
 9484SOL     OW40084   4.174   2.409   3.847  0.1787  0.3282 -0.1966
 9484SOL    HW140085   4.185   2.385   3.939 -1.2581  3.1889  0.7455
 9484SOL    HW240086   4.266   2.421   3.823  0.3856  0.3486  0.6117
 9485SOL     OW40087   1.653   0.515   2.609 -0.6774  0.6880 -0.5056
 9485SOL    HW140088   1.626   0.562   2.689 -0.6356  0.7185 -0.5095
 9485SOL    HW240089   1.610   0.433   2.633  0.2366  1.0808  2.5306
 9486SOL     OW40090   3.115   3.126  14.619  0.3523  0.2516 -0.2061
 9486SOL    HW140091   3.189   3.124  14.679  1.0163  1.8815 -0.9656
 9486SOL    HW240092   3.143   3.046  14.575  0.2791 -0.4913  1.1061
 9487SOL     OW40093   2.026   1.480  12.173  0.0775  0.1310 -1.1315
 9487SOL    HW140094   2.106   1.444  12.210  0.0508  2.2557  0.9975
 9487SOL    HW240095   2.055   1.474  12.082 -0.7716 -0.5964 -1.3516
 9488SOL     OW40096   3.262   0.313   2.736 -0.4984  0.3879 -0.0323
 9488SOL    HW140097   3.179   0.327   2.690  0.0455 -0.7459 -1.3519
 9488SOL    HW240098   3.232   0.314   2.827  0.5136 -1.7469  0.3155
 9489SOL     OW40099   4.163   1.915  15.851  0.1679 -0.2969  0.1612
 9489SOL    HW140100   4.149   2.000  15.811 -3.2652 -1.4615 -1.1327
 9489SOL    HW240101   4.089   1.871  15.808 -0.5345  0.7219  0.3373
 9490SOL     OW40102   3.397   0.963  11.811  0.4749 -0.1371 -0.4272
 9490SOL    HW140103   3.425   1.049  11.779 -0.3432  0.0958 -0.5058
 9490SOL    HW240104   3.354   0.992  11.891  1.5275 -1.2158  0.5368
 9491SOL     OW40105   1.239   0.736   6.938 -0.1108  0.0994  0.2185
 9491SOL    HW140106   1.321   0.698   6.907 -0.6644 -0.4829 -0.5280
 9491SOL    HW240107   1.273   0.784   7.013  0.2708 -1.5795  1.1243
 9492SOL     OW40108   0.904   2.594  10.064 -0.3409  0.1499  0.3807
 9492SOL    HW140109   0.867   2.651  10.131  1.3519 -1.4889  2.6981
 9492SOL    HW240110   0.989   2.575  10.104 -0.4697 -0.3301  0.4264
 9493SOL     OW40111   0.541   4.449   5.706 -0.3669 -0.3581  0.1536
 9493SOL    HW140112   0.628   4.487   5.714 -0.9900  1.1839 -0.3343
 9493SOL    HW240113   0.515   4.451   5.798  0.8967 -0.5891  0.5142
 9494SOL     OW40114   2.936   3.314   9.328 -0.5190 -0.1736 -0.0767
 9494SOL    HW140115   2.971   3.403   9.328 -2.5015  0.6158  0.5192
 9494SOL    HW240116   2.868   3.317   9.260  0.4970 -0.7719 -1.1007
 9495SOL     OW40117   1.372   3.150   5.396  0.2547  0.2422  0.3915
 9495SOL    HW140118   1.401   3.164   5.486 -0.4181 -2.3278  0.9962
 9495SOL    HW240119   1.401   3.234   5.359 -1.7010  1.2417  1.1058
 9496SOL     OW40120   4.573   2.326   3.223 -0.1892  0.1677 -0.8478
 9496SOL    HW140121   4.573   2.257   3.157  2.2236 -1.1696  0.5593
 9496SOL    HW240122   4.555   2.399   3.164  0.8870  1.3600  0.3197
 9497SOL     OW40123   3.527   1.726   5.675 -0.0619 -0.1521  0.7386
 9497SOL    HW140124   3.443   1.757   5.709  0.0438 -1.1656  1.9263
 9497SOL    HW240125   3.527   1.764   5.587  0.0340 -1.7308  0.0662
 9498SOL     OW40126   2.419   0.726   4.362 -0.0736 -0.3241  0.1106
 9498SOL    HW140127   2.402   0.632   4.368  2.2389 -0.8540 -1.4449
 9498SOL    HW240128   2.479   0.748   4.435 -0.2249  0.5307 -0.0169
 9499SOL     OW40129   1.139   3.128   8.669 -0.5549  0.0004 -0.1182
 9499SOL    HW140130   1.154   3.208   8.617  2.9090 -1.3292 -1.1677
 9499SOL    HW240131   1.101   3.164   8.749 -1.0749 -1.2738  0.1930
 9500SOL     OW40132   4.205   0.488   4.960 -0.0710  0.3909  0.4623
 9500SOL    HW140133   4.213   0.540   5.040 -1.0386  0.9005  0.2278
 9500SOL    HW240134   4.207   0.405   5.008  2.1861  1.2469  1.8260
 9501SOL     OW40135   0.957   2.883   7.301  0.4641  0.0718  0.6823
 9501SOL    HW140136   0.952   2.886   7.397 -0.6094  1.1970  0.5897
 9501SOL    HW240137   1.039   2.932   7.290  0.1868 -0.1786 -2.4171
 9502SOL     OW40138   3.704   1.189  13.886 -0.5624 -0.0131 -0.0786
 9502SOL    HW140139   3.633   1.134  13.855 -0.3727 -1.0867  1.4050
 9502SOL    HW240140   3.743   1.212  13.801 -0.1865  0.6978  0.2876
 9503SOL     OW40141   3.575   1.887   3.589 -0.3151 -0.5308 -0.8063
 9503SOL    HW140142   3.532   1.968   3.560  1.1246  0.2932 -0.6686
 9503SOL    HW240143   3.514   1.816   3.569  0.0016 -0.5746 -1.6015
 9504SOL     OW40144   2.828   2.895   5.339  0.3563 -0.1409  0.3658
 9504SOL    HW140145   2.847   2.873   5.248  0.1531  0.6750  0.1175
 9504SOL    HW240146   2.733   2.884   5.342  0.5330 -1.2056  2.0930
 9505SOL     OW40147   4.297   3.711   5.930 -0.5148 -0.2482 -0.0605
 9505SOL    HW140148   4.286   3.784   5.869 -3.6897  0.5483  1.4909
 9505SOL    HW240149   4.380   3.670   5.906  0.5778  2.0894 -0.3331
 9506SOL     OW40150   1.600   1.760   4.701 -0.2937 -0.2460 -0.2119
 9506SOL    HW140151   1.673   1.765   4.638  0.5970 -0.1527  0.8327
 9506SOL    HW240152   1.621   1.706   4.777  0.8237 -0.3392 -0.5816
 9507SOL     OW40153   0.675   0.157   2.552 -0.5292  0.7533 -0.3656
 9507SOL    HW140154   0.752   0.206   2.521 -1.3506  0.7881 -2.3487
 9507SOL    HW240155   0.676   0.102   2.473 -1.0518 -1.4846  1.1844
 9508SOL     OW40156   1.846   0.120   7.501 -0.1268 -0.7120 -0.4581
 9508SOL    HW140157   1.759   0.146   7.532  0.2937  1.2341 -0.8850
 9508SOL    HW240158   1.857   0.194   7.442 -0.6057 -0.0403  0.2937
 9509SOL     OW40159   0.458   0.054  12.085  0.6087 -0.8417  0.1536
 9509SOL    HW140160   0.519   0.001  12.136  1.0757 -0.5734 -0.1259
 9509SOL    HW240161   0.390   4.724  12.092  1.4215 -1.7968 -1.0236
 9510SOL     OW40162   3.275   0.401   3.730 -0.0092  0.2397 -0.3278
 9510SOL    HW140163   3.278   0.315   3.688 -1.1981  0.0175  0.0521
 9510SOL    HW240164   3.203   0.445   3.685 -1.5213 -1.9013  0.0205
 9511SOL     OW40165   0.950   4.290   2.779  0.3425 -0.2987 -1.3172
 9511SOL    HW140166   1.031   4.333   2.808 -0.2776  0.9793 -1.4900
 9511SOL    HW240167   0.964   4.305   2.686 -1.6355  0.9040 -1.4127
 9512SOL     OW40168   3.591   4.715   8.592  0.3330 -0.1835  0.2580
 9512SOL    HW140169   3.633   4.632   8.568  0.5171 -0.2130  0.6835
 9512SOL    HW240170   3.677   0.009   8.621  0.5401  2.2247 -2.8380
 9513SOL     OW40171   1.233   3.674   2.585  0.0794  0.1376  0.6310
 9513SOL    HW140172   1.211   3.606   2.521  0.9971  2.7361 -2.4649
 9513SOL    HW240173   1.236   3.744   2.520  1.5165  0.6611  1.2705
 9514SOL     OW40174   0.987   4.629  12.199  0.1908 -0.2313  0.3865
 9514SOL    HW140175   0.917   4.620  12.133 -0.7192  0.4786  1.2539
 9514SOL    HW240176   1.040   4.700  12.163 -0.2483  0.9452  2.1197
 9515SOL     OW40177   1.708   0.130   3.663 -0.7430  0.2731 -0.4372
 9515SOL    HW140178   1.712   0.048   3.613 -2.1423 -0.1286  0.1136
 9515SOL    HW240179   1.715   0.193   3.591  1.4259 -0.9275 -1.2873
 9516SOL     OW40180   3.087   2.429   7.730  0.4589  0.0207  0.7001
 9516SOL    HW140181   3.008   2.482   7.737  0.6140  0.4073 -0.4144
 9516SOL    HW240182   3.071   2.367   7.801 -1.0316 -0.3543  0.0461
 9517SOL     OW40183   4.362   4.062   5.072  0.2575 -0.4601  0.5533
 9517SOL    HW140184   4.314   4.091   4.995  1.2181  0.1569  0.1864
 9517SOL    HW240185   4.287   4.041   5.127 -0.2662  0.1089  0.0551
 9518SOL     OW40186   0.506   1.590   6.502 -0.8921 -0.6015 -0.3493
 9518SOL    HW140187   0.444   1.640   6.555 -0.4007 -1.5607  1.1027
 9518SOL    HW240188   0.584   1.585   6.556 -1.4524 -1.4574  0.3682
 9519SOL     OW40189   1.024   2.787   6.850  0.0115 -0.0590 -0.1556
 9519SOL    HW140190   1.089   2.822   6.789  0.6662 -0.5164  0.2926
 9519SOL    HW240191   1.080   2.727   6.899  1.5241  1.1699 -0.3816
 9520SOL     OW40192   2.036   3.213   2.121 -0.1814  0.0530 -0.9230
 9520SOL    HW140193   1.986   3.223   2.040 -0.4282  0.6799 -0.6895
 9520SOL    HW240194   1.959   3.217   2.177 -0.6460  1.3804 -1.6604
 9521SOL     OW40195   4.683   1.572  13.915 -0.1036 -0.2172 -0.2184
 9521SOL    HW140196   4.702   1.627  13.991 -1.3015  2.4389 -1.8418
 9521SOL    HW240197   4.589   1.585  13.910 -0.0100  0.8777  0.8673
 9522SOL     OW40198   3.422   2.370   0.132 -0.4525  0.4869 -0.5593
 9522SOL    HW140199   3.394   2.461   0.118 -0.5236  0.0501 -3.1964
 9522SOL    HW240200   3.381   2.336   0.053  0.7146 -1.3134 -0.3808
 9523SOL     OW40201   1.704   4.605   7.330  0.3255  0.1682 -0.0810
 9523SOL    HW140202   1.765   4.587   7.402 -0.1212 -0.3496  0.1682
 9523SOL    HW240203   1.708   4.524   7.279 -1.2811 -0.3873  0.6768
 9524SOL     OW40204   2.460   1.521  14.983 -0.4866 -0.3557  0.7941
 9524SOL    HW140205   2.549   1.541  14.954 -1.7798  1.9410 -1.6486
 9524SOL    HW240206   2.431   1.468  14.909 -1.0863 -0.7060  1.2807
 9525SOL     OW40207   2.260   0.133   5.608  0.5760  0.1275 -0.1788
 9525SOL    HW140208   2.233   0.042   5.623 -3.0544  1.1286 -0.6013
 9525SOL    HW240209   2.348   0.121   5.572  0.2627 -0.2661 -0.8151
 9526SOL     OW40210   2.003   0.363   9.845 -0.2996  0.4889  0.1462
 9526SOL    HW140211   1.986   0.418   9.768  0.2828 -0.1593 -0.4541
 9526SOL    HW240212   2.014   0.435   9.907 -0.0487  1.2038 -0.7271
 9527SOL     OW40213   0.699   0.313   7.443  0.3860 -0.0950  0.2064
 9527SOL    HW140214   0.610   0.309   7.407  0.3940 -0.9902  0.3010
 9527SOL    HW240215   0.690   0.405   7.469  0.0578  0.5458 -2.1519
 9528SOL     OW40216   2.855   3.879   9.043  0.5707 -0.4519 -0.3519
 9528SOL    HW140217   2.783   3.824   9.073  0.6722 -0.3181  0.1409
 9528SOL    HW240218   2.892   3.913   9.125  0.3331 -1.2768  0.1011
 9529SOL     OW40219   1.768   1.568  12.289  0.5243  0.8678  0.3933
 9529SOL    HW140220   1.832   1.547  12.222 -0.1957  0.4477 -0.1589
 9529SOL    HW240221   1.793   1.659  12.307 -0.3248  1.6789 -2.5286
 9530SOL     OW40222   4.410   0.878   6.985 -0.4332  0.0209  0.4030
 9530SOL    HW140223   4.334   0.879   7.044 -2.9563  3.1543 -2.8866
 9530SOL    HW240224   4.377   0.805   6.933 -0.5718 -0.5644  1.3070
 9531SOL     OW40225   0.670   3.850   1.201  0.4251 -0.0112  0.0538
 9531SOL    HW140226   0.694   3.841   1.109  1.2742 -0.6239  0.3395
 9531SOL    HW240227   0.758   3.842   1.237 -0.2258  1.3251  1.8774
 9532SOL     OW40228   0.843   4.152  13.680  0.2936  0.1031 -0.6122
 9532SOL    HW140229   0.782   4.079  13.690  0.2452  0.1970 -0.2336
 9532SOL    HW240230   0.873   4.137  13.590  1.1986 -0.4252 -0.2196
 9533SOL     OW40231   4.217   3.366   2.654 -0.0816  0.3933  0.1034
 9533SOL    HW140232   4.296   3.314   2.671 -0.1477  0.1018 -0.4899
 9533SOL    HW240233   4.239   3.451   2.692 -4.1278  1.4134  0.1777
 9534SOL     OW40234   1.545   3.584   7.229 -0.5773  0.2971 -0.2624
 9534SOL    HW140235   1.494   3.508   7.202 -0.1563 -0.5298  1.3009
 9534SOL    HW240236   1.550   3.635   7.148 -2.7926 -0.8604 -1.1269
 9535SOL     OW40237   0.950   0.043   5.304 -0.0955  0.0139  0.4843
 9535SOL    HW140238   0.998   0.111   5.256  1.6766 -0.8360  1.0447
 9535SOL    HW240239   0.885   0.011   5.241 -1.2338 -1.2094  2.3084
 9536SOL     OW40240   3.590   1.434   5.274  0.0208  0.8937  0.3717
 9536SOL    HW140241   3.596   1.443   5.179  0.7085  0.1736  0.3462
 9536SOL    HW240242   3.677   1.463   5.300  0.1210 -0.2535  1.3133
 9537SOL     OW40243   0.669   3.357  11.128 -0.6183 -0.2710  0.0580
 9537SOL    HW140244   0.710   3.431  11.082  0.1705 -2.4564 -2.7552
 9537SOL    HW240245   0.650   3.403  11.209 -1.3730  1.0884 -0.8921
 9538SOL     OW40246   4.684   4.371  14.841 -0.4692 -0.2942 -0.6460
 9538SOL    HW140247   4.621   4.443  14.837 -2.1266 -1.6736  0.3144
 9538SOL    HW240248   4.621   4.300  14.824 -1.3377  0.4822 -0.6726
 9539SOL     OW40249   2.362   1.993  17.618  0.2646  0.3020  0.4743
 9539SOL    HW140250   2.422   1.923  17.593  1.7227  3.0133 -3.7779
 9539SOL    HW240251   2.418   2.030  17.686 -0.4406 -0.9033  1.6807
 9540SOL     OW40252   2.608   2.594  13.495 -0.0001 -0.2788 -0.3298
 9540SOL    HW140253   2.699   2.573  13.518 -0.3065 -0.5713  0.6114
 9540SOL    HW240254   2.558   2.529  13.543  0.9813 -0.6352  0.2069
 9541SOL     OW40255   4.320   2.169  10.663 -0.1659 -0.4674 -0.0414
 9541SOL    HW140256   4.316   2.259  10.696  2.7862 -0.7514  1.0472
 9541SOL    HW240257   4.317   2.195  10.571  0.6889 -0.5861 -0.1022
 9542SOL     OW40258   3.616   3.142   4.829 -0.0651 -0.4956  0.1985
 9542SOL    HW140259   3.669   3.120   4.753  0.8827  1.0173  0.4270
 9542SOL    HW240260   3.531   3.122   4.790  0.1177  2.2880 -1.6470
 9543SOL     OW40261   3.812   1.295   6.130 -0.5296  0.5069  0.3569
 9543SOL    HW140262   3.836   1.385   6.109  0.4002 -0.0992 -1.1765
 9543SOL    HW240263   3.789   1.263   6.042 -0.9867  0.7270  0.3971
 9544SOL     OW40264   2.969   1.117   2.725  0.8090  0.0663  0.1527
 9544SOL    HW140265   2.940   1.147   2.811 -3.1766 -1.4516 -0.6695
 9544SOL    HW240266   2.887   1.072   2.704 -0.1566  0.8401  2.2542
 9545SOL     OW40267   4.533   1.342  12.660 -0.0354  0.3381  0.5766
 9545SOL    HW140268   4.561   1.417  12.713 -0.5568  0.9228  0.0193
 9545SOL    HW240269   4.555   1.274  12.723  0.8951 -1.5136 -1.7713
 9546SOL     OW40270   3.007   0.399   2.600 -0.6066  0.0390 -0.1317
 9546SOL    HW140271   3.020   0.480   2.551 -1.3825 -1.7641 -3.3507
 9546SOL    HW240272   2.925   0.419   2.644  0.2818  1.7656  0.7516
 9547SOL     OW40273   3.563   4.221  13.522  0.7583  0.4119  0.0591
 9547SOL    HW140274   3.540   4.304  13.565 -0.9672  0.2651 -0.5592
 9547SOL    HW240275   3.480   4.174  13.532  0.8095 -0.3056 -3.0430
 9548SOL     OW40276   1.281   2.486   4.137 -0.1494 -0.2441 -0.1195
 9548SOL    HW140277   1.361   2.434   4.121  0.8950  2.0792 -2.5110
 9548SOL    HW240278   1.325   2.561   4.177 -0.2503  0.6725 -1.7300
 9549SOL     OW40279   3.799   0.610  10.687  0.1050 -0.0030  0.1582
 9549SOL    HW140280   3.885   0.628  10.724 -0.2617 -2.1442  2.0848
 9549SOL    HW240281   3.814   0.520  10.657 -0.4316  0.2654 -0.9162
 9550SOL     OW40282   0.663   2.304   5.005 -0.2482  0.5828  0.4160
 9550SOL    HW140283   0.741   2.259   4.973 -0.5663 -0.9459  1.7990
 9550SOL    HW240284   0.662   2.375   4.941 -0.3767  0.4663  0.2856
 9551SOL     OW40285   3.263   1.103  17.546  0.4413  0.3095  0.0357
 9551SOL    HW140286   3.312   1.021  17.543  0.3153  0.2879 -1.2756
 9551SOL    HW240287   3.341   1.159  17.548  1.3046 -0.8430 -1.2857
 9552SOL     OW40288   4.175   3.530   0.185 -0.2213 -0.3932 -0.2283
 9552SOL    HW140289   4.181   3.581   0.104  0.5506 -0.0275  0.0575
 9552SOL    HW240290   4.244   3.464   0.182  0.1890 -0.0431  1.3162
 9553SOL     OW40291   3.703   4.364   8.587  0.3677 -0.1381 -0.1279
 9553SOL    HW140292   3.798   4.350   8.583  0.6083  1.2720  0.6275
 9553SOL    HW240293   3.678   4.360   8.680  1.2052  0.6772  0.1317
 9554SOL     OW40294   2.842   3.462   9.019  0.4251  0.0192  0.0654
 9554SOL    HW140295   2.901   3.507   8.958  0.6615  2.5964  2.2162
 9554SOL    HW240296   2.809   3.391   8.964  1.1511  1.3039 -2.0159
 9555SOL     OW40297   2.076   1.197  14.075  0.0893 -0.5190  0.3081
 9555SOL    HW140298   2.171   1.200  14.059 -0.1908  2.2125 -0.7059
 9555SOL    HW240299   2.050   1.206  13.983 -1.2511  0.1490  0.7660
 9556SOL     OW40300   2.446   2.407   8.540  0.2886 -0.0910 -0.2808
 9556SOL    HW140301   2.458   2.330   8.484 -0.3298  0.7830 -1.6251
 9556SOL    HW240302   2.363   2.397   8.588  0.4153  1.9291  0.3513
 9557SOL     OW40303   3.685   4.048  12.047 -0.0379  0.6411 -0.1439
 9557SOL    HW140304   3.689   4.127  12.101  1.1781  1.2101 -1.0584
 9557SOL    HW240305   3.612   4.011  12.096 -1.3944  1.2081 -1.7766
 9558SOL     OW40306   2.910   4.524   8.153 -0.5206  0.0977  0.7259
 9558SOL    HW140307   2.819   4.553   8.149 -0.7302 -0.2683  2.5376
 9558SOL    HW240308   2.933   4.531   8.060 -2.0896 -0.2092  0.3137
 9559SOL     OW40309   0.883   3.468  16.638  0.6779  0.1234 -0.4352
 9559SOL    HW140310   0.851   3.412  16.567  0.4704 -0.5109  0.1627
 9559SOL    HW240311   0.825   3.448  16.711  1.3526  3.1764  0.9162
 9560SOL     OW40312   3.704   3.681   5.418 -0.4006 -0.3848  0.1368
 9560SOL    HW140313   3.690   3.693   5.324  3.7861  0.6324 -0.3492
 9560SOL    HW240314   3.709   3.772   5.448 -2.0835 -0.6707  1.2462
 9561SOL     OW40315   1.032   2.516  10.447  0.0502 -0.1095 -0.2315
 9561SOL    HW140316   0.985   2.532  10.365 -0.9576 -1.3895  0.0889
 9561SOL    HW240317   0.961   2.541  10.506 -0.1688 -0.2483 -0.4347
 9562SOL     OW40318   3.390   3.871  10.746 -0.5258 -0.2500 -1.0543
 9562SOL    HW140319   3.431   3.792  10.711 -1.8442 -1.3898 -0.0529
 9562SOL    HW240320   3.463   3.920  10.785 -0.7350  0.1521 -1.1720
 9563SOL     OW40321   0.132   1.298   3.469 -0.3102  0.2751 -0.3557
 9563SOL    HW140322   0.110   1.369   3.409  2.2185  1.9144  0.6505
 9563SOL    HW240323   0.040   1.280   3.488 -0.6077  1.7785 -0.4246
 9564SOL     OW40324   0.599   3.398   4.631 -0.3602  0.1171  0.3400
 9564SOL    HW140325   0.594   3.303   4.638 -2.0653  0.2860  1.3152
 9564SOL    HW240326   0.682   3.401   4.680 -0.3259  0.3549  0.2689
 9565SOL     OW40327   3.312   3.194   3.817 -0.4164 -0.1415  0.2248
 9565SOL    HW140328   3.363   3.272   3.840  0.0830 -0.4316  0.1090
 9565SOL    HW240329   3.302   3.206   3.723  0.0863  2.6264  0.5221
 9566SOL     OW40330   2.839   0.215   5.519 -0.3382  0.6112  0.3552
 9566SOL    HW140331   2.901   0.194   5.449 -1.8200 -0.8349 -0.5183
 9566SOL    HW240332   2.890   0.208   5.600  1.6280 -0.9943 -1.0199
 9567SOL     OW40333   2.863   1.928   5.582  0.2303  0.2861  0.0789
 9567SOL    HW140334   2.864   2.003   5.642  0.2446  1.2299 -1.1190
 9567SOL    HW240335   2.912   1.863   5.634 -1.1182 -0.8928 -0.1243
 9568SOL     OW40336   4.375   3.659   4.945 -0.6454  0.1207 -0.6193
 9568SOL    HW140337   4.404   3.571   4.925 -2.9306 -0.6089 -0.7429
 9568SOL    HW240338   4.323   3.652   5.025  0.1360  2.3672  0.0985
 9569SOL     OW40339   1.140   2.263   4.242 -0.1014 -0.3888 -0.2775
 9569SOL    HW140340   1.127   2.282   4.334  0.3214  0.6042 -0.4203
 9569SOL    HW240341   1.176   2.346   4.211  1.8252 -1.0696  0.1644
 9570SOL     OW40342   4.006   4.480   3.089  1.1991  0.5249 -0.2129
 9570SOL    HW140343   4.062   4.557   3.079  0.7775  0.7646 -0.7327
 9570SOL    HW240344   3.976   4.495   3.000 -0.1502  0.5054  0.2386
 9571SOL     OW40345   0.398   1.020   6.335 -0.2324 -0.1335  0.2287
 9571SOL    HW140346   0.481   1.027   6.286 -1.1088  2.8928 -0.8545
 9571SOL    HW240347   0.386   0.925   6.329 -1.2978 -0.1638  3.3117
   4.73595   4.73595  17.74242
