Membrane in water
40347
    1TMC1    C1    1   0.222   3.410  11.073 -0.5212 -0.3503 -0.2282
    1TMC1    C2    2   0.140   3.459  10.978  0.1484 -0.3536 -0.4702
    1TMC1    C3    3   0.191   3.542  10.880  0.0334  0.5661  0.3314
    1TMC1    C4    4   0.354   3.434  11.066  0.2315  0.1531  0.6539
    1TMC1    C5    5   0.404   3.522  10.970 -0.2192  0.8104  0.4904
    1TMC1    C6    6   0.326   3.579  10.870 -0.1224 -0.4374  0.2516
    1TMC1     C    7   0.155   3.358  11.193  0.0604  0.5358  0.5213
    1TMC1     O    8   0.040   3.396  11.214  0.6845 -0.2423  0.5121
    1TMC1     H    9   0.033   3.448  10.987  0.3926 -0.1728  2.5924
    1TMC1    H1   10   0.427   3.409  11.143 -0.9411 -1.2488  1.3068
    1TMC1    H2   11   0.362   3.638  10.787 -0.0661  1.1605  1.4062
    1TMC1    C7   12   0.548   3.508  10.947  0.7324 -0.3462  1.0266
    1TMC1    C8   13   0.087   3.583  10.788 -0.2584 -0.5923 -0.1621
    1TMC1    O1   14   0.593   3.410  11.009 -0.1483  0.3257 -0.0567
    1TMC1    O2   15   4.719   3.517  10.782 -0.1052  0.1350 -0.2358
    1TMC1    O3   16   0.600   3.632  10.955  0.8621 -0.0535  0.5241
    1TMC1    H3   17   0.528   3.689  10.988  0.9489  1.0788 -1.2663
    1TMC1    O5   18   0.102   3.715  10.766  0.0576 -0.4912 -0.8561
    1TMC1    H5   19   0.181   3.749  10.814 -1.1007 -0.0966  0.7468
    2MPD2     C   20   0.125   3.018  11.573  0.4888  0.3659  0.3724
    2MPD2    C1   21   0.032   3.090  11.503  0.5413 -0.0629 -0.0279
    2MPD2    C2   22   0.061   3.195  11.417 -0.1030  0.7340  0.0054
    2MPD2    C3   23   0.197   3.223  11.396  0.2766 -0.0100  0.1692
    2MPD2    C4   24   0.296   3.151  11.463  0.3046 -0.0888 -0.4016
    2MPD2    C5   25   0.259   3.053  11.552  0.1781  0.3662  0.1205
    2MPD2     H   26   4.725   3.247  11.354  0.9383  2.6625  0.4108
    2MPD2    H1   27   0.403   3.154  11.448  0.5827 -0.0119  1.6142
    2MPD2    H2   28   0.104   2.942  11.648  2.7103 -0.3895  0.2205
    2MPD2    H3   29   0.341   3.005  11.604  0.0236 -1.4718 -1.3588
    2MPD2     N   30   0.244   3.300  11.281  0.2529 -0.1996 -0.2211
    2MPD2    H5   31   0.343   3.292  11.261  0.0737 -1.2157 -0.7064
    2MPD2    N1   32   4.626   3.077  11.521 -0.5274  0.3148  0.6313
    2MPD2    H7   33   4.577   3.148  11.468  0.5503 -0.1884 -1.0364
    3TMC1    C1   34   4.193   0.177  10.599 -0.1814  0.3802 -0.1050
    3TMC1    C2   35   4.321   0.142  10.569 -0.5306 -0.0664 -0.1756
    3TMC1    C3   36   4.336   0.032  10.486 -0.2750 -0.6017 -0.3237
    3TMC1    C4   37   4.077   0.123  10.544  0.1217  0.7065  0.3566
    3TMC1    C5   38   4.095   0.017  10.461  0.3517  0.2650  0.6062
    3TMC1    C6   39   4.225   4.708  10.430  0.5429 -0.1230  0.1525
    3TMC1     C   40   4.178   0.324  10.628  0.0811  0.1505  0.2581
    3TMC1     O   41   4.271   0.396  10.602  0.2140  0.0934  0.3792
    3TMC1     H   42   4.403   0.194  10.617 -0.4894 -1.0785  0.8329
    3TMC1    H1   43   3.972   0.138  10.568 -0.3211  2.1419 -2.4889
    3TMC1    H2   44   4.231   4.618  10.371 -1.5189 -0.2007  0.0538
    3TMC1    C7   45   3.987   4.668  10.434  0.1787 -0.0344  0.4403
    3TMC1    C8   46   4.459   4.722  10.436 -0.7487 -0.7283  0.0451
    3TMC1    O1   47   3.893   4.645  10.510  0.0824 -0.6333  0.0061
    3TMC1    O2   48   4.555   0.061  10.435  0.1795 -0.1120 -0.5453
    3TMC1    O3   49   3.997   4.618  10.308 -0.0475  0.1129 -0.4617
    3TMC1    H3   50   4.043   4.686  10.253  2.3306 -1.4475 -0.3963
    3TMC1    O5   51   4.466   4.587  10.441  0.4140  0.0971  0.5212
    3TMC1    H5   52   4.381   4.544  10.464  1.0877 -0.3756  2.1140
    4MPD2     C   53   3.903   0.721  10.785 -0.2359 -0.7295  0.2619
    4MPD2    C1   54   3.822   0.612  10.791 -0.1456 -0.3654  0.3129
    4MPD2    C2   55   3.877   0.492  10.739 -0.0292 -0.7981 -0.6305
    4MPD2    C3   56   4.006   0.486  10.694  0.3049  0.0319  0.4120
    4MPD2    C4   57   4.088   0.595  10.695  0.2399 -0.6792 -0.3236
    4MPD2    C5   58   4.034   0.708  10.744  0.4504  0.4265  0.1249
    4MPD2     H   59   3.813   0.404  10.742 -0.9153 -0.0592  2.2078
    4MPD2    H1   60   4.192   0.607  10.669  0.3374  0.3903  0.5515
    4MPD2    H2   61   3.872   0.822  10.804  0.6036 -0.0575 -1.9339
    4MPD2    H3   62   4.094   0.798  10.751  0.2761  0.5922 -0.5053
    4MPD2     N   63   4.054   0.360  10.668  0.2177  0.1471 -0.2687
    4MPD2    H5   64   3.995   0.282  10.695  0.5375  0.1082  0.2964
    4MPD2    N1   65   3.693   0.596  10.856 -0.1767  0.4889 -0.1602
    4MPD2    H7   66   3.673   0.498  10.870  1.7905 -0.2829 -2.6056
    5TCq1    O1   67   3.666   1.908  11.232 -0.0499  0.6518 -0.0785
    5TCq1    C1   68   3.697   1.787  11.185 -0.0232 -0.2589  0.1159
    5TCq1    O2   69   3.663   1.679  11.235 -0.0328  0.1548 -0.2518
    5TCq1    C2   70   3.762   1.778  11.054 -0.5128 -0.1327  0.8820
    5TCq1    C3   71   3.782   1.889  10.979  0.2634 -0.5405 -0.6730
    5TCq1    C4   72   3.848   1.880  10.867  0.1102  1.0079 -0.4974
    5TCq1    C5   73   3.903   1.760  10.825  0.0150  0.3373  0.1759
    5TCq1    C6   74   3.888   1.652  10.901 -0.1758 -0.2337  0.0900
    5TCq1    C7   75   3.813   1.663  11.015 -0.4237 -0.9520  0.2129
    5TCq1    C8   76   3.970   1.534  10.888 -0.1098 -0.1344  0.5287
    5TCq1    O4   77   3.943   1.439  10.960  0.1276 -0.7815 -0.3811
    5TCq1    C9   78   3.857   1.992  10.773 -0.5207  0.3642 -0.4117
    5TCq1    O5   79   3.812   2.104  10.803  0.9849 -0.2307 -0.2014
    5TCq1    O6   80   3.920   1.967  10.668 -0.0404  0.1548 -0.6337
    5TCq1    H1   81   3.716   1.978  11.186  0.7940 -0.3541 -0.6817
    5TCq1    H2   82   3.729   1.982  10.993  1.3652 -0.0452  0.1401
    5TCq1    H3   83   3.954   1.748  10.730  1.0698  0.3641  0.7428
    5TCq1    H4   84   3.807   1.580  11.084 -0.3814  0.2859  1.7098
    6MPD2     C   85   4.262   1.537  10.671 -0.7659  0.1421  0.1932
    6MPD2    C1   86   4.179   1.481  10.766  0.3509  0.6138 -0.9775
    6MPD2    C2   87   4.194   1.350  10.811 -0.1178  0.6261  0.3166
    6MPD2    C3   88   4.307   1.281  10.778 -0.5651 -0.8785  0.2274
    6MPD2    C4   89   4.397   1.337  10.680  0.3764  0.4351  0.8062
    6MPD2    C5   90   4.367   1.459  10.625 -0.4916  0.3410 -0.3461
    6MPD2     H   91   4.123   1.309  10.882  3.1277 -1.7985  2.1313
    6MPD2    H1   92   4.486   1.294  10.637 -1.2732 -0.5344 -1.6622
    6MPD2    H2   93   4.248   1.637  10.633 -0.5441  0.0235 -0.2063
    6MPD2    H3   94   4.436   1.506  10.556  0.0918 -0.3386 -0.2265
    6MPD2     N   95   4.320   1.148  10.826  0.8245 -0.8636 -0.4265
    6MPD2    H5   96   4.261   1.119  10.903 -0.4154  1.4547 -0.5021
    6MPD2    N1   97   4.076   1.567  10.810  0.0754 -0.4143 -1.1544
    6MPD2    H7   98   4.069   1.663  10.780  2.2957  0.3024  0.6522
    7TCq1    O1   99   1.194   0.663  13.151 -0.1463 -0.0361  0.3933
    7TCq1    C1  100   1.313   0.620  13.181 -0.7218 -0.2217 -0.9513
    7TCq1    O2  101   1.374   0.656  13.278 -0.1036 -0.3261  0.3340
    7TCq1    C2  102   1.325   0.484  13.145 -0.5010 -0.3400 -0.2491
    7TCq1    C3  103   1.268   0.448  13.021  0.4936 -0.4269 -0.0820
    7TCq1    C4  104   1.290   0.318  12.974  0.5532  1.3071  0.7578
    7TCq1    C5  105   1.359   0.233  13.045 -0.5028 -0.3823  0.6298
    7TCq1    C6  106   1.425   0.273  13.161 -0.3305  0.3199 -0.1296
    7TCq1    C7  107   1.406   0.403  13.214 -0.0247  0.5776 -0.4247
    7TCq1    C8  108   1.498   0.172  13.231 -0.2811  0.8678 -0.3280
    7TCq1    O4  109   1.481   0.050  13.201  0.1843 -0.2832 -0.6905
    7TCq1    C9  110   1.216   0.277  12.857 -0.0538  0.0164  0.2474
    7TCq1    O5  111   1.197   0.156  12.837 -0.0802  0.8005  0.0304
    7TCq1    O6  112   1.186   0.368  12.774  0.0292  0.0578  0.4014
    7TCq1    H1  113   1.138   0.609  13.091 -0.1933  1.5230 -0.9851
    7TCq1    H2  114   1.222   0.525  12.959 -0.1672  0.1232  1.1011
    7TCq1    H3  115   1.372   0.131  13.009  1.8224  0.4964 -0.9967
    7TCq1    H4  116   1.428   0.429  13.317  0.4990 -2.1511  0.1621
    8MPD2     C  117   1.785   0.019  13.641  0.7256  0.8486  0.2294
    8MPD2    C1  118   1.702   4.687  13.553  0.0269  0.0563 -0.2724
    8MPD2    C2  119   1.628   0.020  13.454  0.0536  0.1109 -0.5259
    8MPD2    C3  120   1.635   0.157  13.436 -0.0170  0.6104  0.1543
    8MPD2    C4  121   1.714   0.220  13.527 -0.0792  0.5097 -0.4887
    8MPD2    C5  122   1.787   0.159  13.624 -0.3403  0.7315  0.2123
    8MPD2     H  123   1.570   4.702  13.379 -0.8926 -1.4406  1.3004
    8MPD2    H1  124   1.704   0.327  13.541  1.2770  0.3022  2.0982
    8MPD2    H2  125   1.848   4.704  13.714 -2.1381  0.0374  2.1308
    8MPD2    H3  126   1.848   0.229  13.679 -0.1564 -0.5447  1.6359
    8MPD2     N  127   1.576   0.228  13.336  0.3284 -0.2891 -0.1786
    8MPD2    H5  128   1.587   0.329  13.330 -1.0642 -0.1375 -0.3885
    8MPD2    N1  129   1.696   4.549  13.568 -0.5264 -0.3143 -0.4175
    8MPD2    H7  130   1.727   4.506  13.655  1.0937  0.3299 -0.6879
    9TMC1    C1  131   4.733   4.083  10.890  0.8598 -0.1918  0.0288
    9TMC1    C2  132   0.102   4.099  10.802 -0.2404 -0.5496  0.4286
    9TMC1    C3  133   0.086   4.025  10.679 -1.0670 -0.1105  0.0752
    9TMC1    C4  134   4.622   4.008  10.863 -0.4555 -0.3485  0.2543
    9TMC1    C5  135   4.618   3.937  10.744  0.4506 -0.3757  0.3388
    9TMC1    C6  136   4.715   3.947  10.650 -0.4243 -0.0626  0.3129
    9TMC1     C  137   0.005   4.173  11.007 -0.5012 -0.2995  0.4674
    9TMC1     O  138   0.093   4.260  11.010 -0.5094 -0.5001  0.4104
    9TMC1     H  139   0.195   4.152  10.817 -0.8458  0.0941  1.9604
    9TMC1    H1  140   4.537   3.999  10.930  0.0374  0.7244  1.0400
    9TMC1    H2  141   4.704   3.915  10.547 -0.4237  2.4969 -0.4993
    9TMC1    C7  142   4.498   3.859  10.710 -0.2357  0.9172 -0.2148
    9TMC1    C8  143   0.198   4.021  10.591 -0.1966  0.3306 -0.1684
    9TMC1    O1  144   4.393   3.898  10.754 -0.4695 -0.0316 -0.2230
    9TMC1    O2  145   0.184   3.985  10.475  0.2945 -0.6760 -0.4384
    9TMC1    O3  146   4.536   3.738  10.758 -0.0565 -0.4042  0.5200
    9TMC1    H3  147   4.634   3.736  10.757 -0.0228  1.9124 -1.4821
    9TMC1    O5  148   0.305   4.010  10.673  0.0664 -0.5868  0.4978
    9TMC1    H5  149   0.267   3.979  10.758 -0.9067  2.6673  1.2756
   10MPD2     C  150   4.679   4.339  11.240 -0.0395 -0.0210  0.0138
   10MPD2    C1  151   4.622   4.209  11.216  0.4756  0.1120  0.0492
   10MPD2    C2  152   4.539   4.153  11.313 -0.8538 -0.4045 -0.0599
   10MPD2    C3  153   4.486   4.229  11.413 -0.1141 -0.3021  0.6769
   10MPD2    C4  154   4.537   4.350  11.442 -0.3884 -0.5634  0.0661
   10MPD2    C5  155   4.632   4.409  11.356 -0.1197  0.4056  0.0797
   10MPD2     H  156   4.511   4.048  11.307 -0.2930 -0.5023 -0.8385
   10MPD2    H1  157   4.499   4.398  11.532  0.2887  0.9514 -0.4531
   10MPD2    H2  158   0.000   4.402  11.171  1.2493  0.2479  1.3025
   10MPD2    H3  159   4.669   4.509  11.378  1.5194 -0.6370  2.1323
   10MPD2     N  160   4.384   4.179  11.508 -0.2548  0.4007  0.8129
   10MPD2    H5  161   4.364   4.239  11.588 -2.0838 -0.6354  1.1259
   10MPD2    N1  162   4.656   4.130  11.101 -0.1484 -0.0133  0.4885
   10MPD2    H7  163   4.613   4.039  11.088  1.0655 -0.7629  1.6794
   11TCq1    O1  164   0.023   2.545  14.471  0.3360  0.1847 -0.2085
   11TCq1    C1  165   0.136   2.572  14.541  0.2942  0.2576 -0.4221
   11TCq1    O2  166   0.192   2.498  14.614 -0.1724 -0.3584 -0.2657
   11TCq1    C2  167   0.169   2.715  14.540  0.1621 -0.2022  0.0878
   11TCq1    C3  168   0.228   2.763  14.653 -0.0540 -0.9851 -0.0590
   11TCq1    C4  169   0.236   2.895  14.659 -0.1904  0.0654  0.5599
   11TCq1    C5  170   0.198   2.978  14.558 -0.5528 -0.2146 -0.3994
   11TCq1    C6  171   0.143   2.926  14.448  0.8062 -0.0426  0.4214
   11TCq1    C7  172   0.128   2.794  14.439  0.2144 -0.3307 -0.0947
   11TCq1    C8  173   0.125   3.007  14.330 -0.2029  0.1447  0.1821
   11TCq1    O4  174   0.078   3.118  14.348 -0.0591 -0.5405 -0.2781
   11TCq1    C9  175   0.279   2.952  14.783 -0.8518 -0.0187  0.7621
   11TCq1    O5  176   0.327   2.872  14.868  0.5529  0.2020 -0.4839
   11TCq1    O6  177   0.249   3.065  14.818  0.0438  0.3081 -0.3934
   11TCq1    H1  178   4.725   2.618  14.415  2.3087  1.1332 -0.1234
   11TCq1    H2  179   0.253   2.703  14.740 -1.8979  0.2264  1.3076
   11TCq1    H3  180   0.205   3.086  14.565  0.0274 -0.4244  2.2105
   11TCq1    H4  181   0.106   2.752  14.342 -2.2515 -1.4950  0.9822
   12MPD2     C  182   0.088   3.117  14.055 -0.1671  0.6609  0.1261
   12MPD2    C1  183   0.186   3.022  14.094 -0.0569 -0.6348  0.3896
   12MPD2    C2  184   0.281   2.978  14.012 -0.3162 -0.1295 -0.0472
   12MPD2    C3  185   0.296   3.016  13.880 -0.2025 -0.4784  0.5483
   12MPD2    C4  186   0.206   3.111  13.840 -0.5160  0.8727  0.5553
   12MPD2    C5  187   0.110   3.165  13.925 -0.5100  0.2458 -0.5689
   12MPD2     H  188   0.343   2.897  14.050 -0.3654 -0.3524 -0.4488
   12MPD2    H1  189   0.206   3.140  13.736  0.4601 -0.2773  0.2373
   12MPD2    H2  190   0.009   3.154  14.119  0.1427 -0.7343  1.3313
   12MPD2    H3  191   0.033   3.232  13.890  1.4180  2.1518 -1.1650
   12MPD2     N  192   0.374   2.954  13.781 -0.5890 -0.2606 -0.9382
   12MPD2    H5  193   0.376   2.987  13.685 -2.7914  0.7073 -0.6410
   12MPD2    N1  194   0.182   2.960  14.218 -0.2358  0.4109 -0.4382
   12MPD2    H7  195   0.243   2.881  14.231 -1.1093 -0.7494 -3.5948
   13TCq1    O1  196   0.320   3.822  11.506 -0.2099 -0.8556 -0.0318
   13TCq1    C1  197   0.262   3.704  11.483 -0.7181 -0.1887  0.0154
   13TCq1    O2  198   0.234   3.616  11.566  0.4943  0.1688  0.7413
   13TCq1    C2  199   0.212   3.707  11.352  0.1567 -0.3845  0.5818
   13TCq1    C3  200   0.297   3.745  11.245  0.8005  0.4781 -0.4812
   13TCq1    C4  201   0.238   3.799  11.133 -0.3733 -0.1047  0.5298
   13TCq1    C5  202   0.107   3.790  11.124  1.3011 -0.9765 -0.0733
   13TCq1    C6  203   0.027   3.751  11.227  0.7199 -0.3595 -0.7867
   13TCq1    C7  204   0.075   3.707  11.348  0.3694  0.1113  0.2378
   13TCq1    C8  205   4.620   3.730  11.211 -0.3612 -0.5707 -0.1234
   13TCq1    O4  206   4.555   3.808  11.144 -0.5687  0.7345  0.5920
   13TCq1    C9  207   0.315   3.861  11.026  0.4549 -0.0917 -0.2569
   13TCq1    O5  208   0.247   3.874  10.918  0.6139 -0.0703 -0.2878
   13TCq1    O6  209   0.437   3.830  11.025  0.7893  0.3546  0.3158
   13TCq1    H1  210   0.318   3.874  11.422 -1.9795 -1.0062 -0.0894
   13TCq1    H2  211   0.403   3.759  11.266  1.3562 -0.6157 -2.6097
   13TCq1    H3  212   0.062   3.816  11.028 -1.0376  1.1108  1.5554
   13TCq1    H4  213   0.014   3.693  11.437 -0.1468 -3.8369 -0.7253
   14MPD2     C  214   4.452   3.401  11.253  0.5017 -0.3302  0.2046
   14MPD2    C1  215   4.456   3.540  11.235 -0.2028  0.4455 -0.5062
   14MPD2    C2  216   4.336   3.601  11.217  0.3353  0.3145  0.4516
   14MPD2    C3  217   4.211   3.531  11.208 -0.2900  0.1731 -0.6179
   14MPD2    C4  218   4.217   3.392  11.229 -0.1999  0.0208 -0.0386
   14MPD2    C5  219   4.334   3.333  11.247  0.2847  0.4863  0.0133
   14MPD2     H  220   4.337   3.709  11.207 -1.5724  0.1808 -1.2829
   14MPD2    H1  221   4.128   3.330  11.224 -0.4649  0.2393  1.9300
   14MPD2    H2  222   4.541   3.343  11.271  1.7137  1.4464 -0.1109
   14MPD2    H3  223   4.329   3.225  11.258  2.7082  0.5768  2.0627
   14MPD2     N  224   4.085   3.597  11.192 -0.2222  0.4804 -0.2234
   14MPD2    H5  225   4.089   3.697  11.212 -0.4205  0.3300  0.5793
   14MPD2    N1  226   4.584   3.605  11.252  0.2332 -0.0724  1.3061
   14MPD2    H7  227   4.658   3.537  11.266 -0.2469 -0.0267  4.2067
   15TCq1    O1  228   2.922   2.070   1.417  0.8220  0.0265  0.5179
   15TCq1    C1  229   2.838   1.956   1.430  0.5266 -0.2581 -0.0060
   15TCq1    O2  230   2.870   1.837   1.411 -0.4093  0.3797 -0.5464
   15TCq1    C2  231   2.717   2.009   1.363  0.7118 -0.7215 -0.1577
   15TCq1    C3  232   2.630   2.066   1.441  0.2999  0.2263 -0.9790
   15TCq1    C4  233   2.503   2.096   1.396  0.5933 -0.0707  0.5693
   15TCq1    C5  234   2.470   2.058   1.272 -0.5622  0.5561 -0.4013
   15TCq1    C6  235   2.554   1.981   1.198  0.6673  0.3920 -0.5062
   15TCq1    C7  236   2.686   1.962   1.240  0.2874 -0.0118  0.5606
   15TCq1    C8  237   2.511   1.903   1.090  0.1368  0.5908 -0.0293
   15TCq1    O4  238   2.593   1.821   1.058 -0.0205 -0.0209  0.5886
   15TCq1    C9  239   2.402   2.152   1.488 -0.5356 -0.2943 -0.2360
   15TCq1    O5  240   2.304   2.219   1.446 -0.4848  0.2487 -0.3861
   15TCq1    O6  241   2.436   2.160   1.607  0.3966 -0.1488 -0.0610
   15TCq1    H1  242   2.872   2.154   1.414  2.2105  0.8952  1.3138
   15TCq1    H2  243   2.663   2.084   1.543 -0.4962  2.6992 -1.1610
   15TCq1    H3  244   2.373   2.077   1.227 -1.0812  1.1300  0.9553
   15TCq1    H4  245   2.760   1.902   1.187  1.4231 -0.9186  3.1970
   16MPD2     C  246   2.231   1.923   0.870  0.5121  0.3350  0.3015
   16MPD2    C1  247   2.326   1.867   0.940 -0.8035  0.3806 -0.0510
   16MPD2    C2  248   2.354   1.738   0.917 -0.0969 -0.2080  0.6521
   16MPD2    C3  249   2.282   1.653   0.840  0.4314  0.4211 -0.0869
   16MPD2    C4  250   2.175   1.699   0.763 -0.0594 -0.0897 -0.4255
   16MPD2    C5  251   2.151   1.841   0.782  0.1471 -0.0969 -0.8886
   16MPD2     H  252   2.438   1.692   0.970 -0.4842 -1.1250  0.4664
   16MPD2    H1  253   2.105   1.642   0.703  0.0158 -0.6443  0.0120
   16MPD2    H2  254   2.207   2.028   0.876  0.2403  0.3778 -1.4353
   16MPD2    H3  255   2.073   1.890   0.725 -1.6040 -0.3557  1.3032
   16MPD2     N  256   2.308   1.514   0.845 -0.2558  0.4844 -0.0473
   16MPD2    H5  257   2.368   1.479   0.919  0.0581  1.7779  0.3145
   16MPD2    N1  258   2.399   1.942   1.026 -0.4559 -0.0248 -0.0299
   16MPD2    H7  259   2.364   2.036   1.041  1.1961  0.5854  0.0337
   17TMC1    C1  260   3.312   3.262  10.666  0.2515  0.5541 -0.1811
   17TMC1    C2  261   3.184   3.233  10.622  0.2490  0.6616  0.1180
   17TMC1    C3  262   3.125   3.119  10.673 -0.0953  0.3606  0.0918
   17TMC1    C4  263   3.384   3.181  10.745  0.4223 -0.7593  0.9031
   17TMC1    C5  264   3.323   3.069  10.785 -0.1445  0.1089 -0.2261
   17TMC1    C6  265   3.193   3.033  10.754 -0.2451 -0.6035  0.2620
   17TMC1     C  266   3.378   3.387  10.619  0.2438  0.8992 -0.8449
   17TMC1     O  267   3.333   3.435  10.516 -0.6495 -0.1820  0.4520
   17TMC1     H  268   3.145   3.302  10.548  0.9727  2.3660  1.3406
   17TMC1    H1  269   3.486   3.191  10.778 -0.0340  0.8756  1.8266
   17TMC1    H2  270   3.151   2.941  10.793  1.2567 -1.1965  0.4930
   17TMC1    C7  271   3.409   2.974  10.843  0.0254  0.3608  0.0681
   17TMC1    C8  272   3.007   3.059  10.612 -0.3019 -0.2368 -0.0758
   17TMC1    O1  273   3.514   3.004  10.909 -0.0064  0.1945 -0.1959
   17TMC1    O2  274   2.968   3.085  10.498 -1.1901 -0.0834  0.1751
   17TMC1    O3  275   3.400   2.860  10.768 -0.0487  0.0885 -0.6688
   17TMC1    H3  276   3.324   2.859  10.706 -0.7361 -1.1570  0.1893
   17TMC1    O5  277   2.948   2.981  10.708 -0.2004 -0.0678  0.5016
   17TMC1    H5  278   2.983   3.010  10.795  1.9131 -0.5161 -0.2020
   18MPD2     C  279   3.560   3.620  10.550  0.1253 -0.4320 -0.1339
   18MPD2    C1  280   3.586   3.518  10.636 -0.0588 -0.6387 -0.2694
   18MPD2    C2  281   3.709   3.505  10.688  0.0404  0.0598 -0.0838
   18MPD2    C3  282   3.812   3.595  10.659 -0.1219  0.2084 -0.6716
   18MPD2    C4  283   3.790   3.707  10.583  0.1054  0.5197 -1.3239
   18MPD2    C5  284   3.661   3.711  10.525 -0.0915 -0.1167  0.0120
   18MPD2     H  285   3.720   3.424  10.759  1.0637 -0.1182 -0.4574
   18MPD2    H1  286   3.857   3.791  10.566  3.0565 -1.0718  2.4344
   18MPD2    H2  287   3.459   3.633  10.511  0.2504 -0.1526 -0.3663
   18MPD2    H3  288   3.630   3.793  10.462  2.5435  1.1702  0.4071
   18MPD2     N  289   3.948   3.581  10.710  0.1300 -0.5090 -0.7547
   18MPD2    H5  290   4.012   3.656  10.685 -0.7952  1.3921  2.6630
   18MPD2    N1  291   3.498   3.421  10.684  0.3304 -0.1752 -0.0154
   18MPD2    H7  292   3.528   3.354  10.755  0.3067 -0.5103 -0.3196
   19TMC2    C1  293   0.927   3.208  14.296  0.5615 -0.2606 -0.1882
   19TMC2    C2  294   0.819   3.280  14.344  0.5987 -0.3287  0.3385
   19TMC2    C3  295   0.713   3.216  14.405  0.4743 -0.5412  0.7372
   19TMC2    C4  296   0.925   3.067  14.303 -0.5033  0.6157 -0.2096
   19TMC2    C5  297   0.827   3.003  14.371 -0.0537  0.0518 -0.2902
   19TMC2    C6  298   0.715   3.078  14.418  0.0729 -0.0696  0.1114
   19TMC2     C  299   1.046   3.285  14.281  0.3918  0.2459  1.1220
   19TMC2     O  300   1.032   3.405  14.270  0.4493 -0.0348 -0.2514
   19TMC2     H  301   0.828   3.387  14.359 -2.2537 -0.2657  1.5874
   19TMC2    H1  302   1.001   3.000  14.264 -1.1678 -0.8736  1.0106
   19TMC2    H2  303   0.621   3.048  14.464 -1.5791  2.2631 -1.7408
   19TMC2    C7  304   0.839   2.863  14.413 -0.2738 -0.2028  0.0496
   19TMC2    C8  305   0.603   3.294  14.453  0.0500  0.3284 -0.3833
   19TMC2    O1  306   0.943   2.802  14.396  0.2333  0.0409 -0.7587
   19TMC2    O2  307   0.530   3.268  14.547 -0.1862 -0.5463 -0.1062
   19TMC2    O5  308   0.602   3.408  14.380  0.7257 -0.1006  0.2781
   19TMC2    H5  309   0.661   3.402  14.302  2.6741  0.0520  1.7713
   20MPD2     C  310   1.327   3.377  14.268 -0.9925 -0.7515 -0.2416
   20MPD2    C1  311   1.294   3.248  14.283  0.6395 -0.4084  0.6628
   20MPD2    C2  312   1.385   3.144  14.304 -0.3657 -0.2423 -0.1072
   20MPD2    C3  313   1.513   3.174  14.324 -0.0866 -0.2803 -0.5457
   20MPD2    C4  314   1.554   3.306  14.316  0.1118  0.4230 -0.2604
   20MPD2    C5  315   1.462   3.406  14.292 -0.2162  0.1715 -0.7296
   20MPD2     H  316   1.344   3.043  14.305  0.3237 -0.5392 -2.0001
   20MPD2    H1  317   1.656   3.341  14.323  0.4061 -1.2409  3.9003
   20MPD2    H2  318   1.257   3.456  14.246  1.8072  2.4902  2.4426
   20MPD2    H3  319   1.498   3.507  14.276 -1.9389  1.1541  1.5964
   20MPD2     N  320   1.609   3.083  14.348 -0.1462 -0.2496 -0.1448
   20MPD2    H5  321   1.705   3.113  14.365  0.2743 -0.7315 -1.6357
   20MPD2    N1  322   1.158   3.204  14.285 -0.4632 -0.1991  0.4088
   20MPD2    H7  323   1.141   3.103  14.284  0.7902 -0.3899 -1.3566
   21TMC2    C1  324   3.770   3.449  13.818  0.5973 -0.1562  0.7104
   21TMC2    C2  325   3.704   3.482  13.702 -0.6170 -0.1283 -0.1862
   21TMC2    C3  326   3.575   3.532  13.720  0.4084 -1.0180  0.0397
   21TMC2    C4  327   3.708   3.448  13.939 -0.1960 -0.1801 -0.1158
   21TMC2    C5  328   3.584   3.503  13.950 -0.2695  0.1755  0.5866
   21TMC2    C6  329   3.517   3.551  13.845 -0.8214  0.8989  0.5502
   21TMC2     C  330   3.873   3.351  13.813  0.0695 -0.2146 -0.0337
   21TMC2     O  331   3.969   3.345  13.892  0.2003  0.2516  0.6112
   21TMC2     H  332   3.756   3.491  13.607 -3.0894 -0.1192 -1.5228
   21TMC2    H1  333   3.776   3.430  14.022 -1.0493 -1.3078  0.3349
   21TMC2    H2  334   3.420   3.597  13.855 -0.5728  1.6464 -0.4497
   21TMC2    C7  335   3.511   3.470  14.072  0.4233  0.4693  0.0017
   21TMC2    C8  336   3.504   3.586  13.605  0.1045 -0.2107  0.9024
   21TMC2    O1  337   3.571   3.401  14.155 -0.4372 -0.1578  0.3292
   21TMC2    O2  338   3.463   3.702  13.605  0.0330  0.4155  0.2237
   21TMC2    O5  339   3.546   3.512  13.501 -0.0892 -0.4836 -0.2723
   21TMC2    H5  340   3.570   3.419  13.524  1.7226  0.0946  0.1323
   22MPD2     C  341   3.938   2.865  13.719  0.3818  0.5216 -0.4832
   22MPD2    C1  342   3.933   2.935  13.837  0.2108 -0.5807  0.3635
   22MPD2    C2  343   3.905   3.068  13.830  0.4347  0.1477 -0.4653
   22MPD2    C3  344   3.879   3.134  13.713  0.5420 -0.1635 -0.0747
   22MPD2    C4  345   3.876   3.056  13.603  0.3791 -0.1594 -0.2918
   22MPD2    C5  346   3.920   2.929  13.606 -0.0743  0.1255  0.4640
   22MPD2     H  347   3.897   3.116  13.927  1.2188 -0.9392  0.1336
   22MPD2    H1  348   3.860   3.089  13.501 -1.7545 -1.5234 -0.3808
   22MPD2    H2  349   3.957   2.759  13.713 -2.5929 -0.0095 -0.2845
   22MPD2    H3  350   3.922   2.875  13.511  1.6725 -0.5744  0.8864
   22MPD2     N  351   3.843   3.265  13.715  0.3139  0.1661 -0.0258
   22MPD2    H5  352   3.777   3.287  13.642 -0.7975 -0.5460  0.7571
   22MPD2    N1  353   3.955   2.880  13.967 -0.3706 -0.1209 -0.0271
   22MPD2    H7  354   3.949   2.936  14.052  0.0239 -1.7859  1.1209
   23TMC2    C1  355   4.546   4.320  14.719 -0.0810 -0.3764 -0.7786
   23TMC2    C2  356   4.526   4.455  14.723  0.9847  0.3536  0.2815
   23TMC2    C3  357   4.406   4.501  14.764 -0.0797  0.5587 -0.3309
   23TMC2    C4  358   4.457   4.225  14.758  0.3418  0.5095 -0.1315
   23TMC2    C5  359   4.328   4.272  14.784  0.1106  0.0666  0.3487
   23TMC2    C6  360   4.306   4.416  14.798  0.1386 -0.3405  0.5191
   23TMC2     C  361   4.677   4.272  14.682  0.6471  0.3589  0.4227
   23TMC2     O  362   4.714   4.159  14.706 -0.0523  0.2130  0.7243
   23TMC2     H  363   4.604   4.529  14.719  1.5486 -0.1628  1.4915
   23TMC2    H1  364   4.484   4.120  14.765  0.3406  0.5682  0.8326
   23TMC2    H2  365   4.209   4.442  14.839 -0.1611 -2.1355  0.9543
   23TMC2    C7  366   4.215   4.185  14.771  0.1314  0.7623  0.0812
   23TMC2    C8  367   4.400   4.642  14.798  0.4664  0.4479 -0.2487
   23TMC2    O1  368   4.256   4.069  14.775  0.4013  0.1273  0.2918
   23TMC2    O2  369   4.483   4.720  14.755  0.1364 -0.3603 -0.1878
   23TMC2    O5  370   4.281   4.659  14.864  0.3226 -0.3246  0.2032
   23TMC2    H5  371   4.265   0.014  14.900  0.3215  0.1167 -0.9177
   24MPD2     C  372   0.428   4.364  14.533  0.0811 -0.2453  0.6509
   24MPD2    C1  373   0.376   4.271  14.625 -0.3309  0.3531  0.0296
   24MPD2    C2  374   0.239   4.275  14.651  0.1340 -0.6976  0.1280
   24MPD2    C3  375   0.159   4.363  14.595 -0.8641 -0.3453 -0.0632
   24MPD2    C4  376   0.219   4.463  14.520  0.7580 -0.1683  0.2642
   24MPD2    C5  377   0.354   4.470  14.499  0.1964  0.1110 -0.9938
   24MPD2     H  378   0.205   4.201  14.723 -0.3723  0.7450  1.3581
   24MPD2    H1  379   0.166   4.542  14.469 -0.7030 -1.8993 -0.8917
   24MPD2    H2  380   0.532   4.358  14.504  0.3950 -0.9896  1.9608
   24MPD2    H3  381   0.398   4.555  14.448  0.4838  0.2993 -0.4356
   24MPD2     N  382   0.021   4.373  14.629 -0.7012  0.7950 -0.1775
   24MPD2    H5  383   4.719   4.457  14.585 -1.5318  0.3549 -0.3235
   24MPD2    N1  384   0.457   4.186  14.705 -0.2104  0.0991  0.6658
   24MPD2    H7  385   0.412   4.119  14.766  0.6787 -1.1920 -0.0944
   25TMC2    C1  386   3.380   2.893  11.698  0.1907 -0.1706 -0.1353
   25TMC2    C2  387   3.395   3.030  11.704 -0.0363  0.1680  0.6056
   25TMC2    C3  388   3.483   3.082  11.786  0.0098  0.6005  0.3185
   25TMC2    C4  389   3.443   2.806  11.784 -0.0927  0.4022 -0.0196
   25TMC2    C5  390   3.534   2.864  11.869  0.7399  0.2018 -0.4757
   25TMC2    C6  391   3.558   3.002  11.868 -0.6284  0.2307  0.2214
   25TMC2     C  392   3.312   2.841  11.579 -0.5850 -0.1858 -0.2014
   25TMC2     O  393   3.266   2.920  11.497 -0.0579  0.5244 -0.0033
   25TMC2     H  394   3.342   3.098  11.639  0.2314  0.1284  0.3449
   25TMC2    H1  395   3.423   2.700  11.780 -3.7474  1.0122  1.6621
   25TMC2    H2  396   3.636   3.046  11.929  0.5716  0.9205 -1.8003
   25TMC2    C7  397   3.615   2.780  11.953 -0.4156 -0.2860  0.1279
   25TMC2    C8  398   3.558   3.187  11.729 -0.0352  0.4604  0.0339
   25TMC2    O1  399   3.575   2.673  11.997  0.0871 -0.1749 -0.2153
   25TMC2    O2  400   3.495   3.257  11.649 -0.3743  0.0351 -0.6106
   25TMC2    O5  401   3.673   3.125  11.694 -0.0215  0.1648  0.3927
   25TMC2    H5  402   3.735   3.115  11.769  2.3741  0.5740 -1.5415
   26MPD2     C  403   3.142   2.478  11.266  0.8001 -0.5424 -0.3223
   26MPD2    C1  404   3.222   2.422  11.360 -0.6714 -0.0199  0.9282
   26MPD2    C2  405   3.277   2.500  11.459  0.7162 -0.2197 -0.0551
   26MPD2    C3  406   3.255   2.638  11.469  0.9556 -0.0688  0.0169
   26MPD2    C4  407   3.162   2.687  11.377  0.0285  0.9821  0.1264
   26MPD2    C5  408   3.104   2.608  11.277  0.0295 -0.3510 -0.7152
   26MPD2     H  409   3.333   2.454  11.539  2.3339 -0.4142 -1.3098
   26MPD2    H1  410   3.126   2.789  11.382 -1.9306  0.3725 -1.5906
   26MPD2    H2  411   3.108   2.419  11.181 -0.7370 -0.0401 -0.0502
   26MPD2    H3  412   3.027   2.636  11.206  0.8843 -0.9633 -1.8801
   26MPD2     N  413   3.312   2.708  11.573  0.2068 -0.1918 -0.3648
   26MPD2    H5  414   3.364   2.660  11.647  0.6247  2.0367  0.7916
   26MPD2    N1  415   3.262   2.286  11.339 -0.1497 -0.1409  0.0516
   26MPD2    H7  416   3.208   2.228  11.275  2.2134 -1.8244 -0.4358
   27TMC2    C1  417   2.613   4.513  11.780 -0.0898  0.2285  0.4682
   27TMC2    C2  418   2.653   4.641  11.745 -0.4715  0.0836 -0.2130
   27TMC2    C3  419   2.692   4.720  11.845  0.1351  0.1126 -0.2109
   27TMC2    C4  420   2.614   4.470  11.908 -0.0601  0.2957  0.0478
   27TMC2    C5  421   2.647   4.555  12.008  0.0140  0.2759 -0.0278
   27TMC2    C6  422   2.688   4.679  11.979  0.1161  0.2467 -0.1911
   27TMC2     C  423   2.487   4.474  11.715 -0.4515  0.8055  0.1316
   27TMC2     O  424   2.464   4.505  11.598  0.3269 -0.2051 -0.0220
   27TMC2     H  425   2.643   4.674  11.642 -1.9833  1.0610  0.2386
   27TMC2    H1  426   2.581   4.373  11.942 -1.2624  0.5011 -0.5179
   27TMC2    H2  427   2.725   0.013  12.054 -0.5544 -1.4922  1.7315
   27TMC2    C7  428   2.556   4.553  12.124 -0.3709 -0.3368 -0.1354
   27TMC2    C8  429   2.739   0.114  11.822 -0.7894 -0.5827  0.0864
   27TMC2    O1  430   2.516   4.440  12.159  0.2114 -0.3182  0.5457
   27TMC2    O2  431   2.706   0.172  11.717  0.4671 -0.0811 -0.2907
   27TMC2    O5  432   2.855   0.133  11.889  0.3613  0.0052 -0.0599
   27TMC2    H5  433   2.869   0.070  11.963  0.9049 -0.4366 -0.5302
   28MPD2     C  434   1.982   4.412  11.781  0.1880  0.3448  0.4360
   28MPD2    C1  435   2.047   4.402  11.900  0.3191 -0.2461 -0.4649
   28MPD2    C2  436   2.185   4.390  11.900  0.0246 -0.1089 -0.7335
   28MPD2    C3  437   2.254   4.402  11.782  0.2050  0.9507 -0.3613
   28MPD2    C4  438   2.184   4.421  11.665  0.7699 -0.1064  0.6716
   28MPD2    C5  439   2.046   4.419  11.662 -0.1747 -0.7773  1.2019
   28MPD2     H  440   2.237   4.392  11.996 -1.4701  1.6047  0.0381
   28MPD2    H1  441   2.234   4.428  11.569 -0.4848 -0.8662 -0.0335
   28MPD2    H2  442   1.874   4.402  11.775 -0.0190  1.8247  1.5733
   28MPD2    H3  443   2.002   4.447  11.567 -1.0685 -2.9151  0.9792
   28MPD2     N  444   2.392   4.424  11.799  0.2963  0.7613 -0.0485
   28MPD2    H5  445   2.421   4.416  11.897  0.9560  0.1862 -0.2870
   28MPD2    N1  446   1.968   4.387  12.020  0.4409  0.8708 -0.1499
   28MPD2    H7  447   1.867   4.390  12.010  0.3963  0.7241  0.2645
   29TMC2    C1  448   2.485   2.044  14.221  0.2568  0.0733 -0.0849
   29TMC2    C2  449   2.602   2.078  14.163 -0.8656 -0.0879 -0.3422
   29TMC2    C3  450   2.666   2.191  14.200  0.0292  0.4687 -0.1814
   29TMC2    C4  451   2.419   2.122  14.307 -0.9373 -0.6477  0.7622
   29TMC2    C5  452   2.477   2.240  14.341 -0.8533  0.1622 -0.1421
   29TMC2    C6  453   2.600   2.275  14.284  0.0159  0.1097 -0.1573
   29TMC2     C  454   2.416   1.927  14.165  0.5050  0.4508 -0.3169
   29TMC2     O  455   2.479   1.842  14.103 -0.2249 -0.0511  0.4161
   29TMC2     H  456   2.641   2.024  14.077  0.6801  0.4640  0.0112
   29TMC2    H1  457   2.351   2.091  14.385  0.5509  0.9799  2.6957
   29TMC2    H2  458   2.639   2.376  14.288 -0.1551  0.1559  0.3678
   29TMC2    C7  459   2.433   2.317  14.452 -0.2903  0.2537  0.5200
   29TMC2    C8  460   2.758   2.246  14.114  0.1841  0.1268  0.0048
   29TMC2    O1  461   2.319   2.303  14.495 -0.5251  0.1739  0.2394
   29TMC2    O2  462   2.749   2.219  13.992  0.2765 -0.0750 -0.1594
   29TMC2    O5  463   2.830   2.346  14.173 -0.2967 -0.6280 -0.5699
   29TMC2    H5  464   2.829   2.330  14.270  3.0455 -0.7257 -0.5574
   30MPD2     C  465   2.016   1.700  13.964  0.3341 -0.0121 -0.3840
   30MPD2    C1  466   2.116   1.641  14.029  0.4065  0.2769 -0.2617
   30MPD2    C2  467   2.211   1.721  14.089 -0.4881  0.0446 -0.5286
   30MPD2    C3  468   2.184   1.854  14.109 -0.6020 -0.0488  0.5198
   30MPD2    C4  469   2.060   1.906  14.076  0.8406 -0.3176  0.1379
   30MPD2    C5  470   1.984   1.832  13.991  0.1736  0.4035 -0.8540
   30MPD2     H  471   2.304   1.682  14.128 -0.3551  0.3315 -0.5545
   30MPD2    H1  472   2.037   2.010  14.097  1.5767 -0.4417  1.5315
   30MPD2    H2  473   1.947   1.632  13.914 -1.8405  1.4625  0.6461
   30MPD2    H3  474   1.891   1.864  13.947  0.7679  0.6547 -1.9438
   30MPD2     N  475   2.283   1.946  14.163  0.4103  0.0959  0.0312
   30MPD2    H5  476   2.252   2.037  14.198 -0.2294  0.3337 -1.1619
   30MPD2    N1  477   2.139   1.501  14.012  0.1763 -0.1580  0.0768
   30MPD2    H7  478   2.230   1.464  14.037  0.1732 -0.7221 -0.7369
   31TMC2    C1  479   0.418   4.624  14.849 -0.4402  0.2568  0.1187
   31TMC2    C2  480   0.295   4.567  14.853  0.1284 -0.5088  0.7671
   31TMC2    C3  481   0.268   4.467  14.946  0.2976 -0.6704 -0.6438
   31TMC2    C4  482   0.508   4.601  14.950  0.3418 -0.0190  0.7317
   31TMC2    C5  483   0.477   4.513  15.044 -0.7008  0.0692  0.4128
   31TMC2    C6  484   0.362   4.435  15.040  0.9381 -0.0966  0.6014
   31TMC2     C  485   0.434   0.004  14.753 -0.1594 -0.8789 -0.3378
   31TMC2     O  486   0.331   0.062  14.726  0.7508 -0.4064  0.2165
   31TMC2     H  487   0.232   4.569  14.764 -2.5838  0.7503  2.7213
   31TMC2    H1  488   0.608   4.642  14.945  0.8114 -1.1996  0.4587
   31TMC2    H2  489   0.343   4.355  15.111  1.0884  0.3365  1.1338
   31TMC2    C7  490   0.563   4.506  15.166  0.1182  0.8460 -0.0590
   31TMC2    C8  491   0.133   4.407  14.961 -0.0353  0.7453  1.0804
   31TMC2    O1  492   0.589   4.396  15.210 -0.4514  0.1660  0.1937
   31TMC2    O2  493   0.118   4.309  15.033 -0.7399  0.2537 -0.4083
   31TMC2    O5  494   0.042   4.504  14.952  0.5769  0.4781  0.5004
   31TMC2    H5  495   0.068   4.576  14.890  0.1923 -1.7975 -2.2944
   32MPD2     C  496   0.655   0.443  14.581 -0.1129  0.3747  0.2130
   32MPD2    C1  497   0.533   0.396  14.549 -0.1350 -0.2519 -0.3772
   32MPD2    C2  498   0.499   0.273  14.602  0.2539 -0.5275  0.0433
   32MPD2    C3  499   0.590   0.196  14.680 -0.5756 -0.4725  0.1855
   32MPD2    C4  500   0.718   0.244  14.696  0.6515 -0.1071 -0.3000
   32MPD2    C5  501   0.745   0.371  14.651  0.2685 -0.1455  0.6138
   32MPD2     H  502   0.397   0.238  14.591  0.1164 -0.3432  0.7303
   32MPD2    H1  503   0.793   0.195  14.758 -0.8309 -1.8256  0.0991
   32MPD2    H2  504   0.689   0.528  14.523 -0.7238  1.3203  1.2594
   32MPD2    H3  505   0.848   0.406  14.657  0.6378 -1.0403 -0.4133
   32MPD2     N  506   0.562   0.064  14.734 -0.2624  0.0949  0.4075
   32MPD2    H5  507   0.638   0.025  14.788 -0.3186 -1.6150 -0.7704
   32MPD2    N1  508   0.438   0.476  14.476  0.3007  0.9823 -0.0580
   32MPD2    H7  509   0.464   0.568  14.442  2.0983 -0.1891 -1.8245
   33TMC2    C1  510   4.599   4.069  10.137 -1.0860  0.1472 -0.0409
   33TMC2    C2  511   4.515   4.165  10.182 -0.6763  0.3160 -0.2749
   33TMC2    C3  512   4.530   4.290  10.134  0.3578  0.2961 -0.2083
   33TMC2    C4  513   4.677   4.081  10.027  0.2877 -0.1783 -0.0196
   33TMC2    C5  514   4.681   4.204   9.965 -0.2473 -0.1892 -0.0158
   33TMC2    C6  515   4.594   4.302  10.013 -0.1173 -0.0844  0.2763
   33TMC2     C  516   4.615   3.950  10.218  0.4914  0.3358  0.4477
   33TMC2     O  517   4.546   3.953  10.315  0.1707  0.7384  0.6469
   33TMC2     H  518   4.469   4.153  10.280 -1.7108  0.4350 -0.7508
   33TMC2    H1  519   0.012   4.007   9.990 -0.1123 -0.4466 -0.2373
   33TMC2    H2  520   4.602   4.401   9.971 -3.0105 -0.1577 -0.4158
   33TMC2    C7  521   0.054   4.228   9.870 -0.0794  0.5156  0.2959
   33TMC2    C8  522   4.425   4.389  10.167  0.4929  0.0666 -0.1480
   33TMC2    O1  523   0.167   4.180   9.884 -0.0702 -0.0392 -0.0585
   33TMC2    O2  524   4.440   4.507  10.141  0.0884 -0.2036  0.0040
   33TMC2    O5  525   4.305   4.326  10.192 -0.1639 -0.4161  0.1602
   33TMC2    H5  526   4.308   4.229  10.184  0.0909 -0.3709 -0.3036
   34MPD2     C  527   0.045   3.539  10.446 -0.0816  0.1215  0.4615
   34MPD2    C1  528   4.652   3.594  10.444  0.0997  0.5765 -0.2148
   34MPD2    C2  529   4.621   3.694  10.356 -0.6466 -0.0948 -0.2002
   34MPD2    C3  530   4.713   3.738  10.261  0.1647  0.7433 -0.4773
   34MPD2    C4  531   0.096   3.661  10.254 -0.0082 -0.0398  0.1879
   34MPD2    C5  532   0.130   3.564  10.351  0.2872  0.5332  0.0946
   34MPD2     H  533   4.516   3.720  10.349 -0.7625 -0.5442 -0.1405
   34MPD2    H1  534   0.168   3.674  10.174 -0.7503  0.4623 -0.3941
   34MPD2    H2  535   0.076   3.470  10.524 -1.1651  0.3405  1.0908
   34MPD2    H3  536   0.224   3.510  10.344  1.2032  2.2709 -1.1917
   34MPD2     N  537   4.702   3.853  10.181 -0.1690  0.0090 -0.0375
   34MPD2    H5  538   0.041   3.877  10.116 -0.0081  0.0678  0.1658
   34MPD2    N1  539   4.559   3.540  10.542  0.4637 -0.2913 -0.3063
   34MPD2    H7  540   4.602   3.475  10.608  0.2772 -0.7390 -0.6215
   35TMC2    C1  541   0.151   0.045  11.759 -0.9908  0.2355 -0.0271
   35TMC2    C2  542   0.039   0.082  11.690 -0.0739  0.7444  0.4700
   35TMC2    C3  543   4.696   4.713  11.644  0.6641 -0.2043  0.0322
   35TMC2    C4  544   0.181   4.647  11.790  0.8478  0.6797  0.0265
   35TMC2    C5  545   0.087   4.555  11.758  0.7557 -0.7098 -0.1089
   35TMC2    C6  546   4.713   4.587  11.683  0.1015 -0.1946  1.0940
   35TMC2     C  547   0.271   0.140  11.760  0.0425  0.3702  0.2984
   35TMC2     O  548   0.239   0.260  11.747 -0.7145  0.5908  0.2679
   35TMC2     H  549   0.023   0.181  11.650 -1.2810  0.9813  1.5491
   35TMC2    H1  550   0.269   4.621  11.848  1.1546  1.3161 -0.1536
   35TMC2    H2  551   4.649   4.511  11.640  0.1406  0.4178 -0.0356
   35TMC2    C7  552   0.109   4.415  11.790 -0.0086  0.1566 -0.4886
   35TMC2    C8  553   4.563   0.015  11.599 -0.1279 -0.2745 -0.6080
   35TMC2    O1  554   0.225   4.380  11.803  0.3674  0.2088 -0.3586
   35TMC2    O2  555   4.503   4.684  11.517 -0.3339 -0.2379 -0.2175
   35TMC2    O5  556   4.514   0.063  11.710  0.0049 -0.2202  0.4554
   35TMC2    H5  557   4.585   0.094  11.771 -0.4048 -1.1891  1.4371
   36MPD2     C  558   0.774   0.216  11.718 -0.7286  0.9991 -0.4064
   36MPD2    C1  559   0.752   0.079  11.725  0.5108 -0.1216  0.6831
   36MPD2    C2  560   0.625   0.033  11.745 -0.2320 -0.3825 -0.3428
   36MPD2    C3  561   0.520   0.122  11.756  0.1370  0.1319  0.4242
   36MPD2    C4  562   0.546   0.250  11.774 -0.9489 -0.1207 -0.2040
   36MPD2    C5  563   0.675   0.300  11.756 -0.2163  0.5118  0.7601
   36MPD2     H  564   0.604   4.664  11.723 -1.0487 -0.2987  0.0648
   36MPD2    H1  565   0.466   0.318  11.801 -0.0647 -0.0927  2.3050
   36MPD2    H2  566   0.875   0.249  11.695  0.6587 -2.7335  0.2532
   36MPD2    H3  567   0.689   0.408  11.761  2.5884  0.1705  0.2499
   36MPD2     N  568   0.392   0.062  11.751  0.3781 -0.3041 -0.5520
   36MPD2    H5  569   0.390   4.699  11.724  2.2519  0.0542 -1.9835
   36MPD2    N1  570   0.861   4.720  11.711  0.4053 -0.0394 -0.2450
   36MPD2    H7  571   0.951   0.030  11.715 -0.8940  2.5601  0.0703
   37TMC2    C1  572   3.414   0.053  12.173 -0.2179 -0.0046 -0.3539
   37TMC2    C2  573   3.377   0.102  12.049 -0.0552  0.8599 -0.0928
   37TMC2    C3  574   3.471   0.134  11.952 -0.9825 -0.2845  0.2331
   37TMC2    C4  575   3.549   0.047  12.202  0.2222 -0.0113  0.6474
   37TMC2    C5  576   3.638   0.088  12.111 -0.1502 -0.6396 -0.1982
   37TMC2    C6  577   3.599   0.147  11.990  0.4625  0.4694 -0.0811
   37TMC2     C  578   3.307   4.726  12.249 -0.4958  0.2527 -0.1884
   37TMC2     O  579   3.198   4.734  12.198  0.1715  0.5886  0.3156
   37TMC2     H  580   3.272   0.118  12.027  0.1601  0.3661 -1.4330
   37TMC2    H1  581   3.583   0.007  12.297 -2.3261 -1.8504  0.7898
   37TMC2    H2  582   3.668   0.197  11.922 -1.0487  0.5284 -1.5654
   37TMC2    C7  583   3.781   0.087  12.147  0.1842 -0.3612  0.6503
   37TMC2    C8  584   3.420   0.196  11.830 -1.1258  0.3032  0.9898
   37TMC2    O1  585   3.805   0.063  12.264 -0.0320 -0.6649  0.7446
   37TMC2    O2  586   3.301   0.202  11.802 -0.5686  0.1592 -0.1788
   37TMC2    O5  587   3.529   0.205  11.745 -0.2168  0.1760 -0.4643
   37TMC2    H5  588   3.617   0.175  11.776 -0.5495 -0.8082 -0.4868
   38MPD2     C  589   3.079   4.509  12.650  0.4752  0.6562  0.1547
   38MPD2    C1  590   3.213   4.517  12.675  0.0368  0.4758 -0.3163
   38MPD2    C2  591   3.296   4.585  12.587 -0.4236 -0.0634 -0.1372
   38MPD2    C3  592   3.250   4.638  12.469  0.7933  0.6701 -0.6307
   38MPD2    C4  593   3.117   4.621  12.439  0.0371 -0.2090  0.6302
   38MPD2    C5  594   3.036   4.560  12.529 -0.1165  0.4493  0.1440
   38MPD2     H  595   3.402   4.583  12.610 -0.7847 -1.8900  1.3823
   38MPD2    H1  596   3.062   4.671  12.359 -1.3682 -2.9816 -0.1365
   38MPD2    H2  597   3.009   4.469  12.723  0.5846  1.4629  0.6911
   38MPD2    H3  598   2.930   4.549  12.508 -0.2454  1.0448  0.4959
   38MPD2     N  599   3.342   4.685  12.375 -0.2259 -0.2057  0.1649
   38MPD2    H5  600   3.440   4.689  12.401  0.3541  1.8436 -2.3104
   38MPD2    N1  601   3.271   4.456  12.792  0.0159 -0.1866 -0.0903
   38MPD2    H7  602   3.371   4.460  12.807 -0.3406  1.1923  1.8243
   39TMC2    C1  603   2.706   1.543   1.122  0.0567 -0.3046 -0.2451
   39TMC2    C2  604   2.798   1.573   1.225  0.2345  0.5004 -0.2250
   39TMC2    C3  605   2.913   1.627   1.182 -0.5302  0.0226 -0.0626
   39TMC2    C4  606   2.734   1.551   0.985  0.1683 -0.3063  0.1707
   39TMC2    C5  607   2.856   1.611   0.954 -0.1634  0.5070 -0.0073
   39TMC2    C6  608   2.945   1.647   1.053  0.2952  0.4799  0.4347
   39TMC2     C  609   2.559   1.538   1.157 -0.3394  0.2730 -0.5858
   39TMC2     O  610   2.498   1.481   1.072  1.0464  0.1258 -0.0943
   39TMC2     H  611   2.768   1.571   1.329 -0.2652 -0.0482 -0.3761
   39TMC2    H1  612   2.658   1.527   0.911  0.7802 -1.2499 -0.1548
   39TMC2    H2  613   3.045   1.676   1.022 -0.7115  2.5816 -0.8503
   39TMC2    C7  614   2.860   1.672   0.823 -0.3391 -0.4704  0.7173
   39TMC2    C8  615   3.033   1.610   1.267 -0.2638  0.2147 -0.4744
   39TMC2    O1  616   2.962   1.679   0.753  0.5283 -0.1599 -0.6570
   39TMC2    O2  617   3.141   1.664   1.236 -0.4800 -0.5262 -0.0593
   39TMC2    O5  618   3.019   1.490   1.324 -0.1537  0.0344 -0.1090
   39TMC2    H5  619   2.939   1.434   1.315 -1.2842  1.3920  1.3679
   40MPD2     C  620   2.388   1.724   1.428 -0.2546 -0.0122 -0.2786
   40MPD2    C1  621   2.402   1.642   1.318  0.1194 -0.2259 -0.0861
   40MPD2    C2  622   2.290   1.613   1.240 -0.3735 -0.0806  0.0990
   40MPD2    C3  623   2.168   1.670   1.271  0.2484  0.1630 -0.2794
   40MPD2    C4  624   2.157   1.755   1.378  0.4387  0.9281  0.1166
   40MPD2    C5  625   2.267   1.781   1.461 -0.7263  0.1023 -0.3744
   40MPD2     H  626   2.300   1.562   1.144  0.8293 -0.6138  0.5083
   40MPD2    H1  627   2.070   1.813   1.405  0.5075  1.2478 -0.3401
   40MPD2    H2  628   2.468   1.739   1.500 -0.0162 -2.2310 -0.0792
   40MPD2    H3  629   2.251   1.851   1.542  3.1095 -0.4898  0.9048
   40MPD2     N  630   2.052   1.649   1.195 -0.2223  0.2579 -0.2209
   40MPD2    H5  631   1.965   1.696   1.217  0.2809  0.7936  0.6549
   40MPD2    N1  632   2.531   1.599   1.279  0.9778 -0.0111 -0.5068
   40MPD2    H7  633   2.606   1.625   1.343  0.8230  0.3367 -0.4638
   41TMC2    C1  634   0.899   4.649  13.884  0.2211 -0.3431  0.2476
   41TMC2    C2  635   0.786   4.658  13.957 -0.1970  0.3235  0.2739
   41TMC2    C3  636   0.677   4.722  13.896  0.8881 -0.3179 -0.1923
   41TMC2    C4  637   0.907   4.693  13.750  0.2807  0.2068  0.6601
   41TMC2    C5  638   0.791   0.013  13.697  0.7604  0.1717  0.1151
   41TMC2    C6  639   0.672   0.023  13.760 -0.0452 -0.2372 -0.2074
   41TMC2     C  640   1.012   4.591  13.953  0.0192  0.2263 -0.0993
   41TMC2     O  641   1.080   4.512  13.892 -0.4211 -0.2204  0.7581
   41TMC2     H  642   0.771   4.613  14.054  1.1642  1.7049  1.1332
   41TMC2    H1  643   0.995   4.688  13.686 -1.7026  2.2824 -2.2129
   41TMC2    H2  644   0.584   0.059  13.708 -0.7277 -1.6419 -0.0119
   41TMC2    C7  645   0.788   0.070  13.560  0.5139  0.4883 -0.2831
   41TMC2    C8  646   0.553   4.712  13.973  0.5875 -0.4022 -0.3546
   41TMC2    O1  647   0.690   0.133  13.517  0.0730 -0.7700 -0.2458
   41TMC2    O2  648   0.527   4.636  14.063  0.2235 -0.3320 -0.3375
   41TMC2    O5  649   0.478   0.087  13.942 -0.0908  0.0748 -0.0041
   41TMC2    H5  650   0.529   0.157  13.896  0.6022 -1.3099 -1.3311
   42MPD2     C  651   1.163   4.431  14.158  0.0047  0.0020  0.1921
   42MPD2    C1  652   1.096   4.547  14.187 -0.1049 -0.5896 -0.7316
   42MPD2    C2  653   1.091   4.606  14.312 -0.1932 -0.0528  0.7180
   42MPD2    C3  654   1.160   4.547  14.419  0.4085  0.3447 -0.0400
   42MPD2    C4  655   1.218   4.424  14.393  0.3480  0.7622 -0.0536
   42MPD2    C5  656   1.234   4.377  14.264  0.1117  0.0411  0.1379
   42MPD2     H  657   1.043   4.700  14.334 -1.0982 -0.7864  1.8593
   42MPD2    H1  658   1.275   4.374  14.471  0.6419  0.1700 -0.6550
   42MPD2    H2  659   1.176   4.384  14.062 -3.4179  0.1369 -0.3341
   42MPD2    H3  660   1.295   4.289  14.254  0.5858  0.7974 -3.6806
   42MPD2     N  661   1.164   4.617  14.544  0.3425 -0.5133  0.2904
   42MPD2    H5  662   1.115   4.706  14.556 -0.2897 -0.8361  0.1153
   42MPD2    N1  663   1.015   4.619  14.087  0.2367 -0.3129 -0.1524
   42MPD2    H7  664   0.961   4.699  14.117 -0.0674 -0.1928 -1.0228
   43TMC2    C1  665   2.155   2.655   0.456 -0.7345  0.1540 -0.9978
   43TMC2    C2  666   2.057   2.557   0.470  0.6435  0.0721 -0.1483
   43TMC2    C3  667   1.953   2.581   0.560 -0.4041 -0.2783  0.1325
   43TMC2    C4  668   2.152   2.775   0.522 -0.6965 -0.8226 -0.1978
   43TMC2    C5  669   2.050   2.793   0.603  0.2288 -0.0481  0.8244
   43TMC2    C6  670   1.956   2.700   0.628 -0.0224  0.4904  0.5399
   43TMC2     C  671   2.272   2.618   0.373 -0.1985  0.8522  0.1194
   43TMC2     O  672   2.294   2.500   0.357  0.1111 -0.4019 -0.6784
   43TMC2     H  673   2.069   2.469   0.409 -1.7571 -0.8676  0.7467
   43TMC2    H1  674   2.217   2.861   0.510 -1.9181  0.1646  0.3099
   43TMC2    H2  675   1.889   2.726   0.709 -0.2659 -1.6955  1.0364
   43TMC2    C7  676   2.048   2.923   0.673 -0.2923  0.5490 -0.0323
   43TMC2    C8  677   1.843   2.479   0.554 -0.2161 -0.5450 -1.0785
   43TMC2    O1  678   1.940   2.980   0.675  0.0357  0.2578 -0.2219
   43TMC2    O2  679   1.815   2.428   0.447  0.1503 -0.8195  0.1528
   43TMC2    O5  680   1.741   2.537   0.622 -0.1518 -0.1794  0.0084
   43TMC2    H5  681   1.782   2.578   0.701 -0.7736  1.8864 -0.7488
   44MPD2     C  682   2.679   2.734   0.112  0.7855  0.8595 -0.2382
   44MPD2    C1  683   2.618   2.613   0.119 -0.6486 -0.2407 -0.0576
   44MPD2    C2  684   2.509   2.613   0.207  0.1964  0.1315  0.7726
   44MPD2    C3  685   2.465   2.720   0.275  0.8031 -0.5036 -0.3009
   44MPD2    C4  686   2.540   2.838   0.271 -0.2478 -0.3372  0.8104
   44MPD2    C5  687   2.650   2.839   0.192 -0.4729  0.2432 -0.5058
   44MPD2     H  688   2.461   2.516   0.219 -1.6647  0.7920 -1.3782
   44MPD2    H1  689   2.511   2.933   0.315  1.0243  0.4350 -0.0300
   44MPD2    H2  690   2.763   2.757   0.047  1.0763  1.4435  0.3424
   44MPD2    H3  691   2.708   2.929   0.174  0.4445 -0.3301 -0.3871
   44MPD2     N  692   2.336   2.727   0.337  0.3814 -0.9970 -1.0621
   44MPD2    H5  693   2.301   2.816   0.370  1.4593 -1.3245  0.9703
   44MPD2    N1  694   2.651   2.497   0.046  0.5995  0.2687  0.3501
   44MPD2    H7  695   2.595   2.414   0.063  1.2938 -0.0640  1.0302
   45TMC2    C1  696   3.421   0.135   9.831 -0.7520 -0.1832  0.1935
   45TMC2    C2  697   3.534   0.054   9.830 -0.3699  0.2007 -0.1074
   45TMC2    C3  698   3.635   0.116   9.901 -0.6359  0.2333 -0.1059
   45TMC2    C4  699   3.395   0.246   9.906  0.3891  0.0826  0.4868
   45TMC2    C5  700   3.507   0.290   9.976 -0.4872  0.1503  0.4454
   45TMC2    C6  701   3.623   0.225   9.977  0.2729  0.3564  0.0024
   45TMC2     C  702   3.309   0.078   9.759 -0.0835 -0.3313 -0.5537
   45TMC2     O  703   3.318   4.691   9.729 -0.2202  0.4211  0.0273
   45TMC2     H  704   3.556   4.696   9.780 -1.2484 -0.4834  0.7604
   45TMC2    H1  705   3.309   0.312   9.899  1.0637  0.8771 -0.2924
   45TMC2    H2  706   3.705   0.268  10.032 -1.6871  2.6945  1.1037
   45TMC2    C7  707   3.484   0.416  10.048 -0.1917 -0.5611 -0.8067
   45TMC2    C8  708   3.756   0.038   9.919  0.1729  0.1441 -0.2015
   45TMC2    O1  709   3.375   0.432  10.097  0.4579  0.0695  0.1620
   45TMC2    O2  710   3.799   4.686   9.846  0.0263 -0.6260 -0.1459
   45TMC2    O5  711   3.773   0.029  10.051 -0.4859  0.3658 -0.1202
   45TMC2    H5  712   3.705   0.083  10.098 -0.7266 -1.1445  1.2860
   46MPD2     C  713   3.027   0.006   9.687  0.0089 -0.3838 -0.1073
   46MPD2    C1  714   3.083   0.134   9.687  0.2481  0.0272  0.3954
   46MPD2    C2  715   3.010   0.249   9.656  0.6476  0.1194 -0.3611
   46MPD2    C3  716   2.883   0.226   9.598 -0.6024  0.2095 -0.4484
   46MPD2    C4  717   2.832   0.096   9.584  0.3267  0.2916 -0.3163
   46MPD2    C5  718   2.904   4.725   9.636 -0.2441 -0.5367 -0.0277
   46MPD2     H  719   3.056   0.347   9.668 -1.3346  1.1252 -0.9319
   46MPD2    H1  720   2.730   0.080   9.553 -0.3681  0.4179  1.8569
   46MPD2    H2  721   3.068   4.652   9.735 -0.5935  0.6679  2.3299
   46MPD2    H3  722   2.855   4.629   9.641  0.7425 -1.1008 -1.5800
   46MPD2     N  723   2.810   0.342   9.574  0.4912 -0.6384  0.3265
   46MPD2    H5  724   2.855   0.429   9.602  1.2689 -0.9762  0.1388
   46MPD2    N1  725   3.213   0.169   9.739 -0.1944 -0.4068  0.3842
   46MPD2    H7  726   3.237   0.267   9.746 -0.2899 -0.3548  0.0130
   47TMC2    C1  727   0.639   1.735   9.077  0.2406  0.3680 -0.6217
   47TMC2    C2  728   0.660   1.636   8.985 -0.1715 -0.1120  0.3665
   47TMC2    C3  729   0.564   1.627   8.888 -0.5118 -0.7157 -0.1108
   47TMC2    C4  730   0.539   1.822   9.075  0.2163  0.4496  0.9337
   47TMC2    C5  731   0.457   1.812   8.971  0.4111  0.0566 -0.2264
   47TMC2    C6  732   0.462   1.719   8.870 -0.1258 -0.3094  0.5193
   47TMC2     C  733   0.734   1.751   9.185 -0.5401  0.2564 -0.2309
   47TMC2     O  734   0.755   1.864   9.228  0.7279  0.0529  0.2093
   47TMC2     H  735   0.745   1.569   8.984  1.2253  1.6658  0.5832
   47TMC2    H1  736   0.534   1.903   9.147 -0.8640  0.7361  0.5475
   47TMC2    H2  737   0.387   1.704   8.793 -0.6482 -0.1935  1.0018
   47TMC2    C7  738   0.339   1.903   8.969  0.3169 -0.3034 -0.4181
   47TMC2    C8  739   0.565   1.510   8.805  0.0792 -0.5064  0.1843
   47TMC2    O1  740   0.305   1.935   9.085  0.2356 -0.0764 -0.3522
   47TMC2    O2  741   0.592   1.523   8.686 -0.4798  0.4077 -0.1430
   47TMC2    O5  742   0.611   1.402   8.883  0.1137 -0.4208 -0.6057
   47TMC2    H5  743   0.596   1.412   8.979  2.1707 -0.0373 -0.3396
   48MPD2     C  744   0.932   1.698   9.396 -1.2803 -0.1267  0.0380
   48MPD2    C1  745   0.882   1.600   9.309  1.2045 -0.0780 -0.0022
   48MPD2    C2  746   0.921   1.472   9.317 -0.0238 -0.0267  0.0233
   48MPD2    C3  747   1.015   1.435   9.418  0.1836  0.5938  0.2869
   48MPD2    C4  748   1.064   1.530   9.504 -0.5212  0.2503  0.7562
   48MPD2    C5  749   1.020   1.659   9.496 -0.6135 -0.6096  0.6724
   48MPD2     H  750   0.888   1.400   9.243 -0.6178  0.3633 -0.0973
   48MPD2    H1  751   1.129   1.504   9.587 -0.6770 -3.9018 -0.4128
   48MPD2    H2  752   0.908   1.804   9.393 -0.4477  0.1716  3.5639
   48MPD2    H3  753   1.052   1.737   9.564  0.2266  1.0656 -1.6724
   48MPD2     N  754   1.045   1.299   9.428 -0.3897  0.3643 -0.9283
   48MPD2    H5  755   1.003   1.241   9.356 -0.7260 -0.3772 -0.1451
   48MPD2    N1  756   0.791   1.633   9.208 -0.0596 -0.3802  0.4755
   48MPD2    H7  757   0.748   1.559   9.153  0.0718  0.5917 -0.9510
   49TMC2    C1  758   4.077   4.444   9.922 -0.2752  0.3094  0.4442
   49TMC2    C2  759   4.164   4.413   9.823 -0.8360 -0.1664 -0.6145
   49TMC2    C3  760   4.283   4.481   9.820 -0.2522 -0.0520 -0.4577
   49TMC2    C4  761   4.081   4.564   9.990 -0.5499  0.1464  0.0972
   49TMC2    C5  762   4.197   4.631   9.982  0.2471 -0.4428  0.2007
   49TMC2    C6  763   4.297   4.590   9.899 -0.1876  0.7405  0.7183
   49TMC2     C  764   4.004   4.329   9.968  0.3671 -0.0471  0.6328
   49TMC2     O  765   3.997   4.230   9.896  0.1642 -0.6720 -0.5454
   49TMC2     H  766   4.155   4.323   9.763 -1.5379 -1.1912  1.0420
   49TMC2    H1  767   4.006   4.600  10.060  0.0606 -1.0444  1.3616
   49TMC2    H2  768   4.399   4.626   9.896  0.3620 -0.7744  1.4095
   49TMC2    C7  769   4.213   0.013  10.067  0.3379  0.1054 -0.4595
   49TMC2    C8  770   4.361   4.471   9.699 -0.5727 -0.9059 -0.2915
   49TMC2    O1  771   4.121   0.033  10.146 -0.2632  0.1873 -0.1762
   49TMC2    O2  772   4.409   4.566   9.638 -0.3362 -0.0457  0.4470
   49TMC2    O5  773   4.436   4.366   9.741 -0.3724  0.1741 -0.0310
   49TMC2    H5  774   4.380   4.300   9.786  1.4506  1.0983  3.5628
   50MPD2     C  775   3.838   4.145  10.136 -0.1415  0.4500 -0.1421
   50MPD2    C1  776   3.911   4.251  10.185  0.5057 -0.1291 -0.4272
   50MPD2    C2  777   3.927   4.265  10.318 -0.1862  0.3874 -0.0827
   50MPD2    C3  778   3.876   4.168  10.400 -0.2632  0.1501  0.5240
   50MPD2    C4  779   3.806   4.062  10.350  0.2109  0.1144  0.3682
   50MPD2    C5  780   3.773   4.053  10.218  0.3512 -0.6793  0.2654
   50MPD2     H  781   3.985   4.348  10.358 -0.0766  0.2783 -0.0148
   50MPD2    H1  782   3.769   3.985  10.417  0.3025 -1.7987 -1.7998
   50MPD2    H2  783   3.819   4.138  10.029 -1.0219  0.3733  0.0141
   50MPD2    H3  784   3.702   3.982  10.178 -0.8182 -0.4135  1.8639
   50MPD2     N  785   3.884   4.169  10.544  0.1658 -0.0897 -0.4885
   50MPD2    H5  786   3.813   4.112  10.588  0.1069  0.7880  0.5450
   50MPD2    N1  787   3.975   4.345  10.104 -0.3062 -0.0209 -0.2546
   50MPD2    H7  788   4.001   4.429  10.155 -1.4928  0.1985  0.0060
   51TMC2    C1  789   4.223   1.606   0.941 -0.0575  0.0058  0.4618
   51TMC2    C2  790   4.184   1.546   1.057 -0.5080 -0.3681  0.7384
   51TMC2    C3  791   4.078   1.609   1.116 -0.9223  0.0351 -0.0910
   51TMC2    C4  792   4.171   1.718   0.891 -0.0689 -0.1765  0.3038
   51TMC2    C5  793   4.062   1.781   0.955  0.2236 -0.0278 -0.5955
   51TMC2    C6  794   4.015   1.726   1.072  0.7689  0.2712 -0.1518
   51TMC2     C  795   4.331   1.542   0.865 -0.3921  0.3496 -0.3982
   51TMC2     O  796   4.410   1.475   0.935 -0.0125  0.1082  0.3200
   51TMC2     H  797   4.210   1.445   1.083 -0.8447  0.1013  2.8788
   51TMC2    H1  798   4.222   1.775   0.814  0.5934 -2.3134 -0.8405
   51TMC2    H2  799   3.926   1.755   1.126  1.1615 -0.5222  0.9195
   51TMC2    C7  800   4.087   1.929   0.959  0.0174 -0.5712 -0.3298
   51TMC2    C8  801   3.995   1.528   1.208  0.0877 -0.1866 -0.4262
   51TMC2    O1  802   4.200   1.962   0.924  0.4884 -0.7726  0.0582
   51TMC2    O2  803   3.894   1.470   1.177  0.8060  0.3528  0.3985
   51TMC2    O5  804   4.088   1.480   1.289 -0.8333  0.3031 -0.2102
   51TMC2    H5  805   4.167   1.536   1.301 -0.4550  0.3395 -2.9741
   52MPD2     C  806   4.661   1.584   0.480 -0.2080  0.0034 -1.1128
   52MPD2    C1  807   4.663   1.501   0.588 -0.3757  0.0404  0.6025
   52MPD2    C2  808   4.561   1.505   0.676 -0.2278 -0.0278  0.1533
   52MPD2    C3  809   4.449   1.577   0.651 -0.3215 -0.1195  0.0225
   52MPD2    C4  810   4.437   1.644   0.529 -0.6352  0.0823  0.1854
   52MPD2    C5  811   4.544   1.642   0.442  0.0657  0.3448 -0.2992
   52MPD2     H  812   4.565   1.440   0.763 -1.0805  0.0180  0.2284
   52MPD2    H1  813   4.352   1.707   0.505  0.9798  1.7711 -1.0196
   52MPD2    H2  814   4.733   1.575   0.399  0.7506  0.2119 -0.2799
   52MPD2    H3  815   4.527   1.685   0.344  0.3993  0.4847 -0.2966
   52MPD2     N  816   4.344   1.596   0.742 -0.0821 -0.1453  0.4462
   52MPD2    H5  817   4.264   1.650   0.711 -0.1997 -0.4667  0.1816
   52MPD2    N1  818   0.043   1.424   0.626  0.1400  0.1663 -0.9932
   52MPD2    H7  819   0.027   1.356   0.700  0.1087  2.7593  1.3576
   53TMC2    C1  820   4.439   4.708  12.413 -0.4562 -0.5306  0.1505
   53TMC2    C2  821   4.501   4.585  12.396 -0.4416 -0.6651 -0.0273
   53TMC2    C3  822   4.466   4.487  12.480 -0.5230  0.5147  0.0794
   53TMC2    C4  823   4.328   4.715  12.506 -0.1582 -0.3313  0.5996
   53TMC2    C5  824   4.292   4.611  12.583 -0.1677 -0.1682 -0.2215
   53TMC2    C6  825   4.366   4.495  12.573 -0.3071  0.8765  0.8815
   53TMC2     C  826   4.421   0.038  12.290  0.1072  0.2795 -0.0285
   53TMC2     O  827   4.510   0.032  12.209  0.3632 -0.3079 -0.3664
   53TMC2     H  828   4.585   4.568  12.330  0.5620 -2.2101  1.6615
   53TMC2    H1  829   4.298   0.076  12.547 -1.1184 -0.2001 -0.3830
   53TMC2    H2  830   4.352   4.427  12.656  1.3243 -0.7674 -0.2055
   53TMC2    C7  831   4.157   4.602  12.624 -0.0097 -0.0686  0.4372
   53TMC2    C8  832   4.534   4.355  12.467  0.4259  0.1018  0.0738
   53TMC2    O1  833   4.072   4.665  12.555 -0.4860 -0.3110 -0.2797
   53TMC2    O2  834   4.647   4.330  12.503 -0.1907 -0.6627  0.2172
   53TMC2    O5  835   4.430   4.275  12.489 -0.0449 -0.3947 -0.5290
   53TMC2    H5  836   4.349   4.317  12.453  0.2690 -1.4568 -2.4387
   54MPD2     C  837   4.278   0.108  12.039 -0.2815 -0.0604 -0.0030
   54MPD2    C1  838   4.219   0.071  12.157  0.2004  0.1109  0.5713
   54MPD2    C2  839   4.081   0.066  12.155 -0.3645  0.2058  0.3000
   54MPD2    C3  840   4.006   0.083  12.037  0.4153 -0.0403  0.2779
   54MPD2    C4  841   4.071   0.114  11.927 -0.3758  0.7367  0.2384
   54MPD2    C5  842   4.204   0.128  11.929 -0.3145  0.1337 -0.4452
   54MPD2     H  843   4.029   0.057  12.249 -1.7717  0.5523 -0.4410
   54MPD2    H1  844   4.013   0.146  11.841 -1.9460 -0.1962  0.9582
   54MPD2    H2  845   4.385   0.121  12.023 -0.2472  0.1100  0.3445
   54MPD2    H3  846   4.253   0.164  11.839 -2.1011 -1.3024 -1.9879
   54MPD2     N  847   3.866   0.096  12.040  0.2321 -0.2242  0.1374
   54MPD2    H5  848   3.823   0.120  11.951  2.0963  0.1148 -0.6682
   54MPD2    N1  849   4.287   0.067  12.276 -0.3735 -0.7573  0.0494
   54MPD2    H7  850   4.226   0.068  12.358 -2.8153 -0.2082 -1.7828
   55TMC2    C1  851   1.069   3.357   0.343 -0.0842  0.1175 -0.7879
   55TMC2    C2  852   1.195   3.413   0.349 -0.0343 -0.1481 -0.0047
   55TMC2    C3  853   1.305   3.331   0.352 -0.3326 -0.1297 -0.2366
   55TMC2    C4  854   1.048   3.222   0.318  0.3132  0.3761 -0.1539
   55TMC2    C5  855   1.159   3.145   0.317  1.0020 -0.7208  0.4761
   55TMC2    C6  856   1.288   3.197   0.337  0.2964 -0.5178 -0.6501
   55TMC2     C  857   0.957   3.443   0.380  0.2036 -0.1406 -0.2395
   55TMC2     O  858   0.855   3.386   0.403 -0.4232 -0.0510 -0.1030
   55TMC2     H  859   1.209   3.510   0.395  0.9231  0.2267 -1.0660
   55TMC2    H1  860   0.951   3.174   0.310  0.3623 -0.0447  1.7192
   55TMC2    H2  861   1.368   3.128   0.362  0.1792 -0.3580  0.1654
   55TMC2    C7  862   1.156   3.008   0.348  0.2354 -0.2863  0.2715
   55TMC2    C8  863   1.433   3.401   0.399 -0.2091 -0.1538  0.2815
   55TMC2    O1  864   1.249   2.948   0.306 -0.3071  0.0673  0.3111
   55TMC2    O2  865   1.435   3.469   0.502  0.6764 -0.5247  0.2105
   55TMC2    O5  866   1.528   3.310   0.373 -0.7519 -0.3601  0.0301
   55TMC2    H5  867   1.520   3.256   0.291  0.6147 -0.5022 -0.0114
   56MPD2     C  868   0.866   3.778   0.274 -0.3023  0.9845  0.0114
   56MPD2    C1  869   0.872   3.671   0.362  0.1618 -0.6680 -0.2502
   56MPD2    C2  870   0.776   3.658   0.451 -0.3740  0.4471  0.7745
   56MPD2    C3  871   0.665   3.745   0.460 -0.5402  0.7751  0.0360
   56MPD2    C4  872   0.653   3.853   0.373  0.3778 -0.2070 -0.4176
   56MPD2    C5  873   0.759   3.863   0.280 -0.1709  0.4470 -0.5451
   56MPD2     H  874   0.783   3.573   0.517 -1.0319 -1.7014 -1.9199
   56MPD2    H1  875   0.576   3.929   0.373  1.2313  0.6377  3.3090
   56MPD2    H2  876   0.946   3.798   0.202  0.7329  0.9281  1.1411
   56MPD2    H3  877   0.771   3.935   0.199 -0.3407 -0.1113 -1.0680
   56MPD2     N  878   0.572   3.721   0.567 -0.3481 -0.2141 -0.5999
   56MPD2    H5  879   0.594   3.643   0.628 -0.8079 -1.1950 -1.6722
   56MPD2    N1  880   0.975   3.573   0.353 -0.1708 -0.1693 -0.3048
   56MPD2    H7  881   1.054   3.596   0.294 -2.1045 -0.8215 -3.1339
   57TMC2    C1  882   4.179   3.430  13.506  0.0069  0.5989 -0.3284
   57TMC2    C2  883   4.175   3.298  13.539 -0.2126 -0.7991 -0.6709
   57TMC2    C3  884   4.289   3.226  13.509 -0.0719  0.4152 -0.0463
   57TMC2    C4  885   4.284   3.493  13.444  0.6357  0.2312  0.0443
   57TMC2    C5  886   4.385   3.413  13.407 -0.3827 -0.6400 -0.1632
   57TMC2    C6  887   4.393   3.282  13.446 -0.3134  0.0803  0.5622
   57TMC2     C  888   4.051   3.505  13.494 -0.4314  0.3077 -0.1551
   57TMC2     O  889   3.953   3.441  13.457  0.0696  0.1534 -0.0657
   57TMC2     H  890   4.088   3.257  13.588  0.3219 -0.5460  0.5027
   57TMC2    H1  891   4.267   3.591  13.400 -0.7017  0.4737  1.0904
   57TMC2    H2  892   4.480   3.222  13.425  0.7300  2.6537 -2.6076
   57TMC2    C7  893   4.483   3.467  13.312 -0.9440 -0.2055 -0.0390
   57TMC2    C8  894   4.300   3.083  13.530  0.4997 -0.0576 -0.4102
   57TMC2    O1  895   4.472   3.587  13.285 -0.8302 -0.5819  0.0181
   57TMC2    O2  896   4.375   3.010  13.461 -0.3069 -0.5791  0.3850
   57TMC2    O5  897   4.280   3.071  13.664 -0.3651 -0.0760  0.3026
   57TMC2    H5  898   4.235   3.145  13.711  2.7266  1.4171  0.9133
   58MPD2     C  899   3.774   3.930  13.528  0.0313  0.2182  0.9731
   58MPD2    C1  900   3.756   3.814  13.463 -0.9418 -0.2908  0.4235
   58MPD2    C2  901   3.838   3.711  13.480  0.4862 -0.5738 -0.0144
   58MPD2    C3  902   3.963   3.730  13.543 -0.8111  0.2842  0.5746
   58MPD2    C4  903   3.991   3.854  13.596 -0.1872 -0.3336 -0.2167
   58MPD2    C5  904   3.893   3.948  13.595 -0.3981 -0.2512  0.7936
   58MPD2     H  905   3.818   3.613  13.439  0.4125  0.4470 -2.3808
   58MPD2    H1  906   4.090   3.875  13.636 -0.4367 -0.7130  0.5897
   58MPD2    H2  907   3.717   4.022  13.522  0.2247  0.2171 -0.8017
   58MPD2    H3  908   3.911   4.039  13.650  0.1831 -0.5493  1.0934
   58MPD2     N  909   4.062   3.631  13.546 -0.5375 -0.1829 -0.2966
   58MPD2    H5  910   4.148   3.651  13.597  0.1692 -0.5530 -1.3314
   58MPD2    N1  911   3.646   3.798  13.373 -0.5078 -0.4870  0.1096
   58MPD2    H7  912   3.619   3.706  13.339 -2.1224  0.0514 -0.0584
   59TMC2    C1  913   1.508   3.821  12.591  0.1313  0.2937  0.1825
   59TMC2    C2  914   1.616   3.892  12.547  0.1268 -0.0256 -0.0237
   59TMC2    C3  915   1.600   3.965  12.427  0.2534  0.4271 -0.4951
   59TMC2    C4  916   1.386   3.811  12.527 -0.0564  0.3180 -0.3207
   59TMC2    C5  917   1.376   3.882  12.412  0.6439 -0.4465  0.8286
   59TMC2    C6  918   1.477   3.967  12.368 -0.3434  0.2287  0.0003
   59TMC2     C  919   1.494   3.797  12.735  0.1962  0.0942 -0.8131
   59TMC2     O  920   1.394   3.737  12.765 -0.1572 -0.1954  0.3724
   59TMC2     H  921   1.711   3.885  12.599  1.2067  2.4151 -1.6917
   59TMC2    H1  922   1.299   3.756  12.562 -0.4975  0.2325 -1.5505
   59TMC2    H2  923   1.443   4.050  12.307 -2.6970  0.7878  2.0801
   59TMC2    C7  924   1.244   3.880  12.341  0.5373 -0.4131  0.3636
   59TMC2    C8  925   1.721   4.002  12.359  0.4488 -0.2525  0.1405
   59TMC2    O1  926   1.150   3.833  12.403  0.4563  0.1719 -0.0522
   59TMC2    O2  927   1.836   3.996  12.400  0.6790  0.6432  0.0580
   59TMC2    O5  928   1.692   3.964  12.231  0.8971 -0.7178  0.2554
   59TMC2    H5  929   1.599   3.985  12.209  1.1184  0.8879  0.8088
   60MPD2     C  930   1.550   3.701  13.012  0.3587  0.1933  1.1751
   60MPD2    C1  931   1.616   3.805  12.948  0.1501 -0.3646  0.1100
   60MPD2    C2  932   1.720   3.863  13.015  0.1822 -0.1506 -0.1110
   60MPD2    C3  933   1.761   3.820  13.141 -0.6272 -0.3428 -0.2351
   60MPD2    C4  934   1.696   3.715  13.201 -0.2163  0.8464 -0.6412
   60MPD2    C5  935   1.588   3.664  13.138 -0.2613  0.5081  0.2272
   60MPD2     H  936   1.766   3.944  12.959  1.3944 -1.2726 -0.7561
   60MPD2    H1  937   1.718   3.684  13.303 -3.2281 -0.0581 -0.2713
   60MPD2    H2  938   1.478   3.635  12.965 -0.9908  2.8421 -0.5330
   60MPD2    H3  939   1.530   3.588  13.189 -2.9229  1.8002 -0.8617
   60MPD2     N  940   1.884   3.855  13.194  0.4508 -0.0284  0.0766
   60MPD2    H5  941   1.922   3.790  13.262 -0.3937 -0.1220  0.4583
   60MPD2    N1  942   1.595   3.837  12.812 -0.3962 -0.0016  0.0549
   60MPD2    H7  943   1.672   3.886  12.766  0.0457  0.2077  1.0152
   61TMC2    C1  944   1.804   4.725  15.241 -0.4786 -1.5315  0.2624
   61TMC2    C2  945   1.803   4.717  15.380 -0.1379  0.1455 -0.4430
   61TMC2    C3  946   1.698   0.041  15.440  0.1839 -0.6114  0.2265
   61TMC2    C4  947   1.705   0.051  15.167  0.4702  0.0183 -0.0628
   61TMC2    C5  948   1.603   0.117  15.232  0.2614  0.4326  0.1903
   61TMC2    C6  949   1.608   0.113  15.368  0.4209 -0.2119  0.3744
   61TMC2     C  950   1.937   0.010  15.187  0.1786 -0.1035 -0.6719
   61TMC2     O  951   2.026   4.679  15.240 -0.0449  0.2365  0.5418
   61TMC2     H  952   1.884   4.671  15.436  1.1430  2.7466 -0.1378
   61TMC2    H1  953   1.713   0.049  15.059  4.2712 -2.9529  0.2750
   61TMC2    H2  954   1.526   0.165  15.417  0.7335  0.8980 -0.2793
   61TMC2    C7  955   1.571   0.251  15.183 -0.5560 -0.0770 -0.3898
   61TMC2    C8  956   1.683   0.038  15.587  0.1619  0.5097  0.4669
   61TMC2    O1  957   1.665   0.303  15.120 -0.2134  0.8134  0.1130
   61TMC2    O2  958   1.602   0.105  15.653 -1.1346  0.5972  0.1669
   61TMC2    O5  959   1.749   4.661  15.633  0.4267  0.1983 -0.0390
   61TMC2    H5  960   1.775   4.600  15.561 -0.2600 -1.6728  1.3167
   62MPD2     C  961   2.176   0.128  15.054  0.0634 -0.2941  0.1780
   62MPD2    C1  962   2.043   0.172  15.037 -0.1513 -0.1359  0.4135
   62MPD2    C2  963   2.022   0.275  14.948 -0.2657  0.6291  0.4724
   62MPD2    C3  964   2.116   0.321  14.864  0.2688  0.0356  0.7202
   62MPD2    C4  965   2.242   0.267  14.876 -0.0295  0.3348  0.5053
   62MPD2    C5  966   2.273   0.181  14.979  0.5045 -0.3792  0.7634
   62MPD2     H  967   1.920   0.310  14.952 -0.8452 -0.8567 -1.2359
   62MPD2    H1  968   2.318   0.310  14.812  0.9092  2.4784  3.0514
   62MPD2    H2  969   2.206   0.056  15.129  1.5810 -0.9799 -1.0897
   62MPD2    H3  970   2.378   0.163  15.000  1.2800  2.2854 -0.8380
   62MPD2     N  971   2.106   0.421  14.764  0.7021 -0.4088  1.0841
   62MPD2    H5  972   2.180   0.442  14.698 -0.1616 -1.4183 -0.2101
   62MPD2    N1  973   1.932   0.115  15.100 -0.3707  0.5391  0.5073
   62MPD2    H7  974   1.840   0.152  15.077 -0.0366  0.5617 -0.7992
   63TMC2    C1  975   0.905   1.069  10.163  0.6576 -0.0037  0.1451
   63TMC2    C2  976   1.021   1.006  10.215 -0.7617 -0.6012 -0.2053
   63TMC2    C3  977   1.125   1.098  10.243  0.0574  0.3588 -0.1425
   63TMC2    C4  978   0.894   1.205  10.144 -0.3749 -0.3639  0.4489
   63TMC2    C5  979   0.998   1.286  10.176 -0.6341  0.4268  0.2607
   63TMC2    C6  980   1.111   1.235  10.236  0.7633  0.5417 -0.6521
   63TMC2     C  981   0.794   0.983  10.123 -0.1258 -0.3525 -0.3105
   63TMC2     O  982   0.701   1.045  10.068  0.0675 -0.2944 -0.0929
   63TMC2     H  983   1.039   0.899  10.209  0.1331 -0.4491 -0.1870
   63TMC2    H1  984   0.804   1.256  10.111 -1.7660 -2.0237  1.6917
   63TMC2    H2  985   1.186   1.298  10.283  0.7420  0.6826 -0.8060
   63TMC2    C7  986   0.996   1.428  10.130  0.6592  0.0842 -0.3655
   63TMC2    C8  987   1.248   1.036  10.282 -0.3608  0.2758 -0.0803
   63TMC2    O1  988   0.889   1.457  10.077  0.2741 -0.1003  0.1270
   63TMC2    O2  989   1.262   0.916  10.304  0.4582  0.1215 -0.1476
   63TMC2    O5  990   1.349   1.127  10.264 -0.8005  0.3766 -0.3973
   63TMC2    H5  991   1.334   1.219  10.234  1.7787  0.5805 -1.0276
   64MPD2     C  992   0.584   0.536  10.003 -0.4853 -0.6134  0.9737
   64MPD2    C1  993   0.682   0.508  10.096  0.9074  0.2391 -0.2403
   64MPD2    C2  994   0.756   0.612  10.139 -0.2107  0.1514  0.1923
   64MPD2    C3  995   0.745   0.743  10.091  0.0878 -0.3426 -0.0353
   64MPD2    C4  996   0.659   0.766   9.989  0.1036  0.2491 -0.9631
   64MPD2    C5  997   0.578   0.665   9.949  0.0530  0.3108  0.5297
   64MPD2     H  998   0.829   0.597  10.218 -0.7603 -1.2537  0.4223
   64MPD2    H1  999   0.654   0.864   9.942 -1.6277  0.3601 -0.5584
   64MPD2    H2 1000   0.515   0.462   9.965 -1.5467  1.0461 -0.3360
   64MPD2    H3 1001   0.496   0.686   9.881  2.1832  1.1110 -1.7864
   64MPD2     N 1002   0.816   0.850  10.152 -0.0559 -0.8552 -0.6620
   64MPD2    H5 1003   0.888   0.825  10.218  0.0974  1.7142  0.1267
   64MPD2    N1 1004   0.705   0.381  10.143  0.3245 -0.1304 -0.2339
   64MPD2    H7 1005   0.786   0.368  10.203  0.2442 -0.1059 -0.1203
   65TMC2    C1 1006   2.504   4.239  15.526 -0.2390 -0.5873 -0.0893
   65TMC2    C2 1007   2.626   4.208  15.584  0.0446 -0.1921 -0.0629
   65TMC2    C3 1008   2.706   4.314  15.608  0.0519 -0.2652 -0.2071
   65TMC2    C4 1009   2.467   4.369  15.506 -0.2861 -0.3374 -0.2404
   65TMC2    C5 1010   2.545   4.471  15.553  0.1519  0.7235 -0.5885
   65TMC2    C6 1011   2.671   4.446  15.595  0.2314 -0.0364  0.0433
   65TMC2     C 1012   2.409   4.142  15.482  0.3601 -0.3765  0.0680
   65TMC2     O 1013   2.322   4.181  15.408 -0.0850 -0.2353 -0.3493
   65TMC2     H 1014   2.672   4.109  15.583 -0.5881 -0.5048  1.7094
   65TMC2    H1 1015   2.366   4.390  15.472 -0.9475  0.0049  1.9819
   65TMC2    H2 1016   2.733   4.528  15.628 -0.5767  0.3208  0.6701
   65TMC2    C7 1017   2.509   4.604  15.524  1.2075 -0.4543 -0.3140
   65TMC2    C8 1018   2.823   4.293  15.684  0.2243  1.0146  0.4707
   65TMC2    O1 1019   2.600   4.684  15.495 -0.1407 -0.4932 -0.4580
   65TMC2    O2 1020   2.843   4.193  15.745 -0.1357 -0.0499 -0.2079
   65TMC2    O5 1021   2.922   4.365  15.624 -0.3711 -0.0886  0.5559
   65TMC2    H5 1022   2.895   4.421  15.548  1.7741 -0.9785 -0.8676
   66MPD2     C 1023   2.382   3.769  15.537 -0.2716  0.0975  0.7848
   66MPD2    C1 1024   2.351   3.900  15.494 -1.3006  0.1395  0.2945
   66MPD2    C2 1025   2.239   3.908  15.418 -0.0589 -0.1626  0.3722
   66MPD2    C3 1026   2.148   3.805  15.395  0.2034 -0.1942  0.1380
   66MPD2    C4 1027   2.175   3.680  15.441  0.1085 -1.1305 -0.1605
   66MPD2    C5 1028   2.293   3.663  15.507  1.1148  0.0081  0.4680
   66MPD2     H 1029   2.195   4.000  15.381 -0.4729  0.0796  1.4943
   66MPD2    H1 1030   2.126   3.589  15.409 -2.6248  0.2030  0.2352
   66MPD2    H2 1031   2.469   3.759  15.601  0.9336 -1.6163 -1.1035
   66MPD2    H3 1032   2.322   3.563  15.534  1.2387  0.0414  0.4627
   66MPD2     N 1033   2.023   3.834  15.343  0.1705 -1.1764 -0.7345
   66MPD2    H5 1034   2.001   3.929  15.314  2.5626  0.1819  1.8551
   66MPD2    N1 1035   2.435   4.013  15.526  0.6403 -0.4673  0.4650
   66MPD2    H7 1036   2.517   4.002  15.585  2.4004  1.0669 -1.7121
   67TMC2    C1 1037   2.081   3.486  14.010  0.4036  0.4033  0.2625
   67TMC2    C2 1038   1.992   3.411  14.087 -0.0045  0.0290 -0.7724
   67TMC2    C3 1039   2.042   3.372  14.210  0.3817  0.1273  0.4417
   67TMC2    C4 1040   2.203   3.531  14.056 -0.3153 -1.1581 -0.3214
   67TMC2    C5 1041   2.240   3.501  14.186  0.1719  0.4816 -0.0135
   67TMC2    C6 1042   2.161   3.417  14.266  0.0284  0.7611  0.0908
   67TMC2     C 1043   2.023   3.547  13.889 -0.6206 -0.1480 -0.1785
   67TMC2     O 1044   2.098   3.578  13.798 -0.1954 -0.2070  0.4577
   67TMC2     H 1045   1.893   3.382  14.052  0.6680 -2.2009 -0.7727
   67TMC2    H1 1046   2.264   3.592  13.990 -1.3397 -0.2458 -0.4284
   67TMC2    H2 1047   2.192   3.397  14.369 -0.8326 -0.7497  0.0479
   67TMC2    C7 1048   2.351   3.572  14.237 -0.1496 -0.0271  0.2470
   67TMC2    C8 1049   1.962   3.303  14.307  0.5123  0.6144  0.5949
   67TMC2    O1 1050   2.421   3.644  14.167 -0.1071 -0.7753 -0.2214
   67TMC2    O2 1051   1.992   3.297  14.426 -0.5012  0.2385  0.3894
   67TMC2    O5 1052   1.857   3.243  14.246 -0.7991 -0.5386  0.4629
   67TMC2    H5 1053   1.878   3.208  14.156 -0.5138  0.3897  0.1727
   68MPD2     C 1054   1.831   3.631  13.683  0.9225 -0.0484 -0.4357
   68MPD2    C1 1055   1.800   3.626  13.819  0.1046 -0.1530 -0.1438
   68MPD2    C2 1056   1.666   3.638  13.864  0.5005  0.4852 -0.1084
   68MPD2    C3 1057   1.574   3.688  13.779  0.8550 -0.0322  0.5495
   68MPD2    C4 1058   1.609   3.702  13.644  0.3682  0.1640  0.1252
   68MPD2    C5 1059   1.732   3.671  13.599 -0.4760 -0.5421  0.5963
   68MPD2     H 1060   1.642   3.627  13.969  2.5228  3.5508  0.7030
   68MPD2    H1 1061   1.549   3.749  13.567  1.6406  0.6614 -0.5547
   68MPD2    H2 1062   1.927   3.602  13.643  1.5631  0.2559  0.9301
   68MPD2    H3 1063   1.752   3.683  13.493 -0.8486  0.6947  0.6718
   68MPD2     N 1064   1.438   3.717  13.811 -0.6347  0.2954 -0.0818
   68MPD2    H5 1065   1.391   3.748  13.727 -1.7665 -0.0365  0.4237
   68MPD2    N1 1066   1.892   3.575  13.915  0.1224 -0.1573  0.0685
   68MPD2    H7 1067   1.863   3.550  14.009  0.4104 -1.6388 -0.2452
   69TMC2    C1 1068   3.881   0.561  12.645 -0.2067 -0.1890 -0.1250
   69TMC2    C2 1069   3.763   0.633  12.647  0.4425 -0.3713  0.0305
   69TMC2    C3 1070   3.728   0.716  12.542 -1.0221  0.7346  0.3789
   69TMC2    C4 1071   3.964   0.582  12.539 -0.6627 -0.2310 -1.2608
   69TMC2    C5 1072   3.931   0.667  12.439  0.4878 -0.4270 -0.1947
   69TMC2    C6 1073   3.813   0.739  12.436 -0.3292  1.1080  0.1678
   69TMC2     C 1074   3.898   0.453  12.740  0.6216 -0.1555  0.4516
   69TMC2     O 1075   3.798   0.429  12.805 -0.1088  0.0790 -0.0833
   69TMC2     H 1076   3.706   0.635  12.739 -1.5540 -0.5836 -1.2057
   69TMC2    H1 1077   4.053   0.522  12.522 -0.6354 -0.8260  0.9401
   69TMC2    H2 1078   3.800   0.809  12.353 -0.8841 -0.2428 -0.8845
   69TMC2    C7 1079   4.047   0.709  12.368  0.0677 -0.3815  0.3587
   69TMC2    C8 1080   3.608   0.790  12.555  0.1772 -0.1277 -0.0013
   69TMC2    O1 1081   4.134   0.620  12.349 -0.6710  0.4772  0.5274
   69TMC2    O2 1082   3.513   0.756  12.631 -0.0209 -0.0570  0.2898
   69TMC2    O5 1083   3.631   0.914  12.507 -0.1988 -0.0101  0.2292
   69TMC2    H5 1084   3.721   0.938  12.474  1.1409 -1.9988  2.3915
   70MPD2     C 1085   4.189   0.248  12.840 -0.1570  0.2517 -0.1270
   70MPD2    C1 1086   4.061   0.308  12.848  0.6184  0.1263 -0.1725
   70MPD2    C2 1087   3.977   0.266  12.951 -0.1292  0.1298  0.4194
   70MPD2    C3 1088   4.020   0.169  13.047  0.5740 -0.0067 -0.7380
   70MPD2    C4 1089   4.149   0.117  13.033 -0.2582 -0.2210  0.2319
   70MPD2    C5 1090   4.225   0.157  12.929  0.3915 -0.7585  1.0363
   70MPD2     H 1091   3.873   0.297  12.959 -0.0678  0.1185  1.2610
   70MPD2    H1 1092   4.194   0.042  13.097  0.5105  0.3090  0.3123
   70MPD2    H2 1093   4.254   0.268  12.756  2.6600  2.3567  2.5341
   70MPD2    H3 1094   4.323   0.110  12.926  0.8132  0.2793 -0.9970
   70MPD2     N 1095   3.941   0.134  13.159  0.1981  0.3817 -0.4769
   70MPD2    H5 1096   3.987   0.073  13.226 -1.3248  1.8163  1.8691
   70MPD2    N1 1097   4.028   0.404  12.749 -0.0036  0.5438 -0.1086
   70MPD2    H7 1098   4.103   0.438  12.691 -0.7966  1.8563 -0.3664
   71TMC2    C1 1099   0.955   0.380   1.474 -0.2492  0.5752 -0.7808
   71TMC2    C2 1100   0.950   0.280   1.568 -1.0429  0.4357  0.9154
   71TMC2    C3 1101   0.861   0.292   1.667 -0.1197  0.5838  0.4531
   71TMC2    C4 1102   0.883   0.499   1.485  0.1491  0.3149  0.1850
   71TMC2    C5 1103   0.792   0.506   1.589  0.0342 -0.1582  0.0488
   71TMC2    C6 1104   0.783   0.402   1.677  0.3448  0.7946 -0.7858
   71TMC2     C 1105   1.049   0.371   1.359 -0.0957 -0.6340 -0.2718
   71TMC2     O 1106   1.092   0.477   1.312  0.1200 -0.0685  0.1951
   71TMC2     H 1107   0.995   0.182   1.556  1.9896  1.9492 -0.2022
   71TMC2    H1 1108   0.885   0.575   1.407 -2.0327 -0.9841 -1.1353
   71TMC2    H2 1109   0.707   0.398   1.754 -0.9729  0.1587 -2.1341
   71TMC2    C7 1110   0.698   0.613   1.605 -0.2908  0.3814  0.1530
   71TMC2    C8 1111   0.848   0.173   1.743  0.4845 -0.4650  0.7709
   71TMC2    O1 1112   0.600   0.592   1.675 -0.7091 -0.5567  0.3251
   71TMC2    O2 1113   0.861   0.061   1.699 -0.0326  0.0522  0.2000
   71TMC2    O5 1114   0.829   0.205   1.874  0.3420 -0.1413  0.3370
   71TMC2    H5 1115   0.831   0.301   1.896 -1.6927  0.3101 -1.4674
   72MPD2     C 1116   1.253   0.092   0.982 -0.4038 -0.2322  0.3079
   72MPD2    C1 1117   1.287   0.221   1.019  0.6618  0.3115  0.0422
   72MPD2    C2 1118   1.234   0.263   1.136 -0.2295  0.1521 -0.0023
   72MPD2    C3 1119   1.150   0.185   1.218 -0.0374  0.6677  0.3238
   72MPD2    C4 1120   1.132   0.057   1.185  0.4416  1.0230  0.8651
   72MPD2    C5 1121   1.191   0.010   1.072 -0.1913  0.9353  0.1690
   72MPD2     H 1122   1.251   0.368   1.155  0.7621  0.0921 -0.5668
   72MPD2    H1 1123   1.073   4.727   1.249 -0.9873  2.1865  0.7391
   72MPD2    H2 1124   1.289   0.051   0.888  2.6583 -0.1181  1.4374
   72MPD2    H3 1125   1.159   4.646   1.041  0.5211  0.4949  0.8553
   72MPD2     N 1126   1.072   0.236   1.324 -0.3295  0.2528  0.0944
   72MPD2    H5 1127   1.005   0.172   1.365 -1.4634 -0.2905 -2.5678
   72MPD2    N1 1128   1.347   0.310   0.932  0.2702  0.5419  0.3612
   72MPD2    H7 1129   1.347   0.404   0.971 -0.8698  1.7060 -2.4264
   73TMC2    C1 1130   1.178   2.532  14.019  0.0344 -0.1300 -0.2006
   73TMC2    C2 1131   1.159   2.540  14.159 -0.0461 -0.6879  0.7003
   73TMC2    C3 1132   1.227   2.452  14.234 -0.1256 -0.3045 -0.4793
   73TMC2    C4 1133   1.282   2.453  13.969  0.4032 -0.6044 -0.2426
   73TMC2    C5 1134   1.360   2.382  14.046  0.0553 -0.6779 -0.4390
   73TMC2    C6 1135   1.334   2.389  14.180  0.0937  0.3693 -0.3771
   73TMC2     C 1136   1.175   2.664  13.960  0.3005 -0.5580 -0.0101
   73TMC2     O 1137   1.267   2.686  13.888 -0.2882  0.4219  0.4681
   73TMC2     H 1138   1.090   2.613  14.199  1.0040  0.5424  0.2621
   73TMC2    H1 1139   1.314   2.463  13.866  0.9650  0.9058  0.0745
   73TMC2    H2 1140   1.401   2.343  14.251  0.9579  1.5071 -0.4456
   73TMC2    C7 1141   1.499   2.414  14.046  0.0688  0.3521 -0.6368
   73TMC2    C8 1142   1.283   2.529  14.345 -0.2482 -0.4417 -0.3206
   73TMC2    O1 1143   1.585   2.337  14.088 -0.2995 -0.6002 -0.4901
   73TMC2    O2 1144   1.403   2.566  14.341  0.4685 -0.3535  0.0972
   73TMC2    O5 1145   1.183   2.588  14.409  0.0712 -0.4822 -0.9951
   73TMC2    H5 1146   1.098   2.539  14.405 -0.8292  1.1340 -1.3456
   74MPD2     C 1147   1.019   3.149  13.944  0.3705  0.0084 -0.2711
   74MPD2    C1 1148   1.142   3.097  13.928 -0.4786 -0.0391 -0.2426
   74MPD2    C2 1149   1.164   2.962  13.956 -0.2649 -0.2998  0.0215
   74MPD2    C3 1150   1.055   2.882  13.982 -0.6600 -0.1051 -0.4246
   74MPD2    C4 1151   0.933   2.933  13.999  0.2263 -0.5781  0.5423
   74MPD2    C5 1152   0.919   3.063  13.974 -0.7704  0.3803  0.1152
   74MPD2     H 1153   1.262   2.917  13.965 -0.5803 -0.9530  0.1947
   74MPD2    H1 1154   0.848   2.870  14.021 -0.1948  0.1451  0.9610
   74MPD2    H2 1155   0.988   3.252  13.936  1.1166  0.0784 -2.2310
   74MPD2    H3 1156   0.824   3.113  13.990 -2.1058 -2.5530  1.5359
   74MPD2     N 1157   1.067   2.745  14.002 -0.0927  0.1391 -0.4533
   74MPD2    H5 1158   0.987   2.695  14.040 -0.8605  1.6957 -0.0403
   74MPD2    N1 1159   1.245   3.191  13.915  0.7981 -0.8425 -0.3675
   74MPD2    H7 1160   1.226   3.291  13.919 -0.6358 -1.2082  1.5520
   75TMC2    C1 1161   1.243   3.765  13.932 -0.4047  0.5610  0.1848
   75TMC2    C2 1162   1.191   3.834  14.032  0.1524  0.4361 -0.5079
   75TMC2    C3 1163   1.095   3.919  14.001 -0.1995 -0.1816 -1.0408
   75TMC2    C4 1164   1.193   3.765  13.803 -0.1102  0.0038  0.5870
   75TMC2    C5 1165   1.090   3.854  13.776  0.4878 -0.1226 -0.3513
   75TMC2    C6 1166   1.039   3.931  13.877  0.1861  0.2007 -0.8408
   75TMC2     C 1167   1.378   3.719  13.940 -0.4471  0.6977  0.5248
   75TMC2     O 1168   1.429   3.705  14.049  0.0704 -0.6472 -0.4609
   75TMC2     H 1169   1.240   3.845  14.128 -1.5325 -0.8044  0.4882
   75TMC2    H1 1170   1.210   3.691  13.726  1.0340 -0.5839  1.3963
   75TMC2    H2 1171   0.958   3.999  13.854  0.0597  0.4013  0.2408
   75TMC2    C7 1172   1.058   3.887  13.636 -0.0962 -0.3328  0.4267
   75TMC2    C8 1173   1.046   4.013  14.098 -0.2292  0.0802  0.6431
   75TMC2    O1 1174   1.065   3.795  13.559 -0.0632 -0.4802 -0.0779
   75TMC2    O2 1175   1.004   4.123  14.062  1.2374  0.1572 -0.1082
   75TMC2    O5 1176   0.995   3.944  14.197  0.7995 -0.6236  0.0066
   75TMC2    H5 1177   1.002   3.848  14.179  0.0844 -0.8906  1.2046
   76TMC2    C1 1178   0.185   4.552  12.241  0.7776  0.3348  0.3906
   76TMC2    C2 1179   0.107   4.478  12.159  0.9692 -0.4391 -0.1430
   76TMC2    C3 1180   0.100   4.346  12.191  0.4192  0.2691 -0.4476
   76TMC2    C4 1181   0.259   4.508  12.350 -0.6645 -0.5623  0.2648
   76TMC2    C5 1182   0.247   4.375  12.375  0.7337 -0.6889 -0.0623
   76TMC2    C6 1183   0.169   4.294  12.300  0.5844 -0.6583 -0.2386
   76TMC2     C 1184   0.206   4.692  12.191 -0.2824 -0.4619  0.5397
   76TMC2     O 1185   0.110   0.007  12.134 -0.6469  0.2230  0.4524
   76TMC2     H 1186   0.052   4.522  12.076 -0.1131 -0.4621  0.5644
   76TMC2    H1 1187   0.328   4.573  12.403  1.0891 -2.6633  0.5468
   76TMC2    H2 1188   0.154   4.192  12.332 -0.4345  0.1526  1.9041
   76TMC2    C7 1189   0.296   4.315  12.497 -0.5006 -0.0851  0.5645
   76TMC2    C8 1190   4.716   4.276  12.145  0.3907  0.4566  1.0103
   76TMC2    O1 1191   0.236   4.224  12.544  0.3034  0.5699 -0.0312
   76TMC2    O2 1192   4.622   4.341  12.097  0.3878  0.0073 -0.3757
   76TMC2    O5 1193   0.002   4.142  12.141 -0.7880 -0.0869 -0.4047
   76TMC2    H5 1194   0.098   4.122  12.144 -0.4262  1.6608 -0.1377
   77MPD2     C 1195   0.477   0.379  12.098  0.3707 -0.3398 -0.7739
   77MPD2    C1 1196   0.342   0.357  12.094 -0.4906 -0.9890 -0.0808
   77MPD2    C2 1197   0.292   0.232  12.122  0.4216  0.0367  0.1477
   77MPD2    C3 1198   0.378   0.122  12.140 -0.0075  0.1044  0.3028
   77MPD2    C4 1199   0.516   0.147  12.141 -0.5084  0.2149  0.1752
   77MPD2    C5 1200   0.566   0.277  12.118 -0.2716  0.4641 -0.4947
   77MPD2     H 1201   0.184   0.224  12.114  0.2292  0.3683  2.3319
   77MPD2    H1 1202   0.600   0.079  12.135 -0.3235  0.3381  1.3622
   77MPD2    H2 1203   0.511   0.482  12.100  1.7796 -0.7245 -4.2919
   77MPD2    H3 1204   0.673   0.296  12.111  0.1394 -3.2984 -4.0759
   77MPD2     N 1205   0.337   4.727  12.182 -0.1848  0.3121 -0.2257
   77MPD2    H5 1206   0.412   4.662  12.204 -0.2701  0.5190  0.6563
   77MPD2    N1 1207   0.247   0.459  12.074 -0.3194  0.3458 -0.1958
   77MPD2    H7 1208   0.149   0.429  12.074 -0.1511 -0.2185  1.0612
   78TMC2    C1 1209   3.753   0.973   0.208  0.7771 -0.0477  0.8207
   78TMC2    C2 1210   3.671   0.884   0.140  0.2209 -0.3757 -0.9377
   78TMC2    C3 1211   3.592   0.797   0.225 -0.2790 -0.4971  0.1201
   78TMC2    C4 1212   3.773   0.971   0.341 -0.0705  0.2494 -0.1790
   78TMC2    C5 1213   3.711   0.874   0.417  0.1972 -0.9015 -0.2139
   78TMC2    C6 1214   3.614   0.795   0.360  0.1737  1.2609  0.1181
   78TMC2     C 1215   3.844   1.047   0.130 -0.2760  0.1666  0.1195
   78TMC2     O 1216   3.954   1.059   0.182  0.4673  0.5571  0.0193
   78TMC2     H 1217   3.672   0.870   0.032  1.1546 -1.1573 -0.8326
   78TMC2    H1 1218   3.841   1.036   0.396  1.6483 -1.2032 -0.5702
   78TMC2    H2 1219   3.561   0.726   0.425  1.4797  0.1476  0.0041
   78TMC2    C7 1220   3.709   0.887   0.556 -0.5479  0.5413  0.1430
   78TMC2    C8 1221   3.507   0.695   0.178  0.4764  0.4183 -0.0133
   78TMC2    O1 1222   3.712   0.787   0.623 -0.1034 -0.5467  0.4012
   78TMC2    O2 1223   3.520   0.644   0.068  0.1041  0.0797 -0.1322
   78TMC2    O5 1224   3.396   0.723   0.239 -0.2071  0.5511  0.2106
   78TMC2    H5 1225   3.398   0.787   0.313  2.0668  0.3180  0.3625
   79MPD1     C 1226   4.020   1.147  17.397  0.0681 -0.5004  0.1062
   79MPD1    C1 1227   4.083   1.136  17.513  0.3033  1.1076  0.2757
   79MPD1    C2 1228   4.014   1.106  17.632  0.7049 -0.0698  0.4464
   79MPD1    C3 1229   3.877   1.092  17.627  0.2107 -0.5103  0.2051
   79MPD1    C4 1230   3.810   1.104  17.503  0.4667 -0.0871 -0.1350
   79MPD1    C5 1231   3.882   1.138  17.389 -0.1490 -0.1279  0.0979
   79MPD1     H 1232   4.062   1.083  17.726  0.0137 -1.6304  0.4159
   79MPD1    H1 1233   3.705   1.077  17.498  0.2198  0.8334 -0.0187
   79MPD1    H2 1234   4.074   1.168  17.305 -0.3653  3.4166  0.7386
   79MPD1    H3 1235   3.836   1.156  17.292 -0.4729 -2.0893 -0.1089
   79MPD1     N 1236   3.802   1.063   0.004 -0.0081  0.0281  0.1459
   79MPD1    H5 1237   3.701   1.062  17.736 -0.1313  2.1906  1.8481
   79MPD1    N1 1238   4.221   1.132  17.502 -0.7472 -0.5831  0.0202
   79MPD1    H6 1239   4.270   1.133  17.592  0.6406 -0.3538 -0.7345
   79MPD1    H7 1240   4.248   1.222  17.462 -0.8365  0.1990  1.7177
   80TMC2    C1 1241   3.996   4.305  12.276  0.6343 -0.1747  0.0405
   80TMC2    C2 1242   4.059   4.384  12.179 -0.4064 -0.2717  0.2771
   80TMC2    C3 1243   4.001   4.380  12.058  0.4552 -0.2110  0.5846
   80TMC2    C4 1244   3.879   4.235  12.262  0.6637 -0.3122 -0.3577
   80TMC2    C5 1245   3.825   4.238  12.134 -0.0826  0.1560 -0.0279
   80TMC2    C6 1246   3.894   4.309  12.031  0.0510  0.2010  0.1275
   80TMC2     C 1247   4.048   4.316  12.414 -0.5094 -0.7869 -1.3743
   80TMC2     O 1248   4.164   4.339  12.440  0.1307 -0.2977 -0.2438
   80TMC2     H 1249   4.143   4.448  12.203 -0.9441  0.3365  0.5790
   80TMC2    H1 1250   3.837   4.177  12.343 -0.2010  0.9348  0.0827
   80TMC2    H2 1251   3.853   4.312  11.931 -0.6790 -1.2072  0.3777
   80TMC2    C7 1252   3.707   4.162  12.094  0.2281 -1.1596 -0.3199
   80TMC2    C8 1253   4.051   4.450  11.951 -0.2696  0.5930 -0.1240
   80TMC2    O1 1254   3.660   4.190  11.986 -0.4742  0.1977  0.3326
   80TMC2    O2 1255   3.994   4.482  11.847 -0.3967  0.2015 -0.0725
   80TMC2    O5 1256   4.181   4.411  11.939  0.1944  0.7682 -0.7239
   80TMC2    H5 1257   4.216   4.368  12.019  1.1860  1.2238 -0.9219
   81MPD2     C 1258   4.064   4.223  12.700  0.1471 -0.3031  0.0369
   81MPD2    C1 1259   3.953   4.278  12.644 -0.4063 -0.2513  0.2129
   81MPD2    C2 1260   3.841   4.289  12.719  0.0069  0.0503 -0.0305
   81MPD2    C3 1261   3.841   4.250  12.851 -0.5960  0.4937 -0.3923
   81MPD2    C4 1262   3.947   4.193  12.908  0.8480 -0.0896  0.5017
   81MPD2    C5 1263   4.063   4.181  12.835  0.3906  0.1211  0.2466
   81MPD2     H 1264   3.756   4.346  12.681  0.5298  1.4765  0.9077
   81MPD2    H1 1265   3.930   4.157  13.009  0.0488  0.2904  0.5001
   81MPD2    H2 1266   4.153   4.204  12.640  0.7089  1.3454  0.3450
   81MPD2    H3 1267   4.148   4.131  12.881  0.1213 -0.0632  0.5434
   81MPD2     N 1268   3.729   4.254  12.937  0.3904  0.3794 -0.2474
   81MPD2    H5 1269   3.737   4.210  13.029  0.1575  0.6713 -0.0848
   81MPD2    N1 1270   3.944   4.306  12.507 -0.0035  0.6734  0.1308
   81MPD2    H7 1271   3.854   4.339  12.473  0.4744  1.7553 -0.0862
   82TMC2    C1 1272   2.333   4.152  11.454  0.2812 -0.3215 -0.3478
   82TMC2    C2 1273   2.431   4.168  11.550  0.2523 -0.4278 -0.1032
   82TMC2    C3 1274   2.436   4.084  11.656 -0.0109  0.3063 -0.1111
   82TMC2    C4 1275   2.237   4.062  11.471 -0.4912  0.3972 -0.5723
   82TMC2    C5 1276   2.234   3.988  11.583 -0.0752  0.5744  0.4845
   82TMC2    C6 1277   2.330   3.989  11.677  0.1869 -0.7579 -0.0090
   82TMC2     C 1278   2.310   4.237  11.343  0.0441 -0.7254 -0.3827
   82TMC2     O 1279   2.263   4.179  11.245 -0.1154  0.0568  0.3992
   82TMC2     H 1280   2.506   4.246  11.543 -0.8915  0.7088  0.2526
   82TMC2    H1 1281   2.146   4.071  11.413  0.1371 -0.5477 -1.7078
   82TMC2    H2 1282   2.335   3.916  11.757 -3.6397 -0.2622  0.6696
   82TMC2    C7 1283   2.151   3.866  11.587  0.2102  0.1931 -0.0312
   82TMC2    C8 1284   2.548   4.104  11.759  0.1136 -0.3170 -0.4978
   82TMC2    O1 1285   2.128   3.820  11.700 -0.5722  0.4526 -0.6048
   82TMC2    O2 1286   2.656   4.157  11.733  0.5505  0.0578  0.0385
   82TMC2    O5 1287   2.491   4.099  11.877  0.4267 -0.2527 -0.3373
   82TMC2    H5 1288   2.400   4.066  11.859  0.6831 -1.2063  0.1386
   83MPD2     C 1289   2.322   4.684  11.099  0.3145  0.1015 -0.2798
   83MPD2    C1 1290   2.275   4.561  11.069  0.1332 -0.8144  1.3420
   83MPD2    C2 1291   2.278   4.453  11.157 -0.3043 -0.6125 -0.1124
   83MPD2    C3 1292   2.345   4.462  11.276  0.1310 -0.2013  0.3119
   83MPD2    C4 1293   2.409   4.583  11.300  0.1362  0.3604  0.1288
   83MPD2    C5 1294   2.400   4.692  11.217 -0.4284 -0.6846  1.1851
   83MPD2     H 1295   2.227   4.363  11.125  1.3004 -1.0152 -1.5378
   83MPD2    H1 1296   2.471   4.598  11.388  1.8241  0.9583 -1.1718
   83MPD2    H2 1297   2.320   0.031  11.028 -0.5529  0.6269  0.3488
   83MPD2    H3 1298   2.450   0.049  11.245 -1.8601 -0.2557  2.3253
   83MPD2     N 1299   2.357   4.359  11.367 -0.2747 -0.2053 -0.2386
   83MPD2    H5 1300   2.394   4.383  11.459 -0.5870 -3.2245  0.6531
   83MPD2    N1 1301   2.209   4.560  10.940  0.4088 -0.0973  0.0847
   83MPD2    H7 1302   2.199   4.649  10.891  0.4648  1.1301  2.2885
   84TMC2    C1 1303   3.803   4.198  10.948  1.0439  0.8542  0.2724
   84TMC2    C2 1304   3.837   4.317  11.005 -0.2047  0.3946  0.1588
   84TMC2    C3 1305   3.908   4.410  10.934 -0.0523  0.0413 -0.0089
   84TMC2    C4 1306   3.847   4.166  10.818 -0.2212 -0.1989  0.0547
   84TMC2    C5 1307   3.930   4.257  10.762 -0.4842 -0.7091 -0.7556
   84TMC2    C6 1308   3.971   4.371  10.819  0.2360 -0.5776  0.4012
   84TMC2     C 1309   3.687   4.131  11.004  0.6128  0.1853  0.2322
   84TMC2     O 1310   3.610   4.194  11.075 -0.4748  0.4113 -0.5137
   84TMC2     H 1311   3.797   4.346  11.101  1.0955  1.4387  0.3927
   84TMC2    H1 1312   3.819   4.077  10.763  0.5733 -0.9407  0.8572
   84TMC2    H2 1313   4.037   4.441  10.769 -1.2718  0.0710 -0.6781
   84TMC2    C7 1314   3.955   4.263  10.617 -0.0607  0.6784  0.2654
   84TMC2    C8 1315   3.923   4.540  10.996 -0.3674 -0.1843  0.3392
   84TMC2    O1 1316   4.027   4.358  10.578 -0.1537  0.1461 -0.3552
   84TMC2    O2 1317   3.986   4.628  10.949  0.0190 -0.0425 -0.0559
   84TMC2    O5 1318   3.899   4.523  11.125  0.4141  0.3915  0.3198
   84TMC2    H5 1319   3.946   4.597  11.171  0.7792  0.5477 -0.3005
   85TMC2    C1 1320   0.138   0.959  15.463 -0.3168  0.1283  0.3098
   85TMC2    C2 1321   0.169   1.085  15.412  0.0952  0.3871 -1.4871
   85TMC2    C3 1322   0.241   1.087  15.301 -0.1309 -0.3357  0.3791
   85TMC2    C4 1323   0.161   0.844  15.383 -0.1878  0.5525  0.6033
   85TMC2    C5 1324   0.215   0.859  15.257  0.2458  0.1895 -0.2894
   85TMC2    C6 1325   0.256   0.982  15.216 -0.0521 -0.5498  0.3537
   85TMC2     C 1326   0.037   0.958  15.565 -0.4687  0.2581  0.0265
   85TMC2     O 1327   4.718   1.066  15.582 -0.6715  0.4107 -0.0120
   85TMC2     H 1328   0.146   1.175  15.468 -0.2922 -0.8472  0.3258
   85TMC2    H1 1329   0.130   0.746  15.416 -0.8486  0.2756 -0.8221
   85TMC2    H2 1330   0.301   1.003  15.120  0.8333 -1.3626  0.5899
   85TMC2    C7 1331   0.255   0.738  15.185 -0.6600  0.6292 -0.4741
   85TMC2    C8 1332   0.243   1.222  15.242 -0.2489  0.7249  0.2403
   85TMC2    O1 1333   0.279   0.647  15.260 -1.1933  0.0264 -0.1083
   85TMC2    O2 1334   0.259   1.242  15.123  0.8814 -0.0689  0.0477
   85TMC2    O5 1335   0.308   1.275  15.344  0.3669  0.0850  0.0148
   85TMC2    H5 1336   0.337   1.213  15.415  0.3449  1.2817  1.0741
   86MPD2     C 1337   4.439   0.724  15.889 -0.4851  0.0847  0.0349
   86MPD2    C1 1338   4.518   0.620  15.824 -0.1882  0.2105 -0.1795
   86MPD2    C2 1339   4.626   0.658  15.748 -0.1713 -0.0710 -0.6538
   86MPD2    C3 1340   4.643   0.792  15.710  0.5891 -0.0868  0.4993
   86MPD2    C4 1341   4.565   0.888  15.766 -0.7321 -0.0436  0.4670
   86MPD2    C5 1342   4.464   0.856  15.854 -0.8434  0.7745  0.3105
   86MPD2     H 1343   4.702   0.585  15.722  1.1237  0.6416  1.1666
   86MPD2    H1 1344   4.578   0.993  15.742  0.3124 -0.3133 -0.1998
   86MPD2    H2 1345   4.353   0.702  15.951 -0.4752 -0.8702 -0.2813
   86MPD2    H3 1346   4.410   0.941  15.894 -1.4106  0.8066 -0.5212
   86MPD2     N 1347   0.019   0.832  15.624 -0.4556 -0.0562 -0.3475
   86MPD2    H5 1348   0.089   0.763  15.599 -2.2197 -1.7445 -0.6384
   86MPD2    N1 1349   4.499   0.486  15.848 -0.4623 -0.4507  0.2778
   86MPD2    H7 1350   4.570   0.422  15.814 -2.4531 -1.5544 -1.8024
   87TMC2    C1 1351   2.506   4.075   1.106  0.5163 -0.5879  0.1461
   87TMC2    C2 1352   2.548   4.030   1.223  0.2791 -0.0886  0.1423
   87TMC2    C3 1353   2.457   3.992   1.322 -0.1314  0.3741 -0.6840
   87TMC2    C4 1354   2.377   4.087   1.075 -0.3607  0.0285  0.1189
   87TMC2    C5 1355   2.294   4.055   1.173  0.5013  0.0340  0.2657
   87TMC2    C6 1356   2.329   4.010   1.296  0.4954 -0.7017 -0.9861
   87TMC2     C 1357   2.598   4.137   1.012 -0.0209 -1.1472  0.9271
   87TMC2     O 1358   2.572   4.155   0.890  0.6078  0.2827  0.4180
   87TMC2     H 1359   2.654   4.019   1.246  0.6725  0.0937 -1.5826
   87TMC2    H1 1360   2.355   4.113   0.972 -2.0699 -1.2115  0.1782
   87TMC2    H2 1361   2.252   3.976   1.365  1.2124  0.1777  0.2425
   87TMC2    C7 1362   2.161   4.108   1.142  0.3926 -0.6880 -0.2565
   87TMC2    C8 1363   2.490   3.922   1.438 -0.6974  0.1615  0.2776
   87TMC2    O1 1364   2.155   4.191   1.051 -0.6166  0.4308  0.3321
   87TMC2    O2 1365   2.407   3.859   1.499  0.2754  0.1771  0.2500
   87TMC2    O5 1366   2.602   3.987   1.492 -0.1700 -0.2370 -0.1522
   87TMC2    H5 1367   2.646   4.049   1.431  1.4531 -1.4344 -0.1807
   88MPD2     C 1368   1.846   4.049   1.324 -0.3225 -0.5173 -0.2801
   88MPD2    C1 1369   1.928   4.113   1.238 -0.0802  0.4722  0.2069
   88MPD2    C2 1370   1.881   4.208   1.154  0.3948 -0.6201 -0.9947
   88MPD2    C3 1371   1.760   4.266   1.175  0.6097 -0.2398 -0.5337
   88MPD2    C4 1372   1.682   4.211   1.272  0.6581  0.1445  0.0419
   88MPD2    C5 1373   1.718   4.102   1.337 -0.0970 -0.1365 -0.1579
   88MPD2     H 1374   1.942   4.249   1.074  1.2040  0.4383  0.1589
   88MPD2    H1 1375   1.585   4.258   1.285  0.8071 -0.4198  3.1318
   88MPD2    H2 1376   1.881   3.976   1.396 -1.5716 -0.0474  0.7898
   88MPD2    H3 1377   1.655   4.051   1.409  0.8887 -0.9433  0.1281
   88MPD2     N 1378   1.706   4.380   1.104  0.1280  0.5110 -0.4629
   88MPD2    H5 1379   1.608   4.406   1.115 -0.1201  0.6386 -3.1965
   88MPD2    N1 1380   2.063   4.067   1.226 -0.0448  0.3394  0.4421
   88MPD2    H7 1381   2.090   3.990   1.287  0.6167  0.2920  0.0956
   89TMC2    C1 1382   2.389   2.326   0.640 -0.3306  0.1257 -0.6086
   89TMC2    C2 1383   2.285   2.285   0.721 -0.1701 -0.0025  0.1780
   89TMC2    C3 1384   2.229   2.383   0.803 -0.8637 -0.2285  0.5986
   89TMC2    C4 1385   2.445   2.447   0.630 -0.0936  0.3415  0.3616
   89TMC2    C5 1386   2.402   2.535   0.728  0.1482  0.8951  0.1697
   89TMC2    C6 1387   2.292   2.507   0.802  0.0799 -0.5032 -0.2218
   89TMC2     C 1388   2.474   2.231   0.567  0.4474 -0.6803 -0.3298
   89TMC2     O 1389   2.515   2.265   0.460  0.3562 -0.5382 -0.4622
   89TMC2     H 1390   2.253   2.181   0.716 -1.1098  0.3483 -1.0962
   89TMC2    H1 1391   2.532   2.455   0.565  0.2589  3.8789  1.2860
   89TMC2    H2 1392   2.252   2.590   0.859 -0.1845 -0.5214 -0.3759
   89TMC2    C7 1393   2.433   2.677   0.706  0.5995  0.4996 -0.5571
   89TMC2    C8 1394   2.098   2.364   0.859  0.5716 -0.1707 -0.0325
   89TMC2    O1 1395   2.360   2.763   0.754  0.2905 -0.1021 -0.5212
   89TMC2    O2 1396   2.056   2.452   0.932 -0.1304 -0.2555 -0.0902
   89TMC2    O5 1397   2.019   2.299   0.770 -0.4428  0.1583 -0.0824
   89TMC2    H5 1398   2.051   2.246   0.695  3.4089  0.2245  1.5390
   90MPD2     C 1399   2.778   1.816   0.574  0.3918  0.0185  0.5192
   90MPD2    C1 1400   2.719   1.842   0.704 -0.1514 -0.2943  0.2897
   90MPD2    C2 1401   2.626   1.937   0.723  0.3708  0.2350 -0.2739
   90MPD2    C3 1402   2.592   2.018   0.616  0.4697 -0.3144  0.4327
   90MPD2    C4 1403   2.649   2.000   0.491 -0.1640  0.3226 -0.1077
   90MPD2    C5 1404   2.739   1.901   0.467 -0.0143  0.4402 -0.2306
   90MPD2     H 1405   2.579   1.951   0.820  1.3210  1.2136  0.0493
   90MPD2    H1 1406   2.619   2.061   0.406  1.8353  0.9184 -0.3783
   90MPD2    H2 1407   2.839   1.727   0.558 -1.4191 -1.2211  0.5290
   90MPD2    H3 1408   2.777   1.886   0.366 -3.2323 -0.5255 -1.3032
   90MPD2     N 1409   2.498   2.121   0.648 -0.0750 -0.1279  0.3503
   90MPD2    H5 1410   2.464   2.132   0.743 -1.6176 -3.7241  0.2222
   90MPD2    N1 1411   2.760   1.762   0.815  0.1904  0.4737  0.9315
   90MPD2    H7 1412   2.704   1.779   0.898  0.3409  2.3705  0.6253
   91TMC2    C1 1413   4.243   2.283  16.361 -0.7499 -0.1337 -0.1312
   91TMC2    C2 1414   4.308   2.311  16.476 -0.8646  0.1335  0.5652
   91TMC2    C3 1415   4.259   2.255  16.588 -0.3997 -0.5650  0.2607
   91TMC2    C4 1416   4.128   2.207  16.363 -0.0248  1.1015 -0.1655
   91TMC2    C5 1417   4.083   2.154  16.480  0.1855  0.0019  0.4524
   91TMC2    C6 1418   4.148   2.187  16.595 -0.1378  0.2604  0.4521
   91TMC2     C 1419   4.319   2.248  16.243 -0.2860  0.4597 -0.2758
   91TMC2     O 1420   4.262   2.231  16.138  0.5145  0.4095  0.4225
   91TMC2     H 1421   4.403   2.364  16.478 -0.6460 -0.1808 -1.4349
   91TMC2    H1 1422   4.085   2.179  16.267  0.9448 -0.6628 -0.0943
   91TMC2    H2 1423   4.115   2.148  16.691  2.2192 -1.9916  0.3440
   91TMC2    C7 1424   3.993   2.040  16.484  0.2096 -0.7331 -0.0867
   91TMC2    C8 1425   4.326   2.267  16.712 -0.8286 -0.5270 -0.2739
   91TMC2    O1 1426   3.974   1.990  16.593  0.0238 -0.1040 -0.2811
   91TMC2    O2 1427   4.280   2.205  16.810  0.6368 -0.4292  0.3448
   91TMC2    O5 1428   4.351   2.401  16.720  0.2391 -0.4101  0.5832
   91TMC2    H5 1429   4.326   2.449  16.639 -0.4609 -0.8865  0.5199
   92MPD2     C 1430   4.530   2.232  16.033  0.0888  0.5628 -1.0319
   92MPD2    C1 1431   4.549   2.215  16.169  0.4104  0.1494  0.4312
   92MPD2    C2 1432   4.681   2.166  16.196 -0.3367 -0.0480  0.5665
   92MPD2    C3 1433   0.041   2.136  16.097 -0.0286 -0.9363 -1.0577
   92MPD2    C4 1434   0.000   2.134  15.966  0.1042  0.0058  0.0784
   92MPD2    C5 1435   4.613   2.183  15.935  0.1045 -1.0145  0.1928
   92MPD2     H 1436   4.716   2.152  16.298 -1.3036 -0.4161  0.8499
   92MPD2    H1 1437   0.061   2.100  15.883 -0.2623  1.2297 -0.6967
   92MPD2    H2 1438   4.436   2.266  15.991 -1.5325 -0.8274  1.4822
   92MPD2    H3 1439   4.590   2.186  15.829  0.3955  2.3670  0.2126
   92MPD2     N 1440   0.162   2.077  16.143 -0.3669 -0.0107 -0.1000
   92MPD2    H5 1441   0.185   2.074  16.241  0.6281 -0.8100 -0.3579
   92MPD2    N1 1442   4.451   2.233  16.272  0.4825  0.0356 -0.1901
   92MPD2    H7 1443   4.483   2.228  16.368 -2.0030 -0.2900  0.6169
   93TMC2    C1 1444   1.447   1.895  13.862  0.1900 -0.4546  0.2126
   93TMC2    C2 1445   1.412   1.865  13.986  0.4763  0.5590  0.5104
   93TMC2    C3 1446   1.491   1.932  14.082 -0.2132 -0.7305 -0.1246
   93TMC2    C4 1447   1.556   1.967  13.825 -1.3911 -0.0402  0.0876
   93TMC2    C5 1448   1.632   2.023  13.925 -0.0068 -0.0988  0.4632
   93TMC2    C6 1449   1.596   2.022  14.055  1.1718 -0.4514 -0.3743
   93TMC2     C 1450   1.376   1.826  13.766  0.3856  0.4176 -0.0093
   93TMC2     O 1451   1.427   1.812  13.655 -0.3407 -0.5277  0.6628
   93TMC2     H 1452   1.339   1.791  14.017  1.4479  0.2749  2.0952
   93TMC2    H1 1453   1.592   1.969  13.723  0.8492  1.0304  0.9027
   93TMC2    H2 1454   1.646   2.077  14.134 -0.1547 -1.4350  1.1438
   93TMC2    C7 1455   1.755   2.088  13.889 -0.9161  0.2666 -0.2670
   93TMC2    C8 1456   1.417   1.966  14.199 -0.1574  0.0640  0.2205
   93TMC2    O1 1457   1.795   2.064  13.772 -0.7264  0.3757  0.5676
   93TMC2    O2 1458   1.391   2.084  14.216  0.3077 -0.2828 -0.2159
   93TMC2    O5 1459   1.372   1.859  14.271 -0.5013  0.5710  0.6348
   93TMC2    H5 1460   1.423   1.779  14.248  0.5263  1.1449  0.9074
   94MPD2     C 1461   1.201   1.626  13.642 -0.4663  0.3158 -0.9541
   94MPD2    C1 1462   1.158   1.724  13.726 -0.0810  0.0429 -1.0167
   94MPD2    C2 1463   1.027   1.747  13.743  0.2596  0.3958  0.6250
   94MPD2    C3 1464   0.931   1.674  13.671 -0.4570 -1.3654  0.4963
   94MPD2    C4 1465   0.979   1.579  13.585 -0.3029  0.0125  0.0873
   94MPD2    C5 1466   1.112   1.551  13.569 -1.0775 -0.6321  0.2089
   94MPD2     H 1467   0.998   1.816  13.821  0.4409  0.6296  0.4851
   94MPD2    H1 1468   0.906   1.513  13.539 -1.1801  0.9370  0.1439
   94MPD2    H2 1469   1.307   1.607  13.638 -0.1690  1.7097  0.2633
   94MPD2    H3 1470   1.139   1.466  13.508  0.4757  0.4515 -0.6105
   94MPD2     N 1471   0.794   1.684  13.687 -0.2406 -0.1773 -0.0800
   94MPD2    H5 1472   0.735   1.629  13.624  2.3949 -0.1734 -2.5873
   94MPD2    N1 1473   1.245   1.804  13.793 -0.1809 -0.5433  0.2568
   94MPD2    H7 1474   1.206   1.859  13.869 -0.3359  0.7577 -0.7677
   95TMC2    C1 1475   1.546   4.504  15.917 -0.1933 -0.2523 -0.7236
   95TMC2    C2 1476   1.558   4.411  16.013  0.4508 -0.2227 -0.8650
   95TMC2    C3 1477   1.494   4.430  16.135 -0.3157 -0.3330 -0.1458
   95TMC2    C4 1478   1.463   4.620  15.927  0.2115  0.2026  0.1728
   95TMC2    C5 1479   1.412   4.638  16.053  0.2410  0.2191  0.4929
   95TMC2    C6 1480   1.414   4.542  16.158  0.2606 -0.5392  0.1437
   95TMC2     C 1481   1.551   4.444  15.786 -0.2204 -0.1684  0.0947
   95TMC2     O 1482   1.636   4.357  15.773  0.4847  0.0345 -0.2938
   95TMC2     H 1483   1.618   4.322  16.000  0.3211 -0.0473 -2.6004
   95TMC2    H1 1484   1.452   4.691  15.846 -1.2237 -0.0860  0.1139
   95TMC2    H2 1485   1.373   4.568  16.255  0.9954  1.3322 -0.0554
   95TMC2    C7 1486   1.339   0.022  16.081  0.1030 -0.8944 -0.6099
   95TMC2    C8 1487   1.536   4.345  16.246 -0.2929 -0.5008  0.8020
   95TMC2    O1 1488   1.260   0.022  16.173 -0.6657  0.4389  0.1745
   95TMC2    O2 1489   1.652   4.306  16.263  0.6731 -0.1136 -0.2096
   95TMC2    O5 1490   1.428   4.308  16.320  0.3200  1.0333 -0.0746
   95TMC2    H5 1491   1.349   4.351  16.280  1.8361  3.0201 -0.9349
   96MPD2     C 1492   1.446   4.408  15.274 -0.2010  0.4975 -0.0632
   96MPD2    C1 1493   1.528   4.333  15.355 -0.7193 -0.0103  0.0126
   96MPD2    C2 1494   1.531   4.352  15.496  0.4546 -0.7512  0.4005
   96MPD2    C3 1495   1.468   4.458  15.551 -1.3437  0.0217 -0.7482
   96MPD2    C4 1496   1.388   4.536  15.469 -0.3771  0.3322  0.2321
   96MPD2    C5 1497   1.376   4.511  15.339  0.2258  0.0357 -0.4784
   96MPD2     H 1498   1.582   4.284  15.564  1.4935 -2.0352 -1.6895
   96MPD2    H1 1499   1.336   4.623  15.508 -1.9448 -0.8523  0.7982
   96MPD2    H2 1500   1.449   4.406  15.166  0.0863  3.4094 -0.1238
   96MPD2    H3 1501   1.304   4.564  15.277 -0.2472 -1.1159 -0.9215
   96MPD2     N 1502   1.468   4.487  15.689 -0.1480 -0.1586 -0.1681
   96MPD2    H5 1503   1.398   4.557  15.712  1.0562  0.5453  1.3022
   96MPD2    N1 1504   1.598   4.239  15.282  0.1247 -0.0705 -0.3553
   96MPD2    H7 1505   1.572   4.226  15.185 -1.5695  2.2627 -0.2109
   97TMC2    C1 1506   0.462   1.631   0.197 -0.5506  0.3332  0.1503
   97TMC2    C2 1507   0.575   1.598   0.264  0.1705 -0.7321  0.1252
   97TMC2    C3 1508   0.652   1.701   0.316  0.1811 -0.6868 -0.1827
   97TMC2    C4 1509   0.426   1.758   0.184  0.7336  0.1630 -0.4952
   97TMC2    C5 1510   0.515   1.856   0.219  0.0578 -0.1376  1.5225
   97TMC2    C6 1511   0.630   1.833   0.286 -0.1891  0.6535  0.8317
   97TMC2     C 1512   0.370   1.530   0.140  0.4387  0.0616  0.4699
   97TMC2     O 1513   0.259   1.581   0.106 -0.3184 -0.3932 -0.4249
   97TMC2     H 1514   0.598   1.493   0.281 -0.3687 -1.1746 -1.8242
   97TMC2    H1 1515   0.335   1.783   0.133  0.7578  4.1654  1.4146
   97TMC2    H2 1516   0.681   1.911   0.341 -1.4720 -0.1463  3.1595
   97TMC2    C7 1517   0.477   1.997   0.209 -0.4077 -0.4537 -0.5846
   97TMC2    C8 1518   0.698   1.690   0.448 -0.4957  0.5571  0.4253
   97TMC2    O1 1519   0.568   2.080   0.210 -0.4811  0.2728 -0.7390
   97TMC2    O2 1520   0.652   1.757   0.540 -1.0781 -0.6181  0.4152
   97TMC2    O5 1521   0.812   1.627   0.451  0.4560  0.1168 -0.1497
   97TMC2    H5 1522   0.828   1.578   0.368  0.2303  0.9796 -0.6950
   98MPD2     C 1523   0.166   1.063   0.231  0.3739  0.3253  0.8034
   98MPD2    C1 1524   0.119   1.188   0.239  0.0022 -0.2938 -0.1504
   98MPD2    C2 1525   0.196   1.304   0.206  0.4083  0.0254 -0.1288
   98MPD2    C3 1526   0.325   1.285   0.175  0.1487 -0.5480  0.2854
   98MPD2    C4 1527   0.370   1.160   0.165  0.9196  0.6464 -0.0541
   98MPD2    C5 1528   0.304   1.048   0.200 -0.3599 -0.3637 -0.2746
   98MPD2     H 1529   0.154   1.403   0.225 -0.9071 -0.5964  0.2030
   98MPD2    H1 1530   0.474   1.150   0.134  1.6925  1.4874  2.2607
   98MPD2    H2 1531   0.100   0.979   0.247 -0.0644  0.6770  0.8130
   98MPD2    H3 1532   0.347   0.949   0.204 -2.1663 -1.1673 -1.0793
   98MPD2     N 1533   0.409   1.398   0.154 -0.0060 -0.2898  0.1465
   98MPD2    H5 1534   0.508   1.382   0.168 -0.2376 -1.2747  0.6805
   98MPD2    N1 1535   4.715   1.202   0.278 -0.2904  0.5221  1.0380
   98MPD2    H7 1536   4.663   1.119   0.300 -1.1189  0.2651 -1.9191
   99TMC2    C1 1537   2.687   3.265   1.080 -0.2467 -0.0544 -0.1856
   99TMC2    C2 1538   2.775   3.365   1.110  0.1546 -0.5899  0.5493
   99TMC2    C3 1539   2.858   3.328   1.213  0.9008  0.3841  0.0489
   99TMC2    C4 1540   2.666   3.152   1.156  0.4138 -0.0342 -0.2592
   99TMC2    C5 1541   2.744   3.135   1.268  1.0112 -0.5811 -0.1306
   99TMC2    C6 1542   2.848   3.220   1.289  0.0176 -0.7816 -0.6046
   99TMC2     C 1543   2.585   3.310   0.984  0.5713  0.2574  0.2397
   99TMC2     O 1544   2.577   3.430   0.947 -0.2267 -0.0889 -0.3439
   99TMC2     H 1545   2.785   3.452   1.047  0.4406  0.4151  1.9680
   99TMC2    H1 1546   2.583   3.084   1.136 -1.2152  1.7419  0.4198
   99TMC2    H2 1547   2.922   3.203   1.366  0.9726  2.1097 -0.8843
   99TMC2    C7 1548   2.723   3.018   1.349 -0.4622  0.2323  0.1596
   99TMC2    C8 1549   2.971   3.419   1.237  0.2881 -0.1300 -0.4850
   99TMC2    O1 1550   2.822   2.971   1.400 -0.2443 -0.2432 -0.3916
   99TMC2    O2 1551   3.018   3.493   1.147 -0.6001 -0.4484 -0.1893
   99TMC2    O5 1552   2.966   3.452   1.367  0.3647 -0.2244 -0.6133
   99TMC2    H5 1553   2.900   3.399   1.417 -1.5847  1.6754 -1.2004
  100MPD2     C 1554   2.310   3.325   0.875 -0.0601  0.6749  0.4906
  100MPD2    C1 1555   2.385   3.207   0.875 -0.3556 -0.6069 -0.0922
  100MPD2    C2 1556   2.335   3.089   0.840 -0.0520 -0.4132 -0.1515
  100MPD2    C3 1557   2.208   3.083   0.782  0.0667  0.2049  0.4918
  100MPD2    C4 1558   2.133   3.200   0.780 -0.1817 -0.3429 -0.3134
  100MPD2    C5 1559   2.185   3.312   0.826 -0.5112 -0.4205  0.2102
  100MPD2     H 1560   2.401   3.003   0.834  1.9500  1.1971 -0.9333
  100MPD2    H1 1561   2.033   3.202   0.740 -0.5791  0.1880  0.6962
  100MPD2    H2 1562   2.338   3.426   0.901 -0.0128  0.6383  0.5805
  100MPD2    H3 1563   2.118   3.396   0.818 -0.1873 -0.2573 -0.7482
  100MPD2     N 1564   2.170   2.957   0.730  0.2580 -0.7990 -0.1262
  100MPD2    H5 1565   2.234   2.880   0.745 -0.7570 -1.3724  1.2240
  100MPD2    N1 1566   2.510   3.201   0.941 -0.2132 -0.2830 -0.3291
  100MPD2    H7 1567   2.542   3.107   0.960 -0.2189  0.4019  3.1468
  101TMC2    C1 1568   2.316   0.107  12.806  0.3640 -0.1799 -0.4794
  101TMC2    C2 1569   2.206   0.171  12.858  0.7455  0.2175  0.6315
  101TMC2    C3 1570   2.213   0.304  12.881 -0.0544 -0.3869  0.0052
  101TMC2    C4 1571   2.426   0.181  12.764 -0.6523 -0.6941  0.0241
  101TMC2    C5 1572   2.421   0.319  12.774  0.6305 -0.1812  0.1414
  101TMC2    C6 1573   2.316   0.384  12.833 -0.4345 -0.5267 -0.5950
  101TMC2     C 1574   2.332   4.707  12.868  0.3078 -0.6250  0.0533
  101TMC2     O 1575   2.258   4.669  12.958 -0.5479  0.0446  0.3547
  101TMC2     H 1576   2.116   0.114  12.873  2.3141 -2.0716  1.3594
  101TMC2    H1 1577   2.512   0.130  12.721 -1.3239 -2.1349  0.3768
  101TMC2    H2 1578   2.317   0.491  12.847 -5.0464 -0.6060  0.4067
  101TMC2    C7 1579   2.530   0.399  12.718 -0.8731  0.9728  0.4654
  101TMC2    C8 1580   2.088   0.354  12.931  0.2957  0.5942 -0.0703
  101TMC2    O1 1581   2.498   0.508  12.671  0.2443 -0.1001  0.7269
  101TMC2    O2 1582   2.028   0.293  13.015 -0.1273 -0.3759  0.8835
  101TMC2    O5 1583   2.090   0.488  12.916 -0.0933  0.4962  0.0308
  101TMC2    H5 1584   2.137   0.521  12.836 -2.0141  0.2889 -1.1811
  102MPD2     C 1585   2.583   4.448  12.777  0.5328  0.4070  0.1593
  102MPD2    C1 1586   2.477   4.495  12.842 -0.0234 -0.5654  0.0534
  102MPD2    C2 1587   2.415   4.426  12.943  0.3315  0.5354  0.2439
  102MPD2    C3 1588   2.458   4.301  12.973 -0.5173 -0.4194 -0.4775
  102MPD2    C4 1589   2.567   4.254  12.901 -0.3787  0.0303 -0.1802
  102MPD2    C5 1590   2.632   4.325  12.805 -0.7452 -0.2884 -1.1282
  102MPD2     H 1591   2.339   4.468  13.008 -1.0096  0.9270 -1.5788
  102MPD2    H1 1592   2.595   4.150  12.916  0.8370  0.2213 -1.1446
  102MPD2    H2 1593   2.616   4.498  12.686 -0.9050  1.4687  0.2212
  102MPD2    H3 1594   2.707   4.284  12.739  1.4041 -1.2897  1.8921
  102MPD2     N 1595   2.385   4.226  13.065 -0.4256 -0.0510 -0.6644
  102MPD2    H5 1596   2.299   4.264  13.103  0.3609  0.8772  0.1774
  102MPD2    N1 1597   2.436   4.627  12.809 -0.0598  0.5019  0.3044
  102MPD2    H7 1598   2.487   4.677  12.738 -0.5271 -1.8168 -1.6659
  103TMC2    C1 1599   1.034   4.430  12.764  0.0011  1.0074  0.2205
  103TMC2    C2 1600   1.120   4.483  12.668  0.1812 -0.5844 -0.2323
  103TMC2    C3 1601   1.230   4.561  12.701  0.8392 -0.7890  0.0715
  103TMC2    C4 1602   1.055   4.463  12.899  0.6721 -0.3132 -0.1122
  103TMC2    C5 1603   1.162   4.539  12.933 -0.6101  0.7358 -0.2462
  103TMC2    C6 1604   1.242   4.592  12.833  0.2086  0.1228  0.4529
  103TMC2     C 1605   0.896   4.428  12.717  0.3976 -0.5592 -0.0443
  103TMC2     O 1606   0.862   4.508  12.630 -0.2681  0.9799 -0.3193
  103TMC2     H 1607   1.101   4.456  12.565  0.0661 -1.6908  0.0683
  103TMC2    H1 1608   0.977   4.451  12.973 -0.9901  0.1636 -1.7790
  103TMC2    H2 1609   1.337   4.637  12.861  0.0938 -0.8032  2.3430
  103TMC2    C7 1610   1.143   4.598  13.065  0.0081 -0.1890  0.1931
  103TMC2    C8 1611   1.312   4.632  12.602 -0.0388  0.5137  0.3466
  103TMC2    O1 1612   1.118   4.516  13.152 -0.0913  0.6001 -0.1859
  103TMC2    O2 1613   1.345   4.588  12.493 -0.2638  0.1909  0.1613
  103TMC2    O5 1614   1.305   0.029  12.639  0.3810  0.0623 -0.1166
  103TMC2    H5 1615   1.272   0.057  12.727  0.8144  1.5236 -0.4120
  104MPD2     C 1616   0.630   4.240  12.880  0.3941 -0.1648 -0.0651
  104MPD2    C1 1617   0.686   4.324  12.786  0.4719  0.2617 -0.2846
  104MPD2    C2 1618   0.607   4.369  12.682 -0.5776 -0.3804  0.1179
  104MPD2    C3 1619   0.480   4.332  12.661 -0.4310  0.9800 -0.5045
  104MPD2    C4 1620   0.425   4.254  12.763  0.0077 -0.2692 -0.1582
  104MPD2    C5 1621   0.499   4.222  12.872 -0.7796  0.9031 -0.6460
  104MPD2     H 1622   0.652   4.428  12.602  0.7919  1.8613  2.5740
  104MPD2    H1 1623   0.320   4.225  12.765  0.8613 -3.2383  1.8329
  104MPD2    H2 1624   0.680   4.224  12.975 -0.9414  0.8729  0.8199
  104MPD2    H3 1625   0.459   4.171  12.959  0.0851  0.9783 -0.2026
  104MPD2     N 1626   0.410   4.379  12.547  0.6395 -0.2479  0.1151
  104MPD2    H5 1627   0.454   4.443  12.482  2.7093 -0.0556  1.6847
  104MPD2    N1 1628   0.821   4.344  12.799 -0.1265  0.6532 -0.0287
  104MPD2    H7 1629   0.869   4.294  12.872  0.2958  2.1077  0.6994
  105TMC2    C1 1630   3.050   4.215   0.337  0.1216 -0.1290  0.4951
  105TMC2    C2 1631   3.110   4.288   0.240 -0.1296 -0.0451  0.8103
  105TMC2    C3 1632   3.153   4.410   0.279  0.0803  0.7844  0.4095
  105TMC2    C4 1633   3.032   4.263   0.465  0.9193  0.2035 -0.6270
  105TMC2    C5 1634   3.068   4.393   0.494  0.3913 -0.1898 -0.3291
  105TMC2    C6 1635   3.137   4.469   0.401 -1.5504 -0.3557 -1.0498
  105TMC2     C 1636   3.014   4.074   0.325 -0.1648  0.3165 -0.8210
  105TMC2     O 1637   3.005   3.997   0.419  1.0195 -0.6245 -0.4412
  105TMC2     H 1638   3.125   4.260   0.136 -1.2669 -2.0998  1.2103
  105TMC2    H1 1639   2.970   4.201   0.529  0.0410 -0.3362 -1.9989
  105TMC2    H2 1640   3.156   4.574   0.418  0.2147 -0.9228  0.3927
  105TMC2    C7 1641   3.046   4.432   0.633 -0.3649  0.0508 -0.0957
  105TMC2    C8 1642   3.155   4.501   0.165  0.1291 -0.1785  0.2623
  105TMC2    O1 1643   3.092   4.537   0.675 -0.5860  0.1888 -0.3005
  105TMC2    O2 1644   3.104   4.479   0.053 -0.1521 -0.3158 -0.1808
  105TMC2    O5 1645   3.244   4.595   0.200  0.0472 -0.1537  0.1720
  105TMC2    H5 1646   3.292   4.589   0.285  1.0740 -0.4128 -0.4224
  106MPD2     C 1647   2.981   3.678  17.738 -0.0564  0.5487 -0.1767
  106MPD2    C1 1648   3.024   3.790  17.669  0.2212 -0.2820 -0.2054
  106MPD2    C2 1649   3.042   3.911   0.001 -0.1569  0.0140  0.0565
  106MPD2    C3 1650   3.012   3.918   0.132 -0.5999  0.3277  0.8087
  106MPD2    C4 1651   2.965   3.811   0.199  0.1944 -0.3522 -0.0946
  106MPD2    C5 1652   2.962   3.691   0.135 -0.6743 -0.4990 -0.4613
  106MPD2     H 1653   3.080   3.996  17.684 -0.0459  0.1676  0.3718
  106MPD2    H1 1654   2.933   3.811   0.303  2.8481 -0.4490  0.7476
  106MPD2    H2 1655   2.932   3.596  17.687 -0.7778 -0.5742  2.3306
  106MPD2    H3 1656   2.914   3.608   0.186  1.5951 -1.5790 -0.0583
  106MPD2     N 1657   3.018   4.044   0.190 -0.2492  1.0762  0.0625
  106MPD2    H5 1658   3.033   4.124   0.130  0.2963 -0.3117 -1.6414
  106MPD2    N1 1659   3.040   3.794  17.527  0.1798 -0.2829 -0.6635
  106MPD2    H7 1660   3.043   3.885  17.484 -0.7617 -0.5918 -1.3928
  107TMC2    C1 1661   2.910   3.804  11.477 -0.7754  0.9955 -0.3408
  107TMC2    C2 1662   2.914   3.938  11.509 -0.1962 -0.1150 -0.3534
  107TMC2    C3 1663   3.025   4.003  11.459  0.2378  0.1435  0.3461
  107TMC2    C4 1664   3.004   3.743  11.395 -1.0306  0.5276  0.0267
  107TMC2    C5 1665   3.110   3.816  11.347 -0.4821  0.5762  0.3752
  107TMC2    C6 1666   3.121   3.953  11.379  0.2081 -0.9127 -0.4741
  107TMC2     C 1667   2.842   3.728  11.586 -0.1109  0.1411  0.1334
  107TMC2     O 1668   2.784   3.798  11.667  0.4064  0.3118  0.3784
  107TMC2     H 1669   2.839   3.993  11.563  1.0889  1.5606 -0.2655
  107TMC2    H1 1670   2.992   3.636  11.378 -2.3844  0.5298  0.8953
  107TMC2    H2 1671   3.196   4.014  11.329 -0.7608  2.0000  1.6165
  107TMC2    C7 1672   3.195   3.764  11.235 -0.2203  0.0886 -0.3103
  107TMC2    C8 1673   3.032   4.137  11.517  0.1157 -0.2011 -0.6127
  107TMC2    O1 1674   3.157   3.655  11.194 -0.1714  0.2913 -0.1969
  107TMC2    O2 1675   2.937   4.201  11.553 -0.0147  0.2217  0.1031
  107TMC2    O5 1676   3.155   4.179  11.506 -0.0664  0.5714 -0.2508
  107TMC2    H5 1677   3.220   4.106  11.495  0.8545  1.2716  0.4724
  108MPD2     C 1678   2.782   3.370  11.637  0.4510  0.7613 -1.0236
  108MPD2    C1 1679   2.789   3.503  11.663  0.3164 -0.0150  0.3452
  108MPD2    C2 1680   2.765   3.535  11.797 -0.3320  0.0955 -0.6078
  108MPD2    C3 1681   2.720   3.450  11.890 -0.0700 -0.1184 -0.6714
  108MPD2    C4 1682   2.719   3.314  11.855 -0.0485 -0.5154 -0.1474
  108MPD2    C5 1683   2.754   3.274  11.729 -0.6110  0.1020  0.2448
  108MPD2     H 1684   2.796   3.636  11.823  1.0944 -0.3219 -0.6764
  108MPD2    H1 1685   2.698   3.237  11.927 -0.5152  0.3478  0.6458
  108MPD2    H2 1686   2.815   3.338  11.539 -1.0880 -2.4597 -0.4676
  108MPD2    H3 1687   2.759   3.169  11.700 -0.2789  0.0992  0.3173
  108MPD2     N 1688   2.690   3.485  12.027  0.2522  0.3566 -0.2599
  108MPD2    H5 1689   2.670   3.404  12.083  0.0766 -0.0348 -0.8857
  108MPD2    N1 1690   2.838   3.590  11.572  0.0193  0.4373 -0.8200
  108MPD2    H7 1691   2.855   3.554  11.479  0.5118 -1.0341 -0.1629
  109TMC2    C1 1692   4.423   1.135   1.522  0.0855 -0.2876 -0.1765
  109TMC2    C2 1693   4.554   1.162   1.533  0.3847 -0.6349 -0.4077
  109TMC2    C3 1694   4.626   1.171   1.416  0.2759 -0.2823 -0.3563
  109TMC2    C4 1695   4.358   1.128   1.400 -0.1368  0.1598  0.2946
  109TMC2    C5 1696   4.426   1.168   1.285 -0.4168  0.3890  0.5574
  109TMC2    C6 1697   4.567   1.187   1.290  0.7479  0.0328  0.2207
  109TMC2     C 1698   4.349   1.089   1.638 -0.0185 -0.1763 -0.3595
  109TMC2     O 1699   4.405   1.072   1.745 -0.0125 -0.0859  0.6172
  109TMC2     H 1700   4.601   1.151   1.630  1.9788 -1.5912 -1.2959
  109TMC2    H1 1701   4.256   1.094   1.387  1.1229 -3.1250 -1.0268
  109TMC2    H2 1702   4.626   1.202   1.201  0.3735  0.7857  0.0963
  109TMC2    C7 1703   4.372   1.148   1.151 -0.0157 -0.2407  0.1217
  109TMC2    C8 1704   0.029   1.212   1.428  0.1636 -0.4174 -0.4572
  109TMC2    O1 1705   4.460   1.132   1.066 -0.1442  0.8893  0.2296
  109TMC2    O2 1706   0.072   1.303   1.367 -0.0013  0.0250  0.1357
  109TMC2    O5 1707   0.079   1.158   1.547 -0.2327  0.4556 -0.6476
  109TMC2    H5 1708   0.045   1.071   1.578  0.9320  0.5059  0.7663
  110MPD2     C 1709   3.970   0.783   1.802  0.4529 -0.6242 -0.4355
  110MPD2    C1 1710   3.916   0.862   1.699  0.5727 -0.1958 -0.4459
  110MPD2    C2 1711   4.003   0.961   1.651  0.8605 -0.3181  0.6967
  110MPD2    C3 1712   4.138   0.971   1.680  0.1656 -0.4780 -0.1513
  110MPD2    C4 1713   4.181   0.892   1.791 -0.0272  0.8818 -0.4329
  110MPD2    C5 1714   4.096   0.802   1.852  0.1001 -0.0369 -1.4473
  110MPD2     H 1715   3.989   1.016   1.559 -0.8296 -2.2830 -0.2048
  110MPD2    H1 1716   4.285   0.886   1.818 -0.4366 -1.7217  0.5407
  110MPD2    H2 1717   3.916   0.698   1.841  1.2732 -1.4828 -1.1868
  110MPD2    H3 1718   4.138   0.744   1.934 -0.3998 -0.5246 -1.5372
  110MPD2     N 1719   4.213   1.068   1.612 -0.7773 -0.0909 -0.4614
  110MPD2    H5 1720   4.165   1.124   1.542 -3.4144  0.5306  1.8587
  110MPD2    N1 1721   3.783   0.829   1.647 -0.4347  0.1444 -0.8930
  110MPD2    H7 1722   3.756   0.734   1.672  0.2012  0.0361 -0.5904
  111TMC2    C1 1723   2.933   0.538  12.071 -1.4206  0.2259 -0.2214
  111TMC2    C2 1724   2.830   0.442  12.080  0.1905 -0.0486  0.7801
  111TMC2    C3 1725   2.859   0.333  12.157  0.1271  0.0013 -0.4734
  111TMC2    C4 1726   3.055   0.515  12.123 -0.4150 -0.0289  0.1158
  111TMC2    C5 1727   3.090   0.387  12.160 -0.6824  0.0290 -0.0107
  111TMC2    C6 1728   2.992   0.299  12.185 -0.2632  0.1157  0.7245
  111TMC2     C 1729   2.896   0.670  12.014  0.0750 -0.5451  0.2539
  111TMC2     O 1730   2.967   0.715  11.932 -0.0493 -0.1569 -0.0708
  111TMC2     H 1731   2.727   0.463  12.054  0.7821  0.7252 -0.9618
  111TMC2    H1 1732   3.131   0.591  12.135 -2.1662  1.4944  1.6271
  111TMC2    H2 1733   3.013   0.200  12.225  2.1975  0.4463  0.2377
  111TMC2    C7 1734   3.195   0.383  12.257 -0.3276 -0.5847 -0.2054
  111TMC2    C8 1735   2.754   0.239  12.186 -0.1002  0.1038 -0.4247
  111TMC2    O1 1736   3.173   0.322  12.361  0.4865 -0.1744 -0.1912
  111TMC2    O2 1737   2.645   0.235  12.125  0.5111  0.0017  0.2761
  111TMC2    O5 1738   2.786   0.164  12.294  0.5780  0.4894  1.0393
  111TMC2    H5 1739   2.867   0.198  12.337 -0.4444  3.6162  0.4537
  112MPD2     C 1740   2.549   1.013  11.879  0.4118 -0.1452 -0.1506
  112MPD2    C1 1741   2.651   0.955  11.804  0.1767 -0.2522 -0.2268
  112MPD2    C2 1742   2.725   0.854  11.864 -0.7179  0.5349 -0.9412
  112MPD2    C3 1743   2.697   0.814  11.992  0.3218  0.0806  0.7466
  112MPD2    C4 1744   2.593   0.870  12.069  0.6174  0.3860 -0.2554
  112MPD2    C5 1745   2.523   0.973  12.009 -0.4662  0.1226  0.4964
  112MPD2     H 1746   2.800   0.804  11.804  2.2923  3.0552  0.7573
  112MPD2    H1 1747   2.566   0.826  12.164 -2.4155  1.5158 -0.5858
  112MPD2    H2 1748   2.474   1.083  11.844  1.4990  1.5945  1.0113
  112MPD2    H3 1749   2.431   1.021  12.044 -0.9845 -0.9416  0.5898
  112MPD2     N 1750   2.776   0.715  12.054 -0.0794  0.5278  0.4274
  112MPD2    H5 1751   2.742   0.689  12.147  0.6430  1.3588  0.9209
  112MPD2    N1 1752   2.699   1.005  11.675  0.2347 -0.0732 -0.4826
  112MPD2    H7 1753   2.799   0.994  11.656  0.3977  0.8084 -0.1391
  113TMC2    C1 1754   1.582   2.931   1.020  0.1151 -0.1675  0.3635
  113TMC2    C2 1755   1.489   2.976   1.105 -0.0836  0.9711 -0.9562
  113TMC2    C3 1756   1.363   2.921   1.095 -0.5180 -0.1117  0.6629
  113TMC2    C4 1757   1.559   2.846   0.915 -0.5258  0.6394  0.7021
  113TMC2    C5 1758   1.437   2.790   0.914  0.3340 -0.5789 -0.3820
  113TMC2    C6 1759   1.338   2.817   1.006  0.0716  0.4132 -0.7234
  113TMC2     C 1760   1.712   2.955   1.058  0.1115 -0.1339  0.1262
  113TMC2     O 1761   1.718   3.034   1.149 -0.1690  0.0629 -0.8261
  113TMC2     H 1762   1.508   3.021   1.201  1.0276 -1.2391 -0.1409
  113TMC2    H1 1763   1.635   2.820   0.842  0.1280  1.9839  0.8943
  113TMC2    H2 1764   1.237   2.779   0.996 -0.1386  0.0951  2.7442
  113TMC2    C7 1765   1.406   2.700   0.806 -0.3559  0.6090  0.6290
  113TMC2    C8 1766   1.254   2.971   1.169  0.2337  0.4957 -0.1334
  113TMC2    O1 1767   1.486   2.694   0.718  0.0695  0.8673 -0.2027
  113TMC2    O2 1768   1.154   2.910   1.198  0.1523 -0.2576  0.0539
  113TMC2    O5 1769   1.265   3.104   1.208  0.3011 -0.0707 -0.4407
  113TMC2    H5 1770   1.355   3.139   1.191  0.2846 -0.8285 -2.0457
  114MPD2     C 1771   2.209   2.936   1.107 -0.3697  0.2457  0.8581
  114MPD2    C1 1772   2.120   3.041   1.118 -0.6303  0.4674  0.4189
  114MPD2    C2 1773   1.991   3.017   1.082  0.2791 -0.0551  0.1287
  114MPD2    C3 1774   1.942   2.893   1.037  0.1539  0.3224  0.6129
  114MPD2    C4 1775   2.036   2.796   1.011 -0.2438  0.1186 -0.0613
  114MPD2    C5 1776   2.169   2.819   1.054 -0.0587  0.4594  0.5417
  114MPD2     H 1777   1.927   3.103   1.094 -2.0359 -1.6670 -0.8202
  114MPD2    H1 1778   2.014   2.695   0.976 -2.2468 -0.2981  2.4450
  114MPD2    H2 1779   2.315   2.943   1.131  0.3319 -2.8872 -1.3350
  114MPD2    H3 1780   2.240   2.738   1.065 -1.0911 -0.8891 -2.5130
  114MPD2     N 1781   1.808   2.868   1.017 -0.0175  0.2320  0.6062
  114MPD2    H5 1782   1.788   2.774   0.985 -1.3793  0.7252 -0.0007
  114MPD2    N1 1783   2.158   3.176   1.163 -0.5105 -0.1805  0.4167
  114MPD2    H7 1784   2.082   3.242   1.173 -0.7002 -0.5904  1.6757
  115TMC2    C1 1785   2.556   0.658  17.626  0.0604  0.3757  0.4137
  115TMC2    C2 1786   2.616   0.562  17.705  0.4517 -0.0088 -0.2332
  115TMC2    C3 1787   2.717   0.598   0.048  0.0150  0.3828  0.5876
  115TMC2    C4 1788   2.609   0.786  17.620 -1.2982 -0.2679 -0.3461
  115TMC2    C5 1789   2.718   0.813  17.694  0.2660  0.0959  0.3777
  115TMC2    C6 1790   2.780   0.716   0.036 -0.7521 -0.2422 -0.1081
  115TMC2     C 1791   2.444   0.607  17.539  0.0059 -0.1213  0.0551
  115TMC2     O 1792   2.404   0.496  17.570 -0.0542  0.0990  0.2866
  115TMC2     H 1793   2.573   0.462  17.702 -0.5667  0.4683 -1.2750
  115TMC2    H1 1794   2.565   0.869  17.565 -0.5345  0.8130  0.6685
  115TMC2    H2 1795   2.863   0.744   0.100 -0.3989 -0.3453 -0.5306
  115TMC2    C7 1796   2.794   0.935  17.674  0.4709 -0.1751 -0.5976
  115TMC2    C8 1797   2.805   0.500   0.107  0.0520 -0.5588  0.3154
  115TMC2    O1 1798   2.861   0.980   0.029  0.1739  0.1865 -0.1827
  115TMC2    O2 1799   2.926   0.518   0.125  0.3956  0.0349 -0.3856
  115TMC2    O5 1800   2.718   0.425   0.180 -0.6343  0.4070 -0.6265
  115TMC2    H5 1801   2.625   0.433   0.149 -0.5069  2.2205 -0.5104
  116MPD2     C 1802   2.171   0.620  17.123  1.0197 -0.4139  0.2946
  116MPD2    C1 1803   2.179   0.518  17.216  0.3395  0.1826 -0.5723
  116MPD2    C2 1804   2.269   0.536  17.322 -0.3661  0.1437  0.2997
  116MPD2    C3 1805   2.329   0.662  17.332  0.5559 -0.2822  0.4615
  116MPD2    C4 1806   2.319   0.760  17.245  0.8512 -0.3485  0.4230
  116MPD2    C5 1807   2.231   0.740  17.143 -0.3462 -0.4880  0.1276
  116MPD2     H 1808   2.280   0.458  17.396  1.6646  0.9552  0.8493
  116MPD2    H1 1809   2.369   0.855  17.256  1.0016 -0.6472  2.2377
  116MPD2    H2 1810   2.102   0.616  17.040  1.6730 -0.8516 -0.2340
  116MPD2    H3 1811   2.206   0.812  17.066 -0.4438  1.9329  2.4206
  116MPD2     N 1812   2.419   0.691  17.435  0.0663  0.3837  0.3922
  116MPD2    H5 1813   2.479   0.772  17.427 -1.5457  1.5402  0.2283
  116MPD2    N1 1814   2.119   0.396  17.180 -0.2045  0.2519 -0.2587
  116MPD2    H7 1815   2.079   0.409  17.087 -0.3964 -1.6345 -0.4308
  117TMC2    C1 1816   1.010   2.069  14.193 -0.5929 -0.0045  0.7680
  117TMC2    C2 1817   0.984   1.956  14.259  0.0596 -0.5089 -0.2639
  117TMC2    C3 1818   0.913   1.965  14.377 -0.0820  0.2542 -0.3692
  117TMC2    C4 1819   0.981   2.190  14.236 -0.1929  0.0922  0.6576
  117TMC2    C5 1820   0.912   2.192  14.356  0.4063 -0.0892  0.3155
  117TMC2    C6 1821   0.876   2.086  14.430  0.3254  0.3684 -1.0986
  117TMC2     C 1822   1.043   2.064  14.049 -0.1356 -0.4604 -0.2849
  117TMC2     O 1823   1.101   1.966  14.003  0.1042  0.0641 -0.5763
  117TMC2     H 1824   1.022   1.863  14.218  2.0879  0.6823 -1.0596
  117TMC2    H1 1825   1.022   2.284  14.201 -0.6010  0.1457  0.3186
  117TMC2    H2 1826   0.830   2.087  14.528 -0.1332  1.0004 -1.3161
  117TMC2    C7 1827   0.889   2.330  14.406 -0.3210 -0.3961  0.5996
  117TMC2    C8 1828   0.881   1.845  14.445  0.7058 -0.1447 -0.0374
  117TMC2    O1 1829   0.962   2.418  14.364 -0.4569  0.5127  0.4406
  117TMC2    O2 1830   0.864   1.839  14.565 -0.1849 -0.4698  0.0250
  117TMC2    O5 1831   0.822   1.764  14.357  0.7330 -0.0119 -0.4455
  117TMC2    H5 1832   0.830   1.801  14.266 -0.2991  2.0732  0.2935
  118MPD2     C 1833   0.573   2.449  14.546  0.8624 -1.0656  0.4386
  118MPD2    C1 1834   0.707   2.452  14.507  0.1279 -0.7201  0.7249
  118MPD2    C2 1835   0.761   2.578  14.494 -0.6658  0.0031  0.4702
  118MPD2    C3 1836   0.688   2.699  14.515  0.3107  0.7330  0.1283
  118MPD2    C4 1837   0.554   2.686  14.559  0.4795  0.0722 -0.2012
  118MPD2    C5 1838   0.503   2.561  14.578  0.0683 -0.4428 -0.2837
  118MPD2     H 1839   0.865   2.593  14.468  0.2778 -1.3894  3.4543
  118MPD2    H1 1840   0.491   2.772  14.582 -0.2445 -0.7475  0.8830
  118MPD2    H2 1841   0.532   2.350  14.563 -0.3842 -1.2625 -3.7829
  118MPD2    H3 1842   0.402   2.552  14.617 -0.1965 -0.8354 -1.0621
  118MPD2     N 1843   0.724   2.823  14.479  0.4652 -0.1159  0.3740
  118MPD2    H5 1844   0.659   2.898  14.502 -1.3959 -1.7880  0.4859
  118MPD2    N1 1845   0.766   2.336  14.463  0.2164 -0.1358 -0.7409
  118MPD2    H7 1846   0.719   2.252  14.497 -0.0300  0.1777 -0.3123
  119TMC2    C1 1847   3.715   2.846  13.300  1.0963 -0.3478  0.2236
  119TMC2    C2 1848   3.723   2.733  13.220  0.5874  0.3620  0.4192
  119TMC2    C3 1849   3.686   2.612  13.275 -0.1837 -0.2916  0.2454
  119TMC2    C4 1850   3.670   2.824  13.429 -0.2202  0.3480 -0.6433
  119TMC2    C5 1851   3.626   2.704  13.480  0.0039  0.0798 -0.3824
  119TMC2    C6 1852   3.639   2.596  13.401 -0.4193  0.4282 -0.1683
  119TMC2     C 1853   3.704   2.981  13.247  0.3843 -0.2314 -0.1845
  119TMC2     O 1854   3.659   3.064  13.327  0.7264 -0.2134  0.2050
  119TMC2     H 1855   3.728   2.744  13.113  0.2250 -2.1024  0.1406
  119TMC2    H1 1856   3.659   2.904  13.502  2.0389  1.5608 -1.6153
  119TMC2    H2 1857   3.569   2.516  13.418  1.7302 -1.1376  1.2892
  119TMC2    C7 1858   3.482   2.725  13.501 -0.0874  0.2087 -0.8804
  119TMC2    C8 1859   3.688   2.494  13.188  0.2189 -0.1539  0.1931
  119TMC2    O1 1860   3.416   2.694  13.406 -0.1486 -0.3628 -0.1195
  119TMC2    O2 1861   3.690   2.509  13.069  0.1597  0.0403 -0.0612
  119TMC2    O5 1862   3.716   2.383  13.256 -0.4265 -0.6571 -0.1202
  119TMC2    H5 1863   3.709   2.398  13.353 -1.0253  0.1668 -0.2981
  120MPD2     C 1864   3.792   3.398  12.971  0.3224 -0.0356  0.2262
  120MPD2    C1 1865   3.689   3.365  13.053 -0.2222 -0.0568 -0.0691
  120MPD2    C2 1866   3.678   3.235  13.103 -0.1490  0.1675  0.4985
  120MPD2    C3 1867   3.770   3.141  13.070  0.1525  0.2969  0.4400
  120MPD2    C4 1868   3.882   3.174  13.001 -0.0628 -0.5963 -0.3563
  120MPD2    C5 1869   3.885   3.297  12.943 -0.5820  0.2540  0.8099
  120MPD2     H 1870   3.587   3.204  13.152 -1.7917  0.8291 -2.1133
  120MPD2    H1 1871   3.959   3.102  12.976  0.7804 -0.6702  2.4617
  120MPD2    H2 1872   3.803   3.498  12.929 -0.4346  0.7565  1.9134
  120MPD2    H3 1873   3.979   3.323  12.898 -1.0766  0.3772 -0.1491
  120MPD2     N 1874   3.774   3.009  13.132 -0.0713  0.3913 -0.5174
  120MPD2    H5 1875   3.834   2.938  13.092  0.0623 -0.1980  0.7393
  120MPD2    N1 1876   3.593   3.473  13.081 -0.0031 -0.2579  0.2615
  120MPD2    H7 1877   3.613   3.560  13.034  1.9569 -0.3877  0.8429
  121TMC2    C1 1878   0.224   0.397  14.006 -0.4877 -0.2898 -0.3878
  121TMC2    C2 1879   0.224   0.301  14.104 -0.0520  0.0796  0.5637
  121TMC2    C3 1880   0.107   0.263  14.172 -0.1936 -0.0336 -0.3075
  121TMC2    C4 1881   0.109   0.451  13.969 -0.3067 -0.2233 -0.2520
  121TMC2    C5 1882   4.725   0.413  14.031  0.1059  0.4984  0.0837
  121TMC2    C6 1883   4.722   0.319  14.136  0.7898 -0.1526 -0.3687
  121TMC2     C 1884   0.356   0.450  13.969 -0.0963 -0.2880 -1.1233
  121TMC2     O 1885   0.449   0.430  14.046  0.1150  0.7592 -0.0518
  121TMC2     H 1886   0.312   0.257  14.149  2.0455  1.8115 -1.8545
  121TMC2    H1 1887   0.119   0.518  13.885  0.4692 -0.8768 -0.6892
  121TMC2    H2 1888   4.632   0.306  14.194  3.9630  1.1017  4.7921
  121TMC2    C7 1889   4.605   0.480  13.982 -0.3497  0.4468  0.1653
  121TMC2    C8 1890   0.109   0.130  14.233 -0.5163 -0.7212 -0.0032
  121TMC2    O1 1891   4.630   0.569  13.905  0.0642 -1.0468 -0.2754
  121TMC2    O2 1892   0.209   0.079  14.281  0.3568  0.1157 -0.4604
  121TMC2    O5 1893   4.717   0.077  14.221  0.5232  0.3178 -0.1627
  121TMC2    H5 1894   4.675   0.098  14.135  1.2104  0.3766 -0.4809
  122MPD2     C 1895   0.574   0.642  13.895  0.0538  1.0711 -0.4120
  122MPD2    C1 1896   0.451   0.637  13.833  0.2146 -1.3127  0.2081
  122MPD2    C2 1897   0.422   0.721  13.731 -0.0206  0.5036  0.2786
  122MPD2    C3 1898   0.508   0.819  13.690 -0.0439 -0.0609  0.2825
  122MPD2    C4 1899   0.630   0.829  13.759 -0.4237  0.3529  0.2980
  122MPD2    C5 1900   0.654   0.746  13.869 -0.4973  0.7799  0.6279
  122MPD2     H 1901   0.325   0.721  13.683 -0.3566  0.4775  0.9539
  122MPD2    H1 1902   0.686   0.921  13.749  1.4765 -0.5891  2.3173
  122MPD2    H2 1903   0.608   0.582  13.979 -0.9887 -0.3401 -1.0164
  122MPD2    H3 1904   0.745   0.757  13.927  0.4037 -1.6951 -0.2997
  122MPD2     N 1905   0.481   0.905  13.577  0.0847  0.5351  0.7467
  122MPD2    H5 1906   0.555   0.968  13.547 -1.4106  1.0282 -1.9781
  122MPD2    N1 1907   0.354   0.543  13.865  0.5314 -0.0827 -0.5473
  122MPD2    H7 1908   0.269   0.555  13.812  0.8430  0.1188 -1.0067
  123TMC2    C1 1909   3.576   4.596  10.980  0.1582  0.6927  0.7205
  123TMC2    C2 1910   3.607   4.725  10.959  0.8857  0.0701 -0.5920
  123TMC2    C3 1911   3.660   0.021  10.836  0.0011 -0.4530  0.3208
  123TMC2    C4 1912   3.603   4.503  10.878  0.3228 -0.1997  0.1041
  123TMC2    C5 1913   3.656   4.529  10.756  0.1748  0.2049  0.3111
  123TMC2    C6 1914   3.687   4.665  10.733 -0.5804 -0.0376  0.2507
  123TMC2     C 1915   3.484   4.568  11.089 -0.1143  0.4110  0.3279
  123TMC2     O 1916   3.459   4.643  11.177 -0.2148  0.4625  0.5297
  123TMC2     H 1917   3.593   0.061  11.040  0.8998 -0.9755  0.3278
  123TMC2    H1 1918   3.597   4.398  10.903 -0.5268  0.2710  1.9618
  123TMC2    H2 1919   3.727   4.713  10.644  0.7768  0.3164  1.0566
  123TMC2    C7 1920   3.610   4.443  10.651  0.4233  0.6158  0.6849
  123TMC2    C8 1921   3.732   0.146  10.828 -0.2525  0.4757  0.1139
  123TMC2    O1 1922   3.548   4.343  10.682 -0.1785  0.4153 -0.1114
  123TMC2    O2 1923   3.836   0.159  10.762 -0.3401  0.0645  0.5190
  123TMC2    O5 1924   3.662   0.243  10.884 -0.0446 -0.4346 -0.3478
  123TMC2    H5 1925   3.575   0.213  10.918 -0.2804  1.3026  0.5927
  124MPD2     C 1926   3.073   4.293  11.203 -0.0383  0.3458 -0.3855
  124MPD2    C1 1927   3.146   4.222  11.111 -0.5924 -0.2115 -0.3946
  124MPD2    C2 1928   3.276   4.266  11.087  0.6057 -0.0128 -0.3030
  124MPD2    C3 1929   3.321   4.389  11.139 -0.2826 -0.0204  0.3785
  124MPD2    C4 1930   3.244   4.455  11.233  0.8982  0.5903  0.0241
  124MPD2    C5 1931   3.127   4.399  11.264  0.1662  1.0904  0.0590
  124MPD2     H 1932   3.345   4.212  11.024  0.3135 -0.0389 -0.6022
  124MPD2    H1 1933   3.259   4.549  11.286 -1.7008  1.4213 -0.7095
  124MPD2    H2 1934   2.975   4.261  11.236 -0.3539  2.2478  0.5405
  124MPD2    H3 1935   3.064   4.437  11.343  0.9979 -0.8789  1.6441
  124MPD2     N 1936   3.447   4.437  11.094  0.2482  0.4248 -0.2055
  124MPD2    H5 1937   3.493   4.377  11.027  3.9837  1.6565  1.2538
  124MPD2    N1 1938   3.102   4.103  11.052  0.5789  0.1089 -0.3927
  124MPD2    H7 1939   3.011   4.067  11.080  0.7145 -0.2153 -0.3762
  125TMC2    C1 1940   4.523   2.488   9.231  0.2389 -0.0210 -0.4834
  125TMC2    C2 1941   4.496   2.619   9.216 -0.4797  0.1662 -0.3893
  125TMC2    C3 1942   4.540   2.682   9.107  0.4055  0.6614  0.0199
  125TMC2    C4 1943   4.602   2.422   9.135 -0.2360 -0.4533  0.1116
  125TMC2    C5 1944   4.650   2.499   9.031 -0.3356  0.2011  0.3601
  125TMC2    C6 1945   4.628   2.633   9.016 -0.1526 -0.1198 -0.1079
  125TMC2     C 1946   4.453   2.412   9.323  0.1638 -0.1938 -0.3270
  125TMC2     O 1947   4.465   2.293   9.307  0.0673  0.4359 -0.5798
  125TMC2     H 1948   4.425   2.670   9.281  1.2538  1.7569  0.2340
  125TMC2    H1 1949   4.627   2.317   9.144  1.2754 -0.1108 -0.0860
  125TMC2    H2 1950   4.663   2.687   8.928 -0.8674 -1.1947 -1.0505
  125TMC2    C7 1951   4.705   2.434   8.913  0.1640 -1.2978 -0.1353
  125TMC2    C8 1952   4.514   2.826   9.082  0.0513  0.2969 -0.1811
  125TMC2    O1 1953   4.717   2.498   8.808  0.2466  0.2905 -0.3571
  125TMC2    O2 1954   4.590   2.901   9.026  0.1244  0.9482  0.1804
  125TMC2    O5 1955   4.384   2.843   9.101 -0.2809 -0.0789 -0.0640
  125TMC2    H5 1956   4.322   2.771   9.125  1.2086 -1.1312  0.6159
  126MPD1     C 1957   4.163   2.373   9.745 -0.5666 -0.6533 -0.3659
  126MPD1    C1 1958   4.218   2.497   9.745 -0.0845  0.0610 -0.1060
  126MPD1    C2 1959   4.298   2.525   9.635  0.3639 -0.5239  0.5751
  126MPD1    C3 1960   4.329   2.435   9.539  0.3405 -0.2991  0.1794
  126MPD1    C4 1961   4.285   2.308   9.545  0.2381  0.0354 -0.7779
  126MPD1    C5 1962   4.196   2.282   9.647  0.3322 -0.2287  0.2197
  126MPD1     H 1963   4.339   2.625   9.632 -0.7860 -0.0674  0.3338
  126MPD1    H1 1964   4.308   2.233   9.469  2.4543 -0.4417  0.3573
  126MPD1    H2 1965   4.086   2.342   9.815 -1.0938 -1.7418 -1.4311
  126MPD1    H3 1966   4.156   2.182   9.656  0.3491 -0.1694  0.9100
  126MPD1     N 1967   4.398   2.485   9.428 -0.3948  0.0251 -0.8908
  126MPD1    H5 1968   4.424   2.583   9.424 -1.7979  0.3244 -2.9067
  126MPD1    N1 1969   4.169   2.594   9.830  0.0053  0.3289  0.4087
  126MPD1    H6 1970   4.232   2.672   9.845  2.0426 -1.0855 -0.9003
  126MPD1    H7 1971   4.146   2.560   9.923  1.5936 -0.6877  0.4183
  127TMC2    C1 1972   0.768   0.081   9.575  0.2217  1.5449  0.6927
  127TMC2    C2 1973   0.816   0.046   9.697 -1.0372  0.0499 -0.0117
  127TMC2    C3 1974   0.755   4.678   9.762 -0.0313  0.0687  0.1473
  127TMC2    C4 1975   0.654   0.035   9.518  0.2931  0.0569  0.3185
  127TMC2    C5 1976   0.589   4.673   9.590  0.1078 -0.1997  0.5547
  127TMC2    C6 1977   0.638   4.626   9.712  0.1607 -0.3872 -0.5287
  127TMC2     C 1978   0.819   0.205   9.533 -0.8330  0.5372 -0.6865
  127TMC2     O 1979   0.905   0.258   9.605  0.0599 -0.0975 -0.3181
  127TMC2     H 1980   0.917   0.076   9.721 -0.5661 -1.2031 -0.4534
  127TMC2    H1 1981   0.622   0.066   9.420  1.1482  0.2012  0.0860
  127TMC2    H2 1982   0.582   4.562   9.780 -2.4252  0.8373 -1.5148
  127TMC2    C7 1983   0.474   4.607   9.527  0.5335 -0.1741 -0.6528
  127TMC2    C8 1984   0.761   4.677   9.909  0.1560  0.8036  1.0211
  127TMC2    O1 1985   0.448   4.650   9.415  0.4367 -0.4833  0.0142
  127TMC2    O2 1986   0.735   4.578   9.977 -0.2931 -0.0550 -0.5343
  127TMC2    O5 1987   0.839   0.042   9.951  0.1725  0.1352 -0.4491
  127TMC2    H5 1988   0.848   0.124   9.898 -0.4548  0.4051 -0.1349
  128MPD2     C 1989   0.720   0.404   9.241  0.1058  0.2552 -0.5367
  128MPD2    C1 1990   0.786   0.379   9.361  0.1981  0.4493 -0.0160
  128MPD2    C2 1991   0.878   0.475   9.408  0.6991 -0.7144 -0.3486
  128MPD2    C3 1992   0.899   0.594   9.344  0.3956  0.1430 -0.6852
  128MPD2    C4 1993   0.835   0.612   9.220 -0.7966 -0.1998 -0.6951
  128MPD2    C5 1994   0.739   0.521   9.173  0.0249 -0.8753  0.2473
  128MPD2     H 1995   0.929   0.459   9.502 -2.7370 -1.1018  1.4696
  128MPD2    H1 1996   0.850   0.698   9.156  1.0348  0.0870  0.1243
  128MPD2    H2 1997   0.651   0.330   9.202  0.5980  0.1447 -1.2191
  128MPD2    H3 1998   0.683   0.537   9.082  0.2369  0.4216  0.3472
  128MPD2     N 1999   1.001   0.680   9.390 -1.1683 -0.2191  0.0248
  128MPD2    H5 2000   1.061   0.637   9.460  1.1142 -0.4868 -2.1056
  128MPD2    N1 2001   0.764   0.253   9.414  0.0254  0.0747  0.5230
  128MPD2    H7 2002   0.711   0.189   9.356  0.1067  0.1200  0.3984
  129TMC2    C1 2003   4.373   0.786   1.222  0.4453  0.6922 -0.2866
  129TMC2    C2 2004   4.313   0.826   1.104  0.5013 -0.5138 -0.4739
  129TMC2    C3 2005   4.178   0.819   1.103  0.0603 -0.9536  0.4756
  129TMC2    C4 2006   4.303   0.738   1.331 -0.0352  1.2283  0.6326
  129TMC2    C5 2007   4.164   0.741   1.322  0.3448 -0.2580  0.3146
  129TMC2    C6 2008   4.104   0.777   1.209 -0.0892 -0.5482 -0.2714
  129TMC2     C 2009   4.510   0.823   1.251 -0.0511  0.5015 -0.3505
  129TMC2     O 2010   4.553   0.817   1.367 -0.9683 -0.0720 -0.5569
  129TMC2     H 2011   4.369   0.870   1.022 -0.3714  0.3779 -0.5973
  129TMC2    H1 2012   4.360   0.708   1.418  0.5147  0.5641  0.0378
  129TMC2    H2 2013   4.001   0.745   1.198 -0.2858  0.0470 -0.1622
  129TMC2    C7 2014   4.095   0.653   1.419 -0.2020  0.8050  0.1860
  129TMC2    C8 2015   4.119   0.811   0.971  0.0453  0.3278 -0.5125
  129TMC2    O1 2016   3.983   0.615   1.384  0.1523  0.1922  0.0624
  129TMC2    O2 2017   4.198   0.791   0.883  0.3584  0.2144 -0.3306
  129TMC2    O5 2018   3.996   0.863   0.981  0.2950 -0.7644 -0.4421
  129TMC2    H5 2019   3.976   0.904   1.068  2.5663 -1.8882  0.6150
  130MPD2     C 2020   0.074   0.831   1.212 -0.0232  0.5192  0.2130
  130MPD2    C1 2021   4.714   0.891   1.131  0.0995 -0.6400  0.2948
  130MPD2    C2 2022   0.023   0.962   1.026 -0.0949  1.1329 -0.5126
  130MPD2    C3 2023   0.155   0.974   0.998  0.1948  0.4450  0.2100
  130MPD2    C4 2024   0.247   0.920   1.081 -0.3284 -0.3162 -1.2069
  130MPD2    C5 2025   0.205   0.847   1.187  0.1137  0.2399  0.6136
  130MPD2     H 2026   4.693   1.012   0.955 -0.0460  0.2215 -1.1957
  130MPD2    H1 2027   0.354   0.933   1.070 -0.5414  2.8368  0.4506
  130MPD2    H2 2028   0.044   0.770   1.297  2.2054 -1.8391 -0.6852
  130MPD2    H3 2029   0.269   0.786   1.250 -0.0541 -1.8155 -1.2266
  130MPD2     N 2030   0.191   1.048   0.889  0.3148  0.4026 -0.8917
  130MPD2    H5 2031   0.118   1.099   0.840  1.3505 -0.1411 -3.0192
  130MPD2    N1 2032   4.573   0.866   1.135 -0.5136  0.2106  0.4868
  130MPD2    H7 2033   4.514   0.893   1.057 -0.5007 -1.4990 -0.1143
  131TMC2    C1 2034   3.260   4.718  10.315  0.0302  1.1161 -0.3449
  131TMC2    C2 2035   3.172   0.086  10.301  0.0390 -0.3046  0.0676
  131TMC2    C3 2036   3.221   0.210  10.304 -0.3371  0.1730 -0.0785
  131TMC2    C4 2037   3.391   0.005  10.349 -0.0492 -0.4800  0.3722
  131TMC2    C5 2038   3.436   0.136  10.368  0.7464  0.3730 -0.9812
  131TMC2    C6 2039   3.345   0.237  10.348  0.0595 -0.0991  0.6692
  131TMC2     C 2040   3.205   4.579  10.343 -0.0124 -0.0850  1.0466
  131TMC2     O 2041   3.256   4.528  10.440 -0.3305  0.4141  0.5092
  131TMC2     H 2042   3.065   0.069  10.291 -0.2240  0.4473  1.4913
  131TMC2    H1 2043   3.468   4.663  10.345  1.5606  1.1103  0.4760
  131TMC2    H2 2044   3.370   0.342  10.358 -1.3622  0.3502 -0.4927
  131TMC2    C7 2045   3.578   0.159  10.333  0.1204  0.0441  0.0172
  131TMC2    C8 2046   3.129   0.309  10.342  0.1654 -0.0266  0.3480
  131TMC2    O1 2047   3.633   0.072  10.265 -0.2306 -0.0552  0.0669
  131TMC2    O2 2048   3.153   0.367  10.448 -0.7234  0.0711  0.3187
  131TMC2    O5 2049   3.086   0.365  10.222  0.0006 -0.4894  0.3423
  131TMC2    H5 2050   3.105   0.314  10.140  1.7068 -1.2266  1.2199
  132MPD2     C 2051   2.987   4.352  10.154 -0.6723  0.8162  0.5247
  132MPD2    C1 2052   3.050   4.409  10.267  0.4680 -0.0304 -0.1928
  132MPD2    C2 2053   3.052   4.323  10.380  0.5451 -1.1028  0.5486
  132MPD2    C3 2054   2.996   4.195  10.379 -1.1123  1.1270  0.1275
  132MPD2    C4 2055   2.929   4.148  10.266 -0.0473 -0.4323  0.6211
  132MPD2    C5 2056   2.922   4.232  10.161  0.8430  0.5350  0.1233
  132MPD2     H 2057   3.084   4.359  10.477  1.1265  0.3857 -0.1900
  132MPD2    H1 2058   2.860   4.065  10.277  1.1509 -1.7145 -1.4094
  132MPD2    H2 2059   2.982   4.406  10.061  0.8716 -1.4380 -0.8662
  132MPD2    H3 2060   2.865   4.187  10.080 -0.0745  2.2142 -0.1740
  132MPD2     N 2061   2.989   4.123  10.503  0.2446  0.1173  0.6878
  132MPD2    H5 2062   3.037   4.165  10.582 -0.7413  0.7700  0.9334
  132MPD2    N1 2063   3.108   4.540  10.260 -0.2979 -0.4231  0.3660
  132MPD2    H7 2064   3.102   4.584  10.168 -1.4974  0.0087  0.6613
  133TMC2    C1 2065   3.305   1.190   9.744 -0.0763 -0.1075 -0.0784
  133TMC2    C2 2066   3.329   1.303   9.816 -0.2763 -0.1280 -0.1469
  133TMC2    C3 2067   3.458   1.331   9.856  0.0857 -0.5715 -0.0266
  133TMC2    C4 2068   3.407   1.103   9.722  0.7931 -0.0813  0.7475
  133TMC2    C5 2069   3.531   1.126   9.779 -0.1950  0.3188  0.0195
  133TMC2    C6 2070   3.564   1.243   9.849 -0.0941 -0.7004  0.6476
  133TMC2     C 2071   3.174   1.147   9.692  0.2428 -0.7149  0.0288
  133TMC2     O 2072   3.177   1.049   9.619 -0.2570 -0.0647 -0.0708
  133TMC2     H 2073   3.257   1.381   9.839  1.7532  1.6668  0.1309
  133TMC2    H1 2074   3.384   1.012   9.667  0.4569 -0.2103  1.0970
  133TMC2    H2 2075   3.666   1.257   9.883 -0.0583 -0.7227  0.5498
  133TMC2    C7 2076   3.650   1.047   9.735  0.0664  0.1602  0.2178
  133TMC2    C8 2077   3.463   1.433   9.957 -0.0001  0.0196 -0.1464
  133TMC2    O1 2078   3.764   1.088   9.754  0.5505 -0.3501  0.2223
  133TMC2    O2 2079   3.377   1.518   9.953  0.0383  0.1251 -0.5029
  133TMC2    O5 2080   3.510   1.375  10.065  0.2344 -0.2487  0.1677
  133TMC2    H5 2081   3.540   1.282  10.054 -1.0725 -0.1606 -4.0960
  134MPD2     C 2082   2.842   1.308   9.698 -0.1925  0.2563 -0.0536
  134MPD2    C1 2083   2.932   1.206   9.686  0.1821 -0.3427  0.5468
  134MPD2    C2 2084   2.884   1.082   9.638 -0.1557  0.0662  1.3951
  134MPD2    C3 2085   2.748   1.066   9.607 -0.1589  0.2267 -0.3604
  134MPD2    C4 2086   2.665   1.179   9.605  0.0268  0.1420 -0.4857
  134MPD2    C5 2087   2.710   1.301   9.647 -0.1797 -0.1651  0.3342
  134MPD2     H 2088   2.946   0.997   9.614 -1.4370 -0.7072  0.8026
  134MPD2    H1 2089   2.563   1.166   9.570 -0.3318 -1.7897  1.2503
  134MPD2    H2 2090   2.880   1.405   9.730 -1.4022  0.1942  1.5522
  134MPD2    H3 2091   2.641   1.385   9.648  0.3738  0.2945 -2.1672
  134MPD2     N 2092   2.684   0.950   9.567  0.2484 -0.1217  0.2224
  134MPD2    H5 2093   2.587   0.955   9.538  0.9715 -0.7641 -2.2521
  134MPD2    N1 2094   3.064   1.235   9.716 -0.0915  0.1220 -0.3438
  134MPD2    H7 2095   3.084   1.331   9.743 -0.7863  0.1380  0.1135
  135TMC2    C1 2096   4.611   2.429   9.767 -0.0553 -0.2796 -0.0131
  135TMC2    C2 2097   4.571   2.471   9.891 -0.7452  0.7466  0.3728
  135TMC2    C3 2098   4.499   2.385   9.973  0.3366 -0.0862 -0.3455
  135TMC2    C4 2099   4.601   2.299   9.724  1.1223  0.7293  0.2215
  135TMC2    C5 2100   4.530   2.216   9.812 -0.4423  0.5201 -0.5735
  135TMC2    C6 2101   4.478   2.252   9.931  0.1298 -0.1499  0.2284
  135TMC2     C 2102   4.653   2.526   9.669 -0.0696 -0.0627  0.0404
  135TMC2     O 2103   4.603   2.635   9.695  0.2486 -0.5225 -0.3011
  135TMC2     H 2104   4.590   2.576   9.914 -1.0108  0.9680 -0.4200
  135TMC2    H1 2105   4.643   2.273   9.628 -3.2277  1.3055 -1.8218
  135TMC2    H2 2106   4.426   2.179   9.992 -0.8600 -0.4975 -1.0136
  135TMC2    C7 2107   4.478   2.097   9.749 -0.7341  0.2665 -0.3339
  135TMC2    C8 2108   4.448   2.427  10.106  0.1250 -0.2280  0.3065
  135TMC2    O1 2109   4.505   2.075   9.634 -0.6719  0.0045 -0.2347
  135TMC2    O2 2110   4.402   2.350  10.191  0.1897 -0.2804  0.2182
  135TMC2    O5 2111   4.443   2.565  10.113 -0.2272  0.1319 -0.3284
  135TMC2    H5 2112   4.465   2.617  10.033 -3.2044 -0.6807 -1.6543
  136MPD2     C 2113   0.014   2.697   9.442  0.4128  0.0422 -0.4120
  136MPD2    C1 2114   0.042   2.566   9.453  0.0547 -0.2596  0.1416
  136MPD2    C2 2115   0.112   2.508   9.353  0.0072  0.5458 -0.4875
  136MPD2    C3 2116   0.170   2.585   9.254 -0.0618  0.3301 -0.0194
  136MPD2    C4 2117   0.152   2.722   9.252 -0.1199  0.5142 -0.4386
  136MPD2    C5 2118   0.069   2.775   9.342  0.7138 -0.4566  0.0177
  136MPD2     H 2119   0.141   2.403   9.355 -0.6631  0.3587 -0.7915
  136MPD2    H1 2120   0.200   2.787   9.180 -2.4191 -0.0347 -2.4708
  136MPD2    H2 2121   4.692   2.746   9.520  0.0459 -1.7904  0.4913
  136MPD2    H3 2122   0.077   2.883   9.345 -0.0740 -0.4412  1.5155
  136MPD2     N 2123   0.257   2.536   9.151  0.1186  0.3653  0.2529
  136MPD2    H5 2124   0.273   2.603   9.076  0.7818  2.6877  2.4304
  136MPD2    N1 2125   4.730   2.487   9.556 -0.3933  0.6997 -0.0221
  136MPD2    H7 2126   0.014   2.388   9.544 -3.4012  0.1541 -0.3253
  137TMC2    C1 2127   4.079   1.224   9.439  0.0620  0.3675 -0.0665
  137TMC2    C2 2128   3.994   1.214   9.330  0.4616  0.0729 -0.0546
  137TMC2    C3 2129   3.895   1.308   9.315 -0.3629 -0.7551 -0.0875
  137TMC2    C4 2130   4.062   1.324   9.531  0.6384  0.1188  0.1860
  137TMC2    C5 2131   3.959   1.414   9.512 -0.5305  0.2063 -0.1164
  137TMC2    C6 2132   3.870   1.403   9.411 -0.6533  0.3765 -0.8469
  137TMC2     C 2133   4.203   1.145   9.431 -0.1098  0.0554 -0.6952
  137TMC2     O 2134   4.290   1.201   9.499  0.2686  0.1197 -0.5367
  137TMC2     H 2135   4.007   1.135   9.257 -2.3881  0.8580 -1.4502
  137TMC2    H1 2136   4.136   1.338   9.609  0.5032  1.8516 -0.0164
  137TMC2    H2 2137   3.780   1.464   9.410  0.0233  1.4193  1.1906
  137TMC2    C7 2138   3.915   1.505   9.615  0.0609  0.3580 -0.3351
  137TMC2    C8 2139   3.808   1.304   9.199 -0.3350 -0.1259 -0.1443
  137TMC2    O1 2140   3.840   1.596   9.583 -0.7204  0.0778  0.2716
  137TMC2    O2 2141   3.693   1.347   9.206 -0.2985 -0.1300 -0.3727
  137TMC2    O5 2142   3.877   1.273   9.086 -0.0194  0.4824  0.2375
  137TMC2    H5 2143   3.973   1.273   9.104 -0.0263  0.9866  0.2510
  138MPD2     C 2144   4.255   0.816   9.290 -0.5211 -0.1913 -0.4700
  138MPD2    C1 2145   4.288   0.930   9.345 -0.6726  0.1020  0.0831
  138MPD2    C2 2146   4.423   0.959   9.374 -0.8789 -0.9459  0.3137
  138MPD2    C3 2147   4.522   0.865   9.348 -0.5028 -0.2314 -0.3202
  138MPD2    C4 2148   4.486   0.747   9.288 -0.3584 -0.3136 -0.2299
  138MPD2    C5 2149   4.353   0.728   9.253  0.1094  0.0774 -0.2591
  138MPD2     H 2150   4.446   1.060   9.405  0.7238 -0.2061 -3.3502
  138MPD2    H1 2151   4.555   0.675   9.245  0.1300 -0.5089  0.8873
  138MPD2    H2 2152   4.152   0.786   9.277  0.2483 -3.0961 -0.0133
  138MPD2    H3 2153   4.328   0.640   9.195 -1.2960  0.1129  0.2929
  138MPD2     N 2154   4.659   0.890   9.374 -0.5627  0.1215 -0.1391
  138MPD2    H5 2155   4.679   0.983   9.409 -2.4457  0.2393  0.5856
  138MPD2    N1 2156   4.188   1.021   9.371 -0.3390 -0.2853  0.7610
  138MPD2    H7 2157   4.095   0.998   9.339 -0.3935 -0.5053  1.0710
  139TMC2    C1 2158   0.409   3.245  13.237 -0.5920  0.4550  0.7271
  139TMC2    C2 2159   0.473   3.339  13.172 -0.7269  0.9368  0.0112
  139TMC2    C3 2160   0.434   3.469  13.195  0.0864 -0.3020  0.1065
  139TMC2    C4 2161   0.313   3.268  13.326  1.0997 -0.2411  0.3402
  139TMC2    C5 2162   0.282   3.397  13.354 -0.5832  0.0384 -0.6085
  139TMC2    C6 2163   0.345   3.505  13.292  0.1932  0.2385  0.5980
  139TMC2     C 2164   0.474   3.116  13.232 -0.4120  0.3477  0.2496
  139TMC2     O 2165   0.395   3.025  13.206  0.2645  0.0666  0.4124
  139TMC2     H 2166   0.552   3.322  13.100 -2.5706 -0.5138 -1.6671
  139TMC2    H1 2167   0.275   3.197  13.399 -1.0864  1.4501  0.8700
  139TMC2    H2 2168   0.326   3.608  13.320  1.3733  0.5469  0.2921
  139TMC2    C7 2169   0.176   3.433  13.446  0.7299 -1.0922 -0.0145
  139TMC2    C8 2170   0.530   3.569  13.154 -0.2023  0.8369  0.2421
  139TMC2    O1 2171   0.170   3.550  13.470  0.3896  0.0166 -0.0863
  139TMC2    O2 2172   0.569   3.558  13.037 -0.0666  0.2830  0.0707
  139TMC2    O5 2173   0.603   3.611  13.255 -0.1706  0.4789  0.2317
  139TMC2    H5 2174   0.565   3.599  13.345  0.3818  1.8914  0.6600
  140MPD2     C 2175   0.811   3.004  13.343 -0.0742  0.1533 -0.0354
  140MPD2    C1 2176   0.687   3.001  13.277 -0.2672  0.2276 -0.0967
  140MPD2    C2 2177   0.654   2.883  13.213  0.1753  0.2096  0.3204
  140MPD2    C3 2178   0.740   2.780  13.219  0.2313 -0.5166  0.4123
  140MPD2    C4 2179   0.859   2.785  13.291  0.3281 -0.5266  0.4914
  140MPD2    C5 2180   0.896   2.896  13.350  0.2273  0.0470  0.2170
  140MPD2     H 2181   0.561   2.869  13.158  0.8743 -1.7588 -0.3485
  140MPD2    H1 2182   0.934   2.708  13.304 -0.1556 -1.1546 -0.3787
  140MPD2    H2 2183   0.841   3.099  13.386 -2.6888  0.5702  0.8241
  140MPD2    H3 2184   0.996   2.902  13.391 -0.6130 -1.9392  2.5526
  140MPD2     N 2185   0.700   2.657  13.159 -0.2216  0.4255 -0.5738
  140MPD2    H5 2186   0.607   2.650  13.118 -0.7720  0.2210  0.7094
  140MPD2    N1 2187   0.606   3.114  13.277  0.2706 -0.3535  0.5926
  140MPD2    H7 2188   0.637   3.200  13.321  0.7880  0.5187 -1.4604
  141TMC2    C1 2189   1.193   4.666  14.763 -0.1734  0.0833  0.4064
  141TMC2    C2 2190   1.075   4.623  14.814 -0.7043 -0.0190 -0.1554
  141TMC2    C3 2191   1.011   4.711  14.902 -0.3023  0.8383 -0.7345
  141TMC2    C4 2192   1.231   0.063  14.768 -0.3622 -0.1087  0.1916
  141TMC2    C5 2193   1.155   0.156  14.839 -0.6230 -1.1621  0.4942
  141TMC2    C6 2194   1.037   0.115  14.903 -0.0681  0.3028  0.1485
  141TMC2     C 2195   1.237   4.586  14.652  0.3401  0.5610 -0.0372
  141TMC2     O 2196   1.305   4.489  14.680  0.2960 -0.6402  0.1116
  141TMC2     H 2197   1.054   4.516  14.809 -2.4167  0.4205 -2.1486
  141TMC2    H1 2198   1.325   0.091  14.722  0.2839 -1.3873  0.7319
  141TMC2    H2 2199   0.987   0.184  14.969 -0.0003 -1.3770  1.9456
  141TMC2    C7 2200   1.170   0.305  14.820  0.2442  0.5610 -0.3387
  141TMC2    C8 2201   0.875   4.678  14.945  0.0551 -0.6113 -0.7210
  141TMC2    O1 2202   1.066   0.364  14.849 -0.0918  0.2687 -0.0592
  141TMC2    O2 2203   0.830   4.734  15.041  0.0848 -0.2040 -0.0282
  141TMC2    O5 2204   0.812   4.666  14.832 -0.2460 -0.3002  0.0671
  141TMC2    H5 2205   0.849   4.597  14.772  0.2689 -2.0397  2.4080
  142TMC2    C1 2206   3.144   3.770  10.348 -0.0995  0.2867  0.1773
  142TMC2    C2 2207   3.070   3.785  10.234  0.4055 -0.3238  0.5613
  142TMC2    C3 2208   3.120   3.883  10.149 -0.0729  0.7234  0.3281
  142TMC2    C4 2209   3.253   3.853  10.378  0.0794 -0.2559  0.0437
  142TMC2    C5 2210   3.299   3.942  10.286 -0.2294  0.6067  0.1607
  142TMC2    C6 2211   3.239   3.953  10.167 -0.5078 -0.0011  0.2939
  142TMC2     C 2212   3.099   3.659  10.432 -0.3000  0.3523  0.0484
  142TMC2     O 2213   3.020   3.579  10.383 -0.4947 -0.5198  0.0925
  142TMC2     H 2214   2.991   3.716  10.206  0.2363 -0.1350  0.5721
  142TMC2    H1 2215   3.313   3.837  10.467  0.8611  1.3709 -0.2025
  142TMC2    H2 2216   3.261   4.037  10.103 -0.8253 -0.4683 -0.4201
  142TMC2    C7 2217   3.385   4.053  10.344 -0.0946  0.1912  0.2388
  142TMC2    C8 2218   3.060   3.915  10.017  0.4656  0.2409 -0.2573
  142TMC2    O1 2219   3.403   4.045  10.464  0.7065  0.0081 -0.0469
  142TMC2    O2 2220   3.103   4.000   9.943  0.3190  0.0169 -0.0793
  142TMC2    O5 2221   2.937   3.866  10.021  0.0221  0.6156 -0.5045
  142TMC2    H5 2222   2.908   3.825  10.105 -2.1883  0.8135 -1.1668
  143MPD2     C 2223   3.011   3.434  10.873  0.2547  0.8344  0.6143
  143MPD2    C1 2224   2.931   3.445  10.762 -0.5262 -0.0951  0.7301
  143MPD2    C2 2225   2.974   3.529  10.658  0.5818 -0.0885  0.5067
  143MPD2    C3 2226   3.094   3.592  10.670  1.0968  1.0486 -0.8583
  143MPD2    C4 2227   3.166   3.590  10.785 -0.0421 -0.6462  0.3757
  143MPD2    C5 2228   3.126   3.511  10.881 -0.2442 -0.2001 -0.3566
  143MPD2     H 2229   2.918   3.538  10.565  0.1227 -1.0577  0.6955
  143MPD2    H1 2230   3.264   3.637  10.785 -0.7135  0.7240  1.6329
  143MPD2    H2 2231   2.979   3.357  10.941 -1.1636  0.1687 -0.8059
  143MPD2    H3 2232   3.191   3.500  10.967 -0.6413 -3.2396 -0.4677
  143MPD2     N 2233   3.138   3.671  10.562  0.2233  0.2619 -0.1910
  143MPD2    H5 2234   3.209   3.739  10.589 -0.3900 -0.0502  2.2083
  143MPD2    N1 2235   2.817   3.360  10.750 -0.3110 -0.1204 -0.6874
  143MPD2    H7 2236   2.803   3.293  10.825 -4.0573 -0.7542 -1.9289
  144TMC2    C1 2237   1.499   1.901   0.506 -0.1144 -0.0089  0.3110
  144TMC2    C2 2238   1.385   1.952   0.564  0.1615  0.5552  0.2081
  144TMC2    C3 2239   1.390   2.026   0.680 -0.5474 -0.1816 -0.1701
  144TMC2    C4 2240   1.621   1.925   0.561 -0.2821  0.4223  0.1384
  144TMC2    C5 2241   1.626   2.000   0.679 -0.4794 -0.9817 -1.1147
  144TMC2    C6 2242   1.513   2.047   0.739  0.2673  0.5982  0.6431
  144TMC2     C 2243   1.489   1.913   0.359 -0.4749  0.3203  0.1167
  144TMC2     O 2244   1.479   1.813   0.291  0.6704  0.0389 -0.1287
  144TMC2     H 2245   1.293   1.937   0.509  1.2734 -0.2969 -1.4087
  144TMC2    H1 2246   1.706   1.904   0.497 -0.4575  0.1715 -0.0110
  144TMC2    H2 2247   1.511   2.082   0.842  1.8735  2.1139  0.1642
  144TMC2    C7 2248   1.750   2.012   0.751 -0.7996  0.1799  0.3222
  144TMC2    C8 2249   1.280   2.020   0.776 -0.5452  0.0332 -0.6639
  144TMC2    O1 2250   1.845   1.948   0.709 -0.5810  0.1244 -0.2108
  144TMC2    O2 2251   1.286   2.087   0.880 -0.2590  0.3958  0.0505
  144TMC2    O5 2252   1.188   1.929   0.746 -0.3396  0.1437 -0.1659
  144TMC2    H5 2253   1.220   1.885   0.664  0.5520  0.1329  0.1847
  145MPD2     C 2254   1.313   2.215  17.718 -0.5678  0.6507  0.6571
  145MPD2    C1 2255   1.327   2.071  17.723 -0.1977  0.2371 -0.1906
  145MPD2    C2 2256   1.371   2.016   0.100  0.4855 -0.1879 -0.1756
  145MPD2    C3 2257   1.415   2.095   0.207  0.5262 -0.0378  0.3058
  145MPD2    C4 2258   1.399   2.234   0.199  0.6131 -0.7444 -0.9018
  145MPD2    C5 2259   1.356   2.292   0.089  0.4313 -0.3065 -0.6070
  145MPD2     H 2260   1.366   1.908   0.103 -2.6462 -0.0103  1.0344
  145MPD2    H1 2261   1.417   2.301   0.282  0.8216  0.3658 -1.8363
  145MPD2    H2 2262   1.271   2.265  17.631  0.7033  1.1136  0.3046
  145MPD2    H3 2263   1.347   2.400   0.086 -1.0066 -0.4140 -0.1227
  145MPD2     N 2264   1.460   2.046   0.328  0.0646 -0.1306  0.0224
  145MPD2    H5 2265   1.481   2.116   0.399 -0.4758 -1.4329  1.4782
  145MPD2    N1 2266   1.312   1.982  17.614 -0.3381 -0.4486  0.3020
  145MPD2    H7 2267   1.312   1.883  17.632  1.2287 -0.3609  0.7595
  146TMC2    C1 2268   2.685   1.285  12.290 -0.6072 -0.1418  0.3410
  146TMC2    C2 2269   2.639   1.326  12.169  0.1756 -0.3366 -0.2350
  146TMC2    C3 2270   2.672   1.271  12.049  0.3104 -0.5551  0.6761
  146TMC2    C4 2271   2.775   1.181  12.296 -0.9191 -0.3682 -0.4475
  146TMC2    C5 2272   2.817   1.131  12.177 -0.0026  0.2823  0.4766
  146TMC2    C6 2273   2.769   1.178  12.061  0.0922  0.5589  0.2717
  146TMC2     C 2274   2.615   1.329  12.411  0.4590 -0.1151 -0.2669
  146TMC2     O 2275   2.519   1.402  12.398 -0.1627 -0.4884  0.4458
  146TMC2     H 2276   2.572   1.412  12.165  0.0498 -0.4524 -0.6285
  146TMC2    H1 2277   2.827   1.154  12.388 -0.6492  0.3508 -0.3932
  146TMC2    H2 2278   2.822   1.155  11.969  0.2005 -0.2262  0.5265
  146TMC2    C7 2279   2.932   1.040  12.174 -0.5582  0.4881 -0.0508
  146TMC2    C8 2280   2.676   1.340  11.931  0.2028 -1.1215  0.0175
  146TMC2    O1 2281   2.999   1.040  12.067  0.3158 -0.1209 -0.2335
  146TMC2    O2 2282   2.774   1.340  11.859  0.2696 -0.8467 -0.2000
  146TMC2    O5 2283   2.577   1.435  11.930  0.3782  0.7909 -0.0879
  146TMC2    H5 2284   2.496   1.413  11.982  0.5609 -0.0283 -0.1493
  147MPD2     C 2285   3.292   0.760  12.404  0.4342  0.3048  0.0492
  147MPD2    C1 2286   3.198   0.788  12.495  0.5907  0.5784  0.7471
  147MPD2    C2 2287   3.079   0.852  12.451 -0.2809 -0.9226  0.1400
  147MPD2    C3 2288   3.063   0.894  12.317  0.3268 -0.2089 -0.1139
  147MPD2    C4 2289   3.161   0.869  12.229 -0.2959  0.2582 -0.2970
  147MPD2    C5 2290   3.274   0.803  12.271  0.1128 -0.2099 -0.0798
  147MPD2     H 2291   3.003   0.877  12.524  0.6516  3.8245 -0.5016
  147MPD2    H1 2292   3.163   0.895  12.124 -0.0041 -0.2703 -0.4246
  147MPD2    H2 2293   3.388   0.712  12.421 -0.3378 -1.7335 -1.3266
  147MPD2    H3 2294   3.355   0.800  12.200  0.5490  2.0410  0.3188
  147MPD2     N 2295   2.952   0.977  12.294  0.8240  0.1028 -0.5604
  147MPD2    H5 2296   2.878   0.963  12.362  0.7474 -0.5838 -0.7776
  147MPD2    N1 2297   3.225   0.753  12.633 -0.2384 -0.4369 -0.8417
  147MPD2    H7 2298   3.317   0.711  12.644  0.2203  0.7084 -0.3052
  148TMC2    C1 2299   2.644   0.874  10.500  0.0029  0.1690 -0.7584
  148TMC2    C2 2300   2.725   0.983  10.512 -0.0290  1.0446  0.2692
  148TMC2    C3 2301   2.817   0.973  10.610 -0.5045 -1.3414  0.5848
  148TMC2    C4 2302   2.645   0.765  10.588  0.6504 -0.0273 -0.0605
  148TMC2    C5 2303   2.746   0.762  10.678 -0.1672 -0.0650  0.4115
  148TMC2    C6 2304   2.837   0.868  10.694 -0.2890 -0.2328 -0.1987
  148TMC2     C 2305   2.559   0.882  10.390  0.4246  0.1833  0.2836
  148TMC2     O 2306   2.546   0.990  10.337  0.4943 -0.1411  0.2626
  148TMC2     H 2307   2.729   1.074  10.453 -2.6815  2.0098  1.5540
  148TMC2    H1 2308   2.580   0.679  10.578  1.1567 -0.4126 -0.0943
  148TMC2    H2 2309   2.926   0.868  10.756 -0.5516 -0.8291  0.1792
  148TMC2    C7 2310   2.797   0.624  10.699 -0.6175  0.3110 -0.0685
  148TMC2    C8 2311   2.898   1.091  10.622  0.4320 -1.0128 -0.2299
  148TMC2    O1 2312   2.785   0.556  10.601 -0.2242 -0.6956  0.3075
  148TMC2    O2 2313   2.905   1.167  10.718 -0.5985  0.4131 -0.6065
  148TMC2    O5 2314   2.993   1.080  10.525  0.1760 -0.6735  0.1059
  148TMC2    H5 2315   2.981   1.007  10.461 -0.5183 -0.7209  0.2920
  149MPD2     C 2316   2.358   0.807  10.196 -0.3999  0.0367  0.1076
  149MPD2    C1 2317   2.432   0.718  10.262  0.1452 -0.3178 -0.1705
  149MPD2    C2 2318   2.426   0.586  10.222  0.5719 -0.2935  0.1307
  149MPD2    C3 2319   2.344   0.547  10.116 -0.4705  0.2382  0.0418
  149MPD2    C4 2320   2.278   0.644  10.051 -0.4594  0.5568  0.2491
  149MPD2    C5 2321   2.288   0.775  10.090  0.2508 -0.1693  0.0529
  149MPD2     H 2322   2.502   0.520  10.264 -0.2917 -2.1886 -1.2737
  149MPD2    H1 2323   2.207   0.620   9.972 -0.3676  1.2042 -0.0333
  149MPD2    H2 2324   2.366   0.914  10.212 -3.2571 -0.0012  1.7465
  149MPD2    H3 2325   2.229   0.856  10.048  3.1801  2.3767  0.8400
  149MPD2     N 2326   2.324   0.414  10.077  0.1062  0.0988  0.0815
  149MPD2    H5 2327   2.285   0.404   9.984 -0.6941  2.4457  0.1701
  149MPD2    N1 2328   2.523   0.752  10.357  0.9054 -0.1923  0.4197
  149MPD2    H7 2329   2.569   0.677  10.408  1.8995  1.0351  1.3419
  150TMC2    C1 2330   4.482   3.983  12.582  0.5911 -0.9045  0.3988
  150TMC2    C2 2331   4.500   4.068  12.690  0.3562 -0.1613  0.1992
  150TMC2    C3 2332   4.629   4.108  12.711  0.5116 -0.3328 -0.3404
  150TMC2    C4 2333   4.585   3.921  12.523  0.0229 -0.6582  0.5244
  150TMC2    C5 2334   4.709   3.973  12.545  0.1652  0.2017 -0.4820
  150TMC2    C6 2335   4.731   4.069  12.635 -0.0496 -0.3769 -0.5341
  150TMC2     C 2336   4.343   3.942  12.543  0.6621 -0.2588 -0.3405
  150TMC2     O 2337   4.263   3.949  12.637  0.3776  0.2040  0.1425
  150TMC2     H 2338   4.421   4.103  12.756  0.2117  1.8379 -1.0576
  150TMC2    H1 2339   4.563   3.857  12.438 -0.2157  0.1781 -0.0464
  150TMC2    H2 2340   0.097   4.089  12.668  0.1272 -0.1173 -1.2119
  150TMC2    C7 2341   0.082   3.897  12.473 -0.0491 -0.1743 -0.1672
  150TMC2    C8 2342   4.652   4.215  12.801 -0.1680 -0.5067 -0.6159
  150TMC2    O1 2343   0.053   3.796  12.411  0.4806 -0.5716  0.7914
  150TMC2    O2 2344   4.581   4.246  12.900 -0.2108  0.3546 -0.3142
  150TMC2    O5 2345   0.021   4.280  12.745 -0.7362  0.5257  0.0783
  150TMC2    H5 2346   0.028   4.261  12.650  1.0651 -0.1578  0.3438
  151MPD2     C 2347   3.971   3.909  12.187  0.6640  0.6316 -0.1447
  151MPD2    C1 2348   4.082   3.969  12.126 -0.2085  0.3951 -0.4646
  151MPD2    C2 2349   4.187   4.008  12.207 -0.4811  0.3315 -0.4216
  151MPD2    C3 2350   4.188   3.970  12.342 -0.2010  0.4386 -0.1908
  151MPD2    C4 2351   4.071   3.923  12.402  0.3841  0.0475  0.2862
  151MPD2    C5 2352   3.966   3.889  12.322 -0.7407  0.6857  0.2004
  151MPD2     H 2353   4.276   4.036  12.153  0.3259 -3.1712 -0.9162
  151MPD2    H1 2354   4.088   3.871  12.496 -2.0263 -2.0558 -0.4516
  151MPD2    H2 2355   3.889   3.878  12.124  2.2559  0.1320 -1.9403
  151MPD2    H3 2356   3.881   3.832  12.359 -1.8355  0.0720 -3.2424
  151MPD2     N 2357   4.314   3.961  12.408 -0.3103 -0.6688 -0.6146
  151MPD2    H5 2358   4.392   3.983  12.347  0.7223 -4.6396 -0.7282
  151MPD2    N1 2359   4.073   3.990  11.992  0.5331 -0.7064 -0.0416
  151MPD2    H7 2360   3.996   3.954  11.936  0.0067 -1.5723  1.2565
  152TMC2    C1 2361   4.521   3.444  12.563  0.2327 -0.1120  0.4259
  152TMC2    C2 2362   4.611   3.343  12.542 -0.0766  0.2773 -0.2342
  152TMC2    C3 2363   0.002   3.364  12.570  0.2504 -0.4730 -0.2796
  152TMC2    C4 2364   4.553   3.560  12.622  0.1239 -0.2562  0.0909
  152TMC2    C5 2365   4.689   3.582  12.645  0.3071  0.6043  0.0698
  152TMC2    C6 2366   0.048   3.483  12.615  0.0516 -0.2798 -0.0847
  152TMC2     C 2367   4.382   3.409  12.564  0.0684 -0.0951 -0.1443
  152TMC2     O 2368   4.301   3.493  12.526  0.2226  0.6292  0.7673
  152TMC2     H 2369   4.583   3.247  12.501  1.5719  0.0547 -0.8286
  152TMC2    H1 2370   4.482   3.632  12.661 -0.6080 -0.1915 -1.3446
  152TMC2    H2 2371   0.153   3.487  12.640 -0.2395  0.5249  1.0083
  152TMC2    C7 2372   4.718   3.693  12.739 -0.0733 -1.0900 -0.2234
  152TMC2    C8 2373   0.094   3.258  12.561  0.5353  0.1460 -0.4981
  152TMC2    O1 2374   4.625   3.760  12.782 -0.1168  0.3887  0.2760
  152TMC2    O2 2375   0.214   3.276  12.577 -0.2034 -0.5733 -0.3298
  152TMC2    O5 2376   0.024   3.155  12.611  0.6470 -0.2525  0.2527
  152TMC2    H5 2377   4.669   3.174  12.645  1.3851  2.5788  0.6565
  153MPD2     C 2378   4.260   3.074  12.658  0.7713 -0.3020  0.7545
  153MPD2    C1 2379   4.243   3.209  12.628  0.5240 -0.8057  0.0757
  153MPD2    C2 2380   4.122   3.258  12.597  0.3627  0.1190  0.8041
  153MPD2    C3 2381   4.004   3.181  12.599 -0.3450 -0.7060 -0.3239
  153MPD2    C4 2382   4.019   3.050  12.646  0.0305 -0.2965  0.2058
  153MPD2    C5 2383   4.149   2.996  12.675  0.4674  0.0029  0.1928
  153MPD2     H 2384   4.117   3.362  12.566  0.2306 -0.8420 -2.4069
  153MPD2    H1 2385   3.946   2.972  12.666  0.8577 -0.7115  1.6031
  153MPD2    H2 2386   4.358   3.033  12.674  0.8891 -0.1450  0.4340
  153MPD2    H3 2387   4.154   2.891  12.700  3.2295  0.2701  0.7000
  153MPD2     N 2388   3.879   3.240  12.564  0.1794  0.3804  0.0809
  153MPD2    H5 2389   3.873   3.339  12.539 -2.2950 -0.2111 -1.7577
  153MPD2    N1 2390   4.361   3.288  12.620  0.5666 -0.5884 -0.4046
  153MPD2    H7 2391   4.449   3.240  12.637  1.1492  0.3305 -0.8248
  154TMC2    C1 2392   1.563   2.938   0.484  1.1618  0.5977 -0.2676
  154TMC2    C2 2393   1.496   2.828   0.447  0.4974 -0.0749 -0.4578
  154TMC2    C3 2394   1.568   2.731   0.387 -0.4551 -0.4652  0.6632
  154TMC2    C4 2395   1.698   2.954   0.466  0.3458 -0.2343 -0.5160
  154TMC2    C5 2396   1.770   2.866   0.389 -0.1357 -0.0107 -0.9790
  154TMC2    C6 2397   1.704   2.749   0.356 -0.6983  0.3545 -0.0555
  154TMC2     C 2398   1.497   3.032   0.574  0.3503  0.2243  0.2782
  154TMC2     O 2399   1.563   3.129   0.609 -0.9441  0.5880  0.3469
  154TMC2     H 2400   1.389   2.812   0.449  0.6621 -1.2333 -0.4910
  154TMC2    H1 2401   1.748   3.039   0.511  1.4728 -0.2404 -1.7633
  154TMC2    H2 2402   1.754   2.663   0.312  0.6943  1.9984 -1.6947
  154TMC2    C7 2403   1.893   2.915   0.320  0.0056  0.4986  0.6424
  154TMC2    C8 2404   1.492   2.624   0.335  0.6448 -0.4871  0.1232
  154TMC2    O1 2405   1.935   2.835   0.243  0.5977  0.2384 -0.2058
  154TMC2    O2 2406   1.371   2.626   0.316  0.3764 -0.3233 -0.4058
  154TMC2    O5 2407   1.568   2.508   0.355  0.2090  0.0885  0.6013
  154TMC2    H5 2408   1.663   2.528   0.364  0.3000 -1.6620  3.4716
  155MPD2     C 2409   1.183   2.965   0.743 -0.0126  0.1906 -0.1534
  155MPD2    C1 2410   1.299   3.033   0.719 -0.2453 -0.2594 -0.5344
  155MPD2    C2 2411   1.328   3.148   0.780 -0.1174 -0.6749 -1.1225
  155MPD2    C3 2412   1.225   3.200   0.860  0.5235 -0.0758  0.1874
  155MPD2    C4 2413   1.105   3.132   0.880  0.3910  0.0627  0.7587
  155MPD2    C5 2414   1.084   3.011   0.821 -0.2706 -0.7059 -0.1824
  155MPD2     H 2415   1.423   3.199   0.774 -0.3160 -0.0889  0.6269
  155MPD2    H1 2416   1.035   3.169   0.953 -0.5382  0.5404 -0.3841
  155MPD2    H2 2417   1.165   2.875   0.686 -0.1090  0.0352  0.1242
  155MPD2    H3 2418   0.983   2.978   0.801  0.1283 -0.8401 -1.9544
  155MPD2     N 2419   1.240   3.321   0.925  0.2634 -0.0362 -0.2374
  155MPD2    H5 2420   1.331   3.365   0.917 -0.0448  0.8253  0.9997
  155MPD2    N1 2421   1.389   2.976   0.633 -0.0686  0.1785  0.1940
  155MPD2    H7 2422   1.371   2.882   0.599  0.8170 -0.0051  0.2219
  156TMC2    C1 2423   4.532   1.269  11.108  0.2334 -0.6172  0.2238
  156TMC2    C2 2424   4.634   1.279  11.019  0.8748  0.5149  0.1668
  156TMC2    C3 2425   4.652   1.397  10.959  0.3994  0.4936 -0.8459
  156TMC2    C4 2426   4.446   1.374  11.132  0.2369  0.3754  0.0191
  156TMC2    C5 2427   4.459   1.487  11.054  0.2388  0.1942  0.1209
  156TMC2    C6 2428   4.567   1.504  10.968 -0.7113  0.2619 -0.2627
  156TMC2     C 2429   4.565   1.188  11.220  0.5869 -0.1198  0.5098
  156TMC2     O 2430   4.685   1.170  11.243  0.2163  0.4638  0.4995
  156TMC2     H 2431   4.704   1.196  11.014  0.4083  0.0863  0.7668
  156TMC2    H1 2432   4.377   1.372  11.215  0.6094 -1.8993  0.2613
  156TMC2    H2 2433   4.583   1.592  10.908  0.1589 -1.1583 -2.1110
  156TMC2    C7 2434   4.360   1.593  11.063 -0.3437  0.2574  0.0054
  156TMC2    C8 2435   0.032   1.399  10.870 -0.2601 -0.5552 -0.4538
  156TMC2    O1 2436   4.399   1.701  11.015  0.6270 -0.3620  0.2483
  156TMC2    O2 2437   0.066   1.299  10.811 -0.0165 -0.1616 -0.1338
  156TMC2    O5 2438   0.047   1.527  10.822 -0.0725  0.7007  0.5631
  156TMC2    H5 2439   0.041   1.594  10.893 -1.2252  0.6791  0.4749
  157MPD2     C 2440   4.337   1.069  11.491  0.1500  0.7966  0.4233
  157MPD2    C1 2441   4.456   1.099  11.430 -0.4308  0.2129  0.6641
  157MPD2    C2 2442   4.572   1.099  11.508  0.3298  0.2626  0.2097
  157MPD2    C3 2443   4.571   1.076  11.639 -0.2110 -0.0530 -0.3636
  157MPD2    C4 2444   4.449   1.049  11.705  0.3851  0.2802  0.1909
  157MPD2    C5 2445   4.336   1.042  11.628 -0.8006 -0.6812 -0.1304
  157MPD2     H 2446   4.664   1.125  11.459 -0.6775  0.4372 -1.5767
  157MPD2    H1 2447   4.450   1.020  11.809  0.5181  0.9641  0.3826
  157MPD2    H2 2448   4.242   1.068  11.440  0.1091  0.0546  0.5131
  157MPD2    H3 2449   4.239   1.011  11.666 -1.2286  1.7357  0.7751
  157MPD2     N 2450   4.693   1.102  11.709 -0.1131 -0.3002  0.0160
  157MPD2    H5 2451   0.028   1.142  11.647 -0.8075 -0.0585 -0.6115
  157MPD2    N1 2452   4.461   1.127  11.283  0.1312  0.4763 -0.3964
  157MPD2    H7 2453   4.372   1.143  11.238  2.1616  0.7021 -4.3326
  158TMC2    C1 2454   0.460   4.601  13.459  0.5308  0.3504  0.3780
  158TMC2    C2 2455   0.502   4.684  13.358 -0.7082  0.7779 -0.1902
  158TMC2    C3 2456   0.410   0.023  13.290  0.7549  1.2328 -0.2595
  158TMC2    C4 2457   0.326   4.583  13.480  0.4096  0.7087 -0.2495
  158TMC2    C5 2458   0.235   4.648  13.405  0.0434  0.4944  0.0654
  158TMC2    C6 2459   0.275   4.731  13.309  0.0426  0.0455 -0.4629
  158TMC2     C 2460   0.551   4.516  13.521 -0.0474 -0.6562 -0.2654
  158TMC2     O 2461   0.660   4.503  13.461  0.0179 -0.3068 -0.0121
  158TMC2     H 2462   0.608   4.700  13.340 -0.6452  0.5083 -0.0592
  158TMC2    H1 2463   0.299   4.510  13.556 -2.3975  1.7799 -0.2116
  158TMC2    H2 2464   0.207   0.049  13.242 -1.5728 -0.5745  0.7049
  158TMC2    C7 2465   0.087   4.634  13.432 -0.3276 -0.0905 -0.0635
  158TMC2    C8 2466   0.459   0.098  13.179 -0.0053  0.8128  0.5279
  158TMC2    O1 2467   0.006   4.701  13.366  0.3620 -0.4720  0.0626
  158TMC2    O2 2468   0.371   0.123  13.102 -0.6439  0.6036  0.2041
  158TMC2    O5 2469   0.538   0.186  13.242 -0.0607  0.2133  0.0764
  158TMC2    H5 2470   0.578   0.165  13.329 -0.0384  0.5488  0.1463
  159MPD2     C 2471   0.740   4.249  13.923 -0.3188  0.5154  0.1260
  159MPD2    C1 2472   0.603   4.272  13.942  0.7169 -0.7366  0.1626
  159MPD2    C2 2473   0.528   4.346  13.852 -0.5302  0.3169 -0.5988
  159MPD2    C3 2474   0.586   4.392  13.735 -0.2709  0.6089 -1.0127
  159MPD2    C4 2475   0.723   4.373  13.720 -0.4894 -1.1719  0.2458
  159MPD2    C5 2476   0.809   4.308  13.813 -0.3333 -0.8219 -0.5307
  159MPD2     H 2477   0.422   4.359  13.873 -0.4325  0.4698 -0.2011
  159MPD2    H1 2478   0.773   4.418  13.635  0.8476  1.7518  2.5769
  159MPD2    H2 2479   0.798   4.188  13.992 -2.8911 -0.4054  1.4850
  159MPD2    H3 2480   0.918   4.311  13.813 -0.3061 -0.3520  5.5109
  159MPD2     N 2481   0.509   4.472  13.642 -0.4239  0.2290 -0.5980
  159MPD2    H5 2482   0.419   4.499  13.680  0.4886  1.9817  0.3064
  159MPD2    N1 2483   0.554   4.218  14.068 -0.5653 -0.3602 -0.2476
  159MPD2    H7 2484   0.616   4.166  14.130 -0.0534  0.5180 -0.0284
  160TMC2    C1 2485   0.255   2.391   1.471  0.1148  0.4977  0.3298
  160TMC2    C2 2486   0.227   2.263   1.492  0.5400 -0.6043 -0.4541
  160TMC2    C3 2487   0.313   2.171   1.446 -0.8250  0.1247 -0.6577
  160TMC2    C4 2488   0.367   2.430   1.411 -1.0269  0.8406  0.0885
  160TMC2    C5 2489   0.463   2.336   1.378  0.3205 -0.1866  0.1873
  160TMC2    C6 2490   0.431   2.202   1.382  0.8650  0.2642  0.1723
  160TMC2     C 2491   0.153   2.483   1.520 -0.1951  0.3519 -0.4468
  160TMC2     O 2492   0.076   2.450   1.608 -0.3288 -0.1977  0.4908
  160TMC2     H 2493   0.140   2.240   1.554  0.4148 -1.5657 -0.9923
  160TMC2    H1 2494   0.389   2.533   1.386  1.2853  0.7584  1.7199
  160TMC2    H2 2495   0.506   2.134   1.344 -0.2622 -1.5620  1.2381
  160TMC2    C7 2496   0.584   2.376   1.300 -0.0584  0.2690 -0.1228
  160TMC2    C8 2497   0.284   2.039   1.458 -0.6068  0.1810  0.2636
  160TMC2    O1 2498   0.628   2.285   1.232  0.0417  0.3964  0.1347
  160TMC2    O2 2499   0.168   1.989   1.454 -0.3030 -0.0871 -0.5658
  160TMC2    O5 2500   0.374   2.012   1.554 -0.2800  0.0361  0.3785
  160TMC2    H5 2501   0.461   2.042   1.520  0.3200  0.0663  1.9695
  161MPD2     C 2502   0.053   2.733   1.630  0.5127 -0.1771 -0.4852
  161MPD2    C1 2503   0.099   2.719   1.497  0.0001  0.1669 -0.2672
  161MPD2    C2 2504   0.098   2.828   1.413 -0.0537  0.9147 -0.2072
  161MPD2    C3 2505   0.029   2.939   1.448  0.3873 -0.3823 -0.7731
  161MPD2    C4 2506   4.720   2.953   1.579 -0.3981  0.4454  0.2807
  161MPD2    C5 2507   4.729   2.849   1.665  0.1651  0.6839 -0.0895
  161MPD2     H 2508   0.142   2.816   1.315  0.2096 -0.3310  0.0641
  161MPD2    H1 2509   4.664   3.034   1.624  0.0572  2.1808 -2.3317
  161MPD2    H2 2510   0.056   2.648   1.698  1.9925 -0.4351 -0.8695
  161MPD2    H3 2511   4.686   2.858   1.764  0.2639 -0.2286  0.0347
  161MPD2     N 2512   0.006   3.045   1.354 -0.2163  0.1196 -0.7002
  161MPD2    H5 2513   4.694   3.129   1.386  1.0221 -0.7380  3.3412
  161MPD2    N1 2514   0.157   2.602   1.455 -0.3644  0.4079 -0.3508
  161MPD2    H7 2515   0.195   2.610   1.361 -0.8708 -0.8764 -0.6592
  162TMC2    C1 2516   3.372   0.706   0.829 -0.3695 -0.7785 -0.4182
  162TMC2    C2 2517   3.338   0.823   0.761  0.4067  0.2966  0.5742
  162TMC2    C3 2518   3.243   0.906   0.820  0.0287 -0.8229 -0.8624
  162TMC2    C4 2519   3.316   0.680   0.952 -0.4825  0.1020 -0.0300
  162TMC2    C5 2520   3.233   0.771   1.010  0.2118  0.7347  0.0979
  162TMC2    C6 2521   3.193   0.886   0.944 -0.5875  0.1063  0.2210
  162TMC2     C 2522   3.445   0.610   0.757 -0.2885 -0.2652 -0.0122
  162TMC2     O 2523   3.451   0.630   0.634  0.1941 -0.8954  0.0956
  162TMC2     H 2524   3.379   0.848   0.664 -0.3302 -1.5966 -0.2316
  162TMC2    H1 2525   3.325   0.578   0.986  2.3283  0.1347 -0.7058
  162TMC2    H2 2526   3.131   0.965   0.986  0.1521  0.4511  0.6537
  162TMC2    C7 2527   3.211   0.769   1.153  0.2632  0.0230  0.8794
  162TMC2    C8 2528   3.184   1.002   0.738  0.1663 -0.1071  0.0438
  162TMC2    O1 2529   3.178   0.877   1.196 -0.5516 -0.2290 -0.2176
  162TMC2    O2 2530   3.232   1.043   0.635  0.6685 -0.3868  0.1339
  162TMC2    O5 2531   3.056   0.954   0.748  0.7982 -0.5429  0.3060
  162TMC2    H5 2532   3.028   0.915   0.834 -1.0026  0.0839  0.0051
  163MPD2     C 2533   3.732   0.191   0.695 -0.6364 -0.8945  0.0842
  163MPD2    C1 2534   3.688   0.276   0.598 -0.5961 -0.0013  0.3379
  163MPD2    C2 2535   3.613   0.385   0.646  0.2046  0.4120  0.4469
  163MPD2    C3 2536   3.587   0.412   0.775  0.1839 -0.5337  0.0163
  163MPD2    C4 2537   3.652   0.332   0.871 -0.0346 -0.2628  0.5703
  163MPD2    C5 2538   3.724   0.225   0.826  0.0210 -0.7308  0.2794
  163MPD2     H 2539   3.583   0.454   0.568 -0.1494 -1.0096 -0.6750
  163MPD2    H1 2540   3.644   0.355   0.977  0.4766  0.4559  0.4519
  163MPD2    H2 2541   3.777   0.095   0.672  1.6184  0.6659 -1.8848
  163MPD2    H3 2542   3.763   0.159   0.903 -0.1031 -1.0655  0.0551
  163MPD2     N 2543   3.511   0.512   0.832 -0.0242  0.1608  0.2853
  163MPD2    H5 2544   3.504   0.512   0.933  0.3565  2.3288  0.3168
  163MPD2    N1 2545   3.710   0.239   0.464  0.0142 -0.0198 -0.1794
  163MPD2    H7 2546   3.767   0.158   0.440 -0.5152 -0.3133 -0.4341
  164TMC2    C1 2547   3.517   0.629  10.989 -0.6345  0.3127 -0.4328
  164TMC2    C2 2548   3.551   0.509  11.055 -0.0872  0.1939 -0.1816
  164TMC2    C3 2549   3.453   0.462  11.139  0.3705  0.3070  0.2590
  164TMC2    C4 2550   3.389   0.687  10.994  0.0390  0.0939 -0.3332
  164TMC2    C5 2551   3.299   0.624  11.066 -0.2837  0.2753 -0.2184
  164TMC2    C6 2552   3.326   0.515  11.143 -0.1010 -0.4883  0.4233
  164TMC2     C 2553   3.605   0.690  10.895 -0.8889  0.1080  0.0741
  164TMC2     O 2554   3.610   0.809  10.871  0.0946  0.3349 -0.4104
  164TMC2     H 2555   3.648   0.460  11.061  0.2869  0.9751  0.3011
  164TMC2    H1 2556   3.362   0.769  10.930  1.8367 -0.0945 -1.3408
  164TMC2    H2 2557   3.250   0.462  11.199 -0.4877  0.0532  0.4172
  164TMC2    C7 2558   3.173   0.707  11.087 -0.2339  0.6252 -0.3169
  164TMC2    C8 2559   3.489   0.348  11.221  0.1727  0.4631  0.3656
  164TMC2    O1 2560   3.103   0.719  10.990  0.0675 -0.3113 -0.0241
  164TMC2    O2 2561   3.578   0.266  11.194 -0.0918 -0.7599 -0.0514
  164TMC2    O5 2562   3.473   0.395  11.347 -0.4690 -0.1136  0.2677
  164TMC2    H5 2563   3.419   0.475  11.359 -2.3665 -1.4196  0.3319
  165TMC2    C1 2564   4.427   2.513   1.048 -0.0517 -0.4398 -0.1826
  165TMC2    C2 2565   4.406   2.633   1.114 -0.0534  0.3072 -0.0595
  165TMC2    C3 2566   4.514   2.684   1.182  0.0643  0.4773  0.3789
  165TMC2    C4 2567   4.546   2.452   1.055  0.2701  0.2877 -0.5545
  165TMC2    C5 2568   4.649   2.508   1.127  0.0789 -0.1708 -0.1643
  165TMC2    C6 2569   4.633   2.621   1.201 -0.1264 -0.2193  0.4560
  165TMC2     C 2570   4.323   2.417   1.020  0.1886  0.0664  0.9158
  165TMC2     O 2571   4.356   2.341   0.929  0.7684 -0.0995 -0.4346
  165TMC2     H 2572   4.313   2.689   1.109 -0.9368 -1.1907 -0.4415
  165TMC2    H1 2573   4.562   2.359   1.001  0.6989 -0.1805  0.3751
  165TMC2    H2 2574   4.708   2.681   1.251  0.0178  0.7307 -0.8999
  165TMC2    C7 2575   0.036   2.430   1.144  0.1138  0.1919  0.3805
  165TMC2    C8 2576   4.498   2.809   1.251 -1.5459 -0.6501 -0.7118
  165TMC2    O1 2577   0.139   2.483   1.171  0.0697 -0.2619 -0.6325
  165TMC2    O2 2578   4.429   2.904   1.211  0.0765  0.1123 -0.0292
  165TMC2    O5 2579   4.492   2.764   1.377  0.2615 -0.1874  0.1111
  165TMC2    H5 2580   4.528   2.672   1.383 -0.7924 -0.4362  2.5868
  166MPD2     C 2581   3.877   2.185   1.143 -0.3908 -0.2844  0.5093
  166MPD2    C1 2582   3.986   2.130   1.070 -0.3437  0.0701  1.3498
  166MPD2    C2 2583   4.099   2.215   1.056 -0.5113  0.2514 -0.4475
  166MPD2    C3 2584   4.102   2.341   1.114 -0.0402  0.5475  0.6009
  166MPD2    C4 2585   4.001   2.386   1.197  0.5307  0.6187  0.4993
  166MPD2    C5 2586   3.891   2.307   1.205 -0.3578 -0.1711 -0.0681
  166MPD2     H 2587   4.168   2.186   0.977 -0.4329  2.0315 -1.0313
  166MPD2    H1 2588   3.993   2.484   1.243  2.6042  0.0511  2.0633
  166MPD2    H2 2589   3.788   2.125   1.158  0.1500 -1.3661 -0.6027
  166MPD2    H3 2590   3.804   2.343   1.260  0.6119  0.6488  0.9099
  166MPD2     N 2591   4.210   2.431   1.099 -0.5607 -0.0221  0.1709
  166MPD2    H5 2592   4.209   2.520   1.149  1.2023 -1.0165  1.9788
  166MPD2    N1 2593   3.985   1.996   1.029 -0.6942  0.1863  0.2732
  166MPD2    H7 2594   3.906   1.935   1.045 -1.2638  0.8938  0.1607
  167TMC2    C1 2595   2.118   4.367  12.697 -0.3212  0.0026  0.0476
  167TMC2    C2 2596   1.992   4.337  12.746  0.6083  0.3887  0.3845
  167TMC2    C3 2597   1.972   4.218  12.804 -0.0956  0.4982 -0.2883
  167TMC2    C4 2598   2.225   4.280  12.711  0.0419 -0.1633 -0.0278
  167TMC2    C5 2599   2.200   4.162  12.773  0.5554 -0.2342 -0.3344
  167TMC2    C6 2600   2.074   4.126  12.814  0.3172  0.0042  0.6549
  167TMC2     C 2601   2.140   4.498  12.645  0.6626  0.6200  0.5610
  167TMC2     O 2602   2.071   4.599  12.673  0.4214 -0.5818  0.5055
  167TMC2     H 2603   1.912   4.409  12.735 -1.1461 -1.5644  0.5780
  167TMC2    H1 2604   2.323   4.312  12.678  1.7664 -4.5431  0.8128
  167TMC2    H2 2605   2.050   4.035  12.867 -0.2896 -0.6160 -0.6931
  167TMC2    C7 2606   2.293   4.058  12.754  0.0276  0.1215 -0.5399
  167TMC2    C8 2607   1.842   4.154  12.801  0.1794 -0.0621  0.5472
  167TMC2    O1 2608   2.291   3.967  12.838 -0.1072  0.1369  0.4639
  167TMC2    O2 2609   1.815   4.055  12.734  0.0976  0.9368 -0.0125
  167TMC2    O5 2610   1.754   4.253  12.811 -0.0977 -0.1141 -0.5636
  167TMC2    H5 2611   1.785   4.311  12.885 -0.3773 -2.6865  1.5650
  168MPD2     C 2612   2.264   0.004  12.513  0.4488 -0.6360  0.5847
  168MPD2    C1 2613   2.285   4.609  12.470  0.1621 -0.5993  0.1343
  168MPD2    C2 2614   2.364   4.587  12.360  0.7191 -0.0305  0.2632
  168MPD2    C3 2615   2.431   4.693  12.295 -0.1891  0.3654 -0.1205
  168MPD2    C4 2616   2.424   0.085  12.353  0.4440 -0.6160 -0.4596
  168MPD2    C5 2617   2.336   0.110  12.454  0.5088 -0.0155 -0.2623
  168MPD2     H 2618   2.380   4.484  12.332 -2.6802 -0.3785 -0.4303
  168MPD2    H1 2619   2.470   0.173  12.309  1.9431 -2.4540 -2.5883
  168MPD2    H2 2620   2.194   0.032  12.591 -1.0828  0.1367 -1.0563
  168MPD2    H3 2621   2.326   0.213  12.484 -0.6817  0.0992 -1.0310
  168MPD2     N 2622   2.522   4.672  12.182  0.0990  0.0519  0.3358
  168MPD2    H5 2623   2.559   0.022  12.141 -0.5205 -0.8850 -2.1882
  168MPD2    N1 2624   2.235   4.496  12.540 -0.1284  0.0150  0.1491
  168MPD2    H7 2625   2.256   4.402  12.509  0.4572  1.0766 -2.6647
  169MPD1     C 2626   4.410   4.308   8.920 -0.0898 -0.4889  0.0511
  169MPD1    C1 2627   4.533   4.354   8.900 -0.5225 -0.2447 -0.1689
  169MPD1    C2 2628   4.629   4.323   8.996 -0.6906 -0.1794 -0.4417
  169MPD1    C3 2629   4.601   4.242   9.106  0.6777 -0.1173 -0.2159
  169MPD1    C4 2630   4.478   4.183   9.110 -0.5773  0.5248 -0.0442
  169MPD1    C5 2631   4.380   4.222   9.021 -0.7502  0.4099  0.0719
  169MPD1     H 2632   4.729   4.360   8.979 -1.3961  2.2869  0.7630
  169MPD1    H1 2633   4.457   4.104   9.181  1.0142 -1.2558 -1.5546
  169MPD1    H2 2634   4.330   4.349   8.860  0.5164 -0.4154 -0.7077
  169MPD1    H3 2635   4.279   4.183   9.023 -0.6400  0.2542  2.4223
  169MPD1     N 2636   4.704   4.225   9.211 -0.4659 -0.0346 -0.2597
  169MPD1    H5 2637   0.064   4.258   9.198 -0.2863  0.0075  1.1670
  169MPD1    N1 2638   4.555   4.441   8.791 -0.4192 -0.7522  0.8083
  169MPD1    H6 2639   4.512   4.419   8.702  0.4169 -2.7857  0.9199
  169MPD1    H7 2640   4.655   4.443   8.771 -0.6096 -1.8037 -0.1930
  170MPD1     C 2641   3.640   1.549  12.997  0.8695 -0.6394 -0.6596
  170MPD1    C1 2642   3.683   1.610  13.118 -1.4430 -0.2656  0.8538
  170MPD1    C2 2643   3.704   1.744  13.115 -0.1102 -0.4108  0.0975
  170MPD1    C3 2644   3.730   1.811  12.995 -0.2207 -0.2928 -0.0085
  170MPD1    C4 2645   3.699   1.749  12.881  0.0237  0.1665 -0.4571
  170MPD1    C5 2646   3.650   1.622  12.883  0.0534  0.1206  0.6757
  170MPD1     H 2647   3.720   1.790  13.212 -3.3317  0.1396  0.3401
  170MPD1    H1 2648   3.719   1.790  12.782 -0.4598 -0.0361 -0.6397
  170MPD1    H2 2649   3.589   1.453  12.995  0.3612 -0.3373 -2.4418
  170MPD1    H3 2650   3.606   1.571  12.798 -0.8155 -0.9095  1.7343
  170MPD1     N 2651   3.785   1.940  13.016  0.1944 -0.2735  0.2143
  170MPD1    H5 2652   3.792   1.962  13.114  0.1571 -0.7363  0.3209
  170MPD1    N1 2653   3.655   1.536  13.236  0.2452 -0.5368  0.0498
  170MPD1    H6 2654   3.663   1.435  13.230  0.6014 -0.5688  1.0158
  170MPD1    H7 2655   3.712   1.570  13.313  0.2157  2.5924 -1.3416
  171MPD1     C 2656   2.376   2.492  15.110  0.0026 -0.6735  1.2949
  171MPD1    C1 2657   2.352   2.530  15.243 -0.5541 -0.3685  0.2255
  171MPD1    C2 2658   2.426   2.471  15.348 -0.1746  0.1826 -0.1317
  171MPD1    C3 2659   2.507   2.363  15.313  0.9399  0.6251  0.2369
  171MPD1    C4 2660   2.525   2.330  15.181 -0.2569 -0.3122 -0.4501
  171MPD1    C5 2661   2.465   2.393  15.079  0.2362  0.2321 -0.2159
  171MPD1     H 2662   2.414   2.501  15.451 -1.0188  0.9135 -0.4434
  171MPD1    H1 2663   2.593   2.246  15.167 -0.9851 -1.0661  0.4900
  171MPD1    H2 2664   2.324   2.539  15.027 -0.8279  1.7458  3.1950
  171MPD1    H3 2665   2.476   2.355  14.978  2.4816  0.7062 -0.1600
  171MPD1     N 2666   2.572   2.277  15.407 -0.3432 -0.6262 -0.0605
  171MPD1    H5 2667   2.625   2.201  15.365 -0.6262 -1.4546  1.0865
  171MPD1    N1 2668   2.271   2.641  15.276  0.1589  0.1434  0.0879
  171MPD1    H6 2669   2.255   2.661  15.375 -0.5965 -0.4881  0.0967
  171MPD1    H7 2670   2.186   2.650  15.222  0.9875 -0.3165 -1.2931
  172MPD1     C 2671   1.759   1.647  17.241 -0.2557 -0.3707  0.0770
  172MPD1    C1 2672   1.784   1.778  17.226 -0.2300  0.3735  0.4719
  172MPD1    C2 2673   1.765   1.867  17.333  0.1397 -0.6021 -0.1911
  172MPD1    C3 2674   1.705   1.823  17.451 -0.2811 -0.0424  0.0210
  172MPD1    C4 2675   1.683   1.689  17.461 -0.0937 -0.0942  0.1457
  172MPD1    C5 2676   1.707   1.603  17.361  0.4297  0.2513  0.0493
  172MPD1     H 2677   1.810   1.965  17.327 -0.8045 -0.1043  0.9412
  172MPD1    H1 2678   1.632   1.651  17.549 -0.5891 -2.2185 -1.0329
  172MPD1    H2 2679   1.776   1.572  17.165 -0.0021  0.7572 -0.9675
  172MPD1    H3 2680   1.679   1.500  17.376 -0.9760  0.5581 -0.5158
  172MPD1     N 2681   1.676   1.901  17.566 -0.0451 -0.1291 -0.6015
  172MPD1    H5 2682   1.642   1.850  17.647  1.3910 -0.5457 -0.2551
  172MPD1    N1 2683   1.861   1.825  17.112 -0.3585 -0.4118 -0.6210
  172MPD1    H6 2684   1.850   1.923  17.088  0.2819 -0.3035 -0.4832
  172MPD1    H7 2685   1.835   1.771  17.031 -0.4022  0.7941 -1.4093
  173MPD1     C 2686   3.412   2.199  13.049 -0.6859  0.7534 -0.3820
  173MPD1    C1 2687   3.275   2.198  13.071  0.8031 -0.0226  0.5176
  173MPD1    C2 2688   3.216   2.127  13.175 -0.3942  0.0567  0.0582
  173MPD1    C3 2689   3.282   2.037  13.250 -0.6520  0.4654  0.3755
  173MPD1    C4 2690   3.421   2.033  13.228  0.2369 -0.2791 -0.1190
  173MPD1    C5 2691   3.486   2.121  13.142 -0.4237 -0.1806  0.2565
  173MPD1     H 2692   3.111   2.145  13.194 -0.2396 -0.2845  1.2235
  173MPD1    H1 2693   3.484   1.983  13.300  1.2616  0.6935 -0.3402
  173MPD1    H2 2694   3.461   2.257  12.972  0.6972 -0.9218 -0.7664
  173MPD1    H3 2695   3.594   2.135  13.142 -0.5687  0.8934  1.8461
  173MPD1     N 2696   3.217   1.963  13.355 -0.6880  0.0591 -0.5771
  173MPD1    H5 2697   3.118   1.977  13.371  0.2064  2.4472  2.9095
  173MPD1    N1 2698   3.200   2.295  13.004  0.6391 -0.0337 -0.0971
  173MPD1    H6 2699   3.099   2.285  13.010  0.7956 -1.8221 -0.6000
  173MPD1    H7 2700   3.243   2.315  12.913 -1.0747 -0.0509 -0.9040
  174MPD1     C 2701   3.227   1.428  14.221 -0.7048 -0.1772 -0.7739
  174MPD1    C1 2702   3.315   1.447  14.111 -0.1168  0.0948 -0.3906
  174MPD1    C2 2703   3.255   1.469  13.985 -0.6084 -0.4608 -1.3132
  174MPD1    C3 2704   3.118   1.491  13.974  0.1586  0.2672 -1.1531
  174MPD1    C4 2705   3.038   1.482  14.081  0.1920 -0.5130  0.1624
  174MPD1    C5 2706   3.091   1.454  14.204 -0.1314 -0.1062  0.0017
  174MPD1     H 2707   3.316   1.480  13.896  0.4434  2.2357 -0.2527
  174MPD1    H1 2708   2.929   1.485  14.085  0.3356  1.2551  3.0738
  174MPD1    H2 2709   3.254   1.402  14.323 -2.8340  0.0285 -0.1673
  174MPD1    H3 2710   3.030   1.428  14.289  0.1457 -2.0762 -0.3936
  174MPD1     N 2711   3.062   1.524  13.845 -0.3945  0.0925 -0.0743
  174MPD1    H5 2712   2.962   1.543  13.841 -0.2388  0.8400 -0.5150
  174MPD1    N1 2713   3.450   1.420  14.121 -0.1630  0.3696  0.3619
  174MPD1    H6 2714   3.500   1.485  14.060  1.7941 -2.1452 -0.7240
  174MPD1    H7 2715   3.485   1.441  14.214  1.6551 -0.0488 -0.2289
  175MPD1     C 2716   1.386   2.945  15.122 -0.0730  0.0808 -0.2643
  175MPD1    C1 2717   1.261   2.985  15.154 -0.3522  0.4110  0.6065
  175MPD1    C2 2718   1.221   3.008  15.288  1.1523  0.1558 -0.5453
  175MPD1    C3 2719   1.308   2.965  15.387  0.1228  0.5938  0.2927
  175MPD1    C4 2720   1.424   2.904  15.354 -0.0588  0.1954 -0.5384
  175MPD1    C5 2721   1.467   2.905  15.219 -0.4525 -0.1569 -0.4883
  175MPD1     H 2722   1.119   3.038  15.309  1.3826 -0.7603  1.8466
  175MPD1    H1 2723   1.498   2.870  15.426  0.7019  0.7306 -1.0726
  175MPD1    H2 2724   1.408   2.928  15.017  1.0405  1.6622 -0.2889
  175MPD1    H3 2725   1.556   2.851  15.188  0.2943  0.0859  1.2026
  175MPD1     N 2726   1.268   2.965  15.523 -0.1617  0.1073 -0.3577
  175MPD1    H5 2727   1.325   2.910  15.587 -2.2885 -0.5514  0.9378
  175MPD1    N1 2728   1.182   3.038  15.044  0.0096 -0.3822  0.0402
  175MPD1    H6 2729   1.081   3.042  15.059 -0.0164 -2.1804  0.2537
  175MPD1    H7 2730   1.198   3.007  14.949  1.5942 -0.2853  0.2832
  176MPD1     C 2731   3.256   0.129  17.726  0.6204  0.8755 -0.2917
  176MPD1    C1 2732   3.277   0.230   0.071 -0.0771  0.5182 -0.1999
  176MPD1    C2 2733   3.313   0.358   0.022 -0.1717  0.3585  0.4524
  176MPD1    C3 2734   3.322   0.383  17.624 -0.4529 -0.4673 -0.6135
  176MPD1    C4 2735   3.310   0.276  17.539 -0.5897  0.5929 -0.2988
  176MPD1    C5 2736   3.280   0.153  17.592  0.4656 -0.2175 -0.0381
  176MPD1     H 2737   3.330   0.435   0.096  2.0464 -0.7065  1.0217
  176MPD1    H1 2738   3.327   0.287  17.432  1.2178  1.2704  0.0653
  176MPD1    H2 2739   3.211   0.036   0.020  1.1320  0.8521  0.3674
  176MPD1    H3 2740   3.280   0.076  17.517  0.2465 -1.9329  1.7204
  176MPD1     N 2741   3.359   0.514  17.586 -1.2274  0.0432 -0.1622
  176MPD1    H5 2742   3.378   0.576  17.663 -2.4094 -1.8728  1.6645
  176MPD1    N1 2743   3.239   0.205   0.204  0.0925  0.2236 -0.2445
  176MPD1    H6 2744   3.249   0.105   0.222 -1.0727  0.6235  2.7269
  176MPD1    H7 2745   3.292   0.254   0.275 -0.1030  0.0048  0.0552
  177MPD1     C 2746   1.737   0.543   9.824  0.4104  0.6853  0.3300
  177MPD1    C1 2747   1.670   0.474   9.727  0.5481 -0.1578  0.6871
  177MPD1    C2 2748   1.571   0.545   9.658  0.1267  0.5402 -0.2648
  177MPD1    C3 2749   1.573   0.682   9.660  0.1792 -0.0573  0.1928
  177MPD1    C4 2750   1.669   0.749   9.740 -0.2372 -0.1289  0.3422
  177MPD1    C5 2751   1.744   0.678   9.827 -0.1622  0.0776 -0.1857
  177MPD1     H 2752   1.490   0.496   9.604  1.4522 -1.0552 -0.8056
  177MPD1    H1 2753   1.672   0.857   9.745  0.7281 -0.1981  1.2608
  177MPD1    H2 2754   1.796   0.491   9.900 -1.3419 -0.6915  0.7523
  177MPD1    H3 2755   1.804   0.727   9.902 -0.4255 -0.1322  0.1662
  177MPD1     N 2756   1.470   0.748   9.580  0.6309  0.0141 -0.3484
  177MPD1    H5 2757   1.405   0.682   9.538 -0.8357  1.9919 -1.1795
  177MPD1    N1 2758   1.655   0.339   9.751  0.2892  0.6307  0.6026
  177MPD1    H6 2759   1.611   0.292   9.673  0.6900  0.2350  0.6130
  177MPD1    H7 2760   1.746   0.296   9.768  0.4588  1.4528  1.8529
  178MPD1     C 2761   3.994   1.547  17.539  0.2396 -0.2384 -0.8183
  178MPD1    C1 2762   3.933   1.514  17.426  0.7878 -0.0699 -0.2174
  178MPD1    C2 2763   4.013   1.501  17.313 -0.4420 -0.3871  0.3872
  178MPD1    C3 2764   4.155   1.499  17.317  0.8050 -0.3049 -0.1217
  178MPD1    C4 2765   4.212   1.538  17.434 -0.9263  0.0454  0.2337
  178MPD1    C5 2766   4.133   1.558  17.545 -0.2973 -0.3291  0.7329
  178MPD1     H 2767   3.968   1.469  17.220 -1.4360 -0.6233  0.9491
  178MPD1    H1 2768   4.319   1.546  17.448 -0.4615 -2.7819 -1.7924
  178MPD1    H2 2769   3.946   1.568  17.633  1.3952 -1.2234 -0.0067
  178MPD1    H3 2770   4.179   1.591  17.637 -0.9593  2.0778  0.2166
  178MPD1     N 2771   4.234   1.472  17.203 -0.1137  0.8377  0.1858
  178MPD1    H5 2772   4.333   1.488  17.218  0.3447  0.8344 -2.7741
  178MPD1    N1 2773   3.799   1.535  17.415  0.1340  0.2856 -0.3626
  178MPD1    H6 2774   3.756   1.474  17.345  1.1247 -0.3312 -0.4373
  178MPD1    H7 2775   3.756   1.502  17.501  0.5555  1.4916  0.3026
  179MPD1     C 2776   3.726   4.455  15.728  0.2674 -0.4018  0.0036
  179MPD1    C1 2777   3.760   4.345  15.811  0.3120  0.2704 -0.5221
  179MPD1    C2 2778   3.658   4.261  15.847 -0.1046 -0.5767 -0.3845
  179MPD1    C3 2779   3.530   4.278  15.802 -1.3044 -0.1864  0.0466
  179MPD1    C4 2780   3.507   4.372  15.699  0.1603  0.2211  0.1754
  179MPD1    C5 2781   3.603   4.470  15.681  0.4856 -0.2829 -0.3454
  179MPD1     H 2782   3.686   4.176  15.908  0.1350  0.3634  0.8225
  179MPD1    H1 2783   3.407   4.391  15.663  0.1365  0.8378  0.5706
  179MPD1    H2 2784   3.804   4.525  15.703 -1.7448  1.3349 -1.3361
  179MPD1    H3 2785   3.576   4.547  15.609 -1.1169  0.7816  1.3794
  179MPD1     N 2786   3.427   4.183  15.823 -0.5573  0.7364 -0.2300
  179MPD1    H5 2787   3.351   4.191  15.756  0.1766  0.0141 -1.1488
  179MPD1    N1 2788   3.889   4.328  15.863 -0.0676  0.1224  0.6713
  179MPD1    H6 2789   3.964   4.373  15.811 -0.7138  1.8510  1.2448
  179MPD1    H7 2790   3.906   4.230  15.886 -0.1476 -0.0527 -0.0314
  180MPD1     C 2791   2.423   0.470  15.138  0.2524  0.2730  0.0767
  180MPD1    C1 2792   2.538   0.407  15.111 -0.2450 -0.0423  0.1792
  180MPD1    C2 2793   2.578   0.405  14.978  0.0193 -0.3681 -0.5022
  180MPD1    C3 2794   2.505   0.478  14.883 -0.0299  0.2280 -0.0286
  180MPD1    C4 2795   2.412   0.575  14.929  0.2496  0.3000 -0.0353
  180MPD1    C5 2796   2.360   0.555  15.055  0.5229 -0.6782  0.2503
  180MPD1     H 2797   2.662   0.341  14.949  0.2899  0.1255 -0.8116
  180MPD1    H1 2798   2.361   0.643  14.862  0.3624  0.1555 -0.2691
  180MPD1    H2 2799   2.379   0.479  15.236  0.1548 -2.2320  0.2394
  180MPD1    H3 2800   2.275   0.615  15.086  0.4571 -0.2822 -0.7021
  180MPD1     N 2801   2.547   0.470  14.745  0.9306 -0.1183  0.4905
  180MPD1    H5 2802   2.637   0.425  14.732  0.4742 -1.0796  0.6106
  180MPD1    N1 2803   2.587   0.318  15.206 -0.8335  0.2432 -0.0992
  180MPD1    H6 2804   2.686   0.298  15.195 -0.4247  2.2217  0.0882
  180MPD1    H7 2805   2.568   0.355  15.299  1.2685  1.8356 -0.3076
  181MPD1     C 2806   0.808   3.776   9.306 -0.1323 -0.2770 -0.3352
  181MPD1    C1 2807   0.789   3.857   9.419 -0.3007 -0.2169  0.4448
  181MPD1    C2 2808   0.792   3.798   9.544  0.2182  0.3733 -0.1302
  181MPD1    C3 2809   0.802   3.660   9.557 -0.1546  0.2745  0.3615
  181MPD1    C4 2810   0.814   3.585   9.443  0.5499  0.5286 -0.1518
  181MPD1    C5 2811   0.813   3.642   9.316  0.4867  0.2242 -0.3174
  181MPD1     H 2812   0.774   3.853   9.635 -1.2653  1.8973 -1.3550
  181MPD1    H1 2813   0.818   3.477   9.452 -0.1705  0.5637  0.5261
  181MPD1    H2 2814   0.825   3.823   9.209  1.1465  0.1827  0.1061
  181MPD1    H3 2815   0.826   3.576   9.231  0.2120  0.5917 -0.6479
  181MPD1     N 2816   0.808   3.595   9.683  0.2379  0.2571  0.1962
  181MPD1    H5 2817   0.795   3.497   9.663 -0.2956 -0.2310  2.9529
  181MPD1    N1 2818   0.788   3.998   9.404  0.4032 -0.5141 -0.2303
  181MPD1    H6 2819   0.750   4.055   9.480 -0.0935  0.1298 -0.9690
  181MPD1    H7 2820   0.745   4.021   9.315  1.9421  0.7225 -0.6326
  182MPD1     C 2821   1.472   0.955   0.993  0.6803 -0.0056  0.1811
  182MPD1    C1 2822   1.481   1.090   1.020  0.9211  0.2265  0.3691
  182MPD1    C2 2823   1.464   1.176   0.919 -0.2614  0.2202 -0.6558
  182MPD1    C3 2824   1.420   1.140   0.794  0.1088  0.4437 -0.4561
  182MPD1    C4 2825   1.391   1.009   0.779  0.2344 -0.1103 -0.0528
  182MPD1    C5 2826   1.419   0.916   0.873  0.6211 -0.5374 -0.1135
  182MPD1     H 2827   1.477   1.282   0.939 -2.4703  0.2932  0.3704
  182MPD1    H1 2828   1.370   0.972   0.679 -1.8504 -1.8647  1.0246
  182MPD1    H2 2829   1.499   0.881   1.067 -0.9412 -0.1466  0.6311
  182MPD1    H3 2830   1.384   0.814   0.858 -0.9772 -0.1646  1.1431
  182MPD1     N 2831   1.402   1.228   0.680  0.6624  0.1527 -0.2206
  182MPD1    H5 2832   1.370   1.178   0.597  0.3749  0.2960 -0.1963
  182MPD1    N1 2833   1.528   1.135   1.145  0.3612 -0.1435  0.7173
  182MPD1    H6 2834   1.518   1.232   1.171  1.6917  0.3892 -0.7419
  182MPD1    H7 2835   1.512   1.080   1.230 -0.8161  0.2527  0.7516
  183MPD1     C 2836   1.215   2.804   8.635 -0.2379  0.1246 -0.3926
  183MPD1    C1 2837   1.222   2.708   8.736  0.3553 -0.6341 -0.0247
  183MPD1    C2 2838   1.145   2.724   8.844 -0.3104 -0.6778 -0.0277
  183MPD1    C3 2839   1.053   2.823   8.855 -0.2048 -0.0455  0.3856
  183MPD1    C4 2840   1.047   2.920   8.755 -0.2756 -0.2408  0.1748
  183MPD1    C5 2841   1.127   2.908   8.641 -0.1311  0.3224 -0.7941
  183MPD1     H 2842   1.141   2.653   8.925  1.0967  0.9155  1.4363
  183MPD1    H1 2843   0.975   3.000   8.755  2.8517  2.5930  2.8981
  183MPD1    H2 2844   1.287   2.809   8.554  1.7429 -0.7022  1.3251
  183MPD1    H3 2845   1.123   2.984   8.564  0.0247  0.2092 -0.9138
  183MPD1     N 2846   0.971   2.824   8.971  0.3655 -0.5827 -0.1705
  183MPD1    H5 2847   0.995   2.759   9.045  1.6420  0.7537  0.5881
  183MPD1    N1 2848   1.337   2.626   8.745 -0.5307 -0.2584 -0.3301
  183MPD1    H6 2849   1.321   2.544   8.803 -1.7924  0.2193 -0.0036
  183MPD1    H7 2850   1.370   2.615   8.649 -1.3109 -2.0291 -0.3895
  184MPD1     C 2851   0.264   0.092   9.733 -0.1513 -0.3187 -0.3074
  184MPD1    C1 2852   0.368   0.151   9.802  0.2486  0.1192 -0.2019
  184MPD1    C2 2853   0.446   0.246   9.746  0.1167 -0.0557  0.8268
  184MPD1    C3 2854   0.418   0.291   9.619 -0.7577 -0.0283  0.2994
  184MPD1    C4 2855   0.320   0.231   9.550  0.1669 -0.4545  0.6713
  184MPD1    C5 2856   0.243   0.128   9.605  0.1516  0.0498 -0.5000
  184MPD1     H 2857   0.518   0.307   9.800  0.0220 -0.6155  1.5825
  184MPD1    H1 2858   0.311   0.250   9.444  1.2034 -0.4388  0.5895
  184MPD1    H2 2859   0.203   0.013   9.774 -1.3727  0.4172 -0.7185
  184MPD1    H3 2860   0.172   0.076   9.541 -0.1153 -2.5151  1.9111
  184MPD1     N 2861   0.464   0.408   9.562 -0.2513  0.0187  0.1861
  184MPD1    H5 2862   0.414   0.442   9.480 -0.9140 -0.2192  0.4941
  184MPD1    N1 2863   0.380   0.114   9.937 -0.5920 -0.0950  0.4608
  184MPD1    H6 2864   0.435   0.176   9.996 -0.1741  0.2664 -0.3205
  184MPD1    H7 2865   0.303   0.073   9.991 -0.5980  1.4734  1.6487
  185MPD1     C 2866   0.036   0.754   8.941 -0.4063 -0.1624 -0.1107
  185MPD1    C1 2867   0.132   0.848   8.947  0.2992  0.4621  0.1824
  185MPD1    C2 2868   0.243   0.828   9.032  0.5828  0.8379  0.0628
  185MPD1    C3 2869   0.268   0.707   9.101 -0.6382  0.2931 -0.2429
  185MPD1    C4 2870   0.162   0.609   9.087  0.5717  0.3970 -0.3738
  185MPD1    C5 2871   0.048   0.642   9.011 -0.2957 -0.1860  0.2468
  185MPD1     H 2872   0.309   0.913   9.032  0.0678  1.2389  2.8934
  185MPD1    H1 2873   0.155   0.523   9.152 -2.4649  0.1915 -0.9284
  185MPD1    H2 2874   4.682   0.765   8.879  0.4742 -1.3006 -1.5605
  185MPD1    H3 2875   4.707   0.566   8.993 -0.8037  0.7575 -1.6485
  185MPD1     N 2876   0.374   0.684   9.195  0.2096 -0.0659 -0.1088
  185MPD1    H5 2877   0.374   0.599   9.251 -1.8385 -1.1394 -1.7406
  185MPD1    N1 2878   0.120   0.963   8.870 -0.0484 -0.0054 -0.4979
  185MPD1    H6 2879   0.065   0.944   8.787 -0.6654  1.0455 -0.3269
  185MPD1    H7 2880   0.212   1.001   8.849  0.4983 -0.5224  0.9577
  186MPD1     C 2881   4.327   3.466  16.056  0.1676  0.6149  0.0411
  186MPD1    C1 2882   4.398   3.549  15.978 -0.4927  0.3779  0.0704
  186MPD1    C2 2883   4.395   3.685  16.008  0.9217 -0.3331 -0.3356
  186MPD1    C3 2884   4.329   3.725  16.128 -0.3463 -0.3424 -0.3260
  186MPD1    C4 2885   4.260   3.640  16.201 -0.0628  0.7258  0.3596
  186MPD1    C5 2886   4.254   3.509  16.169 -0.3269  0.1298  0.9686
  186MPD1     H 2887   4.450   3.760  15.953 -0.2166  1.0992  0.4572
  186MPD1    H1 2888   4.206   3.672  16.289 -1.5421 -2.6153  0.6718
  186MPD1    H2 2889   4.310   3.364  16.023 -2.7655  1.0345  0.2603
  186MPD1    H3 2890   4.191   3.435  16.217  0.1454 -1.5638 -1.0475
  186MPD1     N 2891   4.331   3.856  16.174 -0.3265 -0.5794 -0.2601
  186MPD1    H5 2892   4.258   3.886  16.238 -1.2146 -2.0746 -0.5775
  186MPD1    N1 2893   4.455   3.507  15.860 -0.6257 -0.3196 -0.0054
  186MPD1    H6 2894   4.482   3.409  15.863  0.1408 -0.0896  0.7765
  186MPD1    H7 2895   4.538   3.556  15.825  0.2329 -1.9387 -0.2252
  187MPD1     C 2896   3.202   1.545  17.613 -0.3506 -0.3986 -0.3817
  187MPD1    C1 2897   3.266   1.425  17.577 -0.5354  0.6689  0.2976
  187MPD1    C2 2898   3.275   1.389  17.447 -0.1835 -0.5764 -0.0349
  187MPD1    C3 2899   3.216   1.454  17.350 -0.0114  0.3275 -0.1586
  187MPD1    C4 2900   3.154   1.575  17.386 -0.2251 -0.0957 -0.3255
  187MPD1    C5 2901   3.142   1.622  17.515  0.5698  0.1991 -0.4237
  187MPD1     H 2902   3.331   1.298  17.432 -1.0615 -1.2175  0.5517
  187MPD1    H1 2903   3.107   1.632  17.307  2.4550 -0.1003 -1.9526
  187MPD1    H2 2904   3.187   1.570  17.717 -1.3390 -1.6317 -0.2281
  187MPD1    H3 2905   3.091   1.717  17.529 -0.3836 -0.3975  0.1342
  187MPD1     N 2906   3.220   1.406  17.217  0.1525 -0.3113  0.0293
  187MPD1    H5 2907   3.186   1.465  17.142 -0.1911 -0.7696 -0.1743
  187MPD1    N1 2908   3.345   1.358  17.676  0.4002 -0.1681 -0.0559
  187MPD1    H6 2909   3.297   1.348   0.027  0.2458 -0.6098 -0.1860
  187MPD1    H7 2910   3.390   1.269  17.655 -0.0761 -0.3707 -0.2098
  188MPD1     C 2911   2.725   2.572  10.146  0.3695 -0.8342  0.2431
  188MPD1    C1 2912   2.621   2.523  10.076 -0.2065 -0.6302 -0.3733
  188MPD1    C2 2913   2.615   2.386  10.061  0.0444  0.2389 -0.5800
  188MPD1    C3 2914   2.725   2.308  10.093  0.1318 -0.0163 -0.3771
  188MPD1    C4 2915   2.834   2.359  10.160  0.2784 -0.6450  0.0924
  188MPD1    C5 2916   2.836   2.499  10.175  0.5083  0.3297  0.5147
  188MPD1     H 2917   2.535   2.342  10.004 -0.8016 -1.0277  1.5853
  188MPD1    H1 2918   2.922   2.299  10.183  1.5069  1.5932  1.1756
  188MPD1    H2 2919   2.743   2.678  10.165 -2.5246 -0.8649  3.1618
  188MPD1    H3 2920   2.922   2.547  10.219 -0.2234  1.8489  0.2814
  188MPD1     N 2921   2.737   2.168  10.063  0.2139 -0.3066  0.6023
  188MPD1    H5 2922   2.819   2.116  10.093 -0.4958 -0.2296  2.6401
  188MPD1    N1 2923   2.505   2.600  10.052 -0.5939 -0.2306  0.2112
  188MPD1    H6 2924   2.529   2.698  10.067  1.2186 -0.8477  1.3734
  188MPD1    H7 2925   2.475   2.594   9.955  0.7128  2.7647 -0.3808
  189MPD1     C 2926   1.073   3.074  17.724  0.2948 -0.6851  0.0255
  189MPD1    C1 2927   1.069   2.939   0.017 -0.7155  0.2912 -0.0914
  189MPD1    C2 2928   0.945   2.883   0.047 -0.3959  0.8651  0.2397
  189MPD1    C3 2929   0.829   2.957   0.047  0.4437  0.4014 -0.2890
  189MPD1    C4 2930   0.834   3.090   0.020  0.6033 -0.0261 -0.7204
  189MPD1    C5 2931   0.954   3.146  17.734  0.0258 -0.1033 -0.8877
  189MPD1     H 2932   0.935   2.776   0.062 -1.1243  0.9364  0.2974
  189MPD1    H1 2933   0.746   3.152   0.023  1.2812  0.8787  0.6421
  189MPD1    H2 2934   1.166   3.124  17.699  0.4417 -1.2728 -0.5965
  189MPD1    H3 2935   0.952   3.252  17.713  0.7747  0.0649 -0.0872
  189MPD1     N 2936   0.706   2.887   0.065  0.6683  0.2258 -0.2016
  189MPD1    H5 2937   0.708   2.795   0.107 -0.4432  0.6607  0.8170
  189MPD1    N1 2938   1.190   2.875   0.034  0.3370 -0.2372 -0.2052
  189MPD1    H6 2939   1.216   2.908   0.127 -1.7424  1.8130 -0.3719
  189MPD1    H7 2940   1.253   2.901  17.697 -0.4606  1.4334 -0.2987
  190MPD1     C 2941   3.756   0.927  15.497  0.1557 -0.3755  0.1094
  190MPD1    C1 2942   3.758   0.836  15.595 -0.0261  0.8045 -0.5494
  190MPD1    C2 2943   3.845   0.733  15.588  0.0886  0.1377  0.0824
  190MPD1    C3 2944   3.950   0.728  15.502  0.1655  0.7128  0.0285
  190MPD1    C4 2945   3.956   0.829  15.413  0.8608  0.0016 -0.4232
  190MPD1    C5 2946   3.859   0.924  15.407  0.2729 -0.5578  0.2692
  190MPD1     H 2947   3.854   0.660  15.667 -1.6330  0.5616  0.6707
  190MPD1    H1 2948   4.040   0.830  15.344 -0.1247 -0.9339 -1.6329
  190MPD1    H2 2949   3.680   1.002  15.479  1.0007  0.9878  2.2472
  190MPD1    H3 2950   3.871   0.994  15.324 -2.4108 -0.1634  0.2232
  190MPD1     N 2951   4.017   0.605  15.500  0.8464  0.2956  0.3876
  190MPD1    H5 2952   4.012   0.552  15.587  0.8853 -1.8767 -0.9371
  190MPD1    N1 2953   3.649   0.826  15.682 -0.6238 -0.5727  0.5322
  190MPD1    H6 2954   3.611   0.917  15.704 -2.6654 -0.9911 -1.2567
  190MPD1    H7 2955   3.668   0.784  15.772  0.4758  0.2100  0.6735
  191MPD1     C 2956   3.070   1.744  13.078  0.2368  0.6378 -0.4477
  191MPD1    C1 2957   2.960   1.748  13.164 -0.0570 -0.4444  0.0330
  191MPD1    C2 2958   2.869   1.853  13.141 -0.0519  0.8218  0.0443
  191MPD1    C3 2959   2.892   1.963  13.057 -0.5762 -0.5001 -0.2396
  191MPD1    C4 2960   3.003   1.954  12.974  0.0692 -0.4079 -0.6307
  191MPD1    C5 2961   3.094   1.846  12.990  0.0061 -0.0008 -0.2805
  191MPD1     H 2962   2.775   1.840  13.194  0.6690  0.4875  1.2556
  191MPD1    H1 2963   3.025   2.025  12.896 -0.1667 -0.0692 -0.3919
  191MPD1    H2 2964   3.139   1.660  13.071 -0.2611  0.1134  0.9798
  191MPD1    H3 2965   3.184   1.848  12.930 -1.2952  1.0913 -2.1928
  191MPD1     N 2966   2.808   2.075  13.060 -0.1495  0.5915 -0.1713
  191MPD1    H5 2967   2.728   2.078  13.123 -1.0186  0.7015 -1.2687
  191MPD1    N1 2968   2.926   1.632  13.245  0.3006  0.1057 -0.2766
  191MPD1    H6 2969   2.987   1.552  13.255 -0.5085 -0.6405 -1.3115
  191MPD1    H7 2970   2.882   1.653  13.335  1.7932 -2.2285  0.9930
  192MPD1     C 2971   1.952   2.448  13.405 -0.1373 -0.3397  0.2990
  192MPD1    C1 2972   1.991   2.325  13.356 -1.3104 -0.7368 -0.2870
  192MPD1    C2 2973   2.109   2.315  13.295  0.5981 -0.0879  0.2243
  192MPD1    C3 2974   2.198   2.423  13.270  0.6938 -0.2628  0.8290
  192MPD1    C4 2975   2.158   2.542  13.334  0.2660 -0.1447 -0.7420
  192MPD1    C5 2976   2.031   2.559  13.390 -0.0472  0.1056 -0.0021
  192MPD1     H 2977   2.141   2.220  13.256  1.3176  0.7203 -1.1481
  192MPD1    H1 2978   2.216   2.634  13.338 -0.2719  0.0698  1.9289
  192MPD1    H2 2979   1.856   2.452  13.455 -0.2592 -0.8484  0.1134
  192MPD1    H3 2980   1.996   2.653  13.431 -0.2044  0.1730 -0.2913
  192MPD1     N 2981   2.322   2.422  13.207 -0.3601 -0.4794 -0.2573
  192MPD1    H5 2982   2.380   2.505  13.200 -0.0511 -0.7004 -0.2903
  192MPD1    N1 2983   1.910   2.211  13.371  0.1669 -0.0062  0.2451
  192MPD1    H6 2984   1.961   2.124  13.353  0.3623  0.3202 -0.7632
  192MPD1    H7 2985   1.845   2.207  13.449 -1.4771  3.4006 -0.9436
  193MPD1     C 2986   2.478   2.118  17.379 -0.0986 -0.5821 -0.1304
  193MPD1    C1 2987   2.500   2.091  17.243  0.2097  1.0198  0.2930
  193MPD1    C2 2988   2.541   2.193  17.156  0.4932  0.1175  0.1343
  193MPD1    C3 2989   2.565   2.319  17.204  0.4618 -0.3747 -0.1874
  193MPD1    C4 2990   2.557   2.342  17.336 -0.3628 -0.1532  0.1724
  193MPD1    C5 2991   2.512   2.248  17.417 -0.2140  0.3693 -0.1003
  193MPD1     H 2992   2.551   2.176  17.049 -0.4970 -0.1758  0.0948
  193MPD1    H1 2993   2.573   2.443  17.372 -0.6374 -0.6486  1.6473
  193MPD1    H2 2994   2.449   2.049  17.458 -2.0873  1.9538  1.3649
  193MPD1    H3 2995   2.507   2.272  17.523 -1.3164  0.5446 -0.1954
  193MPD1     N 2996   2.624   2.420  17.127 -0.0780  0.0610 -0.6737
  193MPD1    H5 2997   2.641   2.507  17.175  0.0522  0.3047 -1.1598
  193MPD1    N1 2998   2.459   1.970  17.195 -0.7691 -0.3897  0.0613
  193MPD1    H6 2999   2.492   1.901  17.262 -0.4882 -0.7556 -0.4527
  193MPD1    H7 3000   2.499   1.954  17.103  0.4691 -1.3402  0.7645
  194MPD1     C 3001   1.294   0.362  17.419  0.0061  0.3703 -1.3267
  194MPD1    C1 3002   1.321   0.294  17.532  0.1354  1.5501  0.4139
  194MPD1    C2 3003   1.365   0.163  17.520 -0.1853 -0.2825  0.2262
  194MPD1    C3 3004   1.370   0.094  17.397 -0.4271 -0.2304 -0.2624
  194MPD1    C4 3005   1.332   0.167  17.281  0.2394 -0.1624  0.7404
  194MPD1    C5 3006   1.301   0.305  17.294  0.7668  0.2066 -0.4450
  194MPD1     H 3007   1.378   0.101  17.608 -1.8128  0.1923  0.7859
  194MPD1    H1 3008   1.338   0.124  17.182  1.1399  0.8442  0.3500
  194MPD1    H2 3009   1.256   0.463  17.426 -0.5131  0.2161 -1.9323
  194MPD1    H3 3010   1.279   0.373  17.213  0.9566  0.7115 -0.0789
  194MPD1     N 3011   1.407   4.694  17.382  0.0083 -0.0533 -0.7594
  194MPD1    H5 3012   1.397   4.652  17.290 -1.2784 -1.4841  0.0402
  194MPD1    N1 3013   1.340   0.361  17.655  0.4340 -0.6905  0.0419
  194MPD1    H6 3014   1.343   0.287  17.725  0.5764 -0.7132  0.0127
  194MPD1    H7 3015   1.262   0.425  17.670  0.8355 -0.9388  3.0761
  195MPD1     C 3016   2.327   1.915   0.186 -0.0544 -0.5518 -0.1698
  195MPD1    C1 3017   2.385   1.884   0.307 -0.4086  0.2624  0.0200
  195MPD1    C2 3018   2.448   1.766   0.316  0.1665  0.6323 -0.1845
  195MPD1    C3 3019   2.462   1.692   0.200  0.4897  0.2466  0.0371
  195MPD1    C4 3020   2.408   1.725   0.080  0.2234  0.0746 -0.0786
  195MPD1    C5 3021   2.340   1.841   0.078  0.2088 -0.3919 -0.4872
  195MPD1     H 3022   2.470   1.732   0.417  3.0267 -1.5703 -1.5811
  195MPD1    H1 3023   2.417   1.665  17.728 -0.7721  2.0121 -1.4488
  195MPD1    H2 3024   2.252   1.993   0.178  0.9099  0.0231 -3.7264
  195MPD1    H3 3025   2.272   1.863  17.735 -0.0408 -0.3550 -0.2675
  195MPD1     N 3026   2.538   1.573   0.207  0.5469 -0.5948  0.1437
  195MPD1    H5 3027   2.554   1.520   0.122  0.9460  0.1174 -0.2181
  195MPD1    N1 3028   2.344   1.946   0.424 -0.7590  0.0518  0.3252
  195MPD1    H6 3029   2.408   1.935   0.503 -0.2689  1.6476  0.1582
  195MPD1    H7 3030   2.313   2.042   0.407 -1.1338 -0.0936  0.1922
  196MPD1     C 3031   1.755   0.613  17.683  0.3072 -0.3751 -0.6408
  196MPD1    C1 3032   1.664   0.517  17.716  0.0218  0.1911  0.2281
  196MPD1    C2 3033   1.646   0.481   0.107  0.6485 -0.6994  1.4126
  196MPD1    C3 3034   1.693   0.563   0.213  0.3299 -0.0316 -0.5357
  196MPD1    C4 3035   1.771   0.673   0.179  0.1877 -0.1570 -0.1312
  196MPD1    C5 3036   1.800   0.695   0.047 -0.2874  0.8465 -0.2029
  196MPD1     H 3037   1.583   0.395   0.124  0.8371 -0.9412  0.8744
  196MPD1    H1 3038   1.816   0.751   0.239  1.7010 -1.2289  0.1405
  196MPD1    H2 3039   1.784   0.633  17.580 -0.0959  0.4013 -0.6090
  196MPD1    H3 3040   1.860   0.781   0.019 -0.4019  0.8112 -0.5595
  196MPD1     N 3041   1.662   0.553   0.349 -0.0613 -0.2915 -0.1130
  196MPD1    H5 3042   1.703   0.622   0.411  0.3323 -1.0456  0.4623
  196MPD1    N1 3043   1.623   0.429  17.614  0.7771 -1.2735 -0.5466
  196MPD1    H6 3044   1.526   0.405  17.632  0.5097 -0.4101 -0.8020
  196MPD1    H7 3045   1.615   0.481  17.526  0.6175  0.7717  0.6682
  197MPD1     C 3046   1.101   3.699  17.279 -0.0902  0.1358 -0.4830
  197MPD1    C1 3047   1.135   3.742  17.152  0.8765 -0.2223  1.0357
  197MPD1    C2 3048   1.201   3.658  17.070 -0.8827 -0.2227 -0.1806
  197MPD1    C3 3049   1.251   3.537  17.105 -0.1539  0.1145  0.0729
  197MPD1    C4 3050   1.218   3.495  17.230 -0.1403 -0.8330  0.6762
  197MPD1    C5 3051   1.148   3.581  17.316 -0.1372 -0.0193 -0.6952
  197MPD1     H 3052   1.226   3.707  16.976  1.9161 -0.0152  0.6852
  197MPD1    H1 3053   1.252   3.397  17.264  0.7947 -0.8712 -0.4009
  197MPD1    H2 3054   1.052   3.757  17.357  0.4785 -1.3789  1.0203
  197MPD1    H3 3055   1.134   3.547  17.419 -0.6205 -1.3703 -1.2022
  197MPD1     N 3056   1.341   3.459  17.024  0.0306 -0.1028 -0.0850
  197MPD1    H5 3057   1.374   3.379  17.076  0.5773  0.4115  0.3628
  197MPD1    N1 3058   1.106   3.873  17.113 -0.1459 -0.1350 -1.2451
  197MPD1    H6 3059   1.018   3.911  17.148  0.6039  3.0623 -2.8548
  197MPD1    H7 3060   1.114   3.885  17.012  1.1604  1.4193 -0.9552
  198MPD1     C 3061   3.339   1.789  15.326  0.0973 -0.1279 -0.9102
  198MPD1    C1 3062   3.466   1.822  15.278  0.7771 -0.4918  0.6238
  198MPD1    C2 3063   3.573   1.773  15.341  0.0995  0.3008 -0.3986
  198MPD1    C3 3064   3.568   1.699  15.456 -0.0398 -0.2476 -0.1260
  198MPD1    C4 3065   3.443   1.658  15.503 -0.1249 -0.8647 -0.5854
  198MPD1    C5 3066   3.333   1.699  15.436 -0.5432 -0.1387 -0.7273
  198MPD1     H 3067   3.670   1.790  15.295 -0.5025  2.9920 -0.6945
  198MPD1    H1 3068   3.432   1.589  15.586  0.0070  1.0270  1.0097
  198MPD1    H2 3069   3.246   1.812  15.275 -0.1504 -0.5551 -0.6577
  198MPD1    H3 3070   3.233   1.672  15.466 -0.1817  0.3866  0.9714
  198MPD1     N 3071   3.681   1.665  15.524  0.0550 -0.7609 -0.0288
  198MPD1    H5 3072   3.766   1.704  15.486 -0.3300 -0.0892 -0.2001
  198MPD1    N1 3073   3.485   1.874  15.146  0.0009  0.1976  0.2669
  198MPD1    H6 3074   3.575   1.919  15.130 -0.5325  0.3462 -2.2909
  198MPD1    H7 3075   3.402   1.917  15.105 -0.2071 -0.3379  0.1223
  199MPD1     C 3076   4.268   3.073  10.588 -0.0811  0.6538 -0.0025
  199MPD1    C1 3077   4.139   3.131  10.595 -0.0586  0.2577  0.6047
  199MPD1    C2 3078   4.102   3.246  10.523 -0.4512  0.0757  0.1318
  199MPD1    C3 3079   4.203   3.301  10.441 -0.2445  0.9976  0.8325
  199MPD1    C4 3080   4.326   3.245  10.432 -0.4464 -0.3957  0.1934
  199MPD1    C5 3081   4.357   3.129  10.503  0.2868 -0.2976  0.3045
  199MPD1     H 3082   4.003   3.284  10.545  0.1512  2.4676 -1.3296
  199MPD1    H1 3083   4.402   3.284  10.365 -0.1891 -1.5525 -0.1787
  199MPD1    H2 3084   4.291   2.988  10.651 -2.2711 -0.5768 -0.8473
  199MPD1    H3 3085   4.457   3.090  10.486  0.4930  0.4709 -0.2369
  199MPD1     N 3086   4.187   3.409  10.346  0.0128 -0.4687  0.1093
  199MPD1    H5 3087   4.262   3.418  10.278  0.0834  0.8228  0.3626
  199MPD1    N1 3088   4.034   3.074  10.661  0.2836 -0.2230 -0.7666
  199MPD1    H6 3089   3.991   3.148  10.716 -1.6059 -0.9373 -1.2733
  199MPD1    H7 3090   4.070   2.999  10.720 -1.2259  0.3361  0.8750
  200MPD1     C 3091   4.385   2.116  15.565 -1.0073  0.8331 -1.1429
  200MPD1    C1 3092   4.344   2.042  15.452 -0.3901  0.3462 -0.2301
  200MPD1    C2 3093   4.384   2.083  15.327 -0.4186  0.4113  0.2257
  200MPD1    C3 3094   4.479   2.187  15.317 -0.3948  1.0536 -0.3911
  200MPD1    C4 3095   4.519   2.255  15.430 -0.6120  0.0014 -0.7409
  200MPD1    C5 3096   4.473   2.217  15.554  0.1626  0.1357 -0.1423
  200MPD1     H 3097   4.333   2.040  15.242  2.8583 -2.2928 -0.3671
  200MPD1    H1 3098   4.586   2.340  15.421 -1.5410  0.8005 -0.0713
  200MPD1    H2 3099   4.358   2.094  15.668  2.0014  1.2429 -0.2686
  200MPD1    H3 3100   4.512   2.262  15.644 -0.7608 -0.4151  0.5304
  200MPD1     N 3101   4.526   2.218  15.183  0.1101 -0.3568 -0.3001
  200MPD1    H5 3102   4.492   2.155  15.111  2.2939  0.1520 -1.7926
  200MPD1    N1 3103   4.252   1.942  15.469  0.1000  0.2684 -0.2245
  200MPD1    H6 3104   4.240   1.878  15.392  1.7686 -0.3831  0.0637
  200MPD1    H7 3105   4.247   1.886  15.554 -0.9290  1.9196  0.8062
  201MPD1     C 3106   1.377   2.349  13.366 -0.7704 -0.0829 -0.1311
  201MPD1    C1 3107   1.293   2.245  13.324  0.0052 -0.0356  0.0120
  201MPD1    C2 3108   1.346   2.118  13.327 -0.6943  0.0911  0.8506
  201MPD1    C3 3109   1.474   2.091  13.361  0.1304  0.2562 -1.4269
  201MPD1    C4 3110   1.553   2.198  13.403 -0.1094  0.3351 -0.1044
  201MPD1    C5 3111   1.503   2.324  13.406 -0.5614 -0.5285  0.2684
  201MPD1     H 3112   1.279   2.038  13.296 -1.5714  0.9626  0.4814
  201MPD1    H1 3113   1.656   2.189  13.436  0.4428  2.1878 -1.3296
  201MPD1    H2 3114   1.348   2.453  13.361 -1.9456 -0.3104  1.8964
  201MPD1    H3 3115   1.562   2.406  13.445  0.9854 -1.9220  0.8445
  201MPD1     N 3116   1.516   1.958  13.352  0.0012  0.4957 -0.4208
  201MPD1    H5 3117   1.451   1.886  13.321  0.2195  0.5221 -0.9252
  201MPD1    N1 3118   1.170   2.265  13.258 -0.1683  0.3822  0.2804
  201MPD1    H6 3119   1.099   2.193  13.266  0.3481 -0.2122 -0.5593
  201MPD1    H7 3120   1.132   2.352  13.297  1.1901  0.4514  1.4613
  202MPD1     C 3121   1.517   1.788   8.727 -0.3074 -0.6766  0.1686
  202MPD1    C1 3122   1.432   1.894   8.749  0.6752 -0.5089  0.3901
  202MPD1    C2 3123   1.439   1.951   8.874 -0.5122  0.0061 -0.6059
  202MPD1    C3 3124   1.533   1.906   8.971 -0.3013 -0.0615 -0.1020
  202MPD1    C4 3125   1.620   1.801   8.939  0.5211  0.6299  0.0444
  202MPD1    C5 3126   1.611   1.749   8.812  0.1842 -0.1255 -0.3157
  202MPD1     H 3127   1.361   2.019   8.905 -0.6628  0.0055 -0.9897
  202MPD1    H1 3128   1.694   1.763   9.008  0.6603  0.9706  0.0831
  202MPD1    H2 3129   1.513   1.735   8.633 -1.3428 -1.3899  0.6139
  202MPD1    H3 3130   1.682   1.676   8.776 -0.8371 -1.1073 -0.3309
  202MPD1     N 3131   1.544   1.960   9.100  0.0238 -0.0912 -0.7791
  202MPD1    H5 3132   1.623   1.930   9.156  2.1005  3.1253 -2.0193
  202MPD1    N1 3133   1.318   1.903   8.670 -0.0130 -0.1420  0.2892
  202MPD1    H6 3134   1.249   1.835   8.704 -0.4411  0.9831  1.6668
  202MPD1    H7 3135   1.340   1.878   8.574  1.0471 -2.3118  1.0924
  203MPD1     C 3136   0.294   2.279  12.131  0.0705 -0.2357 -0.1208
  203MPD1    C1 3137   0.361   2.175  12.076  0.1628 -0.3224  0.6038
  203MPD1    C2 3138   0.377   2.062  12.153  0.0804  0.5251 -0.5327
  203MPD1    C3 3139   0.315   2.046  12.273 -0.0228  0.1212  0.0820
  203MPD1    C4 3140   0.224   2.138  12.313  0.2881 -0.5505 -0.3394
  203MPD1    C5 3141   0.221   2.257  12.240  0.4755 -0.0948 -0.2374
  203MPD1     H 3142   0.445   1.984  12.122 -0.3126  0.6038 -1.5944
  203MPD1    H1 3143   0.159   2.129  12.399 -1.5225 -2.2797 -1.8831
  203MPD1    H2 3144   0.280   2.372  12.077 -2.5249 -0.8998 -0.5991
  203MPD1    H3 3145   0.170   2.344  12.280  1.0623  1.5655 -3.0584
  203MPD1     N 3146   0.342   1.933  12.346 -0.5749  0.5240 -0.1946
  203MPD1    H5 3147   0.412   1.870  12.308 -2.0323 -0.2523 -1.5772
  203MPD1    N1 3148   0.431   2.179  11.948  0.4339  0.5459 -0.5092
  203MPD1    H6 3149   0.457   2.270  11.912  0.4862  1.0192  0.7202
  203MPD1    H7 3150   0.512   2.117  11.955  0.1390  0.3804  1.5227
  204MPD1     C 3151   4.660   3.450  17.290 -0.2219 -0.3720 -0.2306
  204MPD1    C1 3152   4.673   3.421  17.156 -0.3710  0.3811 -0.2323
  204MPD1    C2 3153   0.067   3.396  17.106  0.1255 -1.1986 -0.3797
  204MPD1    C3 3154   0.185   3.399  17.174  0.6003  0.0574 -0.0951
  204MPD1    C4 3155   0.166   3.436  17.305 -0.4060  0.4357  0.6920
  204MPD1    C5 3156   0.042   3.458  17.362 -0.2659 -0.0486 -0.3635
  204MPD1     H 3157   0.062   3.366  17.002 -1.3623  0.3768 -0.7588
  204MPD1    H1 3158   0.252   3.450  17.370 -0.7213  0.6726  1.0589
  204MPD1    H2 3159   4.564   3.474  17.333 -0.8254 -2.1153 -0.5735
  204MPD1    H3 3160   0.042   3.485  17.467  1.5548  1.1825 -0.6664
  204MPD1     N 3161   0.303   3.367  17.107  0.7472 -0.0633  0.0275
  204MPD1    H5 3162   0.297   3.343  17.009 -0.5933 -0.9264  0.3229
  204MPD1    N1 3163   4.566   3.449  17.068  0.0048 -0.4050  0.6710
  204MPD1    H6 3164   4.572   3.390  16.985  1.5556 -1.1260  1.2790
  204MPD1    H7 3165   4.473   3.435  17.107  0.0343  2.1854  1.6533
  205MPD1     C 3166   0.309   1.749  16.516 -0.0816  0.0037  0.5017
  205MPD1    C1 3167   0.249   1.830  16.609  0.2498 -0.1785  0.9457
  205MPD1    C2 3168   0.329   1.914  16.683  0.3462 -0.2474  0.0682
  205MPD1    C3 3169   0.469   1.906  16.677 -0.3387  0.1898  0.0930
  205MPD1    C4 3170   0.527   1.816  16.592 -0.3911 -0.0374 -0.1096
  205MPD1    C5 3171   0.444   1.737  16.510 -0.1152  0.8766 -0.0764
  205MPD1     H 3172   0.278   1.975  16.757  0.2995  2.2808 -2.0444
  205MPD1    H1 3173   0.635   1.814  16.591 -0.3992 -0.8138  0.1591
  205MPD1    H2 3174   0.245   1.684  16.458 -0.7827 -0.6226  1.9661
  205MPD1    H3 3175   0.491   1.673  16.436  0.8337  2.5736 -0.9500
  205MPD1     N 3176   0.555   1.981  16.751  0.0622 -0.0118 -0.2417
  205MPD1    H5 3177   0.655   1.967  16.737  0.4350  0.1791  2.1336
  205MPD1    N1 3178   0.113   1.861  16.592 -0.0947 -0.6144  0.1190
  205MPD1    H6 3179   0.070   1.904  16.674  0.9743  1.9298 -0.6466
  205MPD1    H7 3180   0.057   1.778  16.574  0.5571 -0.8737 -0.7091
  206MPD1     C 3181   0.631   3.875  16.562  0.0137 -0.0793  0.1637
  206MPD1    C1 3182   0.656   4.009  16.559 -0.0197 -0.1201  0.0928
  206MPD1    C2 3183   0.684   4.078  16.440 -0.8398 -0.7990  0.4383
  206MPD1    C3 3184   0.687   4.009  16.319  1.1571  0.5634 -0.7066
  206MPD1    C4 3185   0.675   3.878  16.326  0.0187 -0.6469 -0.3048
  206MPD1    C5 3186   0.639   3.804  16.444  0.6006  0.0795 -0.7913
  206MPD1     H 3187   0.701   4.185  16.446 -3.4131 -0.3729 -0.0368
  206MPD1    H1 3188   0.686   3.823  16.234  0.8611 -0.0847 -0.5335
  206MPD1    H2 3189   0.621   3.835  16.663  1.0985 -1.1909 -0.1693
  206MPD1    H3 3190   0.645   3.697  16.458  2.5653  0.4045  0.8776
  206MPD1     N 3191   0.720   4.071  16.193  0.4412  0.0892 -0.2934
  206MPD1    H5 3192   0.701   4.022  16.106 -3.0873 -1.3724  1.3188
  206MPD1    N1 3193   0.684   4.079  16.678 -0.0994 -0.6636 -0.3132
  206MPD1    H6 3194   0.620   4.043  16.749  1.2067 -0.2096  1.0773
  206MPD1    H7 3195   0.664   4.179  16.676 -1.0714 -0.7957  2.0722
  207MPD1     C 3196   1.989   3.253  10.142  0.3564  0.0666  0.1316
  207MPD1    C1 3197   2.009   3.142  10.212 -0.3499 -0.4976 -0.0158
  207MPD1    C2 3198   2.122   3.131  10.294  0.3940  0.0700 -0.1699
  207MPD1    C3 3199   2.200   3.241  10.319  0.2198  0.1270 -0.1936
  207MPD1    C4 3200   2.177   3.357  10.251 -0.0885 -0.5723 -0.0556
  207MPD1    C5 3201   2.071   3.361  10.161  0.2510 -0.6194  0.2857
  207MPD1     H 3202   2.146   3.034  10.337  0.7719  0.0726 -0.3789
  207MPD1    H1 3203   2.240   3.445  10.249 -0.4634 -0.2999  0.1443
  207MPD1    H2 3204   1.903   3.267  10.078  2.4833 -0.4872 -2.8440
  207MPD1    H3 3205   2.050   3.454  10.110 -1.4318 -1.1647 -0.0121
  207MPD1     N 3206   2.309   3.238  10.404 -0.3889  0.5359  0.5263
  207MPD1    H5 3207   2.372   3.318  10.404  1.7410 -1.1550  0.3962
  207MPD1    N1 3208   1.933   3.027  10.177  0.5519 -0.0590 -0.2026
  207MPD1    H6 3209   1.913   2.967  10.257  1.4488 -1.5161 -1.0860
  207MPD1    H7 3210   1.848   3.056  10.130 -1.2235 -1.4769  2.1302
  208MPD1     C 3211   1.932   1.301  17.072  0.0274 -0.2934 -0.1464
  208MPD1    C1 3212   1.916   1.248  17.205  0.2619  0.0792  0.5621
  208MPD1    C2 3213   1.786   1.202  17.235  0.6518 -0.3233 -0.4986
  208MPD1    C3 3214   1.675   1.247  17.161  0.4501 -0.0092  0.2537
  208MPD1    C4 3215   1.698   1.318  17.042 -0.3135  0.1938 -0.5482
  208MPD1    C5 3216   1.824   1.327  16.996  0.0623 -0.0211 -0.1862
  208MPD1     H 3217   1.768   1.136  17.319 -2.0279  1.4057  0.2910
  208MPD1    H1 3218   1.627   1.329  16.960 -1.9959  0.1819  0.9102
  208MPD1    H2 3219   2.025   1.307  17.018  0.3296 -0.3595  0.3660
  208MPD1    H3 3220   1.841   1.358  16.893 -0.7248  0.5823 -0.1310
  208MPD1     N 3221   1.543   1.219  17.202  0.0257 -0.0179 -0.3033
  208MPD1    H5 3222   1.536   1.178  17.294  1.2851 -0.2901 -0.3333
  208MPD1    N1 3223   2.028   1.212  17.279 -0.0751 -0.2547 -0.1980
  208MPD1    H6 3224   2.021   1.197  17.379  2.8707  0.4643  0.1302
  208MPD1    H7 3225   2.101   1.283  17.272 -1.4953  1.2707  0.5655
  209MPD1     C 3226   2.625   1.719  11.335  0.1091  0.8547 -0.0705
  209MPD1    C1 3227   2.588   1.816  11.243  0.3716 -0.3805 -0.0971
  209MPD1    C2 3228   2.626   1.948  11.271 -0.1651 -0.4903 -0.8573
  209MPD1    C3 3229   2.702   1.978  11.383 -0.0550  0.5877 -0.5115
  209MPD1    C4 3230   2.731   1.877  11.477  0.4094  0.6609 -0.0080
  209MPD1    C5 3231   2.686   1.749  11.453 -0.3015 -0.5028 -0.6053
  209MPD1     H 3232   2.605   2.034  11.209 -2.0064  0.5925  1.2775
  209MPD1    H1 3233   2.791   1.888  11.566  0.9833 -1.0529 -0.1688
  209MPD1    H2 3234   2.601   1.615  11.316 -1.8286  1.4422 -0.8260
  209MPD1    H3 3235   2.712   1.669  11.521  3.4835 -1.1858 -2.8268
  209MPD1     N 3236   2.740   2.113  11.395 -0.1710  1.2524 -0.2398
  209MPD1    H5 3237   2.703   2.172  11.321 -1.4593  3.1710  1.9179
  209MPD1    N1 3238   2.497   1.783  11.140 -0.0392  0.1495 -0.3564
  209MPD1    H6 3239   2.511   1.849  11.063 -2.5661  0.4642 -0.5266
  209MPD1    H7 3240   2.506   1.687  11.110  2.2271  0.1713  0.2512
  210MPD1     C 3241   3.059   3.054  11.883  0.1943  0.1286  0.5287
  210MPD1    C1 3242   3.063   2.928  11.939 -0.6402  0.2606  0.5514
  210MPD1    C2 3243   3.027   2.827  11.853 -0.5109  0.2777  0.1490
  210MPD1    C3 3244   2.989   2.846  11.719  0.1380  0.0310  0.0693
  210MPD1    C4 3245   2.991   2.979  11.676 -0.4458  0.3102  0.5686
  210MPD1    C5 3246   3.029   3.080  11.752 -0.1721 -0.5304  0.2894
  210MPD1     H 3247   3.011   2.729  11.896 -0.9990  0.3266  0.0901
  210MPD1    H1 3248   2.944   2.999  11.581 -1.5050 -0.5742  0.9095
  210MPD1    H2 3249   3.083   3.139  11.946  0.5387  1.7418 -1.7886
  210MPD1    H3 3250   3.023   3.184  11.721  0.1120 -0.8116 -0.7234
  210MPD1     N 3251   2.942   2.733  11.642  0.6595  0.3181  0.0978
  210MPD1    H5 3252   2.902   2.745  11.549  0.3346  0.0889  0.2096
  210MPD1    N1 3253   3.076   2.920  12.081 -0.4034  0.0655  0.1547
  210MPD1    H6 3254   3.117   2.829  12.100  0.3568  0.4387  0.2903
  210MPD1    H7 3255   3.127   2.994  12.129  0.6379 -1.2999  1.1493
  211MPD1     C 3256   0.893   1.279  16.018  0.4115  0.5561 -0.0710
  211MPD1    C1 3257   0.964   1.370  16.093  0.7903  0.2187 -0.0767
  211MPD1    C2 3258   0.900   1.481  16.126  0.4716  0.2872  0.4306
  211MPD1    C3 3259   0.772   1.514  16.079 -1.2263 -0.3405 -0.0285
  211MPD1    C4 3260   0.708   1.424  16.001  0.1032  0.0678 -0.1120
  211MPD1    C5 3261   0.764   1.305  15.971  0.2720  0.5197 -0.1384
  211MPD1     H 3262   0.952   1.548  16.193  0.4789  2.1047 -1.4005
  211MPD1    H1 3263   0.608   1.442  15.962 -0.6382 -0.2373  1.6540
  211MPD1    H2 3264   0.941   1.190  15.979  1.5642 -0.2818  3.2383
  211MPD1    H3 3265   0.699   1.243  15.910  2.4502  1.9190 -3.8405
  211MPD1     N 3266   0.718   1.642  16.115  0.1469  0.0098  0.3083
  211MPD1    H5 3267   0.761   1.686  16.196 -0.3978  1.1104  0.0078
  211MPD1    N1 3268   1.082   1.326  16.164 -0.4185  0.2019 -0.1300
  211MPD1    H6 3269   1.132   1.264  16.102 -3.1227 -0.6667 -1.4327
  211MPD1    H7 3270   1.143   1.406  16.180 -1.7852  1.0536  0.7904
  212MPD1     C 3271   0.485   0.350  16.216 -0.2813  0.1160 -0.1629
  212MPD1    C1 3272   0.387   0.426  16.269  0.5507  0.0174 -0.2567
  212MPD1    C2 3273   0.317   0.373  16.375 -0.6447 -0.0031 -0.1183
  212MPD1    C3 3274   0.333   0.237  16.413  0.5444 -0.5297  0.0965
  212MPD1    C4 3275   0.433   0.162  16.354  0.1866  0.1865  0.1722
  212MPD1    C5 3276   0.512   0.221  16.254  0.3076 -0.2290 -0.1845
  212MPD1     H 3277   0.239   0.434  16.420 -0.1980  0.9382 -0.6334
  212MPD1    H1 3278   0.449   0.063  16.396 -1.9838  0.1369  0.8883
  212MPD1    H2 3279   0.550   0.390  16.139 -2.1297  1.7268 -0.8891
  212MPD1    H3 3280   0.601   0.171  16.218  0.8671  2.3170 -2.3382
  212MPD1     N 3281   0.263   0.168  16.508  0.4240 -0.6071 -0.4108
  212MPD1    H5 3282   0.288   0.070  16.511  1.4609 -0.3952 -2.5713
  212MPD1    N1 3283   0.370   0.559  16.239 -0.2614 -0.1122 -0.0188
  212MPD1    H6 3284   0.395   0.569  16.141 -0.9430  1.0773 -0.0669
  212MPD1    H7 3285   0.269   0.575  16.239 -0.5479 -1.8110  2.1124
  213MPD1     C 3286   3.292   0.591  15.854 -0.2984 -0.3676 -0.4890
  213MPD1    C1 3287   3.191   0.494  15.835 -0.6627 -0.2742  0.9029
  213MPD1    C2 3288   3.114   0.530  15.727  0.5681  0.6265 -0.8447
  213MPD1    C3 3289   3.110   0.643  15.655  0.2002 -0.0167  0.1438
  213MPD1    C4 3290   3.212   0.737  15.679 -0.2660 -0.7699 -0.1724
  213MPD1    C5 3291   3.298   0.707  15.782 -0.2840 -0.4565 -0.4745
  213MPD1     H 3292   3.037   0.461  15.692 -0.8760  2.7289 -1.7778
  213MPD1    H1 3293   3.237   0.821  15.614 -1.2564  0.3868  0.9556
  213MPD1    H2 3294   3.358   0.584  15.939 -0.0901 -1.2076 -0.7169
  213MPD1    H3 3295   3.387   0.767  15.796  0.0809 -0.3125 -3.3224
  213MPD1     N 3296   3.023   0.660  15.544 -0.0492 -0.5263  0.6234
  213MPD1    H5 3297   2.959   0.584  15.524  0.4395 -0.1749 -2.2231
  213MPD1    N1 3298   3.207   0.356  15.874 -0.1037 -0.0845 -0.4326
  213MPD1    H6 3299   3.125   0.298  15.855  2.0796 -2.9560 -1.1118
  213MPD1    H7 3300   3.240   0.342  15.969 -3.0324 -0.7841  0.4892
  214MPD1     C 3301   2.121   0.937  15.244  0.0689 -0.2616 -0.6210
  214MPD1    C1 3302   2.168   0.846  15.339  0.2653  0.2538  0.2360
  214MPD1    C2 3303   2.299   0.803  15.330 -0.3354 -0.1529 -0.2268
  214MPD1    C3 3304   2.386   0.857  15.239  0.7066  0.5678 -0.2504
  214MPD1    C4 3305   2.342   0.945  15.144 -0.2240 -0.2425 -0.6010
  214MPD1    C5 3306   2.208   0.987  15.148  0.3113 -0.0515 -0.4752
  214MPD1     H 3307   2.330   0.729  15.401  1.2905 -0.0843 -0.8775
  214MPD1    H1 3308   2.403   0.986  15.064 -0.5466 -2.2317 -1.8571
  214MPD1    H2 3309   2.017   0.966  15.236  0.8588  2.7267 -0.0885
  214MPD1    H3 3310   2.179   1.062  15.076  0.9378 -2.2693 -3.0628
  214MPD1     N 3311   2.518   0.818  15.231  0.0921  0.2955  0.1762
  214MPD1    H5 3312   2.574   0.857  15.156  0.3755  0.4993  0.4873
  214MPD1    N1 3313   2.089   0.822  15.453  0.0321  0.5005  0.9325
  214MPD1    H6 3314   2.100   0.726  15.487  1.1209  0.8627  1.6017
  214MPD1    H7 3315   1.992   0.832  15.424  0.5852  1.4827 -0.5679
  215MPD1     C 3316   1.798   2.451  10.838 -0.6640 -0.3545  0.3402
  215MPD1    C1 3317   1.741   2.565  10.898  0.1467 -0.1261 -0.8032
  215MPD1    C2 3318   1.823   2.628  10.986  0.1802  0.1744 -0.3790
  215MPD1    C3 3319   1.940   2.567  11.047  0.0483  0.0905  0.7177
  215MPD1    C4 3320   1.978   2.441  11.000  0.2751 -0.2782  0.2477
  215MPD1    C5 3321   1.912   2.393  10.889  0.3746  0.1721 -0.4569
  215MPD1     H 3322   1.802   2.732  11.009 -0.4220 -0.4431  1.8419
  215MPD1    H1 3323   2.058   2.383  11.045  0.7349 -0.1528 -0.4154
  215MPD1    H2 3324   1.748   2.398  10.757  0.1253 -0.4606 -0.0732
  215MPD1    H3 3325   1.948   2.299  10.850  2.3735  0.7238  0.0382
  215MPD1     N 3326   2.022   2.637  11.141  0.1827  0.3655 -0.2201
  215MPD1    H5 3327   2.011   2.737  11.156  1.2583  0.6707 -1.5668
  215MPD1    N1 3328   1.635   2.625  10.837 -1.0947  0.4660 -0.1509
  215MPD1    H6 3329   1.574   2.673  10.903  0.3992  0.2251  1.3986
  215MPD1    H7 3330   1.570   2.555  10.803 -1.8483  2.5575 -2.9835
  216MPD1     C 3331   0.860   4.441  16.814 -0.8329  0.1679  0.0385
  216MPD1    C1 3332   0.727   4.402  16.819  1.3045  0.5653  0.5996
  216MPD1    C2 3333   0.681   4.350  16.932  0.1698  0.3062  0.0273
  216MPD1    C3 3334   0.749   4.367  17.050 -0.1753  0.9838  0.3364
  216MPD1    C4 3335   0.880   4.409  17.051 -0.4208  0.8127  0.4902
  216MPD1    C5 3336   0.934   4.446  16.934  0.0335  0.4751 -0.2035
  216MPD1     H 3337   0.589   4.294  16.938  0.9081 -0.7815  1.1640
  216MPD1    H1 3338   0.938   4.424  17.142 -0.2969  0.3851  0.4821
  216MPD1    H2 3339   0.912   4.480  16.727 -2.4485  0.2938 -0.8639
  216MPD1    H3 3340   1.024   4.504  16.950 -0.2217  0.9078 -0.3178
  216MPD1     N 3341   0.681   4.322  17.170  0.0944 -0.5496 -0.0664
  216MPD1    H5 3342   0.587   4.286  17.165 -0.6405  1.4044 -0.2893
  216MPD1    N1 3343   0.652   4.388  16.703 -0.6411 -0.5720 -0.3571
  216MPD1    H6 3344   0.685   4.453  16.633 -0.1969  1.7442  1.9796
  216MPD1    H7 3345   0.551   4.381  16.715 -0.4069 -3.6360 -0.1368
  217MPD1     C 3346   0.073   2.672   8.322  0.9919 -0.2884  0.0674
  217MPD1    C1 3347   0.188   2.601   8.295 -0.3934 -0.4738 -0.7741
  217MPD1    C2 3348   0.252   2.548   8.406 -0.0363 -0.2975  0.3709
  217MPD1    C3 3349   0.219   2.588   8.535 -0.0124 -0.3707 -0.2428
  217MPD1    C4 3350   0.123   2.683   8.546 -0.2378  0.1242 -0.6408
  217MPD1    C5 3351   0.044   2.708   8.441 -0.2157  0.1129  0.4708
  217MPD1     H 3352   0.310   2.458   8.389 -0.6967 -0.6976  0.2553
  217MPD1    H1 3353   0.089   2.704   8.647  1.8358  1.0422 -0.1381
  217MPD1    H2 3354   0.004   2.702   8.244 -0.1762 -2.5947  0.2201
  217MPD1    H3 3355   4.685   2.761   8.457  0.5432  1.9254 -1.1453
  217MPD1     N 3356   0.274   2.536   8.658 -0.6096 -0.5201 -0.0466
  217MPD1    H5 3357   0.227   2.561   8.744  0.9784  0.9525  0.3869
  217MPD1    N1 3358   0.215   2.552   8.168 -0.1483  0.3240  0.3022
  217MPD1    H6 3359   0.182   2.622   8.101 -1.0448 -0.0918  0.2978
  217MPD1    H7 3360   0.316   2.553   8.162 -0.0394 -2.1705  1.9096
  218MPD1     C 3361   2.052   2.905  12.985 -0.3963  0.3955 -0.1716
  218MPD1    C1 3362   2.158   2.912  12.902  0.2213  0.0614 -0.7509
  218MPD1    C2 3363   2.213   2.796  12.854  0.2517  0.7336  0.2725
  218MPD1    C3 3364   2.168   2.671  12.882 -0.7407  0.0238 -0.2313
  218MPD1    C4 3365   2.067   2.666  12.975 -0.0831  0.5493 -0.0645
  218MPD1    C5 3366   2.008   2.783  13.024  0.2702  0.3716  0.8726
  218MPD1     H 3367   2.301   2.796  12.791 -1.2165 -1.8787 -1.7449
  218MPD1    H1 3368   2.027   2.573  13.014 -0.3771  0.7715  0.1658
  218MPD1    H2 3369   1.997   2.991  13.022 -1.0002 -0.7137  1.5295
  218MPD1    H3 3370   1.934   2.774  13.103 -0.9642  0.3798 -0.2806
  218MPD1     N 3371   2.223   2.561  12.818  0.4168  0.0417 -0.2088
  218MPD1    H5 3372   2.299   2.593  12.759 -0.8602  1.3577 -1.1195
  218MPD1    N1 3373   2.215   3.036  12.875  0.2153 -0.2614 -0.3210
  218MPD1    H6 3374   2.148   3.108  12.850 -1.7616 -1.6031  1.1016
  218MPD1    H7 3375   2.289   3.040  12.805  0.7023  0.1482  0.2232
  219MPD1     C 3376   2.856   2.630  12.286  0.4874  0.3049  0.4126
  219MPD1    C1 3377   2.881   2.500  12.312 -0.2619  0.2768 -0.4035
  219MPD1    C2 3378   2.796   2.439  12.403  0.4598  0.3816 -0.0542
  219MPD1    C3 3379   2.677   2.494  12.441  0.5626 -1.0651 -0.0213
  219MPD1    C4 3380   2.640   2.618  12.387 -0.7750  0.0009 -0.3829
  219MPD1    C5 3381   2.739   2.688  12.319 -0.3254 -0.2085 -0.2054
  219MPD1     H 3382   2.830   2.345  12.445  0.7808  0.1349 -0.8713
  219MPD1    H1 3383   2.556   2.674  12.426 -0.6991  0.9161 -1.5131
  219MPD1    H2 3384   2.922   2.692  12.227  0.4093 -3.3723 -3.5266
  219MPD1    H3 3385   2.721   2.791  12.292  0.4134 -0.3166 -1.1016
  219MPD1     N 3386   2.575   2.439  12.524 -0.0591  0.9201 -0.1729
  219MPD1    H5 3387   2.486   2.489  12.523 -0.0015  0.9809 -2.3200
  219MPD1    N1 3388   3.006   2.443  12.275 -0.9005  0.3480  0.9979
  219MPD1    H6 3389   3.001   2.342  12.284  1.0608  0.1651 -0.1115
  219MPD1    H7 3390   3.059   2.470  12.193 -0.2400 -1.8368  0.7011
  220MPD1     C 3391   1.617   3.929  10.139 -0.6464  0.5462  0.2497
  220MPD1    C1 3392   1.750   3.935  10.179  0.3305 -0.2175  0.1461
  220MPD1    C2 3393   1.802   3.820  10.233  0.9681 -0.4232  0.0425
  220MPD1    C3 3394   1.728   3.709  10.254 -0.4140 -0.3953 -0.0434
  220MPD1    C4 3395   1.591   3.712  10.229  0.8541 -0.2365  0.0965
  220MPD1    C5 3396   1.544   3.818  10.154 -0.2551 -0.4685  0.4076
  220MPD1     H 3397   1.908   3.815  10.253  1.5057 -1.1015 -2.9231
  220MPD1    H1 3398   1.522   3.632  10.254  0.9772 -0.0683  0.9742
  220MPD1    H2 3399   1.565   4.007  10.084  2.4312  2.4516 -0.0148
  220MPD1    H3 3400   1.439   3.821  10.126 -0.8961 -0.9326  2.7385
  220MPD1     N 3401   1.792   3.591  10.301 -0.4044  0.1850 -0.2205
  220MPD1    H5 3402   1.888   3.596  10.334 -0.7836  0.8901  0.7789
  220MPD1    N1 3403   1.841   4.042  10.148 -0.6344 -0.1876  0.0408
  220MPD1    H6 3404   1.798   4.134  10.144  0.6886  0.4291  0.1944
  220MPD1    H7 3405   1.920   4.047  10.211 -1.7067 -1.8045  1.5009
  221MPD1     C 3406   0.117   1.487  15.819  0.8286 -0.0772  0.2385
  221MPD1    C1 3407   0.125   1.359  15.768 -0.4448 -0.4288  0.0518
  221MPD1    C2 3408   0.245   1.307  15.719 -0.4139 -0.1114 -0.3637
  221MPD1    C3 3409   0.361   1.387  15.710 -0.0998  0.4456  0.7436
  221MPD1    C4 3410   0.356   1.517  15.756  0.4443 -0.9083  0.8887
  221MPD1    C5 3411   0.232   1.559  15.806  1.5114  0.1180 -0.8100
  221MPD1     H 3412   0.240   1.205  15.683  0.5388 -0.5460  0.7675
  221MPD1    H1 3413   0.435   1.590  15.743  0.9778 -1.7689 -0.7272
  221MPD1    H2 3414   0.026   1.536  15.855  1.0278 -0.5376  1.3677
  221MPD1    H3 3415   0.235   1.662  15.838 -1.8804  0.2503 -0.9204
  221MPD1     N 3416   0.489   1.343  15.668  0.1005 -0.0603 -0.2918
  221MPD1    H5 3417   0.569   1.406  15.667 -1.7647  2.3524  2.1583
  221MPD1    N1 3418   0.025   1.275  15.803  0.0934  0.1830 -0.3659
  221MPD1    H6 3419   0.008   1.206  15.730  2.2169 -2.0763  1.2732
  221MPD1    H7 3420   4.678   1.334  15.814  2.3589  2.7290  2.6025
  222MPD1     C 3421   1.374   0.952  16.358 -0.2324 -0.4242  0.5262
  222MPD1    C1 3422   1.294   0.843  16.338  0.1109  0.4683 -0.5462
  222MPD1    C2 3423   1.159   0.854  16.366 -0.2328 -0.6551  0.0288
  222MPD1    C3 3424   1.106   0.972  16.414 -0.1842  0.7364 -0.2260
  222MPD1    C4 3425   1.189   1.083  16.425  0.0888 -0.4129  0.0292
  222MPD1    C5 3426   1.322   1.069  16.408 -0.0830 -0.3958  0.9273
  222MPD1     H 3427   1.091   0.769  16.365 -1.8125  0.6169  0.1736
  222MPD1    H1 3428   1.157   1.184  16.446 -1.9958 -1.3845  1.5853
  222MPD1    H2 3429   1.482   0.951  16.347 -0.1750  0.1222  1.0382
  222MPD1    H3 3430   1.387   1.156  16.412 -1.6914  0.9447 -1.5014
  222MPD1     N 3431   0.964   1.002  16.428 -0.0179 -0.3451 -0.1422
  222MPD1    H5 3432   0.939   1.095  16.461 -3.1923 -0.5327 -2.0248
  222MPD1    N1 3433   1.358   0.719  16.330 -0.2931 -0.2014  0.0896
  222MPD1    H6 3434   1.297   0.644  16.299  0.2137 -0.0724 -1.2216
  222MPD1    H7 3435   1.439   0.727  16.269  0.4525 -2.2589  0.8071
  223MPD1     C 3436   4.647   1.063  16.114  0.0854 -0.2052 -0.5882
  223MPD1    C1 3437   4.649   1.049  16.251 -0.3783 -0.1008 -0.6279
  223MPD1    C2 3438   0.031   1.018  16.314  0.1604  0.2961 -0.2270
  223MPD1    C3 3439   0.149   1.009  16.240  0.2958  0.4086  0.2902
  223MPD1    C4 3440   0.147   1.019  16.103 -0.5736  0.0394 -0.3966
  223MPD1    C5 3441   0.032   1.050  16.042 -0.0067  0.3980 -0.0584
  223MPD1     H 3442   0.039   1.015  16.422  2.2072  2.5860 -0.3170
  223MPD1    H1 3443   0.236   1.003  16.042 -0.2335 -1.6652  0.5392
  223MPD1    H2 3444   4.556   1.088  16.060  1.4328  1.6176 -1.9623
  223MPD1    H3 3445   0.048   1.060  15.935  1.7929 -2.8456 -0.0978
  223MPD1     N 3446   0.262   0.977  16.314 -0.3818  0.8081 -0.1536
  223MPD1    H5 3447   0.249   0.968  16.414 -1.5340 -1.3512 -0.5007
  223MPD1    N1 3448   4.530   1.039  16.331 -0.0406 -0.5433 -0.0553
  223MPD1    H6 3449   4.554   1.036  16.430 -2.7649 -1.2249  0.5714
  223MPD1    H7 3450   4.457   1.105  16.308 -0.7615 -0.1677  3.4246
  224MPD1     C 3451   0.556   2.701   8.924  0.0202  0.2278 -0.0076
  224MPD1    C1 3452   0.499   2.762   9.034 -0.6677 -0.6487  0.4711
  224MPD1    C2 3453   0.525   2.699   9.155  0.3779 -0.2477 -0.4972
  224MPD1    C3 3454   0.617   2.598   9.167  0.3834  0.5060 -0.3798
  224MPD1    C4 3455   0.677   2.538   9.056  0.2904  0.0405  0.0095
  224MPD1    C5 3456   0.647   2.596   8.935 -0.5024  0.5862  0.8816
  224MPD1     H 3457   0.475   2.752   9.236  0.9413 -0.3349 -0.0924
  224MPD1    H1 3458   0.756   2.465   9.063 -0.9169 -1.2878 -0.1523
  224MPD1    H2 3459   0.529   2.732   8.823  1.7040 -2.3661 -1.2309
  224MPD1    H3 3460   0.689   2.563   8.841  0.2161  1.0638  1.0391
  224MPD1     N 3461   0.670   2.558   9.290 -0.3957  0.1253 -0.4215
  224MPD1    H5 3462   0.736   2.480   9.292 -3.2928 -2.3725 -1.8566
  224MPD1    N1 3463   0.410   2.877   9.020  0.1643 -0.6427 -0.2766
  224MPD1    H6 3464   0.413   2.931   9.107 -1.8310 -2.1213  0.7107
  224MPD1    H7 3465   0.451   2.937   8.948  0.7964  1.7664  2.0549
  225MPD1     C 3466   2.106   3.691  12.749  0.3195  0.4244  0.4094
  225MPD1    C1 3467   2.143   3.562  12.733 -0.4229  0.1715  0.6324
  225MPD1    C2 3468   2.051   3.459  12.761  0.2760  0.1243 -0.6608
  225MPD1    C3 3469   1.915   3.481  12.782 -0.0912  0.0208 -0.4854
  225MPD1    C4 3470   1.876   3.609  12.788 -0.0948 -0.0342  0.7015
  225MPD1    C5 3471   1.970   3.710  12.768  0.2304  0.3846 -0.1057
  225MPD1     H 3472   2.081   3.356  12.750  1.0094  0.1357  1.2959
  225MPD1    H1 3473   1.774   3.644  12.800  0.6215  1.9164  1.1327
  225MPD1    H2 3474   2.169   3.778  12.739 -2.5034  2.0752 -2.9759
  225MPD1    H3 3475   1.938   3.813  12.782  1.5848  0.6457  1.1577
  225MPD1     N 3476   1.817   3.383  12.792  0.8959  0.2436  0.5535
  225MPD1    H5 3477   1.722   3.419  12.796 -0.3333 -2.9517  0.3692
  225MPD1    N1 3478   2.280   3.530  12.732  0.1460 -0.1134  0.7350
  225MPD1    H6 3479   2.292   3.448  12.673  0.9092  1.6974 -1.6100
  225MPD1    H7 3480   2.330   3.603  12.681 -3.3732  0.8699 -1.3135
  226MPD1     C 3481   0.297   3.903   9.155 -0.4982  0.0002  0.7859
  226MPD1    C1 3482   0.359   3.843   9.261 -0.8949 -0.8444  0.2720
  226MPD1    C2 3483   0.287   3.755   9.340 -0.6194 -0.7808 -0.2376
  226MPD1    C3 3484   0.146   3.740   9.321 -0.1728 -0.4249  0.0565
  226MPD1    C4 3485   0.087   3.810   9.222 -0.5586 -0.6784 -0.0812
  226MPD1    C5 3486   0.163   3.883   9.135  0.2789 -0.0425 -0.2420
  226MPD1     H 3487   0.338   3.691   9.411  0.8135  0.8154  0.1897
  226MPD1    H1 3488   4.716   3.795   9.207 -0.3198 -3.8755  1.3251
  226MPD1    H2 3489   0.345   3.972   9.087 -0.3444 -2.3971 -1.5259
  226MPD1    H3 3490   0.105   3.926   9.054 -1.9564  1.0156  1.9038
  226MPD1     N 3491   0.073   3.655   9.406  0.2084 -0.4668  0.4235
  226MPD1    H5 3492   0.120   3.588   9.466  0.3183  0.1850  1.0658
  226MPD1    N1 3493   0.499   3.849   9.264  0.2523 -0.2360  0.3300
  226MPD1    H6 3494   0.532   3.935   9.221  0.2785 -0.1943  0.4325
  226MPD1    H7 3495   0.542   3.813   9.349 -0.2820 -1.4920  0.0611
  227MPD1     C 3496   3.862   3.381   9.897  0.4610 -0.1171 -0.0666
  227MPD1    C1 3497   3.959   3.312   9.955  0.4593  1.2195  0.2866
  227MPD1    C2 3498   4.083   3.328   9.905 -0.0607  0.0000  0.3497
  227MPD1    C3 3499   4.112   3.422   9.812 -0.3471 -0.1651  0.2661
  227MPD1    C4 3500   4.009   3.503   9.761  0.3732  0.8368 -0.3978
  227MPD1    C5 3501   3.886   3.474   9.798  0.4156 -0.5226 -0.0467
  227MPD1     H 3502   4.173   3.279   9.940  0.6259  0.8052 -0.2740
  227MPD1    H1 3503   4.016   3.577   9.682 -0.5766 -1.1682 -2.3431
  227MPD1    H2 3504   3.764   3.372   9.943  0.6455 -2.0978 -0.0847
  227MPD1    H3 3505   3.802   3.525   9.753  1.7116  0.1421 -1.6954
  227MPD1     N 3506   4.247   3.429   9.765  0.5318 -0.2214  0.4337
  227MPD1    H5 3507   4.308   3.359   9.806  0.8365  0.6292  1.4146
  227MPD1    N1 3508   3.938   3.230  10.070 -0.0571  0.5242  0.1606
  227MPD1    H6 3509   4.020   3.173  10.090 -0.0687  0.4517  0.0039
  227MPD1    H7 3510   3.846   3.187  10.063  0.2593 -0.5002  2.2125
  228MPD1     C 3511   3.911   1.111  12.927  0.0725  0.4112 -0.0270
  228MPD1    C1 3512   3.803   1.135  12.837 -0.0362 -0.4786 -0.2231
  228MPD1    C2 3513   3.695   1.059  12.850 -0.5025 -0.7024 -0.7385
  228MPD1    C3 3514   3.680   0.957  12.942  0.2468  0.3605 -0.0354
  228MPD1    C4 3515   3.790   0.935  13.027  0.7467  0.0201 -0.3824
  228MPD1    C5 3516   3.901   1.015  13.024  0.3986  0.3078 -0.2663
  228MPD1     H 3517   3.611   1.081  12.785 -0.3202  1.7430 -0.1531
  228MPD1    H1 3518   3.796   0.850  13.095  0.1503  0.1622 -0.1475
  228MPD1    H2 3519   4.003   1.168  12.922  1.4921 -1.9282 -0.7160
  228MPD1    H3 3520   3.989   0.997  13.084 -0.2209  0.8771  0.8065
  228MPD1     N 3521   3.556   0.882  12.945  0.3354  0.1942  0.0729
  228MPD1    H5 3522   3.490   0.897  12.869  0.5271 -2.3688 -0.5997
  228MPD1    N1 3523   3.818   1.215  12.729 -0.3755  0.1786  0.5163
  228MPD1    H6 3524   3.731   1.261  12.701 -1.4229 -0.1510  3.1405
  228MPD1    H7 3525   3.878   1.294  12.753  0.2415 -0.5035  1.2313
  229MPD1     C 3526   4.201   3.541  14.187 -0.4158  0.1730 -0.3107
  229MPD1    C1 3527   4.198   3.409  14.146  0.0695  0.5708 -0.7790
  229MPD1    C2 3528   4.082   3.337  14.166  0.6246 -0.0290 -0.1785
  229MPD1    C3 3529   3.973   3.388  14.232 -0.5385 -0.2489  0.2944
  229MPD1    C4 3530   3.968   3.522  14.240  0.5234  0.0857 -0.3146
  229MPD1    C5 3531   4.083   3.596  14.229 -0.0055  0.0222  0.0741
  229MPD1     H 3532   4.069   3.231  14.147 -2.2851  0.3247 -0.2868
  229MPD1    H1 3533   3.886   3.584  14.274  1.8423  0.9697  1.2567
  229MPD1    H2 3534   4.293   3.597  14.173  0.8238 -1.8888 -0.4928
  229MPD1    H3 3535   4.064   3.697  14.263 -0.9788 -0.0495 -0.2805
  229MPD1     N 3536   3.859   3.317  14.280 -0.1474 -0.7868  0.4311
  229MPD1    H5 3537   3.795   3.370  14.338  0.2462 -1.0860  1.1357
  229MPD1    N1 3538   4.303   3.356  14.076 -0.9064  0.0771  0.2930
  229MPD1    H6 3539   4.391   3.407  14.081 -2.1079  1.9926  1.5669
  229MPD1    H7 3540   4.330   3.264  14.110  1.8569  0.7757  0.0405
  230MPD1     C 3541   3.142   3.268  14.969 -0.2584 -0.5155  0.7115
  230MPD1    C1 3542   3.223   3.158  15.001 -1.1266 -0.5134  0.1612
  230MPD1    C2 3543   3.339   3.127  14.925  0.1993 -0.0235 -0.2704
  230MPD1    C3 3544   3.373   3.201  14.808 -0.2984 -0.9288 -0.0141
  230MPD1    C4 3545   3.294   3.313  14.780 -0.1689  0.0144 -0.0620
  230MPD1    C5 3546   3.193   3.346  14.864 -0.3514 -1.5792  0.0645
  230MPD1     H 3547   3.397   3.041  14.956 -1.0846 -0.0870  1.9394
  230MPD1    H1 3548   3.302   3.367  14.687  0.7296  0.4545  0.2714
  230MPD1    H2 3549   3.055   3.300  15.024 -0.7505  0.9569 -0.9286
  230MPD1    H3 3550   3.139   3.436  14.834  2.4144 -0.1651 -0.7108
  230MPD1     N 3551   3.479   3.158  14.725 -0.2100 -0.0348 -0.2969
  230MPD1    H5 3552   3.516   3.064  14.739 -0.8954 -0.3503 -0.5588
  230MPD1    N1 3553   3.215   3.097  15.125 -0.1979  0.3331 -0.0218
  230MPD1    H6 3554   3.117   3.116  15.149  0.2570  0.3477  1.7590
  230MPD1    H7 3555   3.238   2.998  15.121  1.4052  0.8321 -2.8119
  231MPD1     C 3556   2.540   1.585  15.425  0.2424 -0.4632  0.4977
  231MPD1    C1 3557   2.629   1.489  15.384  0.4383 -0.7158  0.6085
  231MPD1    C2 3558   2.648   1.473  15.241 -0.5065 -0.1269 -0.0374
  231MPD1    C3 3559   2.604   1.566  15.150  0.1430 -0.3105 -0.4582
  231MPD1    C4 3560   2.540   1.678  15.200  0.2108 -0.0665 -0.2585
  231MPD1    C5 3561   2.493   1.672  15.330 -0.1350  0.4524 -0.3429
  231MPD1     H 3562   2.706   1.386  15.213  0.2522  0.5882 -0.7222
  231MPD1    H1 3563   2.486   1.752  15.142 -1.4496 -0.9129  0.2080
  231MPD1    H2 3564   2.515   1.605  15.529 -0.6680 -0.2665  0.2380
  231MPD1    H3 3565   2.424   1.747  15.368 -0.2506  0.3597 -0.3687
  231MPD1     N 3566   2.634   1.557  15.014 -0.1535  0.2597 -0.0216
  231MPD1    H5 3567   2.678   1.471  14.981 -0.1951  0.5548 -0.8497
  231MPD1    N1 3568   2.677   1.395  15.475  0.6041 -0.0279 -0.1841
  231MPD1    H6 3569   2.775   1.373  15.453  1.0154  0.5617  1.0967
  231MPD1    H7 3570   2.623   1.309  15.465 -0.4553  0.5320  0.7516
  232MPD1     C 3571   3.849   3.671   0.029 -0.2141 -0.4203  0.4378
  232MPD1    C1 3572   3.846   3.532   0.047 -0.5715 -0.4241 -0.8301
  232MPD1    C2 3573   3.804   3.454  17.683 -0.0944  0.1173  0.2872
  232MPD1    C3 3574   3.774   3.498  17.553  0.5156 -0.1644  0.3267
  232MPD1    C4 3575   3.786   3.633  17.530 -0.4501  0.6388 -0.1292
  232MPD1    C5 3576   3.817   3.715  17.637 -0.5106  0.6672  0.2758
  232MPD1     H 3577   3.788   3.347  17.689 -2.2073  0.4820  1.0602
  232MPD1    H1 3578   3.772   3.677  17.432  0.8189  0.8287 -0.2284
  232MPD1    H2 3579   3.882   3.745   0.101 -1.2032  0.6151 -0.1832
  232MPD1    H3 3580   3.831   3.822  17.622 -3.9518  0.9740 -0.8330
  232MPD1     N 3581   3.738   3.403  17.454 -0.3085  0.0576  0.6022
  232MPD1    H5 3582   3.718   3.310  17.488  1.2089 -0.6704 -0.5053
  232MPD1    N1 3583   3.856   3.483   0.177  0.4326  0.1669  0.2236
  232MPD1    H6 3584   3.905   3.532   0.251 -1.2124 -0.5116  1.7532
  232MPD1    H7 3585   3.879   3.384   0.177  2.0881  0.5461  0.2880
  233MPD1     C 3586   0.163   2.823   0.528 -0.3681  0.5578 -0.4624
  233MPD1    C1 3587   0.295   2.818   0.510  0.5144  0.1498 -0.3969
  233MPD1    C2 3588   0.359   2.694   0.516  0.3778 -0.5009  0.8264
  233MPD1    C3 3589   0.289   2.576   0.525 -0.0445  0.2474 -0.1015
  233MPD1    C4 3590   0.156   2.585   0.519  0.1148  0.2399  0.3705
  233MPD1    C5 3591   0.094   2.710   0.530  0.1420  0.3344  0.8668
  233MPD1     H 3592   0.466   2.686   0.526  0.2539  0.5842  3.2331
  233MPD1    H1 3593   0.095   2.498   0.537  1.3097 -0.6051  0.3665
  233MPD1    H2 3594   0.117   2.918   0.556 -1.8138 -0.6270  1.1967
  233MPD1    H3 3595   4.721   2.722   0.533 -0.0836 -1.6070  0.2509
  233MPD1     N 3596   0.343   2.446   0.519 -0.3182 -0.0767 -0.3768
  233MPD1    H5 3597   0.277   2.371   0.538  1.4056 -1.5138 -0.0903
  233MPD1    N1 3598   0.376   2.929   0.523  0.1285 -0.0445  0.5441
  233MPD1    H6 3599   0.469   2.923   0.483  0.0581 -1.3286  0.5533
  233MPD1    H7 3600   0.335   3.019   0.501  0.0168 -0.1981  0.1175
  234MPD1     C 3601   1.400   0.920   9.176 -0.7477  0.0115 -0.6112
  234MPD1    C1 3602   1.488   1.003   9.221 -0.2442 -0.2170  0.4463
  234MPD1    C2 3603   1.460   1.138   9.209 -0.2766  0.0606  0.5987
  234MPD1    C3 3604   1.342   1.192   9.161  0.0152 -0.3307 -0.1497
  234MPD1    C4 3605   1.243   1.100   9.116  1.2677  0.3769 -0.0511
  234MPD1    C5 3606   1.279   0.968   9.124 -0.6106 -0.1480 -0.0723
  234MPD1     H 3607   1.545   1.201   9.231 -0.5150  0.8552 -0.7377
  234MPD1    H1 3608   1.155   1.120   9.056  1.1870 -0.8419 -0.3374
  234MPD1    H2 3609   1.418   0.813   9.163  0.5648  0.0749  0.7224
  234MPD1    H3 3610   1.211   0.896   9.081 -0.0847 -1.2111  0.8484
  234MPD1     N 3611   1.335   1.335   9.152 -0.4307 -0.4954 -0.2349
  234MPD1    H5 3612   1.409   1.390   9.193 -1.4183  1.3289 -0.9198
  234MPD1    N1 3613   1.620   0.960   9.245 -0.0487 -0.2711 -0.3825
  234MPD1    H6 3614   1.621   0.861   9.269  3.5016  0.0904  1.0702
  234MPD1    H7 3615   1.671   1.012   9.316  1.8270 -0.6935 -1.4325
  235MPD1     C 3616   2.668   3.406  11.252 -0.5296 -0.0785  0.0993
  235MPD1    C1 3617   2.803   3.404  11.236  0.4220 -0.0106 -0.2501
  235MPD1    C2 3618   2.853   3.500  11.156  0.0655  0.2967 -0.3826
  235MPD1    C3 3619   2.771   3.582  11.085 -0.2249  0.6886 -0.3363
  235MPD1    C4 3620   2.635   3.574  11.088  0.3960 -0.2779 -0.2606
  235MPD1    C5 3621   2.581   3.477  11.164  0.4093  0.2224 -0.1973
  235MPD1     H 3622   2.958   3.527  11.154 -0.3613  1.9505 -0.0581
  235MPD1    H1 3623   2.567   3.642  11.038 -1.2667 -1.5706  0.2672
  235MPD1    H2 3624   2.612   3.338  11.315 -1.6210  0.6842 -0.0535
  235MPD1    H3 3625   2.474   3.479  11.180  0.7531 -0.7963  2.2177
  235MPD1     N 3626   2.835   3.679  11.002  0.0877  0.5850  0.4371
  235MPD1    H5 3627   2.937   3.677  10.999  0.0244  0.0418 -1.2575
  235MPD1    N1 3628   2.886   3.330  11.316  0.0640  0.0802 -0.2570
  235MPD1    H6 3629   2.969   3.304  11.262  0.1704 -2.6246  1.2159
  235MPD1    H7 3630   2.832   3.246  11.338  0.6958 -0.8568 -2.2616
  236MPD1     C 3631   1.832   0.126   9.465 -1.0466 -0.2271 -0.8711
  236MPD1    C1 3632   1.968   0.160   9.462 -0.6895  0.4628 -0.1762
  236MPD1    C2 3633   2.036   0.152   9.584  0.0114 -0.1675 -0.5688
  236MPD1    C3 3634   1.976   0.101   9.700  0.7857  0.3577  1.2031
  236MPD1    C4 3635   1.846   0.054   9.700 -0.2046 -0.2336  0.7291
  236MPD1    C5 3636   1.777   0.062   9.573  0.7829 -0.1246 -0.1627
  236MPD1     H 3637   2.138   0.188   9.598 -0.2964  0.0229  1.1720
  236MPD1    H1 3638   1.792   0.009   9.782 -0.3946 -2.4681 -0.6029
  236MPD1    H2 3639   1.774   0.129   9.373 -0.9336  0.5704 -0.9130
  236MPD1    H3 3640   1.681   0.011   9.566  0.3214  0.7618 -0.1977
  236MPD1     N 3641   2.060   0.093   9.817 -0.8234  0.4872 -0.1523
  236MPD1    H5 3642   2.158   0.118   9.819 -1.1724  1.9790 -2.4683
  236MPD1    N1 3643   2.007   0.236   9.346 -0.2332  0.8435 -0.1558
  236MPD1    H6 3644   1.962   0.218   9.257 -0.6182 -2.9724  0.8013
  236MPD1    H7 3645   2.105   0.229   9.321 -0.0589  2.5173  0.0473
  237MPD1     C 3646   2.869   2.289  14.661 -0.3688 -0.0836  0.2723
  237MPD1    C1 3647   2.819   2.208  14.559  0.1768 -0.4578  0.2776
  237MPD1    C2 3648   2.708   2.126  14.578  0.0163  0.5216 -0.1726
  237MPD1    C3 3649   2.634   2.137  14.697  0.2062  0.1335 -0.0202
  237MPD1    C4 3650   2.677   2.235  14.791 -0.3141  0.2845  0.0186
  237MPD1    C5 3651   2.795   2.301  14.772 -0.6773  1.0038  0.2537
  237MPD1     H 3652   2.672   2.052  14.508  0.0695  1.4915 -1.2268
  237MPD1    H1 3653   2.618   2.258  14.879 -1.4322  0.1825 -0.7205
  237MPD1    H2 3654   2.961   2.346  14.666 -0.6836  0.3517  1.1216
  237MPD1    H3 3655   2.827   2.375  14.844 -0.2658  0.6743  0.4132
  237MPD1     N 3656   2.509   2.076  14.722 -0.2478  0.0741  0.4465
  237MPD1    H5 3657   2.455   2.103  14.803 -0.1599  1.1365  0.1533
  237MPD1    N1 3658   2.887   2.218  14.434  0.1680 -0.4326  1.0831
  237MPD1    H6 3659   2.981   2.251  14.455  0.8948 -2.2549  0.6625
  237MPD1    H7 3660   2.901   2.119  14.415  0.9980  0.4160 -2.7302
  238MPD1     C 3661   3.489   1.447  14.593 -0.0277 -0.2918  0.3890
  238MPD1    C1 3662   3.426   1.385  14.692 -0.3327  0.3829 -0.4656
  238MPD1    C2 3663   3.392   1.254  14.666 -0.0364  0.5417  0.5682
  238MPD1    C3 3664   3.431   1.180  14.553 -0.0118  0.5513 -0.6184
  238MPD1    C4 3665   3.472   1.250  14.450  0.1468  0.2044  0.3204
  238MPD1    C5 3666   3.506   1.379  14.471  0.2413 -0.3379  0.1683
  238MPD1     H 3667   3.331   1.201  14.738  3.8350 -2.0447  1.9858
  238MPD1    H1 3668   3.496   1.211  14.351  0.3926  1.0583  0.0366
  238MPD1    H2 3669   3.537   1.544  14.597 -0.7664  0.1549 -1.4749
  238MPD1    H3 3670   3.563   1.429  14.394 -0.4833 -0.7137 -0.6218
  238MPD1     N 3671   3.398   1.042  14.538  0.0509 -0.1697  0.3740
  238MPD1    H5 3672   3.402   0.998  14.447  0.9318 -0.4105  0.5269
  238MPD1    N1 3673   3.399   1.436  14.822  0.0321 -0.4408 -0.1555
  238MPD1    H6 3674   3.324   1.384  14.867 -0.0179 -0.5138 -0.3204
  238MPD1    H7 3675   3.391   1.536  14.839 -0.8714 -0.5398  0.0142
  239MPD1     C 3676   3.844   1.614  15.133 -0.5498 -0.1476 -0.6007
  239MPD1    C1 3677   3.974   1.602  15.083 -0.2390  0.3852  0.5721
  239MPD1    C2 3678   3.995   1.612  14.951 -0.2941  0.2019 -0.1687
  239MPD1    C3 3679   3.891   1.637  14.859  0.4050  0.7116  0.4489
  239MPD1    C4 3680   3.764   1.639  14.911  1.0236 -0.1290 -0.1110
  239MPD1    C5 3681   3.744   1.627  15.045  0.0793  0.2350 -0.2047
  239MPD1     H 3682   4.094   1.605  14.908 -0.4445  1.5169 -0.7277
  239MPD1    H1 3683   3.684   1.668  14.845 -0.8929 -4.3320  0.3411
  239MPD1    H2 3684   3.819   1.614  15.238  0.5890  0.6683 -0.3237
  239MPD1    H3 3685   3.644   1.633  15.088 -0.1972  2.7696 -1.1954
  239MPD1     N 3686   3.905   1.673  14.724  0.5762 -0.3456 -0.2270
  239MPD1    H5 3687   3.817   1.698  14.681  0.4175  2.2865  1.6433
  239MPD1    N1 3688   4.095   1.584  15.157 -0.0994  0.1886 -0.1264
  239MPD1    H6 3689   4.089   1.554  15.254 -1.6064 -4.0300 -1.5675
  239MPD1    H7 3690   4.159   1.525  15.104 -2.1982 -1.8276 -0.3635
  240MPD1     C 3691   3.600   1.192  13.211 -0.9419 -0.9034  0.5837
  240MPD1    C1 3692   3.462   1.165  13.211  0.3663 -0.5590 -0.0150
  240MPD1    C2 3693   3.391   1.176  13.335  0.1143 -0.1669 -0.1743
  240MPD1    C3 3694   3.460   1.191  13.450 -0.3868  0.4302  0.2179
  240MPD1    C4 3695   3.599   1.199  13.446 -0.0532  0.0918  0.3874
  240MPD1    C5 3696   3.664   1.204  13.327 -0.8391  0.0523 -0.2408
  240MPD1     H 3697   3.284   1.165  13.343  0.2552 -1.8491 -0.6336
  240MPD1    H1 3698   3.649   1.216  13.541 -0.2119  1.7643  0.1749
  240MPD1    H2 3699   3.655   1.192  13.118  0.3834  0.0794  1.3604
  240MPD1    H3 3700   3.770   1.227  13.327 -0.9353  0.4972 -0.3070
  240MPD1     N 3701   3.402   1.190  13.586 -0.2696 -0.3979  0.1309
  240MPD1    H5 3702   3.462   1.197  13.667  0.0813  0.1459 -0.1760
  240MPD1    N1 3703   3.400   1.164  13.081 -0.3860  0.4689  0.2672
  240MPD1    H6 3704   3.458   1.130  13.005 -1.6945  1.4723 -1.1742
  240MPD1    H7 3705   3.311   1.114  13.085 -0.3271  0.4222  0.9946
  241MPD1     C 3706   3.869   1.056  14.273 -0.6767 -0.8569  0.3386
  241MPD1    C1 3707   3.764   0.971  14.303 -0.1540  0.1472  0.3599
  241MPD1    C2 3708   3.644   0.998  14.235 -0.4075 -0.3934  0.2546
  241MPD1    C3 3709   3.636   1.085  14.126  0.7527 -0.2835 -0.1721
  241MPD1    C4 3710   3.757   1.146  14.075  0.3529  1.0960 -0.2969
  241MPD1    C5 3711   3.862   1.130  14.158 -0.1882  0.3008  0.6251
  241MPD1     H 3712   3.553   0.947  14.263 -0.9259  1.0866  1.2194
  241MPD1    H1 3713   3.767   1.215  13.992  2.5773 -0.5092 -1.3642
  241MPD1    H2 3714   3.961   1.055  14.331  0.7383  1.8688 -1.8746
  241MPD1    H3 3715   3.959   1.170  14.131  0.3401 -0.8553  0.7856
  241MPD1     N 3716   3.518   1.109  14.049  0.3026  0.0239  0.3523
  241MPD1    H5 3717   3.520   1.181  13.978  0.3356  1.3748  1.7392
  241MPD1    N1 3718   3.750   0.893  14.417  0.2448  0.2370  0.1867
  241MPD1    H6 3719   3.679   0.820  14.409  0.8618 -0.2770 -0.5126
  241MPD1    H7 3720   3.842   0.864  14.449  0.6157  0.5272 -0.6200
  242MPD1     C 3721   3.120   0.044  15.738  0.1968  0.2140  0.3444
  242MPD1    C1 3722   3.111   0.072  15.601  0.2300 -0.6367 -0.6660
  242MPD1    C2 3723   3.145   4.711  15.508 -0.7212  0.8828 -0.6916
  242MPD1    C3 3724   3.172   4.582  15.547  0.3592  0.2422 -0.0928
  242MPD1    C4 3725   3.189   4.557  15.681  0.1667 -0.0501 -0.2135
  242MPD1    C5 3726   3.159   4.654  15.776  0.4502  1.1034 -0.2677
  242MPD1     H 3727   3.152   0.008  15.405  0.8282  2.3565 -0.1259
  242MPD1    H1 3728   3.228   4.461  15.713  1.9685  0.7231 -0.1148
  242MPD1    H2 3729   3.099   0.119  15.813 -2.4826  0.3063 -0.4808
  242MPD1    H3 3730   3.168   4.633  15.882  0.7232  0.3050 -0.4480
  242MPD1     N 3731   3.191   4.466  15.465 -0.4566 -0.9816 -0.2078
  242MPD1    H5 3732   3.202   4.380  15.518 -0.5185 -1.6987 -1.3647
  242MPD1    N1 3733   3.086   0.201  15.546 -0.1169  0.0391  0.3839
  242MPD1    H6 3734   3.022   0.247  15.611 -0.6437  0.3301 -0.3440
  242MPD1    H7 3735   3.034   0.191  15.459  1.1091  2.0717 -0.5846
  243MPD1     C 3736   4.188   3.363   0.040 -0.1365 -0.0538 -0.7323
  243MPD1    C1 3737   4.288   3.351   0.135  0.4768  0.6657  0.5001
  243MPD1    C2 3738   4.409   3.306   0.097  0.0018  0.2482  0.2941
  243MPD1    C3 3739   4.429   3.251  17.706 -0.2398 -0.1489  0.2743
  243MPD1    C4 3740   4.320   3.238  17.619  0.2189  0.0042 -0.3102
  243MPD1    C5 3741   4.203   3.305  17.655 -0.1829  0.1558 -0.9419
  243MPD1     H 3742   4.493   3.314   0.165  1.3531 -0.0380 -1.3293
  243MPD1    H1 3743   4.330   3.202  17.518 -0.5042 -1.1487  0.0298
  243MPD1    H2 3744   4.089   3.400   0.065  0.0350 -0.3667  0.3702
  243MPD1    H3 3745   4.115   3.311  17.592 -1.3464 -1.7378  0.5021
  243MPD1     N 3746   4.562   3.217  17.683  0.3012 -0.8308  0.2380
  243MPD1    H5 3747   4.637   3.240   0.010 -0.7454  2.7623  0.1715
  243MPD1    N1 3748   4.291   3.421   0.259 -0.1254  0.1751 -0.7020
  243MPD1    H6 3749   4.195   3.432   0.292  1.0195  0.6962  2.4209
  243MPD1    H7 3750   4.346   3.366   0.324  0.2559  1.3936  0.0119
  244MPD1     C 3751   0.779   3.510   0.004 -0.2213  0.4249  0.3772
  244MPD1    C1 3752   0.784   3.440  17.623 -0.0750  0.2854  0.1667
  244MPD1    C2 3753   0.669   3.398  17.573 -0.2941 -0.1400 -0.1782
  244MPD1    C3 3754   0.557   3.396  17.650  0.0655 -0.2256  0.1788
  244MPD1    C4 3755   0.558   3.440   0.039  0.1524  0.0960  0.3281
  244MPD1    C5 3756   0.667   3.508   0.084  0.3708 -0.7440  0.2191
  244MPD1     H 3757   0.667   3.367  17.469 -0.8377 -0.7007 -0.0023
  244MPD1    H1 3758   0.467   3.448   0.097 -0.6479  0.7312 -1.0251
  244MPD1    H2 3759   0.857   3.565   0.056  2.6744 -2.1495 -1.2663
  244MPD1    H3 3760   0.658   3.564   0.177  0.6996 -1.7829  0.8770
  244MPD1     N 3761   0.436   3.332  17.602  0.1558  0.4517 -0.5271
  244MPD1    H5 3762   0.436   3.308  17.503 -0.9883 -0.8593 -0.2038
  244MPD1    N1 3763   0.891   3.455  17.543  0.0458 -0.2071 -0.3023
  244MPD1    H6 3764   0.902   3.379  17.476  1.6575  0.7319 -1.1112
  244MPD1    H7 3765   0.976   3.463  17.598  0.0190 -2.1763  0.0100
  245MPD1     C 3766   1.239   3.733  13.126 -0.5330  0.5072 -0.3389
  245MPD1    C1 3767   1.278   3.855  13.078 -0.5483  0.3867  0.0035
  245MPD1    C2 3768   1.312   3.947  13.165 -0.5528  0.6050  0.1997
  245MPD1    C3 3769   1.326   3.920  13.300  0.7917 -0.3056 -0.2390
  245MPD1    C4 3770   1.281   3.799  13.352  0.3261 -0.3019 -0.5513
  245MPD1    C5 3771   1.238   3.707  13.263 -0.2357 -0.4493  0.3221
  245MPD1     H 3772   1.335   4.050  13.138 -1.6773  0.8048 -0.0084
  245MPD1    H1 3773   1.294   3.768  13.455 -1.3756 -0.6235 -0.4380
  245MPD1    H2 3774   1.197   3.665  13.052  0.3397 -0.6636  0.2582
  245MPD1    H3 3775   1.188   3.620  13.303  2.4621 -1.1102  2.2646
  245MPD1     N 3776   1.391   4.018  13.376 -0.4778  0.2172  0.3027
  245MPD1    H5 3777   1.435   4.093  13.323  0.6728 -1.4307 -1.0723
  245MPD1    N1 3778   1.254   3.882  12.947 -0.5556 -0.4007  0.4240
  245MPD1    H6 3779   1.304   3.959  12.904  0.4334  0.9658  3.9994
  245MPD1    H7 3780   1.285   3.801  12.894 -0.7412  1.2120 -2.1407
  246MPD1     C 3781   3.878   0.603   9.584  0.1232 -0.1105 -0.8120
  246MPD1    C1 3782   3.739   0.587   9.609 -0.0935 -0.2367 -0.4756
  246MPD1    C2 3783   3.662   0.693   9.656  0.1044  0.1828 -0.5249
  246MPD1    C3 3784   3.716   0.820   9.662  0.6821  0.4699 -0.3457
  246MPD1    C4 3785   3.852   0.843   9.633 -0.3424 -0.0769  0.4654
  246MPD1    C5 3786   3.923   0.731   9.602 -0.3574 -0.5969 -0.0414
  246MPD1     H 3787   3.556   0.672   9.667 -0.0268  1.3641  0.4527
  246MPD1    H1 3788   3.904   0.938   9.644  0.2553 -0.5182  1.4864
  246MPD1    H2 3789   3.954   0.530   9.562  0.4610 -0.2424  0.8124
  246MPD1    H3 3790   4.029   0.741   9.579 -0.0285 -3.7006  0.0381
  246MPD1     N 3791   3.622   0.923   9.697 -0.1896 -0.2882  0.9806
  246MPD1    H5 3792   3.527   0.895   9.719 -0.6174 -1.7479 -2.7421
  246MPD1    N1 3793   3.683   0.460   9.604 -0.4028  0.4540  0.3471
  246MPD1    H6 3794   3.585   0.443   9.582 -0.2663 -1.9374  1.6285
  246MPD1    H7 3795   3.728   0.399   9.535  0.8355 -0.5890  2.0719
  247MPD1     C 3796   1.310   0.537  16.060 -0.2910  0.3781  0.3663
  247MPD1    C1 3797   1.245   0.444  16.133  0.1831 -0.3587 -0.7393
  247MPD1    C2 3798   1.259   0.313  16.107  0.7455 -0.5284  0.0312
  247MPD1    C3 3799   1.353   0.263  16.026  0.3844  0.5264  0.1494
  247MPD1    C4 3800   1.433   0.359  15.965 -0.0051  1.7252  0.4253
  247MPD1    C5 3801   1.407   0.497  15.974 -0.1779 -0.3024  0.6384
  247MPD1     H 3802   1.194   0.250  16.167 -0.5018 -0.0572 -0.8026
  247MPD1    H1 3803   1.511   0.336  15.893 -0.3308  2.9278 -0.3238
  247MPD1    H2 3804   1.292   0.643  16.074 -0.5403  0.7159 -2.4016
  247MPD1    H3 3805   1.465   0.567  15.915 -1.2148  0.9936  1.1334
  247MPD1     N 3806   1.392   0.128  16.012  0.2716 -0.8782  0.2746
  247MPD1    H5 3807   1.467   0.107  15.947  0.1546  1.0740 -0.4969
  247MPD1    N1 3808   1.142   0.481  16.222 -0.2482 -0.2722  0.3999
  247MPD1    H6 3809   1.101   0.396  16.261 -0.4873 -0.3383  0.0017
  247MPD1    H7 3810   1.069   0.548  16.197 -1.0103 -0.6143  1.6724
  248MPD1     C 3811   2.323   3.185   0.282 -0.4720 -0.6441  0.0475
  248MPD1    C1 3812   2.258   3.233   0.391 -0.1775  0.1431 -0.2720
  248MPD1    C2 3813   2.128   3.185   0.417 -0.2498 -0.2084 -0.0279
  248MPD1    C3 3814   2.081   3.074   0.350  0.1646  0.0872 -0.3631
  248MPD1    C4 3815   2.150   3.026   0.241 -0.2675 -0.0626 -0.5590
  248MPD1    C5 3816   2.268   3.083   0.208  0.6977 -0.1489 -0.0588
  248MPD1     H 3817   2.080   3.226   0.505  1.6123  0.9527  0.4269
  248MPD1    H1 3818   2.121   2.938   0.185 -2.1696 -0.1610  0.5889
  248MPD1    H2 3819   2.415   3.228   0.247 -0.6596 -0.9862 -0.8486
  248MPD1    H3 3820   2.328   3.031   0.135  1.0478  0.9625 -0.5578
  248MPD1     N 3821   1.955   3.023   0.384 -0.3036  0.3285 -0.2992
  248MPD1    H5 3822   1.901   3.069   0.456 -1.4997 -1.7485  0.1555
  248MPD1    N1 3823   2.305   3.345   0.459  0.1056  0.1776  0.1740
  248MPD1    H6 3824   2.273   3.360   0.554  0.0991  2.6684 -0.2203
  248MPD1    H7 3825   2.401   3.374   0.441  0.8057 -1.5964  1.0764
  249MPD1     C 3826   4.439   0.427  10.242 -0.2464 -0.5963  0.4218
  249MPD1    C1 3827   4.516   0.382  10.135 -0.0121  0.5474  0.0319
  249MPD1    C2 3828   4.492   0.260  10.085  0.1381 -0.0748  0.0804
  249MPD1    C3 3829   4.369   0.196  10.119  0.4356  0.2084 -0.2699
  249MPD1    C4 3830   4.290   0.248  10.221  0.1288 -0.2344 -0.2680
  249MPD1    C5 3831   4.326   0.366  10.280 -0.6508 -0.2845 -0.6759
  249MPD1     H 3832   4.560   0.201  10.024  0.1245 -1.7980  1.7154
  249MPD1    H1 3833   4.195   0.208  10.255  0.5641 -1.0984 -0.0601
  249MPD1    H2 3834   4.461   0.522  10.290  1.6758 -0.0220 -1.6128
  249MPD1    H3 3835   4.268   0.408  10.361  2.0404  1.0354  0.5710
  249MPD1     N 3836   4.327   0.085  10.045  0.1638  0.2191 -0.0051
  249MPD1    H5 3837   4.401   0.046   9.988  0.1149  0.5789 -0.3172
  249MPD1    N1 3838   4.626   0.459  10.094 -1.1361  0.5892  0.4246
  249MPD1    H6 3839   4.598   0.555  10.074 -1.0579  0.3672 -0.8095
  249MPD1    H7 3840   4.669   0.432  10.005 -0.6198  1.6374  0.3544
  250MPD2     C 3841   0.012   2.324  12.898  0.0568  0.0535  0.2944
  250MPD2    C1 3842   0.003   2.424  12.802 -0.1367  0.4336 -0.0288
  250MPD2    C2 3843   4.672   2.399  12.687  0.5381 -0.0707 -0.0436
  250MPD2    C3 3844   4.618   2.274  12.662  0.1879  0.3069  0.3296
  250MPD2    C4 3845   4.630   2.175  12.751  0.1902 -0.4683 -0.7069
  250MPD2    C5 3846   4.692   2.199  12.872 -0.4195 -0.3545  0.0839
  250MPD2     H 3847   4.663   2.471  12.607 -0.7647 -1.0965 -0.8185
  250MPD2    H1 3848   4.587   2.077  12.734 -0.3899 -0.2997 -0.2478
  250MPD2    H2 3849   0.067   2.330  12.992 -1.5353  0.7673  1.1828
  250MPD2    H3 3850   4.700   2.117  12.942  3.2152 -0.5101 -0.4978
  250MPD2     N 3851   4.564   2.227  12.537 -0.1958  0.0750  0.4113
  250MPD2    H5 3852   4.527   2.133  12.533 -1.9079  0.6377  3.5090
  250MPD2    N1 3853   0.065   2.545  12.824  0.0326  0.3423  0.2096
  250MPD2    H7 3854   0.131   2.556  12.900  2.4123 -2.4614 -1.4745
  251TMC3    C1 3855   0.128   2.762  12.788  0.4760  0.1972 -0.9548
  251TMC3    C2 3856   0.091   2.889  12.791 -0.1041 -0.0881 -0.4478
  251TMC3    C3 3857   0.178   2.981  12.840  0.2192 -0.1812 -0.3271
  251TMC3    C4 3858   0.257   2.730  12.828  0.1439  0.3361 -0.8363
  251TMC3    C5 3859   0.341   2.823  12.867  0.5610  0.4709 -0.6093
  251TMC3    C6 3860   0.304   2.954  12.885  0.3894 -0.1682  0.1029
  251TMC3     C 3861   0.032   2.660  12.758  0.5307 -0.1250 -0.1167
  251TMC3     O 3862   4.681   2.687  12.678 -0.5333 -0.4046  0.0497
  251TMC3     H 3863   4.725   2.917  12.760 -0.2427  1.7095  1.5644
  251TMC3    H1 3864   0.301   2.632  12.810 -0.6115  0.6239 -4.3380
  251TMC3    H2 3865   0.376   3.024  12.925  1.9343 -1.4531 -0.4098
  251TMC3    C7 3866   0.474   2.781  12.896  0.1494 -0.4180 -0.2750
  251TMC3    C8 3867   0.115   3.059  12.940 -0.2092  0.5427  0.1351
  251TMC3    O1 3868   0.489   2.667  12.946  0.5539  0.9018  0.3193
  251TMC3    O2 3869   0.006   3.021  12.975 -0.7060 -0.7958  0.4606
  252TMC3    C1 3870   0.077   4.110   9.404  0.1785  0.6574 -0.2719
  252TMC3    C2 3871   0.192   4.172   9.371  0.2632 -0.6336 -0.0256
  252TMC3    C3 3872   0.298   4.137   9.451 -0.1087 -1.0468  0.2927
  252TMC3    C4 3873   0.056   4.025   9.499 -0.2449  0.6648 -0.4482
  252TMC3    C5 3874   0.155   3.999   9.583 -0.2267  0.0690 -0.1038
  252TMC3    C6 3875   0.278   4.049   9.557  0.1073  0.3568 -0.1630
  252TMC3     C 3876   4.686   4.156   9.332  0.1811 -0.8962 -0.5529
  252TMC3     O 3877   4.578   4.112   9.374 -0.4278  0.1242 -0.2771
  252TMC3     H 3878   0.208   4.231   9.281  4.9160  0.1943  1.2977
  252TMC3    H1 3879   4.693   3.980   9.515 -0.3966  1.1972  0.1595
  252TMC3    H2 3880   0.362   4.009   9.613  0.4451 -0.3812 -1.1741
  252TMC3    C7 3881   0.141   3.908   9.686 -0.1763 -0.4863 -0.1410
  252TMC3    C8 3882   0.432   4.194   9.427  0.5645  0.6027 -0.3179
  252TMC3    O1 3883   0.245   3.864   9.733  0.2463 -0.8352  0.5786
  252TMC3    O2 3884   0.445   4.270   9.334 -0.0984  0.0684 -0.0346
  253MPD2     C 3885   1.653   2.004  14.859 -0.8983  0.0591 -0.3750
  253MPD2    C1 3886   1.521   2.011  14.889  0.5449  0.2131 -0.2123
  253MPD2    C2 3887   1.477   2.068  15.013  0.5382  0.9536 -0.4428
  253MPD2    C3 3888   1.573   2.116  15.103  0.1622 -0.3630 -0.0269
  253MPD2    C4 3889   1.707   2.100  15.070 -0.0735 -0.5243  0.5121
  253MPD2    C5 3890   1.743   2.045  14.951 -0.1925  0.6291  0.8191
  253MPD2     H 3891   1.370   2.079  15.023  0.6490  2.1802 -0.6372
  253MPD2    H1 3892   1.789   2.130  15.134  1.2206 -1.1824 -0.8580
  253MPD2    H2 3893   1.678   1.951  14.768 -1.2397  1.0469 -1.0455
  253MPD2    H3 3894   1.846   2.042  14.918 -0.2387 -0.8837  0.7978
  253MPD2     N 3895   1.536   2.177  15.222 -0.0448 -0.0371  0.0927
  253MPD2    H5 3896   1.613   2.199  15.284 -1.7575  2.5587  1.3130
  253MPD2    N1 3897   1.417   1.966  14.806  0.2047 -0.2819 -0.4761
  253MPD2    H7 3898   1.321   1.964  14.839  0.5078  2.7364  0.5359
  254TMC3    C1 3899   1.409   2.218  15.411 -0.6339  0.4021 -0.2502
  254TMC3    C2 3900   1.303   2.292  15.457 -0.4979  0.1515 -0.2222
  254TMC3    C3 3901   1.299   2.318  15.587  0.2339  0.1598 -0.0890
  254TMC3    C4 3902   1.501   2.151  15.490 -0.6160  0.0718  0.1667
  254TMC3    C5 3903   1.481   2.162  15.622  0.1792  0.0158  0.2401
  254TMC3    C6 3904   1.380   2.243  15.674  0.1839 -0.5459 -0.9129
  254TMC3     C 3905   1.408   2.197  15.269 -0.1041 -0.3033 -0.4957
  254TMC3     O 3906   1.298   2.194  15.216 -0.0577 -0.5663  0.2144
  254TMC3     H 3907   1.240   2.341  15.384  0.8182 -1.5962 -2.5438
  254TMC3    H1 3908   1.581   2.088  15.452 -1.1989 -0.9056  0.5615
  254TMC3    H2 3909   1.365   2.243  15.781 -0.2057 -0.2817 -0.9693
  254TMC3    C7 3910   1.563   2.075  15.708  0.5036 -0.5181 -0.1029
  254TMC3    C8 3911   1.178   2.387  15.627  0.7269  0.2574  0.2705
  254TMC3    O1 3912   1.512   2.015  15.803 -0.5001 -0.0571 -0.1668
  254TMC3    O2 3913   1.139   2.345  15.733 -0.1557 -0.0151 -0.2904
  255MPD2     C 3914   0.097   1.032  10.144 -0.0231 -0.0645  0.0551
  255MPD2    C1 3915   0.003   1.056  10.044 -0.0364 -0.2164 -0.4117
  255MPD2    C2 3916   0.049   1.035   9.918  0.0952  0.2159  0.1792
  255MPD2    C3 3917   0.178   0.999   9.887  0.0265 -0.3060 -0.4003
  255MPD2    C4 3918   0.266   0.975   9.989  0.1740  0.1207  0.5566
  255MPD2    C5 3919   0.228   0.989  10.122 -0.3975  0.7183  0.4389
  255MPD2     H 3920   4.720   1.049   9.831  4.3526 -1.4270 -3.2246
  255MPD2    H1 3921   0.367   0.951   9.957  0.0174 -2.1476  1.7064
  255MPD2    H2 3922   0.071   1.040  10.248  3.6338 -0.8759  1.0194
  255MPD2    H3 3923   0.300   0.973  10.201 -0.9685 -0.6168  0.6849
  255MPD2     N 3924   0.212   0.990   9.749 -0.5695 -0.8481  0.4129
  255MPD2    H5 3925   0.132   1.000   9.688  0.6081 -2.5877 -1.4341
  255MPD2    N1 3926   4.605   1.102  10.058 -0.0679  0.2686  0.3040
  255MPD2    H7 3927   4.548   1.114   9.976 -0.0597  1.1370  0.4154
  256TMC3    C1 3928   4.415   1.209  10.161 -0.2945  0.8059  0.8702
  256TMC3    C2 3929   4.385   1.264  10.036  0.8215 -0.3603 -0.5262
  256TMC3    C3 3930   4.296   1.364  10.036 -0.1646  0.1825 -0.2039
  256TMC3    C4 3931   4.357   1.254  10.281  0.1831 -0.5969  0.5846
  256TMC3    C5 3932   4.259   1.347  10.257 -0.4315 -1.1549  0.2027
  256TMC3    C6 3933   4.231   1.411  10.144 -0.1767  0.1605 -0.8491
  256TMC3     C 3934   4.548   1.147  10.177 -0.6201 -0.2085  0.1917
  256TMC3     O 3935   4.591   1.144  10.290 -0.1515 -0.0145  0.3778
  256TMC3     H 3936   4.436   1.235   9.945  1.1182  1.6649 -0.9996
  256TMC3    H1 3937   4.380   1.236  10.385  1.5790 -0.3973  0.3198
  256TMC3    H2 3938   4.138   1.467  10.136 -1.3521 -1.6579 -0.0068
  256TMC3    C7 3939   4.156   1.356  10.372  0.3909  0.0522 -0.0549
  256TMC3    C8 3940   4.284   1.438   9.915 -0.3515 -0.0156  0.3654
  256TMC3    O1 3941   4.165   1.269  10.459  0.1760  0.4885 -0.0522
  256TMC3    O2 3942   4.300   1.386   9.804 -0.0605  0.1279  0.4175
  257MPD2     C 3943   3.902   2.781  12.453  0.2272 -0.4726 -0.4766
  257MPD2    C1 3944   3.781   2.730  12.508  0.1409  1.2764  0.3136
  257MPD2    C2 3945   3.792   2.625  12.598 -0.2139  0.2327  0.0985
  257MPD2    C3 3946   3.913   2.582  12.654  0.1939  0.1314 -0.8367
  257MPD2    C4 3947   4.029   2.643  12.611  0.0004  0.2678 -0.3081
  257MPD2    C5 3948   4.023   2.733  12.505  0.2498 -0.1143 -0.5176
  257MPD2     H 3949   3.701   2.597  12.651  0.1516 -0.2129  0.4890
  257MPD2    H1 3950   4.128   2.607  12.639  0.3339  1.4067 -0.0049
  257MPD2    H2 3951   3.885   2.851  12.372  0.7713  2.3641  1.8438
  257MPD2    H3 3952   4.110   2.760  12.445  0.8086 -1.2334 -0.2113
  257MPD2     N 3953   3.917   2.476  12.750  0.0046  0.2255 -0.1102
  257MPD2    H5 3954   3.831   2.426  12.768  0.7627 -0.9439  0.2622
  257MPD2    N1 3955   3.660   2.779  12.458  0.1298  0.3459 -0.3578
  257MPD2    H7 3956   3.654   2.851  12.387 -1.0983  2.2239  1.6407
  258TMC3    C1 3957   4.004   2.343  12.918 -0.2186 -0.7461  0.0633
  258TMC3    C2 3958   3.919   2.240  12.884 -0.1294  0.3709  0.0114
  258TMC3    C3 3959   3.885   2.142  12.981 -0.5462 -0.4220 -0.6617
  258TMC3    C4 3960   4.067   2.345  13.040 -0.4405  0.2201  0.3195
  258TMC3    C5 3961   4.032   2.249  13.130 -0.1235 -0.3508  0.3398
  258TMC3    C6 3962   3.942   2.143  13.108 -0.1825  0.2656 -0.0200
  258TMC3     C 3963   4.032   2.449  12.824 -0.0508  0.4760 -0.8948
  258TMC3     O 3964   4.125   2.521  12.853  0.6828  0.2599 -0.2128
  258TMC3     H 3965   3.875   2.228  12.785 -0.4234 -0.2076  0.2125
  258TMC3    H1 3966   4.134   2.427  13.065  0.5899 -1.0016  1.5718
  258TMC3    H2 3967   3.923   2.064  13.179  2.2033  1.3670  1.8300
  258TMC3    C7 3968   4.084   2.265  13.265  0.5974  0.2937 -0.0938
  258TMC3    C8 3969   3.819   2.024  12.923  0.2620 -0.5413  0.3601
  258TMC3    O1 3970   4.110   2.372  13.313 -0.2205 -0.2162 -0.1222
  258TMC3    O2 3971   3.816   2.020  12.801 -0.7820  0.4672 -0.4480
  259MPD2     C 3972   3.424   4.244   0.449 -0.6344  0.2161  0.6257
  259MPD2    C1 3973   3.374   4.122   0.481 -0.3842 -0.2720 -0.0477
  259MPD2    C2 3974   3.374   4.021   0.390 -0.4177  0.3048 -0.3072
  259MPD2    C3 3975   3.397   4.047   0.257 -1.0464 -0.8235  0.1960
  259MPD2    C4 3976   3.444   4.173   0.225  0.2913 -0.7830 -0.3501
  259MPD2    C5 3977   3.456   4.271   0.320  0.1344  0.4197  0.3479
  259MPD2     H 3978   3.344   3.921   0.421  1.8850 -0.6671 -1.2481
  259MPD2    H1 3979   3.465   4.195   0.121 -1.8067  0.7502 -0.4543
  259MPD2    H2 3980   3.425   4.317   0.530  0.0297 -0.1475  0.9479
  259MPD2    H3 3981   3.507   4.365   0.303  1.0068 -0.1915 -0.4219
  259MPD2     N 3982   3.380   3.941   0.161 -0.3449 -0.1058 -0.4040
  259MPD2    H5 3983   3.364   3.846   0.192  2.2403 -0.7555 -1.1102
  259MPD2    N1 3984   3.326   4.106   0.617  0.7113 -0.3994  0.2700
  259MPD2    H7 3985   3.339   4.186   0.679 -0.4278 -1.8035  2.2925
  260TMC3    C1 3986   3.360   3.866  17.675  0.1539 -0.0487  0.5018
  260TMC3    C2 3987   3.369   3.908  17.543  0.0999 -0.2772  0.1706
  260TMC3    C3 3988   3.421   3.813  17.458  0.7893 -0.1347 -0.0355
  260TMC3    C4 3989   3.390   3.738  17.723  0.3260  0.3458  0.0340
  260TMC3    C5 3990   3.436   3.652  17.623 -0.6793  0.5929 -0.0480
  260TMC3    C6 3991   3.460   3.687  17.494 -0.3010  0.1301 -0.6661
  260TMC3     C 3992   3.356   3.973   0.028 -0.2423  0.2428  0.1637
  260TMC3     O 3993   3.334   4.084  17.714 -0.3764  0.5274  0.5950
  260TMC3     H 3994   3.336   4.004  17.506 -0.4761  0.1126  1.7115
  260TMC3    H1 3995   3.404   3.709   0.088  1.6638  0.4245 -0.1238
  260TMC3    H2 3996   3.512   3.620  17.426  0.6781 -1.4022  1.5720
  260TMC3    C7 3997   3.375   3.520  17.629 -0.2730  0.9736 -0.3939
  260TMC3    C8 3998   3.355   3.831  17.329 -0.1045  0.1858 -0.1905
  260TMC3    O1 3999   3.400   3.449  17.533  0.9579  1.0171  0.7182
  260TMC3    O2 4000   3.337   3.944  17.289  0.0781 -0.4690 -0.0624
  261MPD2     C 4001   4.052   2.338  11.881  0.4243 -0.6644 -0.2746
  261MPD2    C1 4002   4.175   2.394  11.924 -0.2864 -0.9863  0.1024
  261MPD2    C2 4003   4.221   2.507  11.858 -0.2484 -0.3757 -0.1410
  261MPD2    C3 4004   4.145   2.572  11.766 -0.0753  0.2839  0.3080
  261MPD2    C4 4005   4.025   2.523  11.729 -0.7300 -0.3163  0.2261
  261MPD2    C5 4006   3.972   2.404  11.784  0.7464  0.0848  0.0776
  261MPD2     H 4007   4.316   2.554  11.879 -1.0737  0.7361  1.1133
  261MPD2    H1 4008   3.953   2.572  11.664 -1.7025 -0.7635  0.9540
  261MPD2    H2 4009   4.018   2.246  11.926  0.6090 -0.2926  0.6189
  261MPD2    H3 4010   3.877   2.354  11.769  0.8610 -0.3642  0.8327
  261MPD2     N 4011   4.198   2.692  11.713  0.9357 -0.4624 -0.1836
  261MPD2    H5 4012   4.287   2.728  11.747  0.3922 -2.4241  3.3183
  261MPD2    N1 4013   4.255   2.338  12.019 -0.3120 -0.4956 -0.1845
  261MPD2    H7 4014   4.349   2.377  12.025 -1.8016  3.3018 -1.4616
  262TMC3    C1 4015   4.211   2.890  11.591 -0.1414  0.0560  0.0244
  262TMC3    C2 4016   4.148   3.009  11.555 -0.6223  0.3661 -0.9663
  262TMC3    C3 4017   4.228   3.120  11.544 -0.4430  0.5139  0.3595
  262TMC3    C4 4018   4.346   2.879  11.598 -0.4792 -0.0755  0.3099
  262TMC3    C5 4019   4.420   2.989  11.587  0.0589 -0.7072 -0.2497
  262TMC3    C6 4020   4.364   3.109  11.567  0.2062  0.1133  0.5899
  262TMC3     C 4021   4.132   2.776  11.629 -0.0056 -0.2208  0.7408
  262TMC3     O 4022   4.020   2.777  11.579 -0.3711  0.3186 -0.1594
  262TMC3     H 4023   4.040   3.010  11.551 -0.6784  1.2176  0.5265
  262TMC3    H1 4024   4.396   2.784  11.613 -0.1282  0.2756  1.3705
  262TMC3    H2 4025   4.424   3.199  11.575 -1.1780  0.9341  1.7918
  262TMC3    C7 4026   4.562   2.972  11.584  0.7483  0.1763  0.0674
  262TMC3    C8 4027   4.169   3.255  11.550 -0.1285  0.6621  0.3229
  262TMC3    O1 4028   4.613   2.863  11.618 -0.1945  0.0123 -0.0016
  262TMC3    O2 4029   4.240   3.341  11.596 -0.4332  0.2343 -0.3974
  263MPD2     C 4030   0.214   1.828  11.416 -0.1677  0.1779  0.0633
  263MPD2    C1 4031   0.334   1.889  11.389 -0.1049  1.0863 -0.6611
  263MPD2    C2 4032   0.343   2.015  11.328  0.3527  0.0619 -0.0701
  263MPD2    C3 4033   0.224   2.078  11.293 -0.3049  0.7159  0.3438
  263MPD2    C4 4034   0.104   2.014  11.304  0.6246 -0.2546  0.2350
  263MPD2    C5 4035   0.100   1.891  11.371  0.0939  0.1580  0.3099
  263MPD2     H 4036   0.438   2.064  11.312 -0.7209  2.6618  1.6101
  263MPD2    H1 4037   0.006   2.054  11.282  1.1612  1.7547  1.3748
  263MPD2    H2 4038   0.203   1.742  11.481 -0.4052 -0.7214 -1.1731
  263MPD2    H3 4039   0.001   1.851  11.388  0.1207 -0.2416 -0.4877
  263MPD2     N 4040   0.238   2.206  11.240 -0.5234  0.8783 -0.6879
  263MPD2    H5 4041   0.334   2.239  11.237 -0.6549  1.3243 -0.0075
  263MPD2    N1 4042   0.456   1.823  11.431 -0.5056 -0.1765  0.0927
  263MPD2    H7 4043   0.446   1.740  11.488  0.9759 -1.1221 -0.9918
  264TMC3    C1 4044   0.183   2.417  11.153 -0.7116 -0.3706 -0.3117
  264TMC3    C2 4045   0.151   2.541  11.200 -0.0284  0.2129 -0.9074
  264TMC3    C3 4046   0.212   2.652  11.153 -0.7108 -0.0435  0.1818
  264TMC3    C4 4047   0.281   2.396  11.061  0.5394  0.2382 -0.7341
  264TMC3    C5 4048   0.331   2.504  10.997  0.1821 -0.0344 -0.8130
  264TMC3    C6 4049   0.303   2.628  11.048 -0.1831 -0.2411 -0.2950
  264TMC3     C 4050   0.134   2.299  11.222 -0.0985 -0.4716  0.4300
  264TMC3     O 4051   0.015   2.299  11.262 -0.2578 -0.1182  0.1755
  264TMC3     H 4052   0.070   2.538  11.273 -0.0829 -0.4457 -0.9938
  264TMC3    H1 4053   0.305   2.297  11.025 -1.8547 -0.7707  0.4911
  264TMC3    H2 4054   0.334   2.718  10.997 -0.8206  1.1287  1.6976
  264TMC3    C7 4055   0.437   2.491  10.896  0.7226 -0.8024  0.4730
  264TMC3    C8 4056   0.280   2.731  11.248  0.0121  0.0558 -0.2811
  264TMC3    O1 4057   0.495   2.601  10.878  0.0569 -0.0421 -0.1018
  264TMC3    O2 4058   0.362   2.804  11.196 -0.3019 -0.0721  0.2869
  265MPD2     C 4059   2.963   1.642  15.500  0.3897  0.6362 -0.1406
  265MPD2    C1 4060   2.909   1.744  15.419  0.4917  0.5702  0.1676
  265MPD2    C2 4061   2.952   1.752  15.283  0.3986 -0.1275 -0.1197
  265MPD2    C3 4062   3.018   1.648  15.224  0.2593 -0.5383  0.0928
  265MPD2    C4 4063   3.055   1.540  15.302 -0.2160  0.5825  0.4630
  265MPD2    C5 4064   3.035   1.544  15.434  0.3410  0.1708 -0.2759
  265MPD2     H 4065   2.899   1.817  15.214 -1.9477 -0.6660  1.1617
  265MPD2    H1 4066   3.088   1.443  15.267 -0.3052  0.7249 -0.0183
  265MPD2    H2 4067   2.951   1.632  15.608 -2.5087 -0.8662 -0.6136
  265MPD2    H3 4068   3.071   1.458  15.490  3.0106  0.4740 -1.4992
  265MPD2     N 4069   3.038   1.632  15.087  0.1967  0.0395  0.1005
  265MPD2    H5 4070   3.076   1.542  15.061 -0.9746 -0.6081  0.6356
  265MPD2    N1 4071   2.815   1.845  15.475 -0.2472 -0.3473  0.0722
  265MPD2    H7 4072   2.794   1.926  15.417  3.0284 -1.2647 -2.4474
  266TMC3    C1 4073   2.709   1.964  15.665  0.2429  0.3553  0.4128
  266TMC3    C2 4074   2.747   1.998  15.798  0.4191 -0.3303 -0.6255
  266TMC3    C3 4075   2.734   2.128  15.836 -0.2469  0.4450  1.0821
  266TMC3    C4 4076   2.652   2.055  15.577  0.0945 -0.2829 -0.5283
  266TMC3    C5 4077   2.647   2.189  15.617  0.1189  0.2156  0.2339
  266TMC3    C6 4078   2.691   2.223  15.743 -0.2910  0.5679 -0.6049
  266TMC3     C 4079   2.777   1.846  15.610 -0.6889  0.5483 -0.3977
  266TMC3     O 4080   2.798   1.758  15.693  0.8059 -0.0333  0.1480
  266TMC3     H 4081   2.789   1.924  15.866  2.2828 -0.5428 -2.0303
  266TMC3    H1 4082   2.620   2.025  15.478  1.0978 -0.1541 -0.8948
  266TMC3    H2 4083   2.688   2.328  15.770  0.8980  0.5587 -0.4353
  266TMC3    C7 4084   2.564   2.287  15.546 -0.0014  0.4714  0.1110
  266TMC3    C8 4085   2.760   2.160  15.979 -0.1533 -0.7392 -0.2879
  266TMC3    O1 4086   2.495   2.367  15.608  0.1130 -0.8613  0.1381
  266TMC3    O2 4087   2.776   2.068  16.055  0.0712  0.2147  0.0186
  267MPD2     C 4088   0.878   4.556   0.306 -0.4435 -0.6953  0.2709
  267MPD2    C1 4089   0.806   4.437   0.318 -0.1990  0.1461 -0.3590
  267MPD2    C2 4090   0.701   4.414   0.228  0.4224  0.1407 -0.4327
  267MPD2    C3 4091   0.687   4.501   0.122 -0.0602 -0.2725 -0.4156
  267MPD2    C4 4092   0.763   4.614   0.116 -0.2676 -0.3407  0.2508
  267MPD2    C5 4093   0.849   4.649   0.216 -0.1915  0.0638 -0.3267
  267MPD2     H 4094   0.660   4.313   0.228 -0.2012  0.3951 -0.6920
  267MPD2    H1 4095   0.744   4.686   0.038  2.5337  1.1654  0.9488
  267MPD2    H2 4096   0.964   4.579   0.367 -0.4387  0.4658 -0.1677
  267MPD2    H3 4097   0.905   0.007   0.222 -0.9167  0.3504  1.9639
  267MPD2     N 4098   0.600   4.487   0.015  0.5443 -0.2469  0.7075
  267MPD2    H5 4099   0.607   4.543  17.668  1.0536 -0.6145  0.5049
  267MPD2    N1 4100   0.855   4.349   0.414  0.4115 -0.3204  0.6761
  267MPD2    H7 4101   0.940   4.373   0.464 -0.0574 -1.6014  2.1093
  268TMC3    C1 4102   0.903   4.151   0.524  0.3858 -0.2857  0.7882
  268TMC3    C2 4103   1.030   4.137   0.472 -0.6646 -0.0541 -0.2558
  268TMC3    C3 4104   1.098   4.023   0.503  0.2735 -0.6352  0.2595
  268TMC3    C4 4105   0.847   4.046   0.591  0.3356 -0.4999 -0.0116
  268TMC3    C5 4106   0.932   3.943   0.632  0.3653 -0.4760 -0.0815
  268TMC3    C6 4107   1.059   3.931   0.590  0.1785 -0.2603 -0.0469
  268TMC3     C 4108   0.810   4.224   0.442  0.8644  0.1581  0.0395
  268TMC3     O 4109   0.705   4.175   0.409  0.5155 -0.3312 -0.3644
  268TMC3     H 4110   1.061   4.209   0.397  0.1189  0.0268  0.1452
  268TMC3    H1 4111   0.739   4.052   0.600  0.2757 -0.8604 -0.4612
  268TMC3    H2 4112   1.112   3.838   0.604  1.1749  0.0274 -1.9528
  268TMC3    C7 4113   0.887   3.842   0.734  0.5180  0.4829 -0.1424
  268TMC3    C8 4114   1.222   3.989   0.432  1.2777 -0.4757 -0.2216
  268TMC3    O1 4115   0.956   3.743   0.752 -0.1548  0.3059  0.0315
  268TMC3    O2 4116   1.271   3.876   0.460  0.2566 -0.5190  0.3702
  269MPD2     C 4117   0.808   2.427  15.364  0.3252 -0.5834 -0.1192
  269MPD2    C1 4118   0.720   2.449  15.470 -0.5124 -0.0439  0.8340
  269MPD2    C2 4119   0.647   2.570  15.482  0.4055  0.5127  0.5482
  269MPD2    C3 4120   0.660   2.667  15.380  0.0816 -0.0435  0.5238
  269MPD2    C4 4121   0.739   2.638  15.277  0.4752  0.1177  0.0701
  269MPD2    C5 4122   0.813   2.521  15.268 -0.1656 -0.3639  0.0288
  269MPD2     H 4123   0.571   2.577  15.559 -1.7513  1.4656 -1.6792
  269MPD2    H1 4124   0.756   2.710  15.198  0.2149 -0.6246 -0.6593
  269MPD2    H2 4125   0.862   2.334  15.352 -2.0483 -1.9502 -0.1988
  269MPD2    H3 4126   0.877   2.514  15.181  0.0741  1.2866  0.0685
  269MPD2     N 4127   0.597   2.793  15.405 -0.5021 -0.2272 -0.2352
  269MPD2    H5 4128   0.557   2.797  15.499  1.4195  1.2299  0.5372
  269MPD2    N1 4129   0.719   2.346  15.566  1.4565  0.8986 -0.0848
  269MPD2    H7 4130   0.778   2.264  15.555  1.3580  0.7305  0.6861
  270TMC3    C1 4131   0.648   2.211  15.745  0.0416  0.3013  0.6898
  270TMC3    C2 4132   0.533   2.139  15.761  0.4566 -0.4232 -0.2779
  270TMC3    C3 4133   0.543   2.000  15.780  0.0776 -0.9139 -0.1360
  270TMC3    C4 4134   0.770   2.147  15.751 -0.1390 -0.2760  0.2509
  270TMC3    C5 4135   0.776   2.019  15.777 -0.8891  0.3807 -0.3055
  270TMC3    C6 4136   0.664   1.944  15.798 -0.5176  0.5590 -0.1319
  270TMC3     C 4137   0.635   2.340  15.672  0.4646 -0.5830  0.5438
  270TMC3     O 4138   0.552   2.420  15.708  0.2551  0.7668  0.4611
  270TMC3     H 4139   0.438   2.186  15.741  0.8038  1.1444  1.7152
  270TMC3    H1 4140   0.864   2.198  15.731 -0.5963  1.1406  1.7529
  270TMC3    H2 4141   0.680   1.837  15.809 -1.0784  0.5035  0.1618
  270TMC3    C7 4142   0.864   1.961  15.683 -0.0880  0.2180 -0.4735
  270TMC3    C8 4143   0.468   1.911  15.691  0.1376 -0.2794  0.5790
  270TMC3    O1 4144   0.981   1.998  15.680 -0.2316  0.0794 -0.4341
  270TMC3    O2 4145   0.536   1.816  15.644 -0.6095 -0.3244  0.0494
  271MPD2     C 4146   4.397   2.221  14.195 -0.5586  0.0033 -0.5829
  271MPD2    C1 4147   4.325   2.131  14.261  0.0082 -0.0577 -0.0758
  271MPD2    C2 4148   4.188   2.122  14.238  0.7115 -0.4125 -0.6469
  271MPD2    C3 4149   4.144   2.184  14.120  0.0731  0.6310  0.2749
  271MPD2    C4 4150   4.223   2.267  14.045  0.3356 -0.3426  0.1686
  271MPD2    C5 4151   4.353   2.287  14.082  0.0003  0.5229 -0.5599
  271MPD2     H 4152   4.131   2.048  14.294  0.8495 -1.7916 -2.3443
  271MPD2    H1 4153   4.186   2.323  13.960 -0.2981  1.5329  1.6807
  271MPD2    H2 4154   4.499   2.244  14.221 -0.9100  0.3940  0.4731
  271MPD2    H3 4155   4.421   2.348  14.023 -0.1859  0.3264 -0.9769
  271MPD2     N 4156   4.009   2.166  14.064 -0.2104 -0.1384 -0.3255
  271MPD2    H5 4157   3.970   2.228  13.994 -2.7444 -0.4108  0.8341
  271MPD2    N1 4158   4.376   2.030  14.354 -0.3594 -0.8894  0.3868
  271MPD2    H7 4159   4.315   1.960  14.394  1.8736 -2.5646  0.8623
  272TMC3    C1 4160   4.546   1.878  14.421  0.0152 -0.4434 -0.1642
  272TMC3    C2 4161   4.639   1.804  14.350  0.5462 -0.5235  0.5359
  272TMC3    C3 4162   4.676   1.680  14.403  0.0184  0.0821  0.2757
  272TMC3    C4 4163   4.481   1.827  14.538 -0.5732 -0.2937 -0.0718
  272TMC3    C5 4164   4.518   1.701  14.580  0.9533  0.9437 -0.5044
  272TMC3    C6 4165   4.619   1.621  14.513  0.5928  0.2749 -0.2889
  272TMC3     C 4166   4.511   2.012  14.376 -0.3679 -0.5975  0.2865
  272TMC3     O 4167   4.604   2.085  14.342 -0.0803 -0.1495 -0.7702
  272TMC3     H 4168   4.678   1.848  14.259 -1.0519 -1.1214 -0.4368
  272TMC3    H1 4169   4.396   1.874  14.588  1.0006 -0.5113  2.7902
  272TMC3    H2 4170   4.644   1.520  14.545 -1.5180 -0.3585 -0.6468
  272TMC3    C7 4171   4.502   1.669  14.719 -0.3581  0.0187  0.6518
  272TMC3    C8 4172   0.064   1.619  14.343 -0.0249  0.3718 -0.2716
  272TMC3    O1 4173   4.491   1.549  14.744  0.0525  0.0414 -0.2969
  272TMC3    O2 4174   0.102   1.658  14.234  0.0301 -0.3372  0.9955
  273MPD2     C 4175   1.191   0.531  11.098  0.1763  0.0696  0.2863
  273MPD2    C1 4176   1.192   0.635  11.186  0.6506 -0.0351 -0.9440
  273MPD2    C2 4177   1.209   0.762  11.142  0.1632  0.1470 -0.7602
  273MPD2    C3 4178   1.259   0.775  11.012  1.0505  0.0021 -0.0305
  273MPD2    C4 4179   1.263   0.676  10.923 -0.2291 -0.1434 -0.3191
  273MPD2    C5 4180   1.227   0.549  10.969  0.4471  0.3164 -0.2097
  273MPD2     H 4181   1.186   0.848  11.203 -0.4991  1.1644 -2.4205
  273MPD2    H1 4182   1.282   0.681  10.816 -0.4794  0.8948 -0.3154
  273MPD2    H2 4183   1.178   0.427  11.127  0.6549 -0.0712 -0.0084
  273MPD2    H3 4184   1.216   0.467  10.900 -0.2871  1.3130 -1.2910
  273MPD2     N 4185   1.297   0.907  10.981 -0.4703  0.2300 -0.0581
  273MPD2    H5 4186   1.290   0.975  11.056 -1.5725  0.3747 -0.2841
  273MPD2    N1 4187   1.164   0.605  11.324 -0.2534 -0.4381  0.3968
  273MPD2    H7 4188   1.170   0.508  11.351 -0.1282 -1.0112 -1.7319
  274TMC3    C1 4189   1.346   1.098  10.858  0.4250 -0.6999  0.3800
  274TMC3    C2 4190   1.312   1.163  10.742  0.0812 -0.2501 -0.3826
  274TMC3    C3 4191   1.304   1.298  10.741 -0.0122  0.1907 -0.0403
  274TMC3    C4 4192   1.374   1.166  10.977  0.4239 -0.7491  0.6314
  274TMC3    C5 4193   1.367   1.303  10.970  0.0719 -0.1290  0.5747
  274TMC3    C6 4194   1.340   1.375  10.850 -0.7016  0.1046  0.9974
  274TMC3     C 4195   1.327   0.955  10.855 -0.0709 -0.5828  0.5049
  274TMC3     O 4196   1.343   0.906  10.746  0.2262 -0.0069 -0.3334
  274TMC3     H 4197   1.282   1.112  10.651 -1.1943 -1.0243  0.4654
  274TMC3    H1 4198   1.402   1.100  11.059  0.3618 -0.9335  0.5046
  274TMC3    H2 4199   1.300   1.475  10.863 -0.7370  0.4581 -1.8302
  274TMC3    C7 4200   1.350   1.387  11.092 -0.4730 -0.6480 -0.0822
  274TMC3    C8 4201   1.211   1.352  10.650 -0.1402  0.2393 -0.2951
  274TMC3    O1 4202   1.327   1.507  11.078  0.0549 -0.5329 -0.1688
  274TMC3    O2 4203   1.127   1.273  10.607 -0.4327  0.2404 -0.2119
  275MPD2     C 4204   0.797   3.140  14.745  0.8919 -0.7523  0.6676
  275MPD2    C1 4205   0.880   3.024  14.756  0.0494  0.1153  0.0955
  275MPD2    C2 4206   0.825   2.903  14.804 -0.3193  0.1525  0.0342
  275MPD2    C3 4207   0.690   2.904  14.849  0.8321 -0.4052  0.2497
  275MPD2    C4 4208   0.618   3.024  14.853 -0.0190  0.1179  0.7278
  275MPD2    C5 4209   0.670   3.139  14.787 -0.0817  0.0760 -0.2408
  275MPD2     H 4210   0.883   2.812  14.802  1.6726  1.3771  1.5794
  275MPD2    H1 4211   0.514   3.022  14.884 -0.0539  1.1237  0.6497
  275MPD2    H2 4212   0.828   3.231  14.696  2.6220 -1.2768  0.7784
  275MPD2    H3 4213   0.607   3.227  14.796 -1.3322 -0.7782 -0.7285
  275MPD2     N 4214   0.618   2.796  14.899 -0.4171 -0.2113 -0.6794
  275MPD2    H5 4215   0.521   2.816  14.924  0.2145  2.9330 -0.7405
  275MPD2    N1 4216   1.014   3.011  14.708 -0.3213 -0.6014 -0.1721
  275MPD2    H7 4217   1.064   2.930  14.742 -0.4611  0.0113  1.4911
  276TMC3    C1 4218   1.224   3.102  14.630  0.2504 -0.1239  0.1513
  276TMC3    C2 4219   1.280   2.983  14.661 -0.3982  0.0672  0.2993
  276TMC3    C3 4220   1.406   2.982  14.703  0.4981 -0.3567  0.2414
  276TMC3    C4 4221   1.294   3.218  14.623  0.2119 -0.4118 -0.1416
  276TMC3    C5 4222   1.414   3.212  14.684 -0.9676 -0.2674  0.0486
  276TMC3    C6 4223   1.473   3.098  14.727 -0.3657  0.5280 -0.3474
  276TMC3     C 4224   1.079   3.117  14.649  0.2544  0.4235  0.2562
  276TMC3     O 4225   1.026   3.220  14.609  0.4538 -0.6621  0.5955
  276TMC3     H 4226   1.239   2.891  14.620  0.6179  0.5544 -1.8402
  276TMC3    H1 4227   1.238   3.309  14.604  1.8111  0.3349 -1.2322
  276TMC3    H2 4228   1.575   3.101  14.763 -0.0871 -1.2897 -0.9747
  276TMC3    C7 4229   1.494   3.328  14.712 -0.2123  0.0800 -0.3084
  276TMC3    C8 4230   1.475   2.856  14.731 -0.2178 -0.3786  0.8290
  276TMC3    O1 4231   1.586   3.328  14.793 -0.5215  0.5819  0.6011
  276TMC3    O2 4232   1.595   2.860  14.765 -0.7396  0.2426  0.3437
  277MPD2     C 4233   2.887   2.545  13.184  0.5478 -0.2517 -0.5401
  277MPD2    C1 4234   2.761   2.577  13.232  0.2144 -0.0322 -1.0825
  277MPD2    C2 4235   2.713   2.491  13.330  0.6662 -0.1007 -0.7675
  277MPD2    C3 4236   2.780   2.378  13.376  0.1198 -0.1459 -0.0384
  277MPD2    C4 4237   2.902   2.349  13.322 -0.0538 -0.1566  0.1670
  277MPD2    C5 4238   2.955   2.432  13.226 -0.3376 -0.3696 -0.4792
  277MPD2     H 4239   2.618   2.513  13.379 -1.2576 -2.6655 -3.3940
  277MPD2    H1 4240   2.964   2.270  13.363  0.4757 -0.3035 -0.9421
  277MPD2    H2 4241   2.925   2.604  13.102  0.7422  0.2021 -0.1251
  277MPD2    H3 4242   3.054   2.408  13.188 -0.4308  0.2456 -1.0969
  277MPD2     N 4243   2.711   2.303  13.476 -0.6089 -0.1014  0.7351
  277MPD2    H5 4244   2.619   2.328  13.509  0.1629 -0.1483  2.9298
  277MPD2    N1 4245   2.690   2.695  13.183  0.0827  0.3032  0.0542
  277MPD2    H7 4246   2.735   2.770  13.131 -3.4561 -0.8973 -4.5853
  278TMC3    C1 4247   2.654   2.130  13.617 -0.0774 -0.4515 -0.3306
  278TMC3    C2 4248   2.646   1.994  13.630  0.0406 -0.0640  0.1252
  278TMC3    C3 4249   2.545   1.953  13.718 -0.0735 -0.7918  0.1124
  278TMC3    C4 4250   2.579   2.216  13.697  0.0004 -0.1151  0.2246
  278TMC3    C5 4251   2.482   2.164  13.773 -1.1414 -0.1674  0.0466
  278TMC3    C6 4252   2.459   2.034  13.786  0.6187  0.3308 -0.5661
  278TMC3     C 4253   2.753   2.183  13.526  0.7945  0.3990  0.1987
  278TMC3     O 4254   2.852   2.112  13.495  0.2028 -0.1806 -0.1660
  278TMC3     H 4255   2.705   1.930  13.566 -1.0249 -0.5318 -0.3918
  278TMC3    H1 4256   2.572   2.322  13.677 -1.9360 -0.1927  0.4864
  278TMC3    H2 4257   2.376   2.005  13.849  0.9051 -0.9800 -0.7949
  278TMC3    C7 4258   2.396   2.255  13.844 -0.0912  0.0814 -0.4334
  278TMC3    C8 4259   2.510   1.812  13.710 -0.3976 -0.4476 -0.6150
  278TMC3    O1 4260   2.452   2.350  13.893  0.5705 -0.2981  0.0531
  278TMC3    O2 4261   2.597   1.728  13.719  1.0997 -0.3774  0.2365
  279MPD2     C 4262   1.987   1.743   0.084 -0.3283 -0.0219 -0.6970
  279MPD2    C1 4263   1.973   1.876   0.112 -0.1951  0.5293  0.4188
  279MPD2    C2 4264   1.994   1.975   0.014  0.4418 -0.1562  0.1702
  279MPD2    C3 4265   2.021   1.934  17.624 -0.5032  0.2883 -0.1923
  279MPD2    C4 4266   2.021   1.799  17.601 -0.5438 -0.7878 -0.1418
  279MPD2    C5 4267   2.015   1.700  17.695 -0.1863 -0.6008 -0.6468
  279MPD2     H 4268   1.979   2.081   0.031 -1.1510 -0.3898  0.2788
  279MPD2    H1 4269   2.037   1.772  17.497 -0.2394 -1.6245  0.1176
  279MPD2    H2 4270   1.969   1.666   0.159  0.8559 -0.7630 -1.1843
  279MPD2    H3 4271   2.019   1.593  17.677 -1.7705 -0.3472 -2.4809
  279MPD2     N 4272   2.040   2.024  17.519  0.5653 -0.3438  0.0450
  279MPD2    H5 4273   2.066   1.989  17.427  0.4591 -0.1237 -0.0669
  279MPD2    N1 4274   1.919   1.913   0.238  0.2838  0.1121  0.3644
  279MPD2    H7 4275   1.947   1.847   0.310 -1.5174  1.2468  2.1049
  280TMC3    C1 4276   1.781   2.098   0.162 -0.0590 -0.4728 -0.6297
  280TMC3    C2 4277   1.714   2.029   0.064  0.2394  0.4037  0.3525
  280TMC3    C3 4278   1.660   2.097  17.696 -0.2193  0.5574  0.8951
  280TMC3    C4 4279   1.780   2.234   0.167 -0.9244 -0.0991  0.5892
  280TMC3    C5 4280   1.717   2.302   0.066 -0.1513 -0.0055  0.3362
  280TMC3    C6 4281   1.670   2.236  17.697 -0.7844 -0.0057  0.3393
  280TMC3     C 4282   1.857   2.032   0.269  0.2342 -0.3173  1.0653
  280TMC3     O 4283   1.829   2.078   0.379 -0.1181 -0.0949  0.7218
  280TMC3     H 4284   1.705   1.922   0.083  1.4213  0.2319 -0.0532
  280TMC3    H1 4285   1.840   2.278   0.246  0.9535 -0.1995 -0.7634
  280TMC3    H2 4286   1.616   2.280  17.614  1.6368  1.3114 -0.5233
  280TMC3    C7 4287   1.735   2.445   0.060 -0.1740  0.5503  0.0742
  280TMC3    C8 4288   1.688   2.040  17.567 -0.0194  0.0928  0.2117
  280TMC3    O1 4289   1.806   2.490   0.145  0.2667  0.5266  0.0678
  280TMC3    O2 4290   1.692   2.121  17.473 -0.0865  0.1590 -0.5185
  281TMC3    C1 4291   0.722   2.443  13.063 -0.5612 -0.1531  0.0205
  281TMC3    C2 4292   0.794   2.423  12.951  0.7542  0.1101 -0.1782
  281TMC3    C3 4293   0.728   2.375  12.838  0.3701  0.2393  0.1342
  281TMC3    C4 4294   0.584   2.424  13.072  0.4306  0.1294 -1.1220
  281TMC3    C5 4295   0.533   2.353  12.970  0.1306 -0.4123  0.2927
  281TMC3    C6 4296   0.596   2.334  12.850  0.2795 -0.3788  0.1215
  281TMC3     C 4297   0.783   2.548  13.140 -0.1366  0.5410  0.0976
  281TMC3     O 4298   0.906   2.539  13.138  0.2737 -0.0490  0.1018
  281TMC3     H 4299   0.895   2.457  12.932  0.0822  2.1215 -0.1264
  281TMC3    H1 4300   0.521   2.460  13.152  0.8409  0.8383 -1.1238
  281TMC3    H2 4301   0.541   2.293  12.767  0.7224 -2.0089  0.6164
  281TMC3    C7 4302   0.422   2.263  12.991  0.8497 -0.1149  0.0910
  281TMC3    C8 4303   0.794   2.360  12.710 -0.8199 -0.3173 -0.3359
  281TMC3    O1 4304   0.365   2.221  12.893 -0.0333 -0.6680 -0.3275
  281TMC3    O2 4305   0.808   2.245  12.675 -0.0204  0.0487 -0.6180
  282MPD2     C 4306   2.658   3.669  14.632  0.3468 -0.0634  0.1373
  282MPD2    C1 4307   2.539   3.621  14.681  0.5978  0.2412  0.7424
  282MPD2    C2 4308   2.440   3.589  14.591 -0.2305 -0.0781  0.3432
  282MPD2    C3 4309   2.466   3.596  14.456 -0.2392  0.3387 -0.9329
  282MPD2    C4 4310   2.588   3.631  14.407  0.1464  0.1055  0.2973
  282MPD2    C5 4311   2.685   3.661  14.493 -0.1321  0.6232 -0.0011
  282MPD2     H 4312   2.341   3.576  14.635 -0.2597 -3.1620 -0.5799
  282MPD2    H1 4313   2.606   3.617  14.300 -1.5209 -0.3292  0.0699
  282MPD2    H2 4314   2.737   3.702  14.697  0.8122 -1.8444  0.4957
  282MPD2    H3 4315   2.782   3.678  14.449 -0.7409 -0.8267 -1.8810
  282MPD2     N 4316   2.365   3.549  14.375  0.4132  0.6275  0.2471
  282MPD2    H5 4317   2.288   3.497  14.416 -0.6422 -0.9976 -3.7600
  282MPD2    N1 4318   2.527   3.613  14.823  0.3899  0.3090  0.1863
  282MPD2    H7 4319   2.611   3.631  14.877  0.4610  0.8079 -0.0950
  283TMC3    C1 4320   2.438   3.572  15.030  0.4000 -0.1073  0.0356
  283TMC3    C2 4321   2.535   3.660  15.089 -0.5660  0.1947  0.3578
  283TMC3    C3 4322   2.550   3.651  15.227  0.0248 -0.2635 -1.1388
  283TMC3    C4 4323   2.385   3.469  15.103 -0.2018 -0.4399  0.2205
  283TMC3    C5 4324   2.415   3.460  15.232  0.1875  0.4772 -0.5561
  283TMC3    C6 4325   2.491   3.548  15.299  0.0747 -0.0578 -0.4343
  283TMC3     C 4326   2.416   3.570  14.889  0.3222 -0.2938 -0.7414
  283TMC3     O 4327   2.313   3.515  14.848  0.4039  0.3222  0.1241
  283TMC3     H 4328   2.584   3.736  15.028  1.5617 -1.4399 -0.0105
  283TMC3    H1 4329   2.337   3.387  15.052 -0.8901 -1.1531  1.9955
  283TMC3    H2 4330   2.507   3.533  15.405  2.3113  0.0982 -0.7523
  283TMC3    C7 4331   2.337   3.362  15.308  0.1779  0.6970 -0.7890
  283TMC3    C8 4332   2.615   3.753  15.310 -0.0198 -0.1782  0.1439
  283TMC3    O1 4333   2.388   3.310  15.407  0.4850  0.4158  0.3502
  283TMC3    O2 4334   2.661   3.729  15.419  0.2263  0.3614  0.5255
  284MPD2     C 4335   0.462   3.215  11.995 -1.0701 -0.1660  0.0755
  284MPD2    C1 4336   0.551   3.316  12.027 -0.1627 -0.5708 -0.3910
  284MPD2    C2 4337   0.673   3.286  12.089  0.7433 -0.6021  0.4694
  284MPD2    C3 4338   0.695   3.158  12.131  0.2111  0.2861 -0.6729
  284MPD2    C4 4339   0.603   3.062  12.103 -0.4804 -0.0229 -0.7614
  284MPD2    C5 4340   0.489   3.087  12.035 -0.4541  0.0317 -0.0133
  284MPD2     H 4341   0.742   3.364  12.120  0.2366 -1.1072  2.8089
  284MPD2    H1 4342   0.621   2.961  12.136  2.4036  1.1339  1.2688
  284MPD2    H2 4343   0.365   3.233  11.950 -0.8056 -1.2697 -0.9302
  284MPD2    H3 4344   0.410   3.013  12.021  0.4988 -1.0561  0.4034
  284MPD2     N 4345   0.815   3.125  12.201  1.1458  0.1187 -0.1220
  284MPD2    H5 4346   0.813   3.044  12.263 -0.5800  0.8089  0.7154
  284MPD2    N1 4347   0.526   3.455  12.011 -0.2327  0.5093  0.2440
  284MPD2    H7 4348   0.605   3.519  12.010 -0.9271  1.3577  0.1988
  285TMC3    C1 4349   0.429   3.652  11.957  0.4057  0.7484 -0.3187
  285TMC3    C2 4350   0.533   3.706  12.022  0.3985 -0.4290  0.0671
  285TMC3    C3 4351   0.608   3.793  11.956 -0.5840  0.2906  0.1117
  285TMC3    C4 4352   0.368   3.710  11.845 -0.4225  0.0899  0.6490
  285TMC3    C5 4353   0.427   3.825  11.809 -0.0431  0.5481  0.3273
  285TMC3    C6 4354   0.545   3.871  11.861 -0.4038  0.4601 -0.2154
  285TMC3     C 4355   0.410   3.509  11.976 -0.3284 -0.7436 -0.3837
  285TMC3     O 4356   0.300   3.459  11.949  0.4190  0.2166 -0.1717
  285TMC3     H 4357   0.567   3.674  12.119  0.7753 -3.1069 -0.9346
  285TMC3    H1 4358   0.290   3.668  11.783  0.8358 -1.8237  0.3637
  285TMC3    H2 4359   0.592   3.959  11.819  0.9732 -0.9391 -1.5794
  285TMC3    C7 4360   0.335   3.928  11.782  0.5331  0.0010 -0.9239
  285TMC3    C8 4361   0.729   3.729  11.914 -0.0868 -0.7805  0.9092
  285TMC3    O1 4362   0.391   4.034  11.772  0.0267  0.1801  0.0001
  285TMC3    O2 4363   0.752   3.622  11.969  0.4263  0.6313 -0.3094
  286MPD2     C 4364   1.244   1.834   1.294 -0.1411 -0.1930 -0.0704
  286MPD2    C1 4365   1.251   1.862   1.157  0.6975  0.3028  0.0374
  286MPD2    C2 4366   1.366   1.850   1.096 -0.2481  0.6547  0.2027
  286MPD2    C3 4367   1.473   1.793   1.162 -0.7223 -0.4333  0.1853
  286MPD2    C4 4368   1.471   1.771   1.295 -1.0294  0.0854 -0.3237
  286MPD2    C5 4369   1.354   1.789   1.360 -0.4215  0.3966  0.3443
  286MPD2     H 4370   1.386   1.880   0.994 -0.9923  0.2844 -0.0493
  286MPD2    H1 4371   1.556   1.739   1.353 -1.3440  0.5922  0.4159
  286MPD2    H2 4372   1.161   1.855   1.360  1.2032  0.9701  1.2754
  286MPD2    H3 4373   1.353   1.775   1.468 -1.6986  3.9023  0.8166
  286MPD2     N 4374   1.596   1.767   1.093 -0.4425 -0.0783 -0.0443
  286MPD2    H5 4375   1.671   1.734   1.153 -0.5431 -0.6614 -0.2432
  286MPD2    N1 4376   1.139   1.900   1.071 -0.6070  0.2042 -0.7222
  286MPD2    H7 4377   1.163   1.931   0.977  1.5567 -1.3988 -0.7155
  287TMC3    C1 4378   1.745   1.698   0.920  0.2872  0.1847 -0.3506
  287TMC3    C2 4379   1.733   1.606   0.814  0.0304 -0.4561  0.3735
  287TMC3    C3 4380   1.814   1.493   0.815 -0.0607 -0.2278 -0.7237
  287TMC3    C4 4381   1.842   1.682   1.017 -0.8553 -0.2109  0.3602
  287TMC3    C5 4382   1.920   1.569   1.015 -0.0612  0.1082 -0.1771
  287TMC3    C6 4383   1.906   1.472   0.913 -0.1650 -0.1162  0.1165
  287TMC3     C 4384   1.622   1.761   0.958  0.0229  0.1545  0.1050
  287TMC3     O 4385   1.538   1.763   0.870  0.0441 -0.3113  0.4025
  287TMC3     H 4386   1.651   1.616   0.744 -0.6857 -0.4624  1.2073
  287TMC3    H1 4387   1.859   1.761   1.090 -1.5932 -0.0614  0.3688
  287TMC3    H2 4388   1.975   1.390   0.899  1.7880  1.6001 -0.3046
  287TMC3    C7 4389   2.049   1.563   1.085  0.4688  0.3350 -0.0692
  287TMC3    C8 4390   1.812   1.399   0.704  0.2711  0.1587 -0.0624
  287TMC3    O1 4391   2.118   1.465   1.058  0.0711 -0.0013  0.2372
  287TMC3    O2 4392   1.834   1.278   0.720 -0.5567  0.1501 -0.1201
  288TMC3    C1 4393   3.086   1.633  13.637 -0.1219  0.3497 -0.0161
  288TMC3    C2 4394   3.004   1.723  13.709  0.1826 -0.5348 -0.3246
  288TMC3    C3 4395   3.012   1.859  13.687  0.2636 -0.2826 -0.1299
  288TMC3    C4 4396   3.172   1.681  13.548 -0.2977 -0.4473 -0.0377
  288TMC3    C5 4397   3.173   1.813  13.520 -0.1482 -0.5644  0.1050
  288TMC3    C6 4398   3.089   1.906  13.587 -0.1602  0.2697  0.4904
  288TMC3     C 4399   3.138   1.538  13.730 -0.0236  0.3499  1.0556
  288TMC3     O 4400   3.249   1.491  13.707 -0.6569  0.0867 -0.0899
  288TMC3     H 4401   2.918   1.691  13.766  0.8359  0.5884  1.2804
  288TMC3    H1 4402   3.245   1.614  13.504 -0.7486 -1.0924  0.2022
  288TMC3    H2 4403   3.085   2.014  13.577  0.4261  0.1213 -1.3802
  288TMC3    C7 4404   3.270   1.862  13.428  0.7971 -0.2225 -0.5025
  288TMC3    C8 4405   3.005   1.946  13.803 -1.0074  0.1311 -0.1601
  288TMC3    O1 4406   3.378   1.807  13.414  0.2597  0.1748  0.6018
  288TMC3    O2 4407   3.071   2.049  13.807  0.1618  0.0762 -0.0261
  289MPD2     C 4408   2.809   0.860  14.197  0.2327  0.9400 -0.3629
  289MPD2    C1 4409   2.807   0.955  14.092 -0.3084  0.1874  0.4649
  289MPD2    C2 4410   2.683   0.993  14.050  0.0136 -0.1530 -0.2292
  289MPD2    C3 4411   2.569   0.936  14.098 -0.4537  0.1049  0.3465
  289MPD2    C4 4412   2.577   0.835  14.185 -0.8598  0.0924 -0.5046
  289MPD2    C5 4413   2.697   0.796  14.233 -0.4586 -0.2076 -0.0308
  289MPD2     H 4414   2.665   1.074  13.980  0.4361  2.2426  2.4521
  289MPD2    H1 4415   2.488   0.785  14.221  0.5532 -2.2490 -0.2600
  289MPD2    H2 4416   2.897   0.827  14.249  0.6740  3.4706  0.4802
  289MPD2    H3 4417   2.709   0.709  14.297 -0.1612  0.1795  0.4352
  289MPD2     N 4418   2.439   0.983  14.071 -0.4596  0.7393  0.4633
  289MPD2    H5 4419   2.359   0.927  14.098 -1.1608  1.9507  0.9164
  289MPD2    N1 4420   2.930   1.015  14.046 -0.5143  0.6489  0.1035
  289MPD2    H7 4421   3.016   0.995  14.096 -1.3000 -0.2869  1.0680
  290TMC3    C1 4422   2.272   1.126  13.986  0.3702  0.3573 -0.3353
  290TMC3    C2 4423   2.224   1.253  13.979  0.3309  0.4551 -0.0551
  290TMC3    C3 4424   2.087   1.272  13.962  0.0240  0.0045 -0.2807
  290TMC3    C4 4425   2.192   1.016  13.995  0.1967  0.0209 -0.0900
  290TMC3    C5 4426   2.055   1.040  13.983 -0.4082  0.2518  0.1475
  290TMC3    C6 4427   1.996   1.165  13.965  0.0550  0.1395  0.3763
  290TMC3     C 4428   2.409   1.100  14.010 -0.1841  0.3154  0.0220
  290TMC3     O 4429   2.480   1.198  13.982 -0.0778  0.5295  0.3471
  290TMC3     H 4430   2.298   1.332  13.970 -0.3993  1.2079  0.5349
  290TMC3    H1 4431   2.238   0.918  13.986  1.4642  0.9841 -4.0580
  290TMC3    H2 4432   1.890   1.183  13.950 -0.1552 -1.1241  0.3697
  290TMC3    C7 4433   1.960   0.936  13.969 -0.1750 -0.3213  0.4244
  290TMC3    C8 4434   2.036   1.401  13.989 -0.8510 -0.3700 -0.5435
  290TMC3    O1 4435   1.859   0.960  13.905  0.1746  0.0520  0.1051
  290TMC3    O2 4436   1.918   1.423  13.975  0.1044 -0.5770 -0.7673
  291MPD2     C 4437   2.235   0.919  17.546 -0.5192 -0.0916  0.2246
  291MPD2    C1 4438   2.262   0.881  17.677 -0.0502 -0.6663 -0.4771
  291MPD2    C2 4439   2.338   0.958   0.020  0.3536  0.0717 -0.0121
  291MPD2    C3 4440   2.405   1.066  17.699  0.1285  1.0349 -0.2263
  291MPD2    C4 4441   2.372   1.106  17.574 -0.1258  0.0636  0.1007
  291MPD2    C5 4442   2.291   1.032  17.493 -0.4735 -0.8167  0.6361
  291MPD2     H 4443   2.351   0.932   0.124 -1.5114  0.1509  0.2553
  291MPD2    H1 4444   2.426   1.194  17.539 -1.4376 -0.1901 -2.5679
  291MPD2    H2 4445   2.177   0.855  17.480  1.4327  0.8196 -2.3568
  291MPD2    H3 4446   2.257   1.075  17.399 -0.8218 -1.3469  0.5185
  291MPD2     N 4447   2.507   1.128   0.033  0.1166  0.0680 -0.1540
  291MPD2    H5 4448   2.524   1.222  17.736 -0.6016 -0.1358 -1.0402
  291MPD2    N1 4449   2.195   0.768  17.731  0.3753 -0.4435  0.0256
  291MPD2    H7 4450   2.235   0.743   0.083  1.1904 -1.3098 -0.5751
  292TMC3    C1 4451   2.079   0.564   0.009 -0.4795  0.5670  0.2169
  292TMC3    C2 4452   2.086   0.569   0.144  0.3074  0.5132  0.2175
  292TMC3    C3 4453   2.053   0.455   0.214 -0.7715 -0.0145  0.2182
  292TMC3    C4 4454   2.049   0.450  17.679  0.2059  0.3256 -0.1205
  292TMC3    C5 4455   2.009   0.344   0.017  0.2091  0.5383  0.5406
  292TMC3    C6 4456   2.019   0.337   0.155  0.1827  0.4004  0.0643
  292TMC3     C 4457   2.117   0.678  17.666 -0.2253  0.3840 -0.2211
  292TMC3     O 4458   2.061   0.680  17.556  0.0023  0.1905 -0.2601
  292TMC3     H 4459   2.113   0.657   0.201  0.9969 -0.8161  1.9650
  292TMC3    H1 4460   2.057   0.443  17.571  2.9018 -1.6206  0.2216
  292TMC3    H2 4461   2.010   0.244   0.209 -2.1539  0.3725 -0.4067
  292TMC3    C7 4462   1.970   0.232  17.671 -0.4571  0.2219 -0.4333
  292TMC3    C8 4463   2.071   0.463   0.352  0.0163 -0.2733 -0.0105
  292TMC3    O1 4464   1.977   0.121  17.726 -0.6639  0.1169  0.2294
  292TMC3    O2 4465   2.150   0.547   0.395 -0.2800 -0.2687 -0.2445
  293MPD2     C 4466   4.315   1.903  12.754  0.8814  0.2211  0.1290
  293MPD2    C1 4467   4.282   2.036  12.768  0.5430  0.1355  0.3404
  293MPD2    C2 4468   4.307   2.097  12.894  0.1650 -0.1093 -0.2686
  293MPD2    C3 4469   4.377   2.023  12.989 -0.7387 -0.3340 -0.1563
  293MPD2    C4 4470   4.417   1.889  12.970  0.1718 -0.1108  0.2970
  293MPD2    C5 4471   4.387   1.839  12.847 -0.1032  0.1344 -0.8249
  293MPD2     H 4472   4.273   2.199  12.910  1.3192 -0.2230  2.8380
  293MPD2    H1 4473   4.459   1.828  13.050  0.4181 -1.3121 -0.7600
  293MPD2    H2 4474   4.299   1.848  12.662  1.4514 -2.6070  1.7483
  293MPD2    H3 4475   4.418   1.736  12.831  2.4617  0.9447 -1.0286
  293MPD2     N 4476   4.396   2.093  13.110  1.0327  0.1571 -0.0260
  293MPD2    H5 4477   4.387   2.194  13.106  0.0958  0.0864  0.3632
  293MPD2    N1 4478   4.208   2.103  12.669  0.2147 -0.5090 -0.6527
  293MPD2    H7 4479   4.208   2.204  12.670  0.3691 -0.5266  2.8984
  294TMC3    C1 4480   4.049   2.107  12.501  0.7960  0.2135 -0.6174
  294TMC3    C2 4481   3.914   2.077  12.509 -0.0664  0.2018  0.0953
  294TMC3    C3 4482   3.823   2.165  12.450  0.1679  0.3283  0.4696
  294TMC3    C4 4483   4.093   2.229  12.454 -0.0046  0.1103 -0.1352
  294TMC3    C5 4484   3.994   2.303  12.383  0.1198  0.1249 -0.1433
  294TMC3    C6 4485   3.859   2.274  12.377  0.1203  0.2280  0.0632
  294TMC3     C 4486   4.128   2.033  12.582 -0.1691 -0.0618 -0.3540
  294TMC3     O 4487   4.094   1.916  12.582 -0.5085  0.5524 -0.1677
  294TMC3     H 4488   3.877   1.994  12.569 -2.6040  1.1442 -0.1735
  294TMC3    H1 4489   4.198   2.253  12.449 -0.4969  1.9257 -1.7297
  294TMC3    H2 4490   3.782   2.334  12.330  1.7532  0.2658 -2.5486
  294TMC3    C7 4491   4.044   2.419  12.312 -0.6064  0.2558 -0.0083
  294TMC3    C8 4492   3.687   2.118  12.447  0.2181 -0.6870 -0.6350
  294TMC3    O1 4493   4.151   2.458  12.345 -0.3033  0.3443  0.6646
  294TMC3    O2 4494   3.626   2.149  12.346 -0.3926  0.0745 -0.8068
  295MPD2     C 4495   0.764   0.864   0.088  0.3255 -0.2249  0.5620
  295MPD2    C1 4496   0.755   0.998   0.098 -0.7693  0.5298 -0.2287
  295MPD2    C2 4497   0.694   1.070   0.197 -0.0317  0.9738 -0.0537
  295MPD2    C3 4498   0.653   0.994   0.307 -0.8363 -0.2561  0.1000
  295MPD2    C4 4499   0.679   0.857   0.313 -0.4263 -1.2296  0.3972
  295MPD2    C5 4500   0.724   0.795   0.198  0.7873  0.0870  0.4184
  295MPD2     H 4501   0.675   1.177   0.191  0.9188  1.2030  0.9990
  295MPD2    H1 4502   0.648   0.795   0.396 -0.1473 -0.7196  0.8763
  295MPD2    H2 4503   0.806   0.809   0.004  0.5687 -0.8270  1.0757
  295MPD2    H3 4504   0.719   0.687   0.204 -1.6454  0.1607 -0.0517
  295MPD2     N 4505   0.587   1.056   0.419 -0.0462 -0.0472 -0.2411
  295MPD2    H5 4506   0.548   0.988   0.483 -1.3158  2.1682  1.3102
  295MPD2    N1 4507   0.797   1.082  17.736  0.2077 -0.9918 -1.1422
  295MPD2    H7 4508   0.810   1.179   0.022 -1.4925  0.0515 -4.3377
  296TMC3    C1 4509   0.460   1.212   0.529  0.1878 -0.6375 -0.0040
  296TMC3    C2 4510   0.383   1.319   0.516 -0.4917  0.7204 -0.7691
  296TMC3    C3 4511   0.270   1.331   0.598  0.0520  0.5956 -0.6681
  296TMC3    C4 4512   0.440   1.122   0.629  0.2574  0.3016  0.5856
  296TMC3    C5 4513   0.341   1.148   0.726 -0.0229 -0.2953  0.6334
  296TMC3    C6 4514   0.248   1.251   0.707  0.2211 -0.1505  0.3787
  296TMC3     C 4515   0.553   1.187   0.430 -0.5350 -0.0899 -0.7768
  296TMC3     O 4516   0.606   1.286   0.381  0.4288  0.0789  0.4474
  296TMC3     H 4517   0.384   1.381   0.428  0.2793 -1.1965 -2.1165
  296TMC3    H1 4518   0.509   1.042   0.651  0.5308  0.3083 -0.2503
  296TMC3    H2 4519   0.173   1.277   0.780 -0.2662 -1.1136  0.2208
  296TMC3    C7 4520   0.317   1.050   0.832 -0.2577 -0.0713  0.0346
  296TMC3    C8 4521   0.170   1.437   0.570  0.5562 -0.2627 -0.0751
  296TMC3    O1 4522   0.407   0.969   0.848  0.0396  0.5106 -0.0766
  296TMC3    O2 4523   0.216   1.522   0.491  0.2225 -0.3973 -0.2286
  297MPD2     C 4524   1.284   2.470  15.993 -0.3202 -0.4979 -0.2313
  297MPD2    C1 4525   1.348   2.565  15.919  0.5274  0.7395 -0.0944
  297MPD2    C2 4526   1.480   2.539  15.885  0.1476  0.2783 -0.3157
  297MPD2    C3 4527   1.554   2.430  15.923  0.3984 -0.4608 -0.7701
  297MPD2    C4 4528   1.482   2.337  15.993 -0.7800 -0.0503  1.0627
  297MPD2    C5 4529   1.347   2.357  16.031  0.0644 -0.1364  0.1211
  297MPD2     H 4530   1.534   2.612  15.825 -0.2806 -0.9640 -2.2057
  297MPD2    H1 4531   1.534   2.248  16.026  2.4236  1.2401 -0.4348
  297MPD2    H2 4532   1.182   2.486  16.028 -0.4012 -1.1395 -0.1733
  297MPD2    H3 4533   1.308   2.285  16.102 -1.1643 -0.8776 -1.2908
  297MPD2     N 4534   1.695   2.408  15.896  0.2287 -0.5994 -0.0865
  297MPD2    H5 4535   1.740   2.342  15.959 -1.0410 -1.5836 -0.2184
  297MPD2    N1 4536   1.285   2.685  15.887 -0.4617  0.3470 -0.2744
  297MPD2    H7 4537   1.323   2.742  15.811  0.5438  0.0751  0.0170
  298TMC3    C1 4538   1.143   2.859  15.889  0.6306 -0.0053  0.0435
  298TMC3    C2 4539   1.158   2.878  15.755 -0.1839 -0.8785  0.3030
  298TMC3    C3 4540   1.130   3.006  15.709 -0.2765 -0.0619 -0.1997
  298TMC3    C4 4541   1.087   2.957  15.967  0.4773 -0.0202 -0.3452
  298TMC3    C5 4542   1.056   3.086  15.913  0.2649  0.2192  0.0230
  298TMC3    C6 4543   1.084   3.108  15.782 -0.3440 -0.1381 -0.4261
  298TMC3     C 4544   1.190   2.744  15.956 -0.5012 -0.5671 -0.4931
  298TMC3     O 4545   1.151   2.723  16.070 -0.6243  0.2364 -0.1942
  298TMC3     H 4546   1.176   2.798  15.685  0.2965 -2.6216  2.4355
  298TMC3    H1 4547   1.073   2.951  16.074 -0.0588 -2.1095 -0.5363
  298TMC3    H2 4548   1.074   3.208  15.741 -1.0657  0.1397  0.4379
  298TMC3    C7 4549   1.021   3.196  15.995 -0.0411  0.2668  0.1227
  298TMC3    C8 4550   1.165   3.032  15.567 -0.6159  0.2254  1.2984
  298TMC3    O1 4551   1.066   3.188  16.110  0.4891 -0.1461 -0.1417
  298TMC3    O2 4552   1.092   3.118  15.513 -0.7576  0.3556 -0.7713
  299MPD2     C 4553   1.679   3.557  11.040  0.2304 -0.1892 -0.4298
  299MPD2    C1 4554   1.714   3.569  10.913 -0.2156  0.1528  0.0151
  299MPD2    C2 4555   1.646   3.484  10.820 -0.5089  1.0138  1.0749
  299MPD2    C3 4556   1.543   3.400  10.868  0.7193 -0.0631  0.3265
  299MPD2    C4 4557   1.528   3.384  11.009 -0.1588  0.9127 -0.5552
  299MPD2    C5 4558   1.604   3.456  11.091 -0.2106 -0.1043 -0.8351
  299MPD2     H 4559   1.679   3.487  10.716  1.4280 -4.6584  1.5494
  299MPD2    H1 4560   1.462   3.308  11.050  0.5259  0.1748 -0.8202
  299MPD2    H2 4561   1.709   3.630  11.114 -4.0868  0.4398  0.6807
  299MPD2    H3 4562   1.582   3.451  11.197 -0.5544 -0.4642 -0.9237
  299MPD2     N 4563   1.469   3.307  10.787  0.0772 -0.4395 -0.0323
  299MPD2    H5 4564   1.423   3.232  10.838  1.8028 -0.3146  1.7531
  299MPD2    N1 4565   1.822   3.652  10.889 -0.1008 -0.6252  0.2793
  299MPD2    H7 4566   1.879   3.677  10.969  1.7401 -2.2852 -0.5208
  300TMC3    C1 4567   1.383   3.216  10.589  0.1216  0.7383  0.2134
  300TMC3    C2 4568   1.374   3.244  10.456  0.8101 -0.7243  0.2859
  300TMC3    C3 4569   1.266   3.208  10.389  0.0089  0.0326 -0.0615
  300TMC3    C4 4570   1.282   3.160  10.656  0.7235 -0.2264 -0.3852
  300TMC3    C5 4571   1.169   3.139  10.590  0.6064  0.0678  0.3692
  300TMC3    C6 4572   1.163   3.149  10.456  0.0527 -0.6882 -0.3111
  300TMC3     C 4573   1.455   3.326  10.658 -0.4731  0.1461 -0.1308
  300TMC3     O 4574   1.481   3.429  10.589  0.4996  0.2392  0.1464
  300TMC3     H 4575   1.459   3.282  10.401  0.8430  0.5469  1.2233
  300TMC3    H1 4576   1.288   3.138  10.762 -2.1551 -0.5147 -0.2942
  300TMC3    H2 4577   1.067   3.141  10.407 -0.6047 -0.0303  0.8756
  300TMC3    C7 4578   1.057   3.079  10.653 -0.0718  0.1716 -0.1774
  300TMC3    C8 4579   1.222   3.322  10.313  0.0728 -0.1813 -0.1635
  300TMC3    O1 4580   0.980   3.022  10.576 -0.5613 -0.2627  0.0696
  300TMC3    O2 4581   1.128   3.312  10.236  0.2029  0.4667 -0.2788
  301MPD2     C 4582   0.298   3.843   1.281  0.3157 -0.4542  0.7278
  301MPD2    C1 4583   0.219   3.830   1.169  0.0724 -0.7125 -0.4265
  301MPD2    C2 4584   0.130   3.730   1.163 -0.1835  0.3476 -0.5818
  301MPD2    C3 4585   0.120   3.632   1.258  0.2674 -0.5908  0.2577
  301MPD2    C4 4586   0.189   3.660   1.380  0.5077 -0.1164  0.2531
  301MPD2    C5 4587   0.278   3.763   1.391 -0.2297 -0.2213  0.1765
  301MPD2     H 4588   0.074   3.721   1.071  1.3609  0.1450 -1.4902
  301MPD2    H1 4589   0.167   3.605   1.471  2.6535  0.4573  1.1052
  301MPD2    H2 4590   0.369   3.924   1.295 -0.9578  1.2252 -2.6894
  301MPD2    H3 4591   0.334   3.784   1.481  1.5496  0.8929 -1.1904
  301MPD2     N 4592   0.044   3.517   1.245  0.7062  0.0836  0.0292
  301MPD2    H5 4593   0.058   3.446   1.316 -0.8754 -1.2111 -0.9731
  301MPD2    N1 4594   0.230   3.913   1.057  0.3977  0.2315 -0.1671
  301MPD2    H7 4595   0.179   3.892   0.972 -0.1014  0.6641  0.0236
  302TMC3    C1 4596   4.670   3.367   1.112 -0.0269  0.8728 -0.1481
  302TMC3    C2 4597   4.728   3.267   1.183 -0.0723  0.3423  0.1491
  302TMC3    C3 4598   4.700   3.139   1.141  0.0311 -0.4310  0.4704
  302TMC3    C4 4599   4.594   3.349   0.992 -0.5240 -0.0465  0.6120
  302TMC3    C5 4600   4.563   3.214   0.963 -0.1629  0.2809  0.3625
  302TMC3    C6 4601   4.616   3.109   1.040 -0.2643 -0.4273  0.0894
  302TMC3     C 4602   4.692   3.504   1.146  0.2475  0.3704 -0.0243
  302TMC3     O 4603   4.622   3.590   1.100  0.0329 -0.1567  0.5154
  302TMC3     H 4604   0.068   3.278   1.261  0.0572  1.2817 -0.1127
  302TMC3    H1 4605   4.557   3.440   0.946 -2.6913 -1.0375  0.4016
  302TMC3    H2 4606   4.586   3.007   1.017 -0.2999  0.4024 -3.6322
  302TMC3    C7 4607   4.478   3.179   0.853  0.1817  0.1664 -0.0235
  302TMC3    C8 4608   0.019   3.026   1.214  0.1438  0.1794  0.0210
  302TMC3    O1 4609   4.441   3.063   0.841  0.2266  0.8983  0.2102
  302TMC3    O2 4610   0.019   2.922   1.148  0.1144  0.1299 -0.0302
  303MPD2     C 4611   3.689   2.961  10.557  0.4399 -0.5139  0.6531
  303MPD2    C1 4612   3.598   2.880  10.502 -0.0427 -0.5877  0.2687
  303MPD2    C2 4613   3.500   2.935  10.422 -0.2587  0.3390  0.0222
  303MPD2    C3 4614   3.488   3.072  10.400  0.1820 -0.0242 -0.1249
  303MPD2    C4 4615   3.584   3.152  10.448  0.1951  0.1980  0.7285
  303MPD2    C5 4616   3.682   3.100  10.526 -0.4746  0.0865 -1.0704
  303MPD2     H 4617   3.415   2.875  10.392 -1.6627  2.6032 -0.4802
  303MPD2    H1 4618   3.595   3.258  10.431 -0.3808  0.1930  0.3346
  303MPD2    H2 4619   3.772   2.930  10.619  1.1637  0.0160 -0.0560
  303MPD2    H3 4620   3.749   3.170  10.574  1.7084 -1.6726 -1.5584
  303MPD2     N 4621   3.383   3.126  10.320  0.1948  0.0595  0.2528
  303MPD2    H5 4622   3.395   3.224  10.296 -0.7638  0.5668  1.8023
  303MPD2    N1 4623   3.602   2.745  10.543  0.5953  0.5813 -0.4219
  303MPD2    H7 4624   3.679   2.716  10.603 -0.6138 -0.5565  0.5766
  304TMC3    C1 4625   3.535   2.520  10.567 -0.8343 -0.6791  0.0305
  304TMC3    C2 4626   3.509   2.521  10.700  0.1076 -0.0420  0.9697
  304TMC3    C3 4627   3.459   2.402  10.760 -0.5149 -0.6102  0.0388
  304TMC3    C4 4628   3.520   2.403  10.495 -0.4587 -0.7769  0.3119
  304TMC3    C5 4629   3.483   2.285  10.554  0.3537  0.3456  0.2052
  304TMC3    C6 4630   3.452   2.283  10.688 -0.0079 -0.2028  0.1099
  304TMC3     C 4631   3.528   2.641  10.493 -0.0072  0.6764 -0.5033
  304TMC3     O 4632   3.483   2.644  10.379 -0.6167  0.1279  0.0180
  304TMC3     H 4633   3.518   2.612  10.757  0.4352  1.3250 -1.2791
  304TMC3    H1 4634   3.525   2.411  10.387  0.8267  0.6903  0.4876
  304TMC3    H2 4635   3.410   2.191  10.727 -0.2934 -0.2045 -0.1954
  304TMC3    C7 4636   3.379   2.212  10.474 -0.1484  0.7402 -0.2474
  304TMC3    C8 4637   3.347   2.418  10.849 -0.4947  0.2807  0.1189
  304TMC3    O1 4638   3.393   2.203  10.359 -0.2726 -0.6645  0.1936
  304TMC3    O2 4639   3.271   2.319  10.860  0.0921 -0.0708 -0.6584
  305MPD2     C 4640   2.164   3.899  14.015  0.1025 -0.2545  0.0307
  305MPD2    C1 4641   2.289   3.913  13.957  0.1567 -0.1338  0.1442
  305MPD2    C2 4642   2.293   3.908  13.816 -0.6490  0.0039  0.3863
  305MPD2    C3 4643   2.172   3.909  13.742  0.0013 -0.3203 -0.5922
  305MPD2    C4 4644   2.055   3.914  13.801  0.1876  0.6380  0.3864
  305MPD2    C5 4645   2.050   3.895  13.939 -0.5596 -0.5916 -0.0966
  305MPD2     H 4646   2.389   3.909  13.765 -1.3688 -1.9430 -1.0188
  305MPD2    H1 4647   1.964   3.912  13.743 -0.9528 -1.9126  2.2860
  305MPD2    H2 4648   2.159   3.877  14.121 -2.0594  3.0649  0.6177
  305MPD2    H3 4649   1.961   3.854  13.985 -1.7346  0.2209 -1.6693
  305MPD2     N 4650   2.179   3.900  13.593 -0.0422  0.3791  0.6248
  305MPD2    H5 4651   2.091   3.917  13.544  0.0428 -3.2190 -0.8266
  305MPD2    N1 4652   2.407   3.922  14.042  0.4300 -0.1953 -0.5092
  305MPD2    H7 4653   2.394   3.941  14.141 -0.9898  3.4429 -1.3991
  306TMC3    C1 4654   2.633   3.897  14.113 -0.2520 -0.0731 -0.3456
  306TMC3    C2 4655   2.762   3.870  14.085 -0.1561 -0.3703 -0.9792
  306TMC3    C3 4656   2.852   3.891  14.188  0.4010 -0.0667 -0.1884
  306TMC3    C4 4657   2.603   3.931  14.247 -0.3314 -0.4359 -0.5311
  306TMC3    C5 4658   2.695   3.958  14.342  0.0905  0.3354  0.9921
  306TMC3    C6 4659   2.823   3.948  14.310 -0.0245 -0.7365 -0.2283
  306TMC3     C 4660   2.535   3.883  14.004 -1.0801  0.5975 -0.3739
  306TMC3     O 4661   2.571   3.815  13.903  0.0269  0.2722  0.4325
  306TMC3     H 4662   2.792   3.844  13.984  1.8170 -0.1647 -0.4482
  306TMC3    H1 4663   2.498   3.934  14.275  0.2932  0.1334  1.7263
  306TMC3    H2 4664   2.908   3.975  14.373  0.4226 -1.5887 -0.4706
  306TMC3    C7 4665   2.666   4.053  14.449 -0.2105  0.5505  0.3612
  306TMC3    C8 4666   2.981   3.829  14.172  1.5397 -0.4306  0.0006
  306TMC3    O1 4667   2.551   4.103  14.439  0.3548 -0.5425  0.2490
  306TMC3    O2 4668   3.020   3.819  14.056  0.2337  0.0764  0.1228
  307MPD2     C 4669   1.072   2.728   0.398 -0.5618  0.5029  0.3222
  307MPD2    C1 4670   1.008   2.834   0.450  0.5167  0.3550  0.2356
  307MPD2    C2 4671   0.923   2.814   0.553 -0.2897 -0.4211  0.4257
  307MPD2    C3 4672   0.880   2.685   0.590 -0.2132 -0.1641 -0.3343
  307MPD2    C4 4673   0.928   2.577   0.520  0.2581  0.7847  0.5497
  307MPD2    C5 4674   1.028   2.603   0.430  0.3532  0.0360  0.0595
  307MPD2     H 4675   0.885   2.899   0.608  1.4025  0.6000  0.0210
  307MPD2    H1 4676   0.896   2.480   0.555  1.9886  0.6906  1.8547
  307MPD2    H2 4677   1.160   2.736   0.334 -1.5394  1.1268 -0.9454
  307MPD2    H3 4678   1.068   2.516   0.379 -1.3063 -0.5809 -0.1780
  307MPD2     N 4679   0.781   2.654   0.685 -0.1493  0.1820 -0.1240
  307MPD2    H5 4680   0.773   2.561   0.725  0.9914 -0.0817 -0.5084
  307MPD2    N1 4681   1.043   2.968   0.416 -0.2064 -0.4408  0.2030
  307MPD2    H7 4682   0.979   3.037   0.453  0.4152  0.6811 -0.7872
  308TMC3    C1 4683   0.487   2.526   0.935 -0.3712  0.0122  0.2418
  308TMC3    C2 4684   0.439   2.606   1.037 -0.6376 -0.0319  0.4654
  308TMC3    C3 4685   0.492   2.733   1.042 -0.6496 -0.1541  0.3900
  308TMC3    C4 4686   0.578   2.561   0.843  0.3426 -0.5014  0.0109
  308TMC3    C5 4687   0.625   2.689   0.855 -0.0590  0.2316  0.1564
  308TMC3    C6 4688   0.580   2.775   0.950 -0.3876  0.5828  0.1890
  308TMC3     C 4689   0.382   2.441   0.879 -0.2710 -0.3789 -0.6441
  308TMC3     O 4690   0.434   2.337   0.833  0.0675  0.2184  0.2369
  308TMC3     H 4691   0.371   2.569   1.113  2.0611 -0.7856  2.4800
  308TMC3    H1 4692   0.573   2.519   0.743 -1.5889 -1.6141  0.5765
  308TMC3    H2 4693   0.646   2.857   0.974  2.6561 -1.6118 -0.6513
  308TMC3    C7 4694   0.711   2.745   0.758  0.0870 -0.1546  0.7250
  308TMC3    C8 4695   0.446   2.831   1.130 -0.2995 -0.5369 -0.2801
  308TMC3    O1 4696   0.700   2.870   0.747  0.3915  0.0774 -0.4229
  308TMC3    O2 4697   0.413   2.792   1.242 -0.2768  0.0424 -0.2355
  309MPD2     C 4698   0.014   2.739  17.315  0.0077  0.1672  0.1945
  309MPD2    C1 4699   4.663   2.722  17.213  0.5497  0.7713  0.0851
  309MPD2    C2 4700   4.533   2.728  17.241 -0.5130  0.5169 -0.1248
  309MPD2    C3 4701   4.484   2.751  17.367  0.3499  0.3800 -0.1681
  309MPD2    C4 4702   4.566   2.763  17.474 -0.6389 -0.1902 -0.1929
  309MPD2    C5 4703   4.704   2.748  17.444  0.3853 -0.0195 -0.2907
  309MPD2     H 4704   4.470   2.728  17.153  1.3483 -1.6911 -1.4642
  309MPD2    H1 4705   4.523   2.771  17.573  1.9482  0.2259  0.8887
  309MPD2    H2 4706   0.121   2.735  17.301 -0.2301  0.4825 -1.7065
  309MPD2    H3 4707   0.049   2.741  17.518 -1.8564  0.7783  2.1957
  309MPD2     N 4708   4.345   2.777  17.395 -0.4783 -0.4986  0.1393
  309MPD2    H5 4709   4.322   2.834  17.475  1.3107  1.0196 -0.4275
  309MPD2    N1 4710   4.700   2.705  17.077  0.2535 -0.0811 -0.5066
  309MPD2    H7 4711   4.625   2.694  17.011  0.5465 -0.7507 -0.7338
  310TMC3    C1 4712   0.105   2.691  16.893  0.2607  0.2294 -0.4565
  310TMC3    C2 4713   0.007   2.748  16.819  0.8853 -0.0813  0.8883
  310TMC3    C3 4714   0.028   2.734  16.685 -0.0244  0.4973  0.3119
  310TMC3    C4 4715   0.211   2.629  16.837  0.0246  0.0991 -0.0158
  310TMC3    C5 4716   0.230   2.631  16.704 -0.0626  0.1225 -0.0158
  310TMC3    C6 4717   0.133   2.683  16.625 -0.3020 -0.2614  0.0491
  310TMC3     C 4718   0.098   2.694  17.037  0.0078 -0.4279  0.2661
  310TMC3     O 4719   0.200   2.686  17.101 -0.0152 -0.4428  0.3480
  310TMC3     H 4720   4.663   2.804  16.868  0.2712  0.7255 -1.0295
  310TMC3    H1 4721   0.285   2.576  16.896 -0.3046  0.9246  1.1364
  310TMC3    H2 4722   0.147   2.697  16.518  2.8009 -0.0461  0.4665
  310TMC3    C7 4723   0.306   2.527  16.641  0.3710 -0.3014 -0.4570
  310TMC3    C8 4724   4.650   2.768  16.599  0.1740 -0.7852 -0.0628
  310TMC3    O1 4725   0.252   2.465  16.551 -0.6850  0.0932  0.2665
  310TMC3    O2 4726   4.667   2.756  16.479  0.1876 -0.2883  0.4745
  311MPD2     C 4727   1.252   4.305  12.231  0.0643 -0.8664 -0.1695
  311MPD2    C1 4728   1.326   4.280  12.346 -0.4538 -0.0380 -0.4777
  311MPD2    C2 4729   1.262   4.229  12.462  0.5007 -0.5559 -0.2243
  311MPD2    C3 4730   1.133   4.182  12.449  0.6154 -0.1741  0.3063
  311MPD2    C4 4731   1.065   4.205  12.330  0.1876 -0.3788 -0.3092
  311MPD2    C5 4732   1.121   4.278  12.227  0.4223 -0.0775  0.7277
  311MPD2     H 4733   1.309   4.216  12.559 -0.2653 -0.7030  0.1244
  311MPD2    H1 4734   0.961   4.179  12.313  0.7769 -3.5104  0.8873
  311MPD2    H2 4735   1.300   4.346  12.143  0.5161  0.2706  0.6081
  311MPD2    H3 4736   1.070   4.310  12.137 -0.3015 -0.7569  0.8986
  311MPD2     N 4737   1.072   4.104  12.550 -0.1233  0.4905  0.1923
  311MPD2    H5 4738   1.134   4.091  12.629  0.6050 -1.1433 -0.6474
  311MPD2    N1 4739   1.459   4.323  12.362 -0.1836  0.3113  0.2010
  311MPD2    H7 4740   1.505   4.311  12.452  1.2247 -1.4575 -0.7440
  312TMC3    C1 4741   0.916   3.987  12.683  0.5735  0.4123 -0.4699
  312TMC3    C2 4742   0.811   3.901  12.689  0.0642 -0.0780  0.5275
  312TMC3    C3 4743   0.755   3.870  12.805 -0.1071 -0.2592  0.2469
  312TMC3    C4 4744   0.978   4.023  12.797  0.1934 -0.1312  0.4689
  312TMC3    C5 4745   0.923   3.976  12.917 -0.3635 -0.7415  0.9588
  312TMC3    C6 4746   0.807   3.904  12.924 -0.7821  0.0543  0.6040
  312TMC3     C 4747   0.942   4.054  12.558  0.2010 -0.3016  0.0743
  312TMC3     O 4748   0.847   4.058  12.484 -0.2095 -0.6061  0.0736
  312TMC3     H 4749   0.747   3.896  12.602 -0.6157  1.8756  0.9145
  312TMC3    H1 4750   1.066   4.086  12.796 -1.8122  2.5883 -2.3684
  312TMC3    H2 4751   0.767   3.863  13.015 -1.9735 -0.6599 -0.2432
  312TMC3    C7 4752   0.954   4.072  13.019  0.3267 -0.8839 -0.0076
  312TMC3    C8 4753   0.614   3.827  12.798  0.1873 -0.3705  0.7917
  312TMC3    O1 4754   0.978   4.182  12.980  0.1665 -0.0009 -0.0822
  312TMC3    O2 4755   0.578   3.767  12.696 -0.2363  0.3320  0.9394
  313MPD2     C 4756   0.642   3.610  11.510  0.0438 -0.4005 -0.2215
  313MPD2    C1 4757   0.668   3.630  11.379 -0.8976  0.2897 -0.4355
  313MPD2    C2 4758   0.694   3.521  11.297 -0.1101 -0.2253 -0.0614
  313MPD2    C3 4759   0.679   3.396  11.353 -0.1100  0.5080 -0.5346
  313MPD2    C4 4760   0.657   3.373  11.485 -0.7510  0.2114 -0.2298
  313MPD2    C5 4761   0.627   3.482  11.564 -0.0429  0.4770 -0.2280
  313MPD2     H 4762   0.712   3.535  11.191  0.4848 -0.4372  0.0120
  313MPD2    H1 4763   0.657   3.276  11.533 -0.1439 -0.1860 -1.0484
  313MPD2    H2 4764   0.633   3.692  11.579 -0.8333  0.0637 -0.8778
  313MPD2    H3 4765   0.634   3.477  11.672  0.6741 -0.0295 -0.3009
  313MPD2     N 4766   0.679   3.290  11.255  0.3176 -0.8339 -0.3687
  313MPD2    H5 4767   0.696   3.323  11.160 -0.3660  0.3562 -0.0795
  313MPD2    N1 4768   0.678   3.754  11.321 -0.1372  0.0977 -0.0085
  313MPD2    H7 4769   0.706   3.763  11.224 -0.6432  1.2027 -0.0480
  314TMC3    C1 4770   0.708   3.978  11.281  0.0690 -0.4119  0.0300
  314TMC3    C2 4771   0.821   4.055  11.304 -0.1484 -0.0893 -0.3872
  314TMC3    C3 4772   0.847   4.169  11.233 -0.3761  0.5463 -0.7913
  314TMC3    C4 4773   0.609   4.020  11.198  0.1980 -0.1674  0.3848
  314TMC3    C5 4774   0.636   4.134  11.126 -0.7953  0.0341  0.8944
  314TMC3    C6 4775   0.751   4.211  11.143 -0.5233  0.9956 -0.6542
  314TMC3     C 4776   0.672   3.880  11.382 -0.5745 -0.5927  0.0007
  314TMC3     O 4777   0.681   3.915  11.498  0.2176  0.3566 -0.4542
  314TMC3     H 4778   0.892   4.028  11.382 -1.0602  0.6082  0.6766
  314TMC3    H1 4779   0.514   3.969  11.193  0.6037 -0.6897 -1.9813
  314TMC3    H2 4780   0.775   4.290  11.073 -0.5085  1.7677  0.2323
  314TMC3    C7 4781   0.559   4.167  11.010  0.3830 -0.5149 -0.4112
  314TMC3    C8 4782   0.973   4.242  11.240 -0.0576  0.1839 -0.1651
  314TMC3    O1 4783   0.435   4.154  11.019  0.1232  0.5895  0.0560
  314TMC3    O2 4784   0.966   4.350  11.184 -0.3062 -0.0607  0.1840
  315MPD2     C 4785   1.085   2.291  16.919  0.6796 -0.2357 -0.6059
  315MPD2    C1 4786   1.127   2.292  17.049  0.2008  0.6659 -0.5044
  315MPD2    C2 4787   1.146   2.413  17.112 -0.4359  0.0358 -0.4990
  315MPD2    C3 4788   1.099   2.533  17.055  0.1866  0.0351 -0.6565
  315MPD2    C4 4789   1.053   2.532  16.929  0.7169 -0.2561 -0.8846
  315MPD2    C5 4790   1.050   2.411  16.861 -0.3673 -0.0107  0.2904
  315MPD2     H 4791   1.191   2.413  17.211  1.9339  0.0063 -1.5833
  315MPD2    H1 4792   1.031   2.622  16.873  0.9961 -0.2160 -0.9281
  315MPD2    H2 4793   1.093   2.209  16.848 -0.7939 -1.2548  0.4068
  315MPD2    H3 4794   1.030   2.421  16.755  0.1725  1.4703  0.3197
  315MPD2     N 4795   1.115   2.654  17.125 -0.3500  0.5429  0.9008
  315MPD2    H5 4796   1.145   2.645  17.221  1.2339 -0.9081  0.2901
  315MPD2    N1 4797   1.168   2.171  17.116 -0.3172  0.1876 -0.6793
  315MPD2    H7 4798   1.199   2.173  17.212 -3.4270 -3.0374  0.3950
  316TMC3    C1 4799   1.121   2.883  17.175 -0.6921 -0.3655 -0.2679
  316TMC3    C2 4800   1.210   2.857  17.281  0.2478 -0.1649  0.0843
  316TMC3    C3 4801   1.208   2.950  17.384 -0.6552  0.2122  1.2509
  316TMC3    C4 4802   1.035   2.991  17.177 -0.4806  0.3296 -0.6160
  316TMC3    C5 4803   1.049   3.076  17.281  0.3107 -1.2755  0.2568
  316TMC3    C6 4804   1.123   3.054  17.395  1.1121 -0.1298 -0.2703
  316TMC3     C 4805   1.100   2.782  17.077 -0.1463  0.6000  0.7319
  316TMC3     O 4806   1.060   2.833  16.971 -0.0121 -0.5752 -0.2243
  316TMC3     H 4807   1.289   2.784  17.264 -2.2307 -2.8599  0.1106
  316TMC3    H1 4808   0.949   2.998  17.111 -2.3168  0.7759  1.8155
  316TMC3    H2 4809   1.136   3.133  17.468 -0.2043 -0.2807  0.1236
  316TMC3    C7 4810   0.966   3.191  17.289 -0.2872 -0.5283  0.0891
  316TMC3    C8 4811   1.329   2.964  17.464  0.0880 -0.0140  0.0938
  316TMC3    O1 4812   0.943   3.236  17.402 -0.1469 -0.0876 -0.0503
  316TMC3    O2 4813   1.358   3.073  17.512 -0.6984  0.3245  0.7118
  317MPD2     C 4814   2.513   1.357  12.694 -0.0855  0.2573 -0.4295
  317MPD2    C1 4815   2.596   1.257  12.654  0.4338 -0.1923 -0.8810
  317MPD2    C2 4816   2.631   1.155  12.744 -0.5126  0.5121  0.3659
  317MPD2    C3 4817   2.571   1.156  12.868  0.1295  0.0826  0.7606
  317MPD2    C4 4818   2.489   1.258  12.910 -1.4152  0.1057 -0.7635
  317MPD2    C5 4819   2.459   1.358  12.818  0.5420  0.1971  0.4214
  317MPD2     H 4820   2.699   1.076  12.714 -1.4828 -0.1283 -0.1546
  317MPD2    H1 4821   2.451   1.272  13.010  1.2652 -1.4641  0.4912
  317MPD2    H2 4822   2.471   1.430  12.625  0.2951  0.0757 -0.8494
  317MPD2    H3 4823   2.396   1.439  12.851  1.7202  0.1502  2.7916
  317MPD2     N 4824   2.614   1.048  12.953  0.6379 -0.6040  0.1470
  317MPD2    H5 4825   2.684   0.987  12.911  0.5351 -0.4779 -0.2036
  317MPD2    N1 4826   2.631   1.236  12.514  0.7600 -0.0383 -0.3515
  317MPD2    H7 4827   2.688   1.154  12.494  1.2758  0.4280 -0.7862
  318TMC3    C1 4828   2.605   0.924  13.150 -0.1616  0.1009  0.8248
  318TMC3    C2 4829   2.519   0.864  13.237  0.1688  0.8196  0.3021
  318TMC3    C3 4830   2.574   0.776  13.327  0.2577 -0.1546  0.4561
  318TMC3    C4 4831   2.733   0.888  13.149 -0.6103  0.4787 -0.2535
  318TMC3    C5 4832   2.784   0.793  13.235 -0.7798  0.1432  0.2051
  318TMC3    C6 4833   2.705   0.739  13.333  0.3995  0.8458 -0.7624
  318TMC3     C 4834   2.547   1.027  13.069  0.1146  0.1194  0.4097
  318TMC3     O 4835   2.442   1.077  13.110  0.1862  0.1262  0.3464
  318TMC3     H 4836   2.412   0.882  13.234 -0.4968 -3.0977  0.9922
  318TMC3    H1 4837   2.801   0.922  13.072  0.7671  0.5010  0.9575
  318TMC3    H2 4838   2.742   0.658  13.395  0.6743 -0.3961 -2.5444
  318TMC3    C7 4839   2.927   0.790  13.254  0.1694 -0.0425 -0.2308
  318TMC3    C8 4840   2.483   0.689  13.395 -0.0063  0.4469 -0.0295
  318TMC3    O1 4841   2.992   0.874  13.188 -0.6696  0.1479 -0.0249
  318TMC3    O2 4842   2.522   0.648  13.503 -0.5828 -0.2568  0.7370
  319MPD2     C 4843   3.892   2.588  16.720 -0.2413  0.5363 -0.2234
  319MPD2    C1 4844   3.828   2.475  16.777  0.3731 -0.2946  0.7165
  319MPD2    C2 4845   3.790   2.370  16.701  0.2347 -0.0382 -0.4310
  319MPD2    C3 4846   3.792   2.387  16.564 -0.0369  0.1813 -0.3935
  319MPD2    C4 4847   3.851   2.495  16.503  0.9066  0.0385 -0.0076
  319MPD2    C5 4848   3.902   2.593  16.581  0.1419  0.3050  0.5590
  319MPD2     H 4849   3.732   2.290  16.746 -0.1388  0.4547 -0.0269
  319MPD2    H1 4850   3.857   2.515  16.397  2.3371  0.7724  0.2053
  319MPD2    H2 4851   3.948   2.660  16.778 -0.7431  0.1794  0.7052
  319MPD2    H3 4852   3.939   2.684  16.535 -1.6019 -0.5638 -2.5175
  319MPD2     N 4853   3.742   2.290  16.471 -0.3705 -0.0411  0.5801
  319MPD2    H5 4854   3.750   2.312  16.372 -0.7598 -0.9484  0.3485
  319MPD2    N1 4855   3.825   2.458  16.918 -0.0562  0.4598  0.1602
  319MPD2    H7 4856   3.783   2.373  16.955  1.8367 -0.6981 -0.3512
  320TMC3    C1 4857   3.633   2.112  16.387  0.3135 -0.2551 -0.0901
  320TMC3    C2 4858   3.598   2.185  16.272  0.6147  0.3376 -0.3918
  320TMC3    C3 4859   3.540   2.113  16.171  0.7033 -0.4445 -0.1107
  320TMC3    C4 4860   3.630   1.977  16.398  0.3770  0.3608 -0.0359
  320TMC3    C5 4861   3.583   1.910  16.291 -0.1841 -0.1007  0.3293
  320TMC3    C6 4862   3.536   1.973  16.177  0.2825 -0.6191 -0.3592
  320TMC3     C 4863   3.674   2.181  16.509 -0.2992  0.4632 -0.1194
  320TMC3     O 4864   3.653   2.127  16.617 -0.4955 -0.4429  0.1412
  320TMC3     H 4865   3.604   2.293  16.273 -1.5106  0.4623  0.2785
  320TMC3    H1 4866   3.647   1.927  16.493 -0.7838  0.1346  0.0521
  320TMC3    H2 4867   3.480   1.910  16.109 -0.5697 -0.2736  0.0238
  320TMC3    C7 4868   3.608   1.765  16.285 -0.1103  0.3726 -0.7173
  320TMC3    C8 4869   3.495   2.188  16.056  0.6464  0.2038  0.3620
  320TMC3    O1 4870   3.619   1.720  16.171  0.1459 -0.4856  0.3237
  320TMC3    O2 4871   3.480   2.311  16.069 -0.0280  0.2410 -0.0538
  321TMC3    C1 4872   3.846   2.501  17.144  0.0073  0.2140  0.2844
  321TMC3    C2 4873   3.850   2.363  17.154 -0.2511 -0.1630 -0.1113
  321TMC3    C3 4874   3.823   2.309  17.280 -0.4971  0.2862  0.3360
  321TMC3    C4 4875   3.826   2.594  17.244 -0.3353  0.2168  0.2231
  321TMC3    C5 4876   3.812   2.534  17.372  0.0541 -0.8511 -0.0879
  321TMC3    C6 4877   3.800   2.395  17.384  0.0348  0.7161 -0.5279
  321TMC3     C 4878   3.865   2.554  17.012 -0.0208 -0.0499  0.2123
  321TMC3     O 4879   3.905   2.669  17.017 -0.1855 -0.1359  0.4300
  321TMC3     H 4880   3.893   2.300  17.077  0.2941  0.6794 -0.4934
  321TMC3    H1 4881   3.861   2.696  17.236  2.3460 -0.8053 -1.0715
  321TMC3    H2 4882   3.785   2.354  17.483  2.5191  2.0430  0.3824
  321TMC3    C7 4883   3.914   2.587  17.462  0.1175 -0.7100  0.2631
  321TMC3    C8 4884   3.910   2.200  17.324  0.0452  0.5464 -0.2916
  321TMC3    O1 4885   3.895   2.705  17.486  0.1844  0.4138  0.1165
  321TMC3    O2 4886   3.957   2.220  17.432 -0.4209  0.1748 -0.1933
  322MPD2     C 4887   2.405   3.306  13.606 -0.4149 -0.1139  0.2503
  322MPD2    C1 4888   2.445   3.260  13.729 -0.2993  0.7134 -0.0691
  322MPD2    C2 4889   2.494   3.132  13.746  0.0616 -1.0583 -0.4862
  322MPD2    C3 4890   2.512   3.045  13.641  0.5390 -0.4731  0.5704
  322MPD2    C4 4891   2.463   3.086  13.519  0.1210 -0.6588  0.0307
  322MPD2    C5 4892   2.416   3.218  13.501  0.3812  0.1695 -0.0043
  322MPD2     H 4893   2.537   3.104  13.841 -1.0962 -0.1624  0.3011
  322MPD2    H1 4894   2.465   3.012  13.440 -0.1923  0.0761 -0.6585
  322MPD2    H2 4895   2.363   3.406  13.600 -0.1419  0.0269  0.6538
  322MPD2    H3 4896   2.383   3.243  13.401 -1.3814 -0.6708  0.3631
  322MPD2     N 4897   2.559   2.913  13.662  0.1559  0.6355 -0.0357
  322MPD2    H5 4898   2.568   2.889  13.761  4.3506  0.1160 -0.5555
  322MPD2    N1 4899   2.448   3.360  13.830 -0.5211  0.4881  0.4048
  322MPD2    H7 4900   2.435   3.456  13.800 -0.4421  0.1838 -0.6165
  323TMC3    C1 4901   2.609   3.426  13.991  0.6410 -0.4939 -0.1093
  323TMC3    C2 4902   2.662   3.501  13.890 -0.1289 -0.2949 -0.2906
  323TMC3    C3 4903   2.792   3.553  13.911  0.1814 -0.1905  0.1234
  323TMC3    C4 4904   2.686   3.391  14.100  0.6459 -0.2946  0.0439
  323TMC3    C5 4905   2.817   3.433  14.116  0.0070  0.6098 -0.2820
  323TMC3    C6 4906   2.865   3.510  14.018  0.1736  0.7193 -0.4062
  323TMC3     C 4907   2.490   3.345  13.960 -0.8672  0.0972 -0.1219
  323TMC3     O 4908   2.473   3.247  14.031 -0.1229  0.3394  0.4088
  323TMC3     H 4909   2.616   3.526  13.795 -0.2421  0.8441  0.0627
  323TMC3    H1 4910   2.643   3.328  14.177  1.4577 -0.8424  0.0528
  323TMC3    H2 4911   2.969   3.538  14.031  0.1954 -0.1736  1.2954
  323TMC3    C7 4912   2.900   3.382  14.222 -0.4130  0.2120 -0.0776
  323TMC3    C8 4913   2.864   3.637  13.814  0.3249  0.0194 -0.1240
  323TMC3    O1 4914   2.850   3.378  14.332  0.0895 -0.4315 -0.5106
  323TMC3    O2 4915   2.985   3.637  13.816 -0.3712  0.3088  0.1751
  324MPD2     C 4916   3.957   4.040  14.718 -0.1982  0.1911 -0.5055
  324MPD2    C1 4917   3.985   4.164  14.679 -0.3971 -0.0422 -0.1600
  324MPD2    C2 4918   3.881   4.243  14.624 -0.6681 -0.5582 -0.7857
  324MPD2    C3 4919   3.759   4.189  14.593  0.1082  0.5672 -0.6291
  324MPD2    C4 4920   3.742   4.055  14.617  0.3927 -0.2599  0.5666
  324MPD2    C5 4921   3.833   3.986  14.693  0.5562  0.6311 -0.7089
  324MPD2     H 4922   3.908   4.346  14.608 -0.1796 -0.5213  0.2719
  324MPD2    H1 4923   3.649   4.000  14.605 -0.2669  1.0252 -0.1627
  324MPD2    H2 4924   4.033   3.982  14.768  0.7729  0.7101 -1.3916
  324MPD2    H3 4925   3.813   3.880  14.703 -1.8934  1.1664 -0.1535
  324MPD2     N 4926   3.645   4.254  14.536  0.1186 -1.0789  0.2944
  324MPD2    H5 4927   3.561   4.199  14.526 -0.3159 -0.7179  2.0539
  324MPD2    N1 4928   4.098   4.237  14.719  0.6024  0.0754 -0.9817
  324MPD2    H7 4929   4.101   4.338  14.712 -0.1736 -0.0087 -2.5094
  325TMC3    C1 4930   3.519   4.422  14.419  0.6716  0.1530  0.1872
  325TMC3    C2 4931   3.405   4.346  14.432  0.3686 -0.2458 -0.3221
  325TMC3    C3 4932   3.285   4.403  14.393  0.2748  0.3333  0.3416
  325TMC3    C4 4933   3.518   4.553  14.375  0.9810 -0.4908 -0.1990
  325TMC3    C5 4934   3.392   4.599  14.348 -0.2918 -0.2755  0.3713
  325TMC3    C6 4935   3.272   4.530  14.352 -0.0974 -0.7857 -0.0319
  325TMC3     C 4936   3.650   4.379  14.473  0.0695  1.3807  0.0631
  325TMC3     O 4937   3.746   4.454  14.447 -0.1173 -0.1076 -0.0666
  325TMC3     H 4938   3.410   4.239  14.451 -2.2314 -0.8800 -3.2145
  325TMC3    H1 4939   3.606   4.615  14.371  0.6677 -0.0272  0.0789
  325TMC3    H2 4940   3.195   4.562  14.282  1.1199 -0.9609 -1.4298
  325TMC3    C7 4941   3.389   0.005  14.309  0.4889  0.2153 -0.5239
  325TMC3    C8 4942   3.184   4.314  14.354 -0.2670 -0.0081 -0.3262
  325TMC3    O1 4943   3.492   0.044  14.256  0.0934  0.1305 -0.1036
  325TMC3    O2 4944   3.220   4.211  14.299 -0.1123 -0.4953 -0.0252
  326MPD2     C 4945   0.620   1.446  11.065 -0.2675 -0.2942  0.0762
  326MPD2    C1 4946   0.664   1.519  10.963  0.2361  0.2279 -0.3445
  326MPD2    C2 4947   0.784   1.583  10.963 -0.5664 -0.2694  0.0371
  326MPD2    C3 4948   0.852   1.588  11.081  0.7682  0.5870 -0.3554
  326MPD2    C4 4949   0.800   1.522  11.191  0.0566  0.1645 -0.5121
  326MPD2    C5 4950   0.684   1.449  11.183  0.2892 -0.5994  0.2458
  326MPD2     H 4951   0.817   1.646  10.881 -0.1865 -1.7157 -0.9105
  326MPD2    H1 4952   0.855   1.525  11.284 -0.5166  0.1070 -0.1739
  326MPD2    H2 4953   0.538   1.377  11.077  0.2715 -0.8627  0.5245
  326MPD2    H3 4954   0.656   1.384  11.265 -0.3809  0.5395  0.9151
  326MPD2     N 4955   0.979   1.649  11.089 -0.6273  0.2896  0.0123
  326MPD2    H5 4956   1.021   1.671  11.179  1.2199 -0.2511 -0.7179
  326MPD2    N1 4957   0.585   1.521  10.844  0.1973  0.0858  0.0768
  326MPD2    H7 4958   0.630   1.557  10.761 -1.5364 -0.0594 -0.9091
  327TMC3    C1 4959   0.450   1.466  10.671 -0.2732  0.3982  0.2056
  327TMC3    C2 4960   0.339   1.531  10.640 -0.2952  0.2607 -0.0134
  327TMC3    C3 4961   0.334   1.592  10.519  0.0017  0.3106 -0.2287
  327TMC3    C4 4962   0.557   1.472  10.594 -0.3184 -0.1256 -0.5019
  327TMC3    C5 4963   0.554   1.532  10.468  0.1779 -0.0262  0.4488
  327TMC3    C6 4964   0.437   1.588  10.424 -0.1603  0.6515  0.1505
  327TMC3     C 4965   0.471   1.455  10.813 -0.1014  0.7889  0.8816
  327TMC3     O 4966   0.382   1.419  10.893  0.7168  0.1931 -0.6202
  327TMC3     H 4967   0.250   1.538  10.702 -1.4307 -1.8397 -1.3935
  327TMC3    H1 4968   0.649   1.426  10.627 -0.5527  0.1266  0.5191
  327TMC3    H2 4969   0.434   1.655  10.338  0.4746  1.2381  0.5836
  327TMC3    C7 4970   0.670   1.605  10.407  0.2214 -0.0073  0.1782
  327TMC3    C8 4971   0.220   1.677  10.479 -0.1260 -0.4876  0.1469
  327TMC3    O1 4972   0.656   1.705  10.335  0.2505 -0.3514 -0.3156
  327TMC3    O2 4973   0.251   1.767  10.401  0.1014 -0.1233  0.6841
  328MPD2     C 4974   3.529   0.995  16.899  0.1395 -0.6407  0.5247
  328MPD2    C1 4975   3.453   0.896  16.952  0.1064 -0.4003  0.2035
  328MPD2    C2 4976   3.374   0.820  16.868  0.2631 -0.6346 -0.2111
  328MPD2    C3 4977   3.366   0.850  16.732  0.1369 -0.5340 -0.2659
  328MPD2    C4 4978   3.440   0.954  16.682  0.2833  0.4509 -0.0841
  328MPD2    C5 4979   3.521   1.028  16.768 -0.3551  0.5131  0.1154
  328MPD2     H 4980   3.297   0.756  16.909 -0.6583  1.0052  0.6264
  328MPD2    H1 4981   3.418   0.990  16.582  1.5001  0.9505 -0.1754
  328MPD2    H2 4982   3.588   1.061  16.961 -0.0066 -0.1969  0.1894
  328MPD2    H3 4983   3.584   1.108  16.731 -1.2874  0.9509 -0.5395
  328MPD2     N 4984   3.282   0.781  16.643  0.6266  0.7451  0.1865
  328MPD2    H5 4985   3.283   0.812  16.546 -0.3905 -1.4178 -0.5156
  328MPD2    N1 4986   3.459   0.868  17.089 -0.3268 -0.0294  0.1070
  328MPD2    H7 4987   3.390   0.800  17.118 -0.5136  0.1126  0.0033
  329TMC3    C1 4988   3.491   0.874  17.312 -0.1826 -0.4675 -0.7435
  329TMC3    C2 4989   3.490   0.960  17.422  0.4385 -0.2888  0.6778
  329TMC3    C3 4990   3.439   0.909  17.544  0.0077  0.6480  0.4606
  329TMC3    C4 4991   3.450   0.743  17.324 -0.1886 -0.7120  0.7466
  329TMC3    C5 4992   3.402   0.701  17.449  0.4344 -0.1479 -0.2523
  329TMC3    C6 4993   3.398   0.783  17.559  0.7639 -0.2644  0.0773
  329TMC3     C 4994   3.519   0.934  17.189 -0.2934 -0.5130 -0.4986
  329TMC3     O 4995   3.574   1.045  17.176 -0.1533 -0.0023  0.4675
  329TMC3     H 4996   3.505   1.067  17.411  1.9211 -0.6075 -0.4447
  329TMC3    H1 4997   3.475   0.674  17.244  0.2969 -1.1406  1.2722
  329TMC3    H2 4998   3.358   0.752  17.655 -1.4590  1.0602 -0.4345
  329TMC3    C7 4999   3.385   0.560  17.462  0.0627 -0.7176  0.4932
  329TMC3    C8 5000   3.448   0.996  17.669  0.2535 -0.1424 -0.0243
  329TMC3    O1 5001   3.387   0.489  17.360  0.6596  0.2562 -0.1940
  329TMC3    O2 5002   3.546   1.072  17.675  0.9223 -0.1276 -0.2697
  330TMC3    C1 5003   1.182   1.105   9.480 -0.0807 -1.2562  0.7393
  330TMC3    C2 5004   1.086   1.021   9.441  0.0153 -0.0361 -0.1596
  330TMC3    C3 5005   1.115   0.890   9.424 -0.3383  0.1489  0.4456
  330TMC3    C4 5006   1.312   1.069   9.503 -0.6634 -0.5432  0.0999
  330TMC3    C5 5007   1.333   0.934   9.500  0.8433 -0.3590  0.5058
  330TMC3    C6 5008   1.238   0.839   9.456 -0.4716  0.0411  0.5412
  330TMC3     C 5009   1.161   1.251   9.495 -0.1697 -0.2601  0.4692
  330TMC3     O 5010   1.245   1.321   9.547 -0.2526 -0.2683  0.1768
  330TMC3     H 5011   0.985   1.058   9.426  0.1327  0.2281 -0.2826
  330TMC3    H1 5012   1.391   1.141   9.525 -2.1648  1.4117 -0.8859
  330TMC3    H2 5013   1.243   0.731   9.444  0.5992  0.2128 -0.5324
  330TMC3    C7 5014   1.456   0.884   9.569 -0.1113  0.0001 -0.2142
  330TMC3    C8 5015   1.010   0.813   9.352 -0.0718 -0.3315  1.1229
  330TMC3    O1 5016   1.536   0.967   9.606 -0.1094  1.1228 -0.3787
  330TMC3    O2 5017   0.930   0.882   9.293 -0.0166 -0.5033 -0.4608
  331MPD2     C 5018   3.130   3.696  13.005 -0.3587  1.0724 -0.4631
  331MPD2    C1 5019   3.231   3.760  12.947 -0.0343 -0.2959 -0.1561
  331MPD2    C2 5020   3.309   3.696  12.852 -0.6677 -0.4277 -0.6636
  331MPD2    C3 5021   3.294   3.561  12.839 -1.1061 -0.8167 -0.5911
  331MPD2    C4 5022   3.198   3.493  12.902 -0.0038 -0.3540  0.2474
  331MPD2    C5 5023   3.114   3.559  12.987  0.3067 -0.4508  0.7026
  331MPD2     H 5024   3.392   3.736  12.796 -0.3026 -0.7015 -0.3209
  331MPD2    H1 5025   3.176   3.388  12.886  3.1927 -0.7601 -1.5389
  331MPD2    H2 5026   3.063   3.746  13.073  0.8407  1.2026  0.6180
  331MPD2    H3 5027   3.023   3.514  13.023 -0.3594  0.4433  0.1292
  331MPD2     N 5028   3.380   3.503  12.742 -0.0381  0.0985  0.1625
  331MPD2    H5 5029   3.425   3.568  12.679  0.9907 -0.0160  0.7794
  331MPD2    N1 5030   3.255   3.896  12.980 -0.2824 -0.1288  0.5480
  331MPD2    H7 5031   3.180   3.938  13.035 -0.1672  1.4635 -0.5006
  332TMC3    C1 5032   3.440   3.339  12.589 -0.0485 -0.7608  0.2491
  332TMC3    C2 5033   3.451   3.438  12.492 -0.8778  0.3163  0.1493
  332TMC3    C3 5034   3.563   3.441  12.409  0.2052  0.3810  0.4518
  332TMC3    C4 5035   3.542   3.250  12.609  0.1346 -1.1519  0.4353
  332TMC3    C5 5036   3.654   3.261  12.534  0.2897 -0.2774  0.0016
  332TMC3    C6 5037   3.662   3.344  12.423 -0.3059 -0.3502 -0.4527
  332TMC3     C 5038   3.375   3.368  12.714  0.6562 -0.1454  0.0178
  332TMC3     O 5039   3.324   3.276  12.775  0.1271  0.0937  0.2933
  332TMC3     H 5040   3.365   3.502  12.475 -1.1836 -0.9459 -3.1922
  332TMC3    H1 5041   3.539   3.188  12.697 -1.6300 -0.3470  0.9485
  332TMC3    H2 5042   3.752   3.336  12.362  1.0640 -1.0574  1.6663
  332TMC3    C7 5043   3.765   3.174  12.566  0.5009 -0.5045  0.1929
  332TMC3    C8 5044   3.602   3.569  12.347  0.2266  0.4127 -0.7446
  332TMC3    O1 5045   3.741   3.063  12.607  0.4768  0.5662 -0.0775
  332TMC3    O2 5046   3.717   3.607  12.358 -0.3463 -0.0494  0.1393
  333MPD2     C 5047   4.109   4.386  11.346  0.2907 -0.1649 -0.0041
  333MPD2    C1 5048   4.141   4.321  11.236 -0.0645  0.1765 -0.0276
  333MPD2    C2 5049   4.080   4.193  11.213 -0.3279  0.0213 -0.2639
  333MPD2    C3 5050   3.978   4.149  11.296  0.2487 -0.5067  0.2129
  333MPD2    C4 5051   3.937   4.226  11.401  0.0394 -0.1440 -1.3353
  333MPD2    C5 5052   3.998   4.344  11.423 -0.5638  0.0121  0.3632
  333MPD2     H 5053   4.133   4.123  11.149 -1.5893  0.0818 -1.3940
  333MPD2    H1 5054   3.851   4.195  11.459  0.1426  2.4924  0.2082
  333MPD2    H2 5055   4.159   4.479  11.371  0.0381 -0.2755  0.9193
  333MPD2    H3 5056   3.964   4.405  11.506 -0.7456  0.8665 -0.3337
  333MPD2     N 5057   3.927   4.021  11.276 -0.3018 -0.1700 -0.2344
  333MPD2    H5 5058   3.995   3.961  11.229 -1.2567  0.3976 -2.3192
  333MPD2    N1 5059   4.231   4.380  11.147 -0.1536  0.3671 -0.1215
  333MPD2    H7 5060   4.269   4.471  11.172 -0.3148  0.6356 -0.8484
  334TMC3    C1 5061   4.346   4.427  10.955  0.2128  0.4280  0.2360
  334TMC3    C2 5062   4.425   4.379  10.856 -0.0864 -0.2967 -0.7542
  334TMC3    C3 5063   4.505   4.467  10.786  0.4945 -0.2274 -0.4863
  334TMC3    C4 5064   4.324   4.561  10.974  0.5722 -0.1317  0.0714
  334TMC3    C5 5065   4.394   4.646  10.891 -0.0355 -0.6080  0.5223
  334TMC3    C6 5066   4.490   4.604  10.799 -0.7666 -0.1966  0.1605
  334TMC3     C 5067   4.269   4.327  11.033  0.3128  0.5745  0.6093
  334TMC3     O 5068   4.247   4.217  10.982 -0.3987 -0.1977 -0.2147
  334TMC3     H 5069   4.426   4.272  10.840 -1.2723 -0.3666 -0.3679
  334TMC3    H1 5070   4.248   4.594  11.044 -0.3906 -1.6953 -0.2362
  334TMC3    H2 5071   4.540   4.675  10.733  1.1939 -0.7940  1.0097
  334TMC3    C7 5072   4.379   0.051  10.919  0.2056 -0.5634  0.6421
  334TMC3    C8 5073   4.580   4.413  10.677  0.2167  0.9720  0.0814
  334TMC3    O1 5074   4.474   0.123  10.886 -0.1300  0.2036 -0.0321
  334TMC3    O2 5075   4.544   4.299  10.641 -0.0257  0.0222  0.0339
  335TMC3    C1 5076   4.288   1.378  17.001 -0.7331 -0.4877 -0.6540
  335TMC3    C2 5077   4.275   1.268  16.925 -0.3914 -0.4254  0.3427
  335TMC3    C3 5078   4.367   1.236  16.832  0.2451 -0.2222  0.5233
  335TMC3    C4 5079   4.410   1.449  17.005 -0.5429  0.1573  0.1077
  335TMC3    C5 5080   4.505   1.410  16.917 -0.8213 -0.8447 -0.6064
  335TMC3    C6 5081   4.492   1.298  16.839 -0.1492 -0.0081 -0.2067
  335TMC3     C 5082   4.187   1.398  17.099 -0.2934 -0.0210  0.5150
  335TMC3     O 5083   4.073   1.349  17.080 -0.6207 -0.2139 -0.2511
  335TMC3     H 5084   4.183   1.211  16.931 -0.6173 -0.2389 -1.3385
  335TMC3    H1 5085   4.415   1.552  17.038  0.6160  0.3066 -0.5490
  335TMC3    H2 5086   4.560   1.275  16.758 -1.1631  2.0061 -1.6649
  335TMC3    C7 5087   4.624   1.488  16.902 -0.1458 -0.5258 -0.2651
  335TMC3    C8 5088   4.349   1.120  16.740  0.1311 -0.0326 -0.1279
  335TMC3    O1 5089   4.685   1.460  16.802 -0.1566  0.3178  0.3254
  335TMC3    O2 5090   4.427   1.112  16.649 -0.3598 -0.1236  0.9666
  336MPD2     C 5091   3.114   3.565  16.284 -0.8180 -0.4141 -0.5910
  336MPD2    C1 5092   3.228   3.557  16.208 -0.3856  0.2844  0.4406
  336MPD2    C2 5093   3.317   3.459  16.219  0.5999  0.2759  0.2809
  336MPD2    C3 5094   3.284   3.351  16.301 -0.2610  0.6832  0.2906
  336MPD2    C4 5095   3.167   3.359  16.379 -0.2081 -0.1844 -0.5890
  336MPD2    C5 5096   3.088   3.469  16.372  0.0126 -0.3578 -0.5815
  336MPD2     H 5097   3.390   3.456  16.139 -1.4529  1.8397 -1.6185
  336MPD2    H1 5098   3.146   3.278  16.447  0.6943  0.6116  0.6337
  336MPD2    H2 5099   3.046   3.650  16.279  0.3076  0.4865 -0.7715
  336MPD2    H3 5100   2.995   3.486  16.425  0.9615  0.1312  0.9389
  336MPD2     N 5101   3.354   3.226  16.303 -0.0081 -0.5357 -0.1074
  336MPD2    H5 5102   3.319   3.143  16.349  0.4876 -1.1996 -0.9284
  336MPD2    N1 5103   3.255   3.653  16.107 -0.0218 -0.3058 -0.0375
  336MPD2    H7 5104   3.352   3.662  16.079  0.0583  2.0876  0.9828
  337TMC3    C1 5105   3.211   3.799  15.929 -0.1486 -0.6536  0.7609
  337TMC3    C2 5106   3.187   3.766  15.793  0.5910  0.1206 -0.1021
  337TMC3    C3 5107   3.249   3.843  15.697 -0.6142 -0.4410 -0.3909
  337TMC3    C4 5108   3.311   3.883  15.963 -0.8830 -1.1424 -0.3743
  337TMC3    C5 5109   3.364   3.960  15.861  0.0378  0.2979  0.2292
  337TMC3    C6 5110   3.336   3.948  15.729 -0.7011 -0.1244  0.0634
  337TMC3     C 5111   3.153   3.719  16.036 -0.4484 -0.4008 -0.0495
  337TMC3     O 5112   3.036   3.696  16.047  0.0817  0.8228 -0.2227
  337TMC3     H 5113   3.108   3.693  15.777 -1.5098  2.8437 -2.0994
  337TMC3    H1 5114   3.337   3.901  16.066 -0.0934  1.6720 -1.0739
  337TMC3    H2 5115   3.395   3.982  15.644 -0.8652  1.6443  0.6660
  337TMC3    C7 5116   3.447   4.071  15.899  0.0337 -0.0030  0.4632
  337TMC3    C8 5117   3.205   3.851  15.549  1.1338  0.1034 -0.2550
  337TMC3    O1 5118   3.517   4.054  16.004 -0.1979  0.0699  0.1522
  337TMC3    O2 5119   3.229   3.962  15.502  0.1535  0.0210  0.0367
  338MPD2     C 5120   3.812   2.606   0.885 -0.5564 -0.2589 -0.9082
  338MPD2    C1 5121   3.840   2.695   0.783 -0.4248  0.0690 -0.0827
  338MPD2    C2 5122   3.736   2.737   0.696  0.2595 -0.2266  0.3259
  338MPD2    C3 5123   3.611   2.681   0.715  0.1868  0.0781  0.1532
  338MPD2    C4 5124   3.587   2.595   0.817 -0.0017  0.1434  0.1547
  338MPD2    C5 5125   3.686   2.557   0.904 -0.0119  0.3834  0.3062
  338MPD2     H 5126   3.763   2.785   0.603  2.0649  1.5153  1.7427
  338MPD2    H1 5127   3.485   2.561   0.832  0.0871  0.5872  1.7791
  338MPD2    H2 5128   3.878   2.564   0.959  0.6444  2.5214 -0.4022
  338MPD2    H3 5129   3.660   2.485   0.981  1.3059 -1.0184 -0.5582
  338MPD2     N 5130   3.511   2.721   0.626 -0.2359 -0.0969 -0.3603
  338MPD2    H5 5131   3.526   2.797   0.561 -1.1574  0.3004 -0.1132
  338MPD2    N1 5132   3.971   2.747   0.756 -0.2099  0.4240  0.0925
  338MPD2    H7 5133   3.977   2.797   0.668  0.7812  0.5917  0.2581
  339TMC3    C1 5134   3.304   2.771   0.536  0.9552 -0.1980  1.0496
  339TMC3    C2 5135   3.212   2.867   0.581 -0.7269 -0.7253  0.7571
  339TMC3    C3 5136   3.179   2.970   0.502  0.1446 -0.0687  1.2665
  339TMC3    C4 5137   3.356   2.795   0.415  0.5324  0.1472 -0.5092
  339TMC3    C5 5138   3.322   2.904   0.337  0.5393  0.3032  0.3322
  339TMC3    C6 5139   3.241   2.999   0.384  0.6548  0.2231  0.3368
  339TMC3     C 5140   3.376   2.697   0.633 -0.2506  0.2467  0.5360
  339TMC3     O 5141   3.318   2.648   0.729 -0.4724  0.7247 -0.7632
  339TMC3     H 5142   3.165   2.856   0.678  0.1186  0.2333  1.2675
  339TMC3    H1 5143   3.432   2.725   0.382  0.7871 -0.3005  0.9986
  339TMC3    H2 5144   3.216   3.085   0.323  0.7194  1.7635  2.4781
  339TMC3    C7 5145   3.373   2.929   0.204 -0.6037 -0.5074 -0.5870
  339TMC3    C8 5146   3.040   3.010   0.504  0.0576  0.2210  0.2617
  339TMC3    O1 5147   3.411   3.037   0.177  0.6640  0.6931  0.2702
  339TMC3    O2 5148   3.006   3.122   0.463 -0.0874  0.2520  0.4994
  340MPD2     C 5149   3.740   1.558  10.589 -0.0886  0.0846  1.0786
  340MPD2    C1 5150   3.786   1.425  10.590  0.3315  0.1459 -0.1663
  340MPD2    C2 5151   3.909   1.403  10.522  0.1163  0.1292  0.3644
  340MPD2    C3 5152   3.980   1.504  10.454 -0.1032 -0.3984 -0.1039
  340MPD2    C4 5153   3.925   1.631  10.450  0.0274 -0.5392  0.0145
  340MPD2    C5 5154   3.808   1.655  10.517 -0.7932 -0.9514  0.4219
  340MPD2     H 5155   3.946   1.302  10.508 -1.3214  0.1427 -3.4721
  340MPD2    H1 5156   3.978   1.711  10.400 -2.3703  0.1460 -1.4007
  340MPD2    H2 5157   3.646   1.580  10.638 -0.5347  0.5264  0.0290
  340MPD2    H3 5158   3.773   1.758  10.515 -0.8386 -0.9938 -1.3809
  340MPD2     N 5159   4.091   1.471  10.371 -0.3451 -0.2767  0.2901
  340MPD2    H5 5160   4.124   1.544  10.308 -3.6483  1.0321  0.0365
  340MPD2    N1 5161   3.702   1.326  10.654  1.0224 -0.3646 -0.7154
  340MPD2    H7 5162   3.638   1.371  10.719  1.2814 -0.3523 -0.4699
  341TMC3    C1 5163   3.750   1.121  10.526  0.5603 -0.1591 -0.0550
  341TMC3    C2 5164   3.779   0.987  10.545 -0.0131 -0.4441  0.3995
  341TMC3    C3 5165   3.818   0.915  10.435 -0.0529  0.2557 -0.1697
  341TMC3    C4 5166   3.762   1.183  10.400  0.2048  0.1661 -0.4624
  341TMC3    C5 5167   3.814   1.109  10.298 -0.1350  0.0371  0.3545
  341TMC3    C6 5168   3.836   0.974  10.311  0.0272 -0.6579  0.1236
  341TMC3     C 5169   3.689   1.186  10.642  0.2735 -0.4989  0.1081
  341TMC3     O 5170   3.625   1.106  10.713  0.4354 -0.5440 -0.2888
  341TMC3     H 5171   3.765   0.934  10.639  0.6405 -1.5883 -0.1556
  341TMC3    H1 5172   3.719   1.282  10.391  0.0361 -0.0458 -2.0041
  341TMC3    H2 5173   3.862   0.916  10.223  1.9494  1.3080 -0.6122
  341TMC3    C7 5174   3.845   1.165  10.171  0.1553  0.1751  0.7073
  341TMC3    C8 5175   3.796   0.771  10.442  0.3738  0.2472 -0.0591
  341TMC3    O1 5176   3.876   1.099  10.076 -0.6155 -0.4747 -0.7574
  341TMC3    O2 5177   3.718   0.735  10.528 -0.2900  0.3973  0.2870
  342MPD2     C 5178   1.596   3.649  17.195  0.0771  0.0787 -0.1425
  342MPD2    C1 5179   1.724   3.637  17.228  0.6230 -0.0833  0.6133
  342MPD2    C2 5180   1.810   3.749  17.228  0.5336 -0.5437  0.3627
  342MPD2    C3 5181   1.756   3.871  17.184 -0.1345  0.5960 -0.2752
  342MPD2    C4 5182   1.632   3.883  17.136 -0.0076 -0.8707 -0.1492
  342MPD2    C5 5183   1.553   3.771  17.153 -0.5956 -0.0958  0.2445
  342MPD2     H 5184   1.911   3.748  17.268  1.1823  0.0054 -1.2551
  342MPD2    H1 5185   1.590   3.977  17.101  0.9536  0.0922  1.2672
  342MPD2    H2 5186   1.524   3.568  17.200 -2.2891  2.2312  1.0688
  342MPD2    H3 5187   1.447   3.778  17.130 -0.7939 -0.4454  1.0541
  342MPD2     N 5188   1.840   3.992  17.166 -0.5525 -0.3372  0.2618
  342MPD2    H5 5189   1.800   4.072  17.119  1.6933  0.6662  0.0369
  342MPD2    N1 5190   1.794   3.518  17.265 -0.2475  0.2923  0.0216
  342MPD2    H7 5191   1.893   3.523  17.285  0.5110 -2.5116 -2.9774
  343TMC3    C1 5192   1.822   3.294  17.341  0.4122  0.2054 -0.1135
  343TMC3    C2 5193   1.958   3.323  17.374 -0.9135 -0.2146  0.1275
  343TMC3    C3 5194   2.032   3.215  17.397 -0.1165 -0.2444 -0.1598
  343TMC3    C4 5195   1.768   3.168  17.345 -0.5564  0.5168 -0.3959
  343TMC3    C5 5196   1.850   3.067  17.393  1.0238  0.8145 -0.2949
  343TMC3    C6 5197   1.986   3.086  17.417 -0.8448 -0.2597  0.0331
  343TMC3     C 5198   1.732   3.398  17.284 -0.1749  0.1413  0.7589
  343TMC3     O 5199   1.618   3.370  17.251  0.0562 -0.4754 -1.0401
  343TMC3     H 5200   2.001   3.423  17.382 -0.8727 -0.0476 -2.0599
  343TMC3    H1 5201   1.665   3.149  17.317 -0.1350 -0.8617 -0.9989
  343TMC3    H2 5202   2.053   3.002  17.429 -1.4966 -0.9444 -1.0892
  343TMC3    C7 5203   1.792   2.940  17.366  0.2541  0.4299 -0.0142
  343TMC3    C8 5204   2.181   3.228  17.391  0.2230 -1.0828 -0.9334
  343TMC3    O1 5205   1.705   2.935  17.282 -0.3786 -0.1932 -0.1023
  343TMC3    O2 5206   2.224   3.343  17.406  0.1543 -0.3563 -0.5173
  344MPD2     C 5207   2.427   3.994  10.367 -0.2190 -0.1804  0.2759
  344MPD2    C1 5208   2.454   4.022  10.498 -0.3619  0.2357  0.2746
  344MPD2    C2 5209   2.549   4.125  10.523 -0.4529  0.5692  0.9356
  344MPD2    C3 5210   2.596   4.209  10.420 -0.8659  0.5083 -0.1449
  344MPD2    C4 5211   2.579   4.165  10.291  0.0055  0.2006 -0.6642
  344MPD2    C5 5212   2.488   4.070  10.270  0.2772  0.3628  0.1015
  344MPD2     H 5213   2.562   4.165  10.623 -2.3481  0.3575  1.2774
  344MPD2    H1 5214   2.629   4.217  10.210  1.6143 -1.1433 -0.5327
  344MPD2    H2 5215   2.357   3.916  10.337  0.7178 -0.4753 -1.1401
  344MPD2    H3 5216   2.469   4.026  10.172 -0.8413 -0.3745  0.6463
  344MPD2     N 5217   2.664   4.331  10.445 -0.7892  0.0383 -0.1179
  344MPD2    H5 5218   2.672   4.382  10.358  0.6214 -1.0164 -0.6061
  344MPD2    N1 5219   2.389   3.957  10.605 -0.5118  0.4471 -0.0097
  344MPD2    H7 5220   2.423   3.971  10.700 -0.0499 -0.0630 -0.1042
  345TMC3    C1 5221   2.768   4.511  10.563 -1.0204 -0.1406  0.7557
  345TMC3    C2 5222   2.857   4.545  10.664  0.6276 -0.1012 -0.3583
  345TMC3    C3 5223   2.941   4.656  10.645 -0.6167  1.2785 -0.2793
  345TMC3    C4 5224   2.734   4.589  10.457 -0.3916 -0.1587 -0.6921
  345TMC3    C5 5225   2.815   4.701  10.448 -0.5930  0.3519 -0.4005
  345TMC3    C6 5226   2.913   0.003  10.540  0.3557 -0.2383  0.2956
  345TMC3     C 5227   2.706   4.379  10.573  0.4565  0.2712  0.3397
  345TMC3     O 5228   2.724   4.317  10.677  0.0055 -0.5011  0.3760
  345TMC3     H 5229   2.889   4.483  10.747  1.1314  0.5486 -0.0718
  345TMC3    H1 5230   2.654   4.561  10.389  0.9866 -1.3272 -1.8518
  345TMC3    H2 5231   2.981   0.085  10.521  0.8880 -1.2959 -2.3705
  345TMC3    C7 5232   2.785   0.070  10.358 -0.4709 -0.3585 -0.2011
  345TMC3    C8 5233   2.968   4.735  10.765 -0.4684 -0.1591 -0.1529
  345TMC3    O1 5234   2.837   0.182  10.374  0.1679 -0.1439 -0.0875
  345TMC3    O2 5235   3.044   4.698  10.853  0.3878 -0.7311  0.0816
  346MPD2     C 5236   2.300   0.118  13.756 -0.4125  0.1920  0.0094
  346MPD2    C1 5237   2.429   0.090  13.797 -0.7381 -0.3881  0.8162
  346MPD2    C2 5238   2.485   0.159  13.899 -0.0275 -0.4754  0.0631
  346MPD2    C3 5239   2.414   0.251  13.972  0.4597  0.0776  1.0364
  346MPD2    C4 5240   2.277   0.276  13.939 -0.1625  0.9195 -0.1754
  346MPD2    C5 5241   2.233   0.210  13.829  0.3269 -0.3476 -0.7195
  346MPD2     H 5242   2.591   0.154  13.922 -0.2766 -0.2759  1.2874
  346MPD2    H1 5243   2.208   0.344  13.987  1.4548  1.4009  1.4764
  346MPD2    H2 5244   2.252   0.070  13.671  0.5437 -2.1382  0.7692
  346MPD2    H3 5245   2.136   0.238  13.791  0.3260  1.0515  0.2956
  346MPD2     N 5246   2.489   0.300  14.079  0.6594  0.0145 -0.3351
  346MPD2    H5 5247   2.580   0.268  14.108  0.1707  0.6183  1.8591
  346MPD2    N1 5248   2.518   0.014  13.723 -0.7529  0.4410  0.2145
  346MPD2    H7 5249   2.618   0.027  13.737 -0.8140  0.2706  0.7903
  347TMC3    C1 5250   2.522   0.424  14.283 -0.0888  0.2095  0.3247
  347TMC3    C2 5251   2.659   0.425  14.267  0.7099 -0.5728 -0.0364
  347TMC3    C3 5252   2.737   0.446  14.375 -0.0928  0.1034  0.3598
  347TMC3    C4 5253   2.458   0.457  14.400  0.7379  0.5153 -0.1469
  347TMC3    C5 5254   2.542   0.466  14.505  0.0731 -0.6666 -0.0159
  347TMC3    C6 5255   2.681   0.462  14.497 -0.2841 -0.3947 -0.0684
  347TMC3     C 5256   2.440   0.403  14.164  0.0789 -0.2227 -0.7461
  347TMC3     O 5257   2.328   0.450  14.165  0.1593  0.0996  0.5427
  347TMC3     H 5258   2.706   0.416  14.169  1.2943 -0.6946  0.2574
  347TMC3    H1 5259   2.350   0.451  14.403  0.8896 -0.7529  2.6007
  347TMC3    H2 5260   2.745   0.480  14.582 -0.9874 -0.1332  0.4065
  347TMC3    C7 5261   2.470   0.492  14.632 -0.2089 -0.7301 -0.2998
  347TMC3    C8 5262   2.866   0.381  14.372  0.0295 -0.4297 -0.1335
  347TMC3    O1 5263   2.357   0.543  14.632 -0.0938  0.2094 -0.2361
  347TMC3    O2 5264   2.901   0.320  14.472 -0.0216 -0.3707 -0.0224
  348MPD2     C 5265   1.474   0.098  11.623 -0.2372 -0.2560 -0.2277
  348MPD2    C1 5266   1.398   0.076  11.513  1.0728  1.1000 -0.6737
  348MPD2    C2 5267   1.407   0.175  11.412  0.5424 -0.0495 -0.1672
  348MPD2    C3 5268   1.475   0.295  11.427  1.2474  0.6415  0.6409
  348MPD2    C4 5269   1.551   0.313  11.541  0.5207  1.0400 -0.9168
  348MPD2    C5 5270   1.550   0.218  11.632 -0.1338  0.6801 -0.3014
  348MPD2     H 5271   1.338   0.156  11.330  2.3514  1.3532 -2.0053
  348MPD2    H1 5272   1.622   0.395  11.551  2.5782 -0.8587  0.0601
  348MPD2    H2 5273   1.478   0.022  11.700  0.0895  1.1316  1.1097
  348MPD2    H3 5274   1.612   0.224  11.722  0.2288 -0.3769 -0.4805
  348MPD2     N 5275   1.483   0.387  11.321 -0.7031  0.0752 -0.0653
  348MPD2    H5 5276   1.447   0.353  11.233 -0.9436  2.2941 -0.8289
  348MPD2    N1 5277   1.300   4.707  11.494 -0.7680  0.0511 -0.1754
  348MPD2    H7 5278   1.229   4.704  11.422 -3.9504  1.0906  2.9212
  349TMC3    C1 5279   1.187   4.503  11.566  0.0715 -0.4648  0.1609
  349TMC3    C2 5280   1.212   4.382  11.626  0.3143 -0.2564  0.2918
  349TMC3    C3 5281   1.115   4.321  11.691 -0.3817 -0.1638 -0.3479
  349TMC3    C4 5282   1.077   4.581  11.598 -0.2820 -0.3613 -0.5797
  349TMC3    C5 5283   0.989   4.520  11.683 -0.5960  0.1601  0.0930
  349TMC3    C6 5284   1.000   4.392  11.728 -0.3372 -0.2156  0.0257
  349TMC3     C 5285   1.309   4.588  11.563 -0.5568  0.0173 -0.5829
  349TMC3     O 5286   1.409   4.542  11.617  0.3053 -0.1195 -0.5818
  349TMC3     H 5287   1.303   4.327  11.604  0.5541 -0.2983  1.4134
  349TMC3    H1 5288   1.057   4.674  11.546  1.7425  0.3109 -0.1390
  349TMC3    H2 5289   0.923   4.354  11.794  0.4369  0.5011  1.3395
  349TMC3    C7 5290   0.858   4.583  11.708 -0.1960  0.1466 -0.3809
  349TMC3    C8 5291   1.151   4.203  11.776 -0.2429  0.0691 -0.0158
  349TMC3    O1 5292   0.765   4.506  11.717 -0.3900  0.1259 -0.6235
  349TMC3    O2 5293   1.269   4.171  11.805 -0.0914  0.4425  0.5504
  350MPD2     C 5294   0.886   3.632  10.574 -0.6500 -0.0058  0.0231
  350MPD2    C1 5295   0.839   3.513  10.519 -0.3075 -0.0332  0.0497
  350MPD2    C2 5296   0.826   3.403  10.601 -0.0075  0.5516 -0.1362
  350MPD2    C3 5297   0.827   3.411  10.744  0.8508  0.6788  0.5553
  350MPD2    C4 5298   0.862   3.538  10.795  0.6980  0.2341 -0.3573
  350MPD2    C5 5299   0.892   3.639  10.708  0.3570 -0.2378  0.5833
  350MPD2     H 5300   0.795   3.314  10.548  1.4985  0.6081 -1.1192
  350MPD2    H1 5301   0.878   3.563  10.899  0.1545  0.5980 -0.3625
  350MPD2    H2 5302   0.908   3.722  10.518 -0.3400 -0.1660 -0.1098
  350MPD2    H3 5303   0.920   3.735  10.748 -1.6700 -0.3919  2.4122
  350MPD2     N 5304   0.783   3.304  10.833 -0.1082 -0.3102 -0.6495
  350MPD2    H5 5305   0.803   3.322  10.931  2.1314  3.3462 -1.7471
  350MPD2    N1 5306   0.819   3.494  10.383 -0.0117 -0.2942  0.6287
  350MPD2    H7 5307   0.778   3.405  10.358 -1.5302  1.2197 -2.2208
  351TMC3    C1 5308   0.847   3.517  10.155  0.0054  0.6956 -0.2712
  351TMC3    C2 5309   0.859   3.377  10.143  0.7202  0.1746  0.2826
  351TMC3    C3 5310   0.840   3.327  10.012 -0.1826  0.0919 -0.5685
  351TMC3    C4 5311   0.825   3.601  10.049  0.4050  0.0839  0.4818
  351TMC3    C5 5312   0.825   3.547   9.923 -0.0098 -0.4027 -0.1956
  351TMC3    C6 5313   0.833   3.410   9.903 -0.7982  0.2183  0.1472
  351TMC3     C 5314   0.849   3.587  10.279 -1.0899  0.1064  0.0365
  351TMC3     O 5315   0.867   3.710  10.290  0.5042  0.2179  0.2944
  351TMC3     H 5316   0.876   3.303  10.220  0.1827  0.2344  0.4585
  351TMC3    H1 5317   0.803   3.705  10.073 -0.0198  0.7476 -2.7346
  351TMC3    H2 5318   0.825   3.362   9.806  0.6204  0.3158 -0.0258
  351TMC3    C7 5319   0.807   3.644   9.814 -0.0359 -0.2971  0.6085
  351TMC3    C8 5320   0.859   3.185   9.988 -0.1896  0.4138 -0.5811
  351TMC3    O1 5321   0.820   3.761   9.847 -0.3456  0.6962  0.3014
  351TMC3    O2 5322   0.806   3.134   9.893 -0.1743  0.0262  0.0166
  352MPD2     C 5323   0.125   0.102   0.536  0.3787 -0.1129  0.5642
  352MPD2    C1 5324   0.052   0.025   0.618  0.0527 -0.1664 -0.7728
  352MPD2    C2 5325   0.119   4.655   0.681  0.5040 -0.1243 -1.0857
  352MPD2    C3 5326   0.249   4.624   0.650 -0.7981  0.4074 -0.0598
  352MPD2    C4 5327   0.325   4.704   0.564  0.3150  0.2585 -0.1082
  352MPD2    C5 5328   0.262   0.075   0.506 -0.0687  0.9197  0.3943
  352MPD2     H 5329   0.069   4.582   0.742 -1.7023  0.7234 -1.8769
  352MPD2    H1 5330   0.431   4.691   0.547  0.2655  0.9203 -0.9629
  352MPD2    H2 5331   0.081   0.186   0.483  0.5564  0.3714  1.1719
  352MPD2    H3 5332   0.321   0.127   0.432  1.7244 -0.9764  0.4735
  352MPD2     N 5333   0.307   4.493   0.689 -0.9182  0.0982  0.1478
  352MPD2    H5 5334   0.391   4.461   0.642 -0.3830  0.6405  0.7250
  352MPD2    N1 5335   4.651   0.046   0.641  0.1392  0.4726 -0.3642
  352MPD2    H7 5336   4.599   0.115   0.587  0.0417  1.1293  0.5546
  353TMC3    C1 5337   0.324   4.288   0.802 -0.3346 -0.0544  0.0043
  353TMC3    C2 5338   0.320   4.230   0.921 -0.4006  0.2374  0.1640
  353TMC3    C3 5339   0.289   4.105   0.929  0.2397 -0.3260  0.1937
  353TMC3    C4 5340   0.310   4.223   0.686  0.2896 -0.1303 -0.1031
  353TMC3    C5 5341   0.280   4.087   0.696  0.0656 -0.3499  0.2525
  353TMC3    C6 5342   0.267   4.032   0.819  0.3765  0.2849 -0.0858
  353TMC3     C 5343   0.264   4.419   0.798  1.1965 -1.0439  0.3336
  353TMC3     O 5344   0.200   4.458   0.898  0.4383 -0.4626 -0.2641
  353TMC3     H 5345   0.341   4.288   1.010  1.2122  0.5098 -0.3902
  353TMC3    H1 5346   0.303   4.276   0.591 -0.7163  0.2710  0.1975
  353TMC3    H2 5347   0.238   3.928   0.814  2.4728 -0.3467  0.9197
  353TMC3    C7 5348   0.183   4.028   0.599  0.0553  0.2759  0.2880
  353TMC3    C8 5349   0.286   4.043   1.056 -0.3182  0.2832  0.5157
  353TMC3    O1 5350   0.107   3.948   0.649 -0.2664  0.0523  0.5950
  353TMC3    O2 5351   0.345   4.103   1.143 -0.6689 -0.4048 -0.5633
  354TMC3    C1 5352   0.375   1.023  13.395 -0.4121 -0.0539  0.2086
  354TMC3    C2 5353   0.386   1.139  13.460 -0.5965  0.4071  0.2225
  354TMC3    C3 5354   0.287   1.228  13.429 -0.7885  0.5509 -0.5853
  354TMC3    C4 5355   0.289   0.997  13.289 -0.3704 -0.3543  1.2665
  354TMC3    C5 5356   0.184   1.089  13.277  0.3002 -0.6416  0.2040
  354TMC3    C6 5357   0.182   1.201  13.349 -0.9279 -0.5975 -0.2556
  354TMC3     C 5358   0.373   0.906  13.488  0.1028 -0.1004  0.7313
  354TMC3     O 5359   0.285   0.824  13.481  0.2892  0.1425  0.4024
  354TMC3     H 5360   0.464   1.167  13.529 -1.0034 -0.1127  0.8940
  354TMC3    H1 5361   0.290   0.898  13.244 -0.7631  1.0145 -1.7863
  354TMC3    H2 5362   0.097   1.267  13.353  0.0700  0.6283  0.7576
  354TMC3    C7 5363   0.124   1.104  13.150 -0.5539  0.6748  0.3368
  354TMC3    C8 5364   0.324   1.364  13.429  0.2399 -0.4464 -0.1304
  354TMC3    O1 5365   0.061   1.208  13.145 -0.3127  0.1446  0.1017
  354TMC3    O2 5366   0.416   1.400  13.499  0.0837  0.0625  0.1157
  355MPD2     C 5367   0.895   2.081  11.792 -0.3490  0.4662 -0.3326
  355MPD2    C1 5368   0.940   2.167  11.892  0.2330 -0.1582 -0.3231
  355MPD2    C2 5369   1.019   2.106  11.991 -0.0591  0.2747 -0.8720
  355MPD2    C3 5370   1.043   1.968  11.994 -0.0668  0.0184  0.0086
  355MPD2    C4 5371   0.982   1.890  11.904  0.0717  0.6749  1.0908
  355MPD2    C5 5372   0.919   1.945  11.792  0.1935 -0.0063 -0.0425
  355MPD2     H 5373   1.030   2.172  12.076  2.4782  0.0901 -1.0718
  355MPD2    H1 5374   1.001   1.783  11.914  1.6711  0.6703 -1.8136
  355MPD2    H2 5375   0.844   2.108  11.700  2.4163  2.1070 -1.3497
  355MPD2    H3 5376   0.890   1.884  11.708 -1.3961  0.6799 -0.0003
  355MPD2     N 5377   1.132   1.912  12.094  0.0469 -0.1731  0.2851
  355MPD2    H5 5378   1.120   1.812  12.098  0.0033 -0.2816 -2.0735
  355MPD2    N1 5379   0.929   2.304  11.870  0.9915 -0.1702  1.2375
  355MPD2    H7 5380   0.898   2.323  11.775  0.6241  0.6774  1.5293
  356TMC3    C1 5381   1.259   2.117  12.149  0.9708 -0.7296 -0.5434
  356TMC3    C2 5382   1.299   2.166  12.025 -0.4544  0.3276  0.3538
  356TMC3    C3 5383   1.365   2.291  12.023  0.7517  0.1876  0.6565
  356TMC3    C4 5384   1.304   2.173  12.262 -0.2217 -0.0574  0.0121
  356TMC3    C5 5385   1.379   2.291  12.258 -0.3191  0.0525 -0.0446
  356TMC3    C6 5386   1.417   2.350  12.140  0.2431  0.0719  0.7353
  356TMC3     C 5387   1.229   1.973  12.173  0.0455  0.7234 -0.1622
  356TMC3     O 5388   1.293   1.924  12.260 -0.4085  0.0178  0.2916
  356TMC3     H 5389   1.261   2.120  11.935 -1.0452  1.6603 -0.0723
  356TMC3    H1 5390   1.270   2.136  12.358  1.6831 -3.8717 -0.7834
  356TMC3    H2 5391   1.495   2.426  12.149  1.2178 -0.8490  0.0592
  356TMC3    C7 5392   1.470   2.311  12.368 -0.2243 -0.6973 -0.8520
  356TMC3    C8 5393   1.354   2.372  11.900  0.9138 -0.3162 -0.1912
  356TMC3    O1 5394   1.495   2.210  12.431 -0.1147 -0.2944 -0.2235
  356TMC3    O2 5395   1.284   2.322  11.812 -0.1903  0.2594 -0.1469
  357MPD2     C 5396   1.053   1.879   0.138  0.3914 -0.3537 -0.0581
  357MPD2    C1 5397   1.065   1.849   0.276 -0.7204  0.0506  0.2062
  357MPD2    C2 5398   0.997   1.926   0.374  0.2039  0.1825 -1.1594
  357MPD2    C3 5399   0.921   2.032   0.326  0.3641  0.1408  0.1919
  357MPD2    C4 5400   0.921   2.067   0.190 -0.0094 -0.7361 -0.5348
  357MPD2    C5 5401   0.982   1.985   0.094 -0.3185 -0.1465  0.0760
  357MPD2     H 5402   1.004   1.898   0.478 -2.5263  0.0410 -0.9911
  357MPD2    H1 5403   0.863   2.154   0.161  1.2039  0.1049 -0.4359
  357MPD2    H2 5404   1.100   1.819   0.061 -0.3818 -1.5112  0.3685
  357MPD2    H3 5405   0.982   2.008  17.726  1.0374  0.6007  0.2418
  357MPD2     N 5406   0.832   2.101   0.407 -0.7755 -0.5752 -0.1343
  357MPD2    H5 5407   0.769   2.167   0.361  1.5737  1.8718  0.1565
  357MPD2    N1 5408   1.140   1.737   0.309 -0.6756 -0.0248 -0.3969
  357MPD2    H7 5409   1.161   1.682   0.227 -0.7034  0.1953 -0.5531
  358TMC3    C1 5410   1.266   1.580   0.419 -0.6281  0.6774 -0.2632
  358TMC3    C2 5411   1.282   1.513   0.303 -0.1995 -0.4597  0.2419
  358TMC3    C3 5412   1.342   1.391   0.317  0.2878 -0.4086  0.2404
  358TMC3    C4 5413   1.305   1.534   0.543 -0.2413 -0.4488  0.3144
  358TMC3    C5 5414   1.360   1.412   0.543  0.4507  0.3355  0.4889
  358TMC3    C6 5415   1.371   1.330   0.432 -0.2720 -0.1218  0.3039
  358TMC3     C 5416   1.181   1.693   0.429 -0.6108  0.2477 -0.6525
  358TMC3     O 5417   1.170   1.747   0.540 -0.1251 -0.2331  0.2069
  358TMC3     H 5418   1.277   1.555   0.203 -1.0298 -0.3037  0.3541
  358TMC3    H1 5419   1.277   1.584   0.634  1.0090 -1.2842  1.1631
  358TMC3    H2 5420   1.439   1.245   0.421 -2.5587 -1.7315 -1.3420
  358TMC3    C7 5421   1.418   1.364   0.670  0.3750  0.4546  0.0359
  358TMC3    C8 5422   1.322   1.300   0.207 -0.1306 -0.2217 -0.1585
  358TMC3    O1 5423   1.450   1.450   0.753 -0.2778  0.1428 -0.2862
  358TMC3    O2 5424   1.358   1.337   0.094 -0.3744 -0.3175  0.3223
  359MPD2     C 5425   0.755   0.777  12.084  0.0073 -0.2622 -0.2891
  359MPD2    C1 5426   0.835   0.659  12.078 -0.6173  0.1106  0.2888
  359MPD2    C2 5427   0.846   0.582  12.190 -0.2483 -0.8258  0.3724
  359MPD2    C3 5428   0.764   0.603  12.295  0.6629  0.6934 -0.0794
  359MPD2    C4 5429   0.675   0.713  12.298  0.1707  0.0745  0.3458
  359MPD2    C5 5430   0.677   0.794  12.191 -0.5272 -0.2108 -0.3148
  359MPD2     H 5431   0.926   0.509  12.193  1.7480  1.3460 -0.2702
  359MPD2    H1 5432   0.612   0.731  12.384 -1.6727  1.6034 -1.3210
  359MPD2    H2 5433   0.754   0.854  12.008 -0.7626 -2.7703 -2.8394
  359MPD2    H3 5434   0.600   0.870  12.193  0.4761  0.8163 -0.5362
  359MPD2     N 5435   0.768   0.496  12.394  0.1825 -0.0383  0.2201
  359MPD2    H5 5436   0.837   0.425  12.374  0.2248  0.2679 -0.7156
  359MPD2    N1 5437   0.921   0.629  11.970 -0.0836  0.5102  0.4903
  359MPD2    H7 5438   0.979   0.546  11.977 -1.6929 -0.6461  0.0667
  360TMC3    C1 5439   1.036   0.653  11.763  0.0028  0.7205  0.5852
  360TMC3    C2 5440   1.151   0.599  11.815  0.1157  0.2749  0.2347
  360TMC3    C3 5441   1.255   0.574  11.733  0.4802  0.6457 -0.5517
  360TMC3    C4 5442   1.017   0.680  11.628  0.5792  0.0103 -0.4254
  360TMC3    C5 5443   1.124   0.641  11.550  0.5985 -0.0527  0.1227
  360TMC3    C6 5444   1.241   0.594  11.600 -0.5103  0.4371 -0.0563
  360TMC3     C 5445   0.935   0.706  11.852  0.2730 -0.0865 -0.3166
  360TMC3     O 5446   0.889   0.815  11.812  0.2805 -0.8201  0.5024
  360TMC3     H 5447   1.167   0.624  11.919 -3.4492  0.5551  0.7183
  360TMC3    H1 5448   0.924   0.723  11.594  0.2890  0.3810  0.8680
  360TMC3    H2 5449   1.327   0.578  11.535 -0.9660  0.2658 -0.6121
  360TMC3    C7 5450   1.109   0.688  11.415 -0.6661  0.0299 -1.0936
  360TMC3    C8 5451   1.385   0.583  11.806 -0.5884  0.2953  0.1455
  360TMC3    O1 5452   1.039   0.785  11.402  0.2576  0.1030 -0.1315
  360TMC3    O2 5453   1.380   0.544  11.924  0.2608 -0.0085 -0.0105
  361MPD2     C 5454   3.078   4.381  17.119  0.0204 -0.9032  0.0759
  361MPD2    C1 5455   3.085   4.285  17.019  0.1194 -0.1597  0.9173
  361MPD2    C2 5456   3.204   4.228  16.981 -0.2997  0.2525 -0.5300
  361MPD2    C3 5457   3.311   4.270  17.054  0.5546  0.2495  0.3845
  361MPD2    C4 5458   3.307   4.372  17.143  0.3264 -0.2970  0.5919
  361MPD2    C5 5459   3.188   4.418  17.191 -1.2616 -0.6990  0.3403
  361MPD2     H 5460   3.214   4.149  16.908  2.0622  1.1208 -1.1637
  361MPD2    H1 5461   3.399   4.417  17.178 -0.3227 -0.3478  2.3457
  361MPD2    H2 5462   2.978   4.412  17.145  0.4490 -0.8017  1.5861
  361MPD2    H3 5463   3.186   4.499  17.263  3.5488 -0.8903  0.7216
  361MPD2     N 5464   3.441   4.218  17.039 -0.5650  0.1412 -0.1959
  361MPD2    H5 5465   3.518   4.251  17.097  1.1403 -1.2650 -1.6398
  361MPD2    N1 5466   2.969   4.250  16.946 -0.5079 -0.0485  0.3198
  361MPD2    H7 5467   2.987   4.180  16.874 -0.6599 -1.3825  1.5832
  362TMC3    C1 5468   2.752   4.244  16.850 -0.3284 -0.0851  0.1477
  362TMC3    C2 5469   2.641   4.183  16.898 -0.4024  0.1508  0.1967
  362TMC3    C3 5470   2.593   4.076  16.825 -0.3580  0.3810 -0.0563
  362TMC3    C4 5471   2.793   4.233  16.722  0.8871 -0.1692  0.1028
  362TMC3    C5 5472   2.739   4.137  16.643  0.0939 -0.3381  0.3574
  362TMC3    C6 5473   2.639   4.055  16.695  0.3498 -0.3036  0.4719
  362TMC3     C 5474   2.842   4.303  16.950  0.8285 -0.9007  0.4282
  362TMC3     O 5475   2.792   4.375  17.030 -0.5235  0.4867 -0.3775
  362TMC3     H 5476   2.614   4.196  17.003 -0.8556  0.8040 -0.0025
  362TMC3    H1 5477   2.872   4.297  16.686  1.7739 -0.5970  1.2747
  362TMC3    H2 5478   2.575   4.006  16.623  0.3366 -0.5662  0.6593
  362TMC3    C7 5479   2.694   4.188  16.515 -0.0441  0.3863 -0.2390
  362TMC3    C8 5480   2.452   4.062  16.839  0.0595  0.3693  1.2125
  362TMC3    O1 5481   2.703   4.308  16.502 -0.1278  0.3665 -0.3087
  362TMC3    O2 5482   2.395   3.972  16.773  0.3238 -0.2832  0.4000
  363TMC3    C1 5483   0.813   2.919   9.127 -0.3916  0.1795 -0.2922
  363TMC3    C2 5484   0.884   2.854   9.228  0.5068  0.5251  0.3390
  363TMC3    C3 5485   0.850   2.880   9.356 -0.1492 -0.3025 -0.2513
  363TMC3    C4 5486   0.704   2.991   9.154  0.5031 -0.2690  0.0294
  363TMC3    C5 5487   0.670   3.011   9.290 -0.4824 -0.2347  0.1064
  363TMC3    C6 5488   0.748   2.959   9.395  0.5141  0.3244  0.3699
  363TMC3     C 5489   0.852   2.904   8.987 -0.2260  0.0551 -0.2296
  363TMC3     O 5490   0.796   2.965   8.900 -0.3378  0.3854 -0.2161
  363TMC3     H 5491   0.985   2.817   9.214  0.9891  1.4716  1.2691
  363TMC3    H1 5492   0.660   3.050   9.074 -1.0082 -0.8148  0.4560
  363TMC3    H2 5493   0.731   2.968   9.501 -0.3160  2.2371  0.0725
  363TMC3    C7 5494   0.535   3.052   9.319 -0.1369 -0.2328  0.3138
  363TMC3    C8 5495   0.948   2.855   9.462 -0.1320 -0.1509  0.5016
  363TMC3    O1 5496   0.472   3.118   9.239 -0.4294  0.2910 -0.7412
  363TMC3    O2 5497   0.933   2.915   9.568  0.9738 -0.1867 -0.7037
  364MPD2     C 5498   4.539   1.948  10.621  0.0190  0.5693  0.4924
  364MPD2    C1 5499   4.643   1.990  10.540  0.2341  0.3559 -0.0633
  364MPD2    C2 5500   0.017   1.903  10.529  0.0343  0.2590  0.8366
  364MPD2    C3 5501   0.010   1.769  10.578 -0.6269  0.2894  0.1792
  364MPD2    C4 5502   4.627   1.725  10.641  0.2927 -0.0515 -0.1422
  364MPD2    C5 5503   4.529   1.818  10.674  0.6398 -0.2896  0.0488
  364MPD2     H 5504   0.108   1.933  10.478  0.6121  0.8802  2.2131
  364MPD2    H1 5505   4.620   1.626  10.683 -0.4628 -0.3270 -0.9148
  364MPD2    H2 5506   4.453   2.010  10.643 -0.3829  0.2071 -0.0594
  364MPD2    H3 5507   4.442   1.796  10.735 -0.5395  0.9125 -1.2195
  364MPD2     N 5508   0.110   1.674  10.557 -0.0261 -0.1419  0.7295
  364MPD2    H5 5509   0.092   1.584  10.601  0.2562  0.1437  1.4272
  364MPD2    N1 5510   4.644   2.128  10.500  0.5223  0.5135 -0.6538
  364MPD2    H7 5511   4.575   2.186  10.547  1.4758  1.5014 -0.5023
  365TMC3    C1 5512   4.725   2.321  10.371 -0.0453  0.2550 -0.0772
  365TMC3    C2 5513   0.051   2.355  10.251 -0.1090 -0.3445  0.1823
  365TMC3    C3 5514   0.045   2.494  10.221 -0.4110  0.0979 -0.8863
  365TMC3    C4 5515   4.655   2.403  10.453 -0.5549  0.5806  0.6202
  365TMC3    C5 5516   4.642   2.531  10.410 -0.0288 -0.1061  0.0875
  365TMC3    C6 5517   4.705   2.576  10.295  0.9232 -0.4527 -0.5584
  365TMC3     C 5518   4.731   2.177  10.403  0.4354  0.7085  0.1759
  365TMC3     O 5519   0.053   2.103  10.326  0.3000  0.7135  0.2809
  365TMC3     H 5520   0.100   2.277  10.194  0.0698  2.1531 -3.1188
  365TMC3    H1 5521   4.628   2.368  10.551 -2.4877 -1.3056 -0.5829
  365TMC3    H2 5522   4.700   2.680  10.265  0.9800 -0.3365 -0.1653
  365TMC3    C7 5523   4.570   2.630  10.488  0.0026 -0.0980 -0.1016
  365TMC3    C8 5524   0.106   2.540  10.098 -0.9911 -0.4274  0.3099
  365TMC3    O1 5525   4.570   2.752  10.459  0.8237 -0.2957  0.1729
  365TMC3    O2 5526   0.060   2.643  10.051  0.6322  0.0157 -0.1080
  366MPD2     C 5527   3.757   2.246  15.609  0.0230 -0.0826  0.2012
  366MPD2    C1 5528   3.731   2.272  15.476  0.2037 -0.5278 -0.4486
  366MPD2    C2 5529   3.817   2.222  15.379 -0.1779 -0.6826 -0.2381
  366MPD2    C3 5530   3.925   2.151  15.415  0.4278 -0.5594  0.2426
  366MPD2    C4 5531   3.941   2.119  15.547  0.2717 -0.6852 -0.9225
  366MPD2    C5 5532   3.857   2.165  15.642 -0.0580  0.0874  0.2738
  366MPD2     H 5533   3.796   2.246  15.275  0.0509 -0.8306 -0.3190
  366MPD2    H1 5534   4.027   2.061  15.580  0.2438  0.7069  1.6252
  366MPD2    H2 5535   3.693   2.282  15.689  1.1619  0.5188  0.8427
  366MPD2    H3 5536   3.869   2.123  15.741 -0.0634 -1.6956 -0.4795
  366MPD2     N 5537   4.038   2.133  15.326  0.5018  0.4008  0.2409
  366MPD2    H5 5538   4.127   2.116  15.371  0.6575 -0.9447 -0.5638
  366MPD2    N1 5539   3.652   2.382  15.450  0.4834  0.2902  0.1949
  366MPD2    H7 5540   3.625   2.436  15.531 -1.1703 -0.4979  0.1652
  367TMC3    C1 5541   3.545   2.527  15.322  0.4748  0.0600  0.7540
  367TMC3    C2 5542   3.614   2.627  15.386  0.1200  0.1263  0.2113
  367TMC3    C3 5543   3.586   2.754  15.349 -0.0500 -0.4850 -0.8689
  367TMC3    C4 5544   3.427   2.551  15.249  0.6660  0.1828 -1.1132
  367TMC3    C5 5545   3.396   2.683  15.223  0.1113  0.1127  0.9904
  367TMC3    C6 5546   3.479   2.782  15.270 -0.1842  0.6912  0.5276
  367TMC3     C 5547   3.594   2.393  15.326 -0.3433  0.1066  0.6846
  367TMC3     O 5548   3.572   2.317  15.232  0.1192 -0.5193  0.1203
  367TMC3     H 5549   3.707   2.611  15.439 -0.8523 -1.5400  1.4079
  367TMC3    H1 5550   3.379   2.471  15.194  0.4529 -1.8228  2.0012
  367TMC3    H2 5551   3.459   2.883  15.234  0.4439 -0.2925 -2.6039
  367TMC3    C7 5552   3.262   2.728  15.194  0.0230  0.0556  0.3419
  367TMC3    C8 5553   3.674   2.859  15.411  0.3396 -0.2828  0.1225
  367TMC3    O1 5554   3.242   2.843  15.162  0.0337 -0.7163  0.3453
  367TMC3    O2 5555   3.779   2.828  15.462  0.5039 -0.9699  0.3870
  368MPD2     C 5556   4.153   4.253  13.449 -0.0224  0.2652 -0.0202
  368MPD2    C1 5557   4.140   4.382  13.400  0.5327 -0.6940 -0.4578
  368MPD2    C2 5558   4.248   4.433  13.325 -0.9169 -0.1938 -0.1414
  368MPD2    C3 5559   4.366   4.363  13.303 -0.5983  0.8100 -0.3790
  368MPD2    C4 5560   4.382   4.238  13.351 -0.1611 -0.0487 -0.0128
  368MPD2    C5 5561   4.272   4.186  13.425  0.8099 -0.6394  0.1694
  368MPD2     H 5562   4.255   4.538  13.300  1.9277 -0.0055  1.4921
  368MPD2    H1 5563   4.474   4.180  13.347  0.5933  1.2292 -0.9553
  368MPD2    H2 5564   4.077   4.204  13.509  0.0643  0.0179 -0.1103
  368MPD2    H3 5565   4.283   4.091  13.476 -0.7051 -0.9690 -0.1227
  368MPD2     N 5566   4.473   4.416  13.224  0.0279 -0.0251  0.3596
  368MPD2    H5 5567   4.552   4.353  13.210 -1.1017 -1.2449 -0.4830
  368MPD2    N1 5568   4.013   4.449  13.414 -0.3500 -0.6848 -0.3464
  368MPD2    H7 5569   3.935   4.405  13.463 -0.3601 -1.0980 -0.7373
  369TMC3    C1 5570   3.864   4.637  13.393  0.3338 -1.1320  0.6882
  369TMC3    C2 5571   3.865   0.038  13.376  0.0650  0.0137 -0.2496
  369TMC3    C3 5572   3.755   0.090  13.303 -0.3943 -0.5461  0.0316
  369TMC3    C4 5573   3.755   4.559  13.372  0.3828 -0.2502 -0.0521
  369TMC3    C5 5574   3.648   4.621  13.315  0.2025 -0.3133 -0.5753
  369TMC3    C6 5575   3.649   0.018  13.272 -0.3245 -0.4231 -0.7385
  369TMC3     C 5576   3.999   4.586  13.394  0.9899 -0.3657  0.4291
  369TMC3     O 5577   4.087   4.666  13.369 -0.4862 -0.3142  0.0031
  369TMC3     H 5578   3.949   0.100  13.404 -1.2396  2.0011 -0.6803
  369TMC3    H1 5579   3.760   4.452  13.387 -0.0565 -0.0833  1.2719
  369TMC3    H2 5580   3.575   0.070  13.213 -0.2165 -0.3294 -0.7927
  369TMC3    C7 5581   3.527   4.539  13.331  0.3317 -0.4218  0.8395
  369TMC3    C8 5582   3.811   0.159  13.185 -0.0437  0.0357  0.1678
  369TMC3    O1 5583   3.528   4.454  13.417  0.0344  0.2576 -0.0176
  369TMC3    O2 5584   3.725   0.206  13.107  0.1177 -0.3435  0.7903
  370TMC3    C1 5585   4.382   0.288  15.917 -0.8125  0.8605 -0.5309
  370TMC3    C2 5586   4.337   0.255  16.045  0.4596  0.5113  0.2885
  370TMC3    C3 5587   4.374   0.128  16.087  0.5304  0.5119 -0.3016
  370TMC3    C4 5588   4.455   0.204  15.829  0.2771  0.0232 -0.1784
  370TMC3    C5 5589   4.483   0.073  15.873 -0.4813 -1.0596 -0.3092
  370TMC3    C6 5590   4.445   0.042  16.006 -0.1414 -0.5915 -0.0243
  370TMC3     C 5591   4.379   0.433  15.897  0.1993 -0.7441 -0.4197
  370TMC3     O 5592   4.273   0.487  15.914  0.4689  0.0228  0.2733
  370TMC3     H 5593   4.291   0.335  16.102  1.6355  0.9893  0.5629
  370TMC3    H1 5594   4.492   0.243  15.735 -0.4549 -0.0042 -0.4759
  370TMC3    H2 5595   4.469   4.677  16.041 -1.2075 -0.1624  1.8916
  370TMC3    C7 5596   4.512   4.704  15.780  0.2169  0.2927  0.6187
  370TMC3    C8 5597   4.369   0.094  16.232  0.3906 -0.4496 -0.2750
  370TMC3    O1 5598   4.499   0.002  15.661  0.0437 -0.1633 -0.3617
  370TMC3    O2 5599   4.374   4.706  16.245  0.3620 -0.6166 -0.3015
  371TMC3    C1 5600   0.538   3.030  15.370 -0.1700 -0.1508  0.4373
  371TMC3    C2 5601   0.491   3.039  15.495  1.1262  0.0586 -0.2857
  371TMC3    C3 5602   0.467   3.166  15.538  0.3029 -0.4225 -0.3655
  371TMC3    C4 5603   0.544   3.133  15.286 -0.4413  0.2953 -0.0075
  371TMC3    C5 5604   0.497   3.251  15.323 -0.0409 -0.1093 -0.1856
  371TMC3    C6 5605   0.455   3.271  15.450 -0.1142  0.2180 -0.4597
  371TMC3     C 5606   0.595   2.902  15.325  0.8652 -0.8775  0.6315
  371TMC3     O 5607   0.638   2.908  15.210 -0.0326  0.1212  0.2677
  371TMC3     H 5608   0.496   2.954  15.563  3.4843 -0.2176 -0.8037
  371TMC3    H1 5609   0.567   3.114  15.182 -0.3139  1.3763 -0.1772
  371TMC3    H2 5610   0.436   3.371  15.488 -1.6517 -0.4239  0.4858
  371TMC3    C7 5611   0.546   3.363  15.253 -0.4639  0.3548  0.7444
  371TMC3    C8 5612   0.485   3.187  15.679  0.2779 -0.2236 -0.0464
  371TMC3    O1 5613   0.498   3.472  15.283 -0.8519  0.0830 -0.6094
  371TMC3    O2 5614   0.580   3.124  15.719  0.5671  0.5628 -0.2452
  372MPD2     C 5615   4.558   4.595  13.550 -0.3343 -0.1869 -0.2527
  372MPD2    C1 5616   4.655   4.498  13.557 -0.3065 -0.2099  0.2636
  372MPD2    C2 5617   4.622   4.373  13.612 -0.4173  0.1939  0.5248
  372MPD2    C3 5618   4.496   4.350  13.671  0.0667 -0.0115 -0.2930
  372MPD2    C4 5619   4.396   4.451  13.659  0.3876  0.5969 -0.3434
  372MPD2    C5 5620   4.435   4.563  13.593 -0.1053 -0.0495 -0.0377
  372MPD2     H 5621   4.710   4.312  13.626  0.9887  2.2810  0.7997
  372MPD2    H1 5622   4.291   4.442  13.681  0.7518 -1.0002  0.7629
  372MPD2    H2 5623   4.572   4.697  13.515  1.4161  0.5351  2.5448
  372MPD2    H3 5624   4.356   4.634  13.568 -0.3026 -1.1217 -2.4969
  372MPD2     N 5625   4.473   4.221  13.721 -0.2199  0.8283  0.5649
  372MPD2    H5 5626   4.548   4.152  13.716 -0.1372  0.9024  0.7599
  372MPD2    N1 5627   0.056   4.521  13.508  0.2685 -0.7095  0.1233
  372MPD2    H7 5628   0.132   4.460  13.534 -0.3020 -2.4828 -2.3259
  373TMC3    C1 5629   4.364   4.040  13.811 -0.4667  0.8220 -0.1617
  373TMC3    C2 5630   4.284   4.005  13.906  0.1212 -0.0260  0.4373
  373TMC3    C3 5631   4.304   3.882  13.963 -0.3996  0.4425 -0.3045
  373TMC3    C4 5632   4.433   3.946  13.737 -0.0846 -0.1840  0.5559
  373TMC3    C5 5633   4.439   3.820  13.784  0.2046 -0.2068  0.0193
  373TMC3    C6 5634   4.370   3.779  13.899  0.0600 -0.4860  0.2406
  373TMC3     C 5635   4.363   4.183  13.785  0.3903 -0.3987 -0.1473
  373TMC3     O 5636   4.260   4.248  13.800 -0.8581  0.6685  0.0223
  373TMC3     H 5637   4.234   4.083  13.963  0.0515  1.7028 -1.9771
  373TMC3    H1 5638   4.483   3.981  13.647  0.6805  2.7066  2.1068
  373TMC3    H2 5639   4.376   3.681  13.947  0.6229 -0.2530  0.6491
  373TMC3    C7 5640   4.519   3.723  13.704 -0.1794  0.4107  0.4442
  373TMC3    C8 5641   4.354   3.898  14.096 -0.1359 -0.6256 -0.2501
  373TMC3    O1 5642   4.569   3.762  13.597  0.5527  0.4496 -0.0328
  373TMC3    O2 5643   4.417   3.799  14.139  0.1630  0.1259  0.1911
  374TMC3    C1 5644   0.575   0.615   9.531 -0.0369  0.5266 -0.4792
  374TMC3    C2 5645   0.648   0.717   9.583 -0.3011 -0.5722  0.3048
  374TMC3    C3 5646   0.670   0.827   9.509 -0.1265 -0.1277  0.0427
  374TMC3    C4 5647   0.530   0.615   9.399  0.3257 -0.0292 -0.1192
  374TMC3    C5 5648   0.555   0.733   9.330  0.3265  0.0690  0.2365
  374TMC3    C6 5649   0.617   0.842   9.385 -0.4028  0.5810 -0.0120
  374TMC3     C 5650   0.566   0.490   9.612 -0.4939  0.1768  0.4676
  374TMC3     O 5651   0.629   0.491   9.720 -0.1166  0.7472  0.1128
  374TMC3     H 5652   0.684   0.718   9.685 -0.8369  1.2419  0.4845
  374TMC3    H1 5653   0.501   0.523   9.348 -1.8998  0.7637 -0.2771
  374TMC3    H2 5654   0.619   0.938   9.335  0.5613 -0.1206 -1.3135
  374TMC3    C7 5655   0.469   0.777   9.223 -0.6203 -0.1234  0.6804
  374TMC3    C8 5656   0.709   0.946   9.579  0.2268  0.4257  0.6211
  374TMC3    O1 5657   0.490   0.891   9.180 -0.1324 -0.7075 -0.2588
  374TMC3    O2 5658   0.683   1.057   9.528  1.0173 -0.3651 -0.3334
  375MPD2     C 5659   1.152   1.172  16.855 -0.6308  0.5753 -0.0939
  375MPD2    C1 5660   1.023   1.125  16.842 -1.2900 -1.2912  0.2016
  375MPD2    C2 5661   1.009   0.995  16.791 -0.3155  0.2307 -0.3888
  375MPD2    C3 5662   1.118   0.908  16.776  0.2448 -0.5733  0.0519
  375MPD2    C4 5663   1.245   0.955  16.799 -0.4456 -0.1242  0.1765
  375MPD2    C5 5664   1.258   1.085  16.834 -0.2563  0.1943  0.0201
  375MPD2     H 5665   0.912   0.960  16.760 -1.2377  1.1799  1.3843
  375MPD2    H1 5666   1.331   0.889  16.790 -0.6924 -0.5329  0.8047
  375MPD2    H2 5667   1.182   1.273  16.881 -0.3613  1.0049 -2.1137
  375MPD2    H3 5668   1.358   1.120  16.856  0.0634 -0.2491 -0.7320
  375MPD2     N 5669   1.111   0.769  16.744 -0.1305 -0.4821  0.3037
  375MPD2    H5 5670   1.205   0.730  16.741 -0.3236 -1.0533  1.6668
  375MPD2    N1 5671   0.911   1.203  16.857 -0.2409  0.0052  0.1538
  375MPD2    H7 5672   0.823   1.164  16.825  0.6190 -0.4168 -1.6886
  376TMC3    C1 5673   1.030   0.568  16.687  0.4654  0.5635  0.6538
  376TMC3    C2 5674   1.151   0.508  16.714 -0.7688  0.0019  0.4186
  376TMC3    C3 5675   1.170   0.387  16.657 -0.0106 -0.4707  0.0931
  376TMC3    C4 5676   0.931   0.513  16.603 -0.0818  0.3151 -0.1683
  376TMC3    C5 5677   0.966   0.394  16.542 -0.8915  0.3263 -0.8833
  376TMC3    C6 5678   1.079   0.324  16.577 -0.3321 -0.3065  0.4485
  376TMC3     C 5679   1.000   0.700  16.727  0.1151 -0.3026  0.2409
  376TMC3     O 5680   0.886   0.744  16.716 -0.1338 -0.6366 -0.6194
  376TMC3     H 5681   1.219   0.543  16.790 -0.1956 -0.9041  0.3237
  376TMC3    H1 5682   0.836   0.564  16.593 -0.5390 -0.8662 -1.9565
  376TMC3    H2 5683   1.103   0.228  16.533 -0.5664 -0.3163  0.3411
  376TMC3    C7 5684   0.890   0.354  16.430 -0.5057  0.5615 -0.5545
  376TMC3    C8 5685   1.304   0.360  16.617  0.5357 -0.0762  0.6142
  376TMC3    O1 5686   0.836   0.439  16.360  0.0342 -0.3142 -0.3927
  376TMC3    O2 5687   1.381   0.450  16.600  0.1778  0.1538  0.2572
  377MPD2     C 5688   3.015   0.470  12.589 -0.5194  0.7285  0.2502
  377MPD2    C1 5689   3.018   0.372  12.682 -0.0946  0.3305  0.2904
  377MPD2    C2 5690   2.891   0.324  12.728 -0.7167  1.2330 -0.1509
  377MPD2    C3 5691   2.772   0.385  12.688 -0.2996 -0.0985  0.2577
  377MPD2    C4 5692   2.774   0.487  12.588  0.6900 -0.3313 -0.6500
  377MPD2    C5 5693   2.898   0.521  12.537  0.3271 -0.6999 -0.1328
  377MPD2     H 5694   2.898   0.266  12.819 -0.3851  0.7600 -0.4781
  377MPD2    H1 5695   2.691   0.539  12.542  0.9436  2.0093  1.5324
  377MPD2    H2 5696   3.111   0.496  12.546 -0.2492 -2.6064 -1.1645
  377MPD2    H3 5697   2.901   0.595  12.458 -0.6515  0.5242  0.9748
  377MPD2     N 5698   2.652   0.340  12.743  0.6540 -0.2782  0.0307
  377MPD2    H5 5699   2.654   0.265  12.811 -1.9395  0.0774  0.5144
  377MPD2    N1 5700   3.135   0.322  12.730  0.4052 -0.2789  0.1100
  377MPD2    H7 5701   3.218   0.370  12.697 -0.8462  2.4526  0.9438
  378TMC3    C1 5702   3.479   0.331  12.806 -0.4408  0.2394 -0.2102
  378TMC3    C2 5703   3.352   0.323  12.847 -0.0043 -0.3902 -0.2570
  378TMC3    C3 5704   3.288   0.202  12.853  0.3829  0.1060 -0.8852
  378TMC3    C4 5705   3.547   0.215  12.789 -0.3277 -0.1275 -0.7487
  378TMC3    C5 5706   3.484   0.098  12.821 -0.3477 -1.3293  0.1297
  378TMC3    C6 5707   3.348   0.084  12.841  0.0545  0.3552 -0.4343
  378TMC3     C 5708   3.480   0.420  12.690 -0.3340 -0.8816  0.4547
  378TMC3     O 5709   3.381   0.491  12.674 -0.1609  0.2738 -0.8762
  378TMC3     H 5710   3.295   0.410  12.875  0.1592 -0.8123  1.3819
  378TMC3    H1 5711   3.655   0.207  12.779 -0.0775  0.0278  1.8287
  378TMC3    H2 5712   3.295   4.726  12.857 -1.7557  1.5682  0.5910
  378TMC3    C7 5713   3.568   0.002  12.894 -0.2960 -0.3791  0.0446
  378TMC3    C8 5714   3.153   0.208  12.812  0.6221  0.3061  0.3525
  378TMC3    O1 5715   3.538   4.698  13.007  0.6372  0.6123 -0.3875
  378TMC3    O2 5716   3.074   0.124  12.851  0.0684  0.3445  0.2237
  379MPD2     C 5717   4.188   2.983  16.555 -0.1543  0.2344 -0.4365
  379MPD2    C1 5718   4.293   2.972  16.464 -0.2584 -0.5055 -0.2248
  379MPD2    C2 5719   4.410   2.918  16.504  0.7034 -0.0299  0.4016
  379MPD2    C3 5720   4.423   2.855  16.627 -0.7440 -0.3942 -0.8698
  379MPD2    C4 5721   4.311   2.857  16.711  0.3493 -0.3213 -0.4072
  379MPD2    C5 5722   4.201   2.924  16.678  0.4465  0.4896  0.2446
  379MPD2     H 5723   4.497   2.907  16.440  2.0822 -0.5722  2.3509
  379MPD2    H1 5724   4.317   2.822  16.813 -0.3410  3.8026  1.0228
  379MPD2    H2 5725   4.097   3.030  16.521 -0.2831 -0.4030 -0.9762
  379MPD2    H3 5726   4.119   2.923  16.749  0.6054  0.3028  0.4274
  379MPD2     N 5727   4.540   2.788  16.675 -0.0557 -0.2985  0.0499
  379MPD2    H5 5728   4.526   2.746  16.766 -0.0322  0.7367  0.5372
  379MPD2    N1 5729   4.281   3.022  16.333  0.4944  0.6067  0.3741
  379MPD2    H7 5730   4.365   3.021  16.276 -0.3065 -1.1610 -0.7824
  380TMC3    C1 5731   4.189   3.101  16.136 -0.6646 -0.2887  0.5453
  380TMC3    C2 5732   4.256   3.009  16.060  0.3908  0.4250 -0.2317
  380TMC3    C3 5733   4.235   2.994  15.927  0.4505  0.1149  0.0272
  380TMC3    C4 5734   4.086   3.178  16.076 -0.0052 -0.0895 -0.1409
  380TMC3    C5 5735   4.064   3.154  15.942  0.4660  0.4364  0.8125
  380TMC3    C6 5736   4.142   3.069  15.865 -0.4038  0.6773 -0.1604
  380TMC3     C 5737   4.178   3.094  16.277  0.0102  0.6467 -0.5177
  380TMC3     O 5738   4.072   3.120  16.331  0.6185  0.0911  0.0997
  380TMC3     H 5739   4.329   2.942  16.106  0.3800 -0.2251 -1.1751
  380TMC3    H1 5740   4.025   3.255  16.121 -2.3869 -0.2735 -3.0462
  380TMC3    H2 5741   4.142   3.081  15.757 -0.4788  0.2819 -0.2053
  380TMC3    C7 5742   3.942   3.217  15.877  0.5157 -0.6298 -0.1818
  380TMC3    C8 5743   4.339   2.933  15.844 -0.1126 -0.2189  0.7145
  380TMC3    O1 5744   3.881   3.300  15.945  0.4127  0.0382  0.3817
  380TMC3    O2 5745   4.351   2.992  15.734 -0.0039 -0.0152  0.3545
  381TMC3    C1 5746   4.443   4.055  16.221  0.0100  0.2284 -0.4806
  381TMC3    C2 5747   4.515   4.158  16.171 -0.2035 -0.2019  0.1940
  381TMC3    C3 5748   4.529   4.272  16.249 -0.3121  0.3378 -0.1649
  381TMC3    C4 5749   4.382   4.058  16.341 -0.3237 -0.0745  0.2875
  381TMC3    C5 5750   4.411   4.165  16.422 -1.1200 -0.0041 -0.2002
  381TMC3    C6 5751   4.480   4.278  16.376  0.4032  0.2081 -0.0490
  381TMC3     C 5752   4.438   3.938  16.141 -0.6675  0.3983 -0.0909
  381TMC3     O 5753   4.539   3.918  16.071  0.1348  0.6008 -0.5960
  381TMC3     H 5754   4.562   4.157  16.073  1.7876 -1.8288  1.1634
  381TMC3    H1 5755   4.329   3.976  16.386  0.7382 -0.5985  0.5897
  381TMC3    H2 5756   4.501   4.363  16.438 -1.4666 -0.1234  1.0540
  381TMC3    C7 5757   4.350   4.190  16.551 -0.4598  0.2519  0.1296
  381TMC3    C8 5758   4.658   4.337  16.235  0.0835 -0.0158  0.7821
  381TMC3    O1 5759   4.305   4.092  16.608  0.3699  0.5898  0.4462
  381TMC3    O2 5760   0.007   4.276  16.167  0.5592  0.0680  0.0110
  382MPD2     C 5761   3.261   1.699  16.296  0.0222 -0.0356  0.9606
  382MPD2    C1 5762   3.206   1.736  16.418 -0.3405 -0.6348 -0.1328
  382MPD2    C2 5763   3.195   1.648  16.527 -0.0766  0.1030  0.9074
  382MPD2    C3 5764   3.245   1.522  16.511 -0.2277 -0.6713  0.9105
  382MPD2    C4 5765   3.301   1.480  16.391  0.3940  0.5762  0.4563
  382MPD2    C5 5766   3.306   1.571  16.285  0.3318  0.2055 -0.1046
  382MPD2     H 5767   3.149   1.681  16.619 -2.0927  1.8453 -0.7217
  382MPD2    H1 5768   3.353   1.388  16.372 -0.3852  0.0031  1.0811
  382MPD2    H2 5769   3.269   1.775  16.220 -0.6383 -0.6951  0.2247
  382MPD2    H3 5770   3.347   1.533  16.193 -1.0065  0.3729 -0.7691
  382MPD2     N 5771   3.240   1.427  16.612  0.3786 -0.1197  0.0326
  382MPD2    H5 5772   3.250   1.330  16.581 -0.7309 -0.7837  1.7109
  382MPD2    N1 5773   3.159   1.866  16.444  0.5797  0.2833  0.7724
  382MPD2    H7 5774   3.121   1.881  16.537  0.0655 -2.2065  0.9589
  383TMC3    C1 5775   3.234   1.342  16.831 -0.5220 -0.5216 -1.0397
  383TMC3    C2 5776   3.165   1.230  16.789  0.7261  0.5343 -0.9634
  383TMC3    C3 5777   3.133   1.134  16.883 -0.0083 -0.1093  0.2083
  383TMC3    C4 5778   3.269   1.361  16.969  0.0845  0.1911  0.4524
  383TMC3    C5 5779   3.245   1.256  17.050 -0.1927 -0.3886  0.4216
  383TMC3    C6 5780   3.185   1.140  17.009  0.1474 -0.5640 -0.2023
  383TMC3     C 5781   3.226   1.461  16.747 -0.4027 -0.1229  0.1596
  383TMC3     O 5782   3.215   1.570  16.799 -0.0298 -0.0282 -0.9185
  383TMC3     H 5783   3.124   1.221  16.689  0.5159  0.6273 -0.8873
  383TMC3    H1 5784   3.314   1.456  16.995 -1.4540  1.8245 -2.8171
  383TMC3    H2 5785   3.163   1.056  17.074  1.2356  0.1520  1.1115
  383TMC3    C7 5786   3.240   1.278  17.185 -0.4312 -0.0764 -0.4153
  383TMC3    C8 5787   3.068   1.021  16.827 -0.5317 -0.4249  0.4136
  383TMC3    O1 5788   3.250   1.175  17.247 -0.2961 -0.3866  0.0627
  383TMC3    O2 5789   3.026   1.038  16.715  0.1345  0.0971 -0.0410
  384MPD2     C 5790   4.435   3.638  11.680  0.3817  0.4563 -0.0931
  384MPD2    C1 5791   4.408   3.557  11.792 -0.0843 -0.1170 -0.6155
  384MPD2    C2 5792   4.476   3.435  11.809  0.0802 -0.8032  0.8561
  384MPD2    C3 5793   4.590   3.415  11.741  0.3014 -0.2574 -0.2857
  384MPD2    C4 5794   4.622   3.505  11.638 -0.8665 -0.2517 -0.1196
  384MPD2    C5 5795   4.542   3.606  11.606 -0.1165  1.0909  0.0703
  384MPD2     H 5796   4.452   3.370  11.893  0.3375 -1.0379  0.7469
  384MPD2    H1 5797   4.707   3.496  11.571 -0.0224 -1.0318  1.0626
  384MPD2    H2 5798   4.384   3.732  11.661 -0.6264  0.1856  1.3046
  384MPD2    H3 5799   4.568   3.664  11.518  0.2188 -1.5609 -1.5608
  384MPD2     N 5800   4.686   3.320  11.780 -0.1313  0.4605 -0.4287
  384MPD2    H5 5801   0.046   3.341  11.752  0.5771 -2.5698 -0.2751
  384MPD2    N1 5802   4.307   3.588  11.886 -0.4300 -0.2414  0.1217
  384MPD2    H7 5803   4.294   3.533  11.970  3.3236 -0.0199  0.8765
  385TMC3    C1 5804   0.036   3.139  11.893  0.7557  0.0143 -0.5449
  385TMC3    C2 5805   0.021   3.006  11.887 -0.2730 -0.1412 -0.8512
  385TMC3    C3 5806   0.041   2.927  11.997 -0.0974  0.3237 -0.0831
  385TMC3    C4 5807   0.086   3.200  12.006 -0.6416  0.1984  0.4791
  385TMC3    C5 5808   0.093   3.122  12.120  0.2719  0.3700 -0.3477
  385TMC3    C6 5809   0.090   2.983  12.108  0.1153  0.3727 -0.3836
  385TMC3     C 5810   4.656   3.205  11.850  0.4160  0.0216 -0.1939
  385TMC3     O 5811   4.545   3.152  11.868  0.0693 -0.2908 -0.3765
  385TMC3     H 5812   4.706   2.958  11.804  1.0257 -1.6934 -0.7236
  385TMC3    H1 5813   0.074   3.308  12.012  1.5589  0.3961  1.3039
  385TMC3    H2 5814   0.102   2.919  12.195 -0.8775 -0.6427 -0.9991
  385TMC3    C7 5815   4.729   3.160  12.215 -1.1155  0.4545 -0.0802
  385TMC3    C8 5816   0.031   2.779  11.987  0.6767  0.1226 -0.5427
  385TMC3    O1 5817   4.728   3.279  12.244 -0.5043 -0.0163 -0.1865
  385TMC3    O2 5818   0.073   2.708  12.081  0.4362  0.2508 -0.0767
  386TMC3    C1 5819   0.156   0.670  12.033 -0.5061  0.4409 -0.0334
  386TMC3    C2 5820   0.161   0.729  11.908  0.1960  0.5952  0.1697
  386TMC3    C3 5821   0.044   0.768  11.852  0.0192 -0.5901 -0.5505
  386TMC3    C4 5822   0.044   0.646  12.103  0.5812 -0.3901 -0.5649
  386TMC3    C5 5823   4.665   0.700  12.047  0.6336 -0.2279  0.3780
  386TMC3    C6 5824   4.667   0.764  11.927 -0.0303 -0.7405 -0.4160
  386TMC3     C 5825   0.279   0.591  12.047 -0.2189 -0.1423  0.1105
  386TMC3     O 5826   0.384   0.636  12.005 -0.5162  0.1202 -0.2811
  386TMC3     H 5827   0.254   0.726  11.853  0.4059 -0.2617  0.5717
  386TMC3    H1 5828   0.048   0.594  12.198 -1.0742  3.0535  1.3956
  386TMC3    H2 5829   4.576   0.799  11.880 -1.0005  1.0735  2.7913
  386TMC3    C7 5830   4.553   0.721  12.132 -0.7955 -0.0469  0.3570
  386TMC3    C8 5831   0.032   0.777  11.707  0.1134 -0.9033  0.5183
  386TMC3    O1 5832   4.510   0.633  12.208 -1.0674 -0.5653 -0.2202
  386TMC3    O2 5833   4.658   0.751  11.657 -0.3488  0.5349 -1.0198
  387MPD2     C 5834   2.339   1.442   9.687  0.1363 -0.5307 -0.0426
  387MPD2    C1 5835   2.408   1.445   9.801  0.0811  0.2757 -0.3296
  387MPD2    C2 5836   2.439   1.325   9.867  0.5200 -0.2390  0.5869
  387MPD2    C3 5837   2.401   1.204   9.817  0.4095 -0.4500 -0.0617
  387MPD2    C4 5838   2.318   1.205   9.707  0.2788  0.4831  0.4167
  387MPD2    C5 5839   2.287   1.318   9.645  0.4088 -0.4143  0.1891
  387MPD2     H 5840   2.494   1.326   9.960  0.9435  2.1150  0.3117
  387MPD2    H1 5841   2.279   1.111   9.669 -0.7037  0.3937  1.6550
  387MPD2    H2 5842   2.320   1.527   9.623  0.8612 -0.4439 -0.1494
  387MPD2    H3 5843   2.236   1.307   9.551 -0.1095 -0.1529  0.4429
  387MPD2     N 5844   2.449   1.092   9.888  0.3312  0.2955 -0.0396
  387MPD2    H5 5845   2.489   1.119   9.977 -1.3560  3.2331 -0.1749
  387MPD2    N1 5846   2.469   1.561   9.865  0.2901  0.1559 -0.0107
  387MPD2    H7 5847   2.516   1.553   9.954 -1.6383  1.9054  1.1444
  388TMC3    C1 5848   2.606   1.756   9.880  0.5314  0.1880  0.9737
  388TMC3    C2 5849   2.596   1.887   9.888 -0.1794  1.2815 -0.4189
  388TMC3    C3 5850   2.676   1.954   9.975 -0.3384  0.6887 -0.4054
  388TMC3    C4 5851   2.690   1.675   9.960  0.4206 -0.0460  0.0875
  388TMC3    C5 5852   2.769   1.750  10.050 -0.7316 -0.3668  0.3752
  388TMC3    C6 5853   2.772   1.889  10.050 -0.3011 -0.2469  0.6975
  388TMC3     C 5854   2.497   1.683   9.802  0.3901  0.0111  0.1628
  388TMC3     O 5855   2.458   1.720   9.692 -0.0852  0.3668 -0.6373
  388TMC3     H 5856   2.524   1.942   9.829 -0.6231 -1.0419 -2.0468
  388TMC3    H1 5857   2.696   1.568   9.941 -1.5857 -0.3062  0.8509
  388TMC3    H2 5858   2.836   1.942  10.120  1.2995 -0.0978 -0.8809
  388TMC3    C7 5859   2.882   1.677  10.119  0.3302  0.0762 -0.2764
  388TMC3    C8 5860   2.644   2.097   9.991 -0.2525 -0.0079  0.1460
  388TMC3    O1 5861   2.995   1.725  10.118  0.6662  0.0864  0.1681
  388TMC3    O2 5862   2.535   2.126   9.946  0.1839  0.1518 -0.7340
  389MPD2     C 5863   1.807   4.110  11.136  0.8314  0.1542  0.2755
  389MPD2    C1 5864   1.723   4.013  11.089  0.5676  0.9596  0.7305
  389MPD2    C2 5865   1.658   3.928  11.177  0.3384 -0.1268 -0.8681
  389MPD2    C3 5866   1.672   3.938  11.317 -0.0188  0.1941 -0.1051
  389MPD2    C4 5867   1.773   4.027  11.360 -0.7635  0.4984 -0.2412
  389MPD2    C5 5868   1.835   4.112  11.268  0.1727  0.3855 -0.4736
  389MPD2     H 5869   1.595   3.848  11.141  0.5363 -1.1866  1.1105
  389MPD2    H1 5870   1.800   4.029  11.465  0.7388 -0.0119 -0.6122
  389MPD2    H2 5871   1.851   4.189  11.075 -0.0210  1.5099  1.4067
  389MPD2    H3 5872   1.895   4.187  11.316  1.3317 -1.0790  0.3600
  389MPD2     N 5873   1.605   3.861  11.412 -0.5160  0.0399  0.3819
  389MPD2    H5 5874   1.620   3.890  11.508 -1.6481  1.4185  0.1580
  389MPD2    N1 5875   1.712   4.020  10.951 -0.2383  0.2963  0.2197
  389MPD2    H7 5876   1.776   4.085  10.907  0.0925 -0.3487 -0.2476
  390TMC3    C1 5877   1.487   3.692  11.530  1.2810 -0.8080 -0.2448
  390TMC3    C2 5878   1.427   3.570  11.524 -0.2785  0.0002 -0.3537
  390TMC3    C3 5879   1.329   3.536  11.623  0.3442 -0.3312 -0.9328
  390TMC3    C4 5880   1.469   3.778  11.640 -0.1446  0.6338  0.4642
  390TMC3    C5 5881   1.367   3.740  11.732  0.0348  0.1354  0.1238
  390TMC3    C6 5882   1.300   3.625  11.722 -0.0553 -0.1840 -0.4375
  390TMC3     C 5883   1.541   3.742  11.403 -0.2496  0.4510  0.0628
  390TMC3     O 5884   1.526   3.678  11.300  0.0216 -0.3025  0.2018
  390TMC3     H 5885   1.469   3.497  11.456  0.3695  1.1172 -1.1609
  390TMC3    H1 5886   1.513   3.877  11.647  2.2560 -0.3227 -1.1479
  390TMC3    H2 5887   1.211   3.613  11.783  0.8589 -2.0172  0.5202
  390TMC3    C7 5888   1.402   3.780  11.873 -0.5083  0.0774 -0.0086
  390TMC3    C8 5889   1.331   3.400  11.663 -0.6815 -0.2290  0.6876
  390TMC3    O1 5890   1.502   3.850  11.891  0.1576 -0.0593  0.5585
  390TMC3    O2 5891   1.294   3.315  11.577  0.0254  0.3093  0.4140
  391MPD2     C 5892   1.585   0.378  10.565  0.0068  0.5451 -0.0805
  391MPD2    C1 5893   1.576   0.508  10.604 -0.1018  0.5723 -0.5238
  391MPD2    C2 5894   1.594   0.608  10.507  0.1174 -0.5728  0.3375
  391MPD2    C3 5895   1.593   0.572  10.374 -0.8747 -0.3112 -0.6944
  391MPD2    C4 5896   1.601   0.442  10.341 -0.1454 -0.2585  0.1618
  391MPD2    C5 5897   1.602   0.346  10.431  0.0457 -0.1245 -0.6246
  391MPD2     H 5898   1.602   0.712  10.537 -1.8862 -0.7283  1.3888
  391MPD2    H1 5899   1.630   0.422  10.239  3.0194  0.2680  0.9473
  391MPD2    H2 5900   1.593   0.293  10.633  2.9511  0.7754 -0.1358
  391MPD2    H3 5901   1.599   0.239  10.409  1.3351 -0.6157  1.6105
  391MPD2     N 5902   1.577   0.673  10.282  0.0646 -0.4423  0.0634
  391MPD2    H5 5903   1.583   0.769  10.315  0.9945 -1.3340  2.4833
  391MPD2    N1 5904   1.570   0.546  10.737  0.0693  0.0340  0.1868
  391MPD2    H7 5905   1.577   0.645  10.758 -1.2481  0.3139 -0.7164
  392TMC3    C1 5906   1.550   0.770  10.074 -0.3522 -0.0972 -0.0262
  392TMC3    C2 5907   1.446   0.786   9.987  0.5227  0.0759  0.0320
  392TMC3    C3 5908   1.420   0.914   9.942 -0.0152 -0.2423  0.1809
  392TMC3    C4 5909   1.629   0.875  10.108  0.8699  0.4623 -0.0396
  392TMC3    C5 5910   1.602   1.006  10.061  0.3808  0.6392  0.0794
  392TMC3    C6 5911   1.499   1.024   9.973  0.2964  0.0452  0.5952
  392TMC3     C 5912   1.552   0.643  10.152 -0.4225  1.2001 -0.1780
  392TMC3     O 5913   1.510   0.538  10.101 -0.2563  0.4937 -0.7196
  392TMC3     H 5914   1.379   0.704   9.963  0.5010  0.1736 -0.2422
  392TMC3    H1 5915   1.714   0.855  10.173 -1.7824  0.5312  3.4818
  392TMC3    H2 5916   1.471   1.117   9.925  0.2123 -0.6913 -0.7847
  392TMC3    C7 5917   1.665   1.121  10.128 -1.1654 -0.3191  0.6953
  392TMC3    C8 5918   1.297   0.928   9.865 -0.6527  0.1939  1.1090
  392TMC3    O1 5919   1.730   1.103  10.229 -0.2098 -0.5997  0.1593
  392TMC3    O2 5920   1.250   0.822   9.825  0.6055 -0.6905 -0.1949
  393TMC3    C1 5921   4.361   3.503  10.666  0.0674  0.3219  0.2042
  393TMC3    C2 5922   4.230   3.543  10.693  0.0880 -0.3032 -0.0097
  393TMC3    C3 5923   4.153   3.471  10.781 -0.4903 -0.1227 -0.3492
  393TMC3    C4 5924   4.423   3.411  10.748  0.1213  0.0773  0.4389
  393TMC3    C5 5925   4.345   3.342  10.834  0.0155  0.7741 -0.0747
  393TMC3    C6 5926   4.215   3.369  10.850  0.6657  0.0053  0.2171
  393TMC3     C 5927   4.423   3.564  10.549  0.4581 -0.2545 -0.2506
  393TMC3     O 5928   4.348   3.625  10.466 -0.3863 -0.1803  0.1139
  393TMC3     H 5929   4.184   3.617  10.629  1.0779 -1.0529 -1.5988
  393TMC3    H1 5930   4.524   3.380  10.724  0.9548  1.5404  1.9901
  393TMC3    H2 5931   4.150   3.299  10.903 -0.0018  1.8018  1.8084
  393TMC3    C7 5932   4.395   3.238  10.914  0.5023 -0.2435 -0.2631
  393TMC3    C8 5933   4.004   3.467  10.770 -0.3821  0.0203  0.1822
  393TMC3    O1 5934   4.314   3.165  10.970 -0.0917  0.8557 -0.1601
  393TMC3    O2 5935   3.957   3.357  10.794  0.3972  0.4471 -0.0184
  394TMC3    C1 5936   1.632   3.982  10.729  0.5498 -0.1687  0.3430
  394TMC3    C2 5937   1.518   3.975  10.659 -0.2306 -0.8305  0.5192
  394TMC3    C3 5938   1.518   4.036  10.540  0.1866 -0.2683  0.9540
  394TMC3    C4 5939   1.744   4.041  10.678  0.3819  0.2062 -0.0399
  394TMC3    C5 5940   1.734   4.107  10.561  0.3898  0.2595  0.0420
  394TMC3    C6 5941   1.628   4.098  10.485  0.2060 -0.3466 -0.2543
  394TMC3     C 5942   1.619   3.961  10.870  0.2831 -0.4410  0.1900
  394TMC3     O 5943   1.518   3.898  10.913  0.4920 -0.4722  0.8080
  394TMC3     H 5944   1.433   3.929  10.709 -0.3799 -0.2651  0.7851
  394TMC3    H1 5945   1.826   4.066  10.744  1.4968 -0.3510 -1.2201
  394TMC3    H2 5946   1.615   4.143  10.387  0.0180 -1.2511 -0.6420
  394TMC3    C7 5947   1.846   4.179  10.498  0.3530 -0.5614 -0.1348
  394TMC3    C8 5948   1.404   4.012  10.457  0.9449 -0.3744 -0.1010
  394TMC3    O1 5949   1.816   4.250  10.401 -0.0457  0.0872 -0.2041
  394TMC3    O2 5950   1.383   4.095  10.368  0.2270  0.5278 -0.2591
  395TMC3    C1 5951   1.999   0.579  14.626  0.1419  0.4404 -0.0312
  395TMC3    C2 5952   1.876   0.623  14.588 -0.3835  0.0301 -0.1739
  395TMC3    C3 5953   1.841   0.753  14.590  0.6867 -0.2526 -0.4920
  395TMC3    C4 5954   2.087   0.680  14.672  0.4002  0.0638  0.1561
  395TMC3    C5 5955   2.043   0.808  14.679  0.0846 -0.5421  0.0819
  395TMC3    C6 5956   1.924   0.849  14.638  0.5220  0.1034 -0.8581
  395TMC3     C 5957   1.986   0.487  14.735  0.6689 -0.1674 -0.0868
  395TMC3     O 5958   1.874   0.460  14.779 -0.3552 -0.0916  0.0002
  395TMC3     H 5959   1.808   0.555  14.536  0.1987 -0.4822 -0.2580
  395TMC3    H1 5960   2.178   0.649  14.722  0.6886  1.7346  0.6664
  395TMC3    H2 5961   1.899   0.954  14.645 -1.4478 -0.2417 -2.8096
  395TMC3    C7 5962   2.145   0.912  14.700  0.0700  0.1259  0.5451
  395TMC3    C8 5963   1.692   0.777  14.606  0.5445 -0.2967 -0.3294
  395TMC3    O1 5964   2.112   1.028  14.682  0.3890  0.8296 -0.5743
  395TMC3    O2 5965   1.644   0.885  14.578 -0.1310  0.6055 -0.2245
  396MPD2     C 5966   1.612   1.085  16.709  0.0079  0.1132  0.6687
  396MPD2    C1 5967   1.746   1.112  16.722 -0.1269 -0.4580 -0.0751
  396MPD2    C2 5968   1.798   1.233  16.676 -0.0659 -0.0710 -0.3406
  396MPD2    C3 5969   1.717   1.321  16.603 -0.4494  0.5300  0.3816
  396MPD2    C4 5970   1.586   1.289  16.593  0.8714  0.9679 -0.1328
  396MPD2    C5 5971   1.532   1.176  16.642  0.7916 -0.3642 -0.6965
  396MPD2     H 5972   1.898   1.267  16.701 -0.7894  2.1490 -0.4505
  396MPD2    H1 5973   1.511   1.364  16.569 -0.8590 -0.1951  1.5888
  396MPD2    H2 5974   1.568   0.990  16.736 -0.9006  0.5018  0.5622
  396MPD2    H3 5975   1.425   1.157  16.635  0.4760  1.3871 -0.5562
  396MPD2     N 5976   1.774   1.443  16.557 -0.1595 -0.0892 -0.2101
  396MPD2    H5 5977   1.869   1.472  16.574  0.2086 -1.3187 -0.1863
  396MPD2    N1 5978   1.819   1.019  16.793 -0.0469 -0.3641  0.1957
  396MPD2    H7 5979   1.778   0.929  16.818  0.3043 -0.1431  1.5412
  397TMC3    C1 5980   1.979   0.899  16.876 -0.0286 -0.2477 -0.5138
  397TMC3    C2 5981   2.025   0.832  16.769 -0.3765  0.5492 -0.2804
  397TMC3    C3 5982   1.963   0.718  16.724 -0.7619 -0.5634 -0.7774
  397TMC3    C4 5983   1.885   0.832  16.956  0.9109  0.7094 -1.0620
  397TMC3    C5 5984   1.826   0.714  16.915 -0.5317 -0.0983  0.0647
  397TMC3    C6 5985   1.871   0.648  16.797  0.3078  0.3686  0.4126
  397TMC3     C 5986   1.946   1.026  16.829 -0.8374  0.1731 -0.3299
  397TMC3     O 5987   2.038   1.107  16.816  0.0587 -0.2812  0.4452
  397TMC3     H 5988   2.090   0.895  16.709  0.7243 -0.4779 -0.1445
  397TMC3    H1 5989   1.857   0.880  17.049 -0.6010  0.5297 -1.4298
  397TMC3    H2 5990   1.802   0.575  16.757  0.8649 -0.4877  0.9899
  397TMC3    C7 5991   1.695   0.682  16.971  0.2624  0.2801 -0.1749
  397TMC3    C8 5992   1.934   0.735  16.583  0.1197 -0.0656  0.7354
  397TMC3    O1 5993   1.610   0.644  16.887 -0.2343  0.0252  0.6453
  397TMC3    O2 5994   1.996   0.828  16.534 -0.3869  0.0772 -0.2794
  398MPD2     C 5995   4.675   3.119   0.367 -0.2920  0.1294  0.3435
  398MPD2    C1 5996   0.068   3.155   0.340 -0.2752 -0.6864 -0.7215
  398MPD2    C2 5997   0.113   3.265   0.410 -0.1045 -0.9438 -0.7112
  398MPD2    C3 5998   0.032   3.344   0.490 -0.5674  0.7412 -0.0045
  398MPD2    C4 5999   4.639   3.301   0.515  0.5662  0.2238 -0.2447
  398MPD2    C5 6000   4.595   3.186   0.454 -0.1117  0.9479 -0.1300
  398MPD2     H 6001   0.219   3.285   0.407 -0.1930 -0.2740  0.4765
  398MPD2    H1 6002   4.565   3.357   0.571  0.3675 -1.0007  0.7113
  398MPD2    H2 6003   4.631   3.031   0.321 -1.6545  1.7981 -1.5564
  398MPD2    H3 6004   4.494   3.148   0.464 -0.4919  2.0618  0.2177
  398MPD2     N 6005   0.095   3.452   0.552  0.1886 -0.4296  0.1610
  398MPD2    H5 6006   0.190   3.476   0.525 -0.1203 -0.3527 -0.8520
  398MPD2    N1 6007   0.161   3.077   0.270  0.2637  0.0569  1.0397
  398MPD2    H7 6008   0.255   3.116   0.261  0.4995 -0.9539 -1.0364
  399TMC3    C1 6009   0.258   2.888   0.175  0.0492 -0.0193  0.2252
  399TMC3    C2 6010   0.364   2.949   0.127  0.8439 -0.4197 -0.6667
  399TMC3    C3 6011   0.471   2.875   0.095 -0.7777 -0.4412 -0.4265
  399TMC3    C4 6012   0.253   2.756   0.188 -0.1788 -0.2968  0.4101
  399TMC3    C5 6013   0.364   2.684   0.151 -0.2783 -0.0799 -0.0889
  399TMC3    C6 6014   0.473   2.742   0.111 -0.5100 -0.0467  0.1035
  399TMC3     C 6015   0.132   2.959   0.203  0.2165  0.0038  0.1576
  399TMC3     O 6016   0.029   2.893   0.193  0.1728 -0.4312 -0.5006
  399TMC3     H 6017   0.371   3.057   0.119  0.2067 -0.1950  1.6951
  399TMC3    H1 6018   0.172   2.710   0.243  0.1052 -1.2125  0.0476
  399TMC3    H2 6019   0.564   2.683   0.103  0.6321  1.4620  1.8431
  399TMC3    C7 6020   0.369   2.539   0.173  0.1402 -0.1797  0.7236
  399TMC3    C8 6021   0.581   2.940   0.030  0.1366 -1.2258 -0.1058
  399TMC3    O1 6022   0.479   2.482   0.179 -0.1607 -0.1638  0.7734
  399TMC3    O2 6023   0.560   3.040  17.703  0.2810 -0.1431 -0.4067
  400TMC3    C1 6024   3.076   0.676  16.584 -0.3280 -0.9503 -0.3088
  400TMC3    C2 6025   3.007   0.562  16.593 -0.8428 -0.0549  0.5569
  400TMC3    C3 6026   2.896   0.562  16.517 -0.3981  0.0855 -0.2371
  400TMC3    C4 6027   3.048   0.788  16.512  0.1532 -0.0745  0.4486
  400TMC3    C5 6028   2.934   0.779  16.436  0.1756 -0.1239  0.5592
  400TMC3    C6 6029   2.862   0.663  16.428  0.0101 -0.3707  0.3753
  400TMC3     C 6030   3.190   0.688  16.679  0.5397 -0.0499 -0.6519
  400TMC3     O 6031   3.193   0.606  16.770 -0.1533  0.0037  0.4592
  400TMC3     H 6032   3.043   0.487  16.662 -0.8965 -0.8987 -0.3368
  400TMC3    H1 6033   3.107   0.879  16.520  1.6870 -1.0975  0.8968
  400TMC3    H2 6034   2.777   0.664  16.361 -1.3894  0.9873  2.1827
  400TMC3    C7 6035   2.879   0.897  16.382  0.3002  0.5941 -0.7677
  400TMC3    C8 6036   2.802   0.462  16.559  0.3987  0.8244  0.1251
  400TMC3    O1 6037   2.811   0.891  16.280  0.4613 -0.0502  0.8186
  400TMC3    O2 6038   2.830   0.406  16.664  0.3243  0.9676 -0.9750
  401MPD2     C 6039   1.093   4.349   0.895 -0.5037  0.3733  0.3002
  401MPD2    C1 6040   1.206   4.289   0.861 -0.0424 -0.1961 -0.3047
  401MPD2    C2 6041   1.217   4.155   0.881  0.4029  0.4888  0.0120
  401MPD2    C3 6042   1.120   4.079   0.938  0.2333 -0.0890 -0.0640
  401MPD2    C4 6043   1.002   4.138   0.974 -0.1155  0.0060 -0.6131
  401MPD2    C5 6044   0.996   4.277   0.961  0.3475 -0.3692 -0.4093
  401MPD2     H 6045   1.313   4.114   0.855  0.7082  1.1751  0.0426
  401MPD2    H1 6046   0.922   4.083   1.022 -0.3276 -1.6281 -2.8369
  401MPD2    H2 6047   1.072   4.454   0.877  2.4052  0.9112  0.1087
  401MPD2    H3 6048   0.903   4.329   0.983 -0.3306 -1.8017  0.1348
  401MPD2     N 6049   1.155   3.949   0.960  0.3127  0.8353 -0.1167
  401MPD2    H5 6050   1.246   3.920   0.926  0.6878  0.9192  0.8148
  401MPD2    N1 6051   1.323   4.364   0.822  0.4823  0.0434 -0.1942
  401MPD2    H7 6052   1.410   4.312   0.812 -0.4323 -1.3419 -1.0564
  402TMC3    C1 6053   1.182   3.744   1.044 -0.4868  0.4664 -0.1695
  402TMC3    C2 6054   1.315   3.757   1.047  0.6390  0.6586  0.7292
  402TMC3    C3 6055   1.385   3.643   1.064 -0.4544 -0.4474 -0.2888
  402TMC3    C4 6056   1.116   3.623   1.028  0.0387  0.6419  0.2455
  402TMC3    C5 6057   1.199   3.512   1.034  1.3141 -0.5118 -0.4025
  402TMC3    C6 6058   1.329   3.522   1.061 -0.1066 -0.1127  0.3860
  402TMC3     C 6059   1.099   3.858   1.038 -0.6977  0.8340 -0.3640
  402TMC3     O 6060   0.999   3.867   1.106  0.5325 -0.5564  0.4037
  402TMC3     H 6061   1.354   3.857   1.060 -1.7559  1.9138 -1.6616
  402TMC3    H1 6062   1.010   3.619   1.003  0.6374 -1.6678 -1.9335
  402TMC3    H2 6063   1.380   3.429   1.083 -0.5245 -0.5717 -0.5945
  402TMC3    C7 6064   1.137   3.399   0.975  0.3197 -0.0200  0.7692
  402TMC3    C8 6065   1.534   3.638   1.070 -0.2691 -0.1581  0.1957
  402TMC3    O1 6066   1.014   3.392   1.002 -0.1486 -0.0480 -0.1658
  402TMC3    O2 6067   1.588   3.532   1.108  0.3081  0.3270 -0.1027
  403MPD2     C 6068   4.726   2.634  13.152  0.2571  0.0969  0.0974
  403MPD2    C1 6069   0.055   2.543  13.236 -0.4309  0.4598 -0.8027
  403MPD2    C2 6070   0.181   2.583  13.288  0.4552 -0.0858  0.0547
  403MPD2    C3 6071   0.234   2.708  13.262  0.3867  0.2071 -0.0399
  403MPD2    C4 6072   0.162   2.800  13.183  0.0100  0.7901 -0.0703
  403MPD2    C5 6073   0.046   2.752  13.119 -0.5898  0.0629 -0.3226
  403MPD2     H 6074   0.233   2.511  13.351 -0.2590 -1.4198 -0.8929
  403MPD2    H1 6075   0.192   2.902  13.163  1.2644 -0.1236 -2.8377
  403MPD2    H2 6076   4.628   2.602  13.119  0.3695  0.4971 -0.6292
  403MPD2    H3 6077   4.723   2.828  13.067  0.6541 -0.3608 -2.3029
  403MPD2     N 6078   0.356   2.744  13.334  0.5629 -0.3018  0.5847
  403MPD2    H5 6079   0.369   2.843  13.352  1.5568  0.0549 -2.1329
  403MPD2    N1 6080   4.713   2.427  13.269  0.2695 -0.3436 -0.3359
  403MPD2    H7 6081   4.622   2.417  13.224  0.1720  1.0012 -0.4339
  404TMC3    C1 6082   4.668   2.227  13.389  0.0595 -0.2958 -0.8629
  404TMC3    C2 6083   4.685   2.154  13.499 -0.5318 -0.5347  0.5326
  404TMC3    C3 6084   4.584   2.071  13.541  1.0932  0.5537 -0.1238
  404TMC3    C4 6085   4.552   2.214  13.314 -0.8648 -0.4552 -0.4264
  404TMC3    C5 6086   4.464   2.123  13.345 -0.4030 -0.8472  0.5273
  404TMC3    C6 6087   4.470   2.049  13.462 -0.4592 -0.3001 -1.5108
  404TMC3     C 6088   0.016   2.342  13.370  0.0644 -0.0293 -0.2362
  404TMC3     O 6089   0.101   2.366  13.451 -0.2339 -0.0393 -0.3059
  404TMC3     H 6090   0.038   2.188  13.553 -0.7304  2.3290 -0.9321
  404TMC3    H1 6091   4.563   2.258  13.215 -1.3935  1.4345  0.3497
  404TMC3    H2 6092   4.401   1.968  13.484  1.9630 -1.8984  0.2303
  404TMC3    C7 6093   4.429   2.032  13.234 -0.0355  0.3421  0.0762
  404TMC3    C8 6094   4.613   1.992  13.655  0.7386 -0.5916  0.0356
  404TMC3    O1 6095   4.442   1.915  13.257  0.8676  0.2637  0.2583
  404TMC3    O2 6096   0.002   1.984  13.675 -0.0104 -0.0714  0.1813
  405MPD2     C 6097   4.616   2.922  14.687 -0.4922  0.0860 -0.5493
  405MPD2    C1 6098   4.563   2.796  14.691 -0.2997 -0.7213  0.5163
  405MPD2    C2 6099   4.448   2.766  14.616 -0.5296 -0.1338  0.3086
  405MPD2    C3 6100   4.389   2.861  14.536  0.0996 -0.0125 -0.3826
  405MPD2    C4 6101   4.438   2.991  14.540 -0.7388  0.4814  0.6439
  405MPD2    C5 6102   4.555   3.013  14.607 -0.6194 -0.0317 -0.0894
  405MPD2     H 6103   4.397   2.671  14.606 -0.1523 -0.2701 -0.3166
  405MPD2    H1 6104   4.389   3.067  14.481  2.7283  0.8240 -1.7744
  405MPD2    H2 6105   4.704   2.946  14.746  0.0640 -0.9647 -0.9718
  405MPD2    H3 6106   4.605   3.109  14.592  0.0037 -0.4532 -0.7031
  405MPD2     N 6107   4.278   2.810  14.453 -0.1067 -0.0498  0.3931
  405MPD2    H5 6108   4.255   2.712  14.461  1.0134 -0.4054 -0.9200
  405MPD2    N1 6109   4.619   2.698  14.772  0.1164 -0.3279  0.5735
  405MPD2    H7 6110   4.708   2.719  14.818  0.3418  0.1678 -0.0897
  406TMC3    C1 6111   4.010   2.730  14.129  0.7995  0.2477 -0.3728
  406TMC3    C2 6112   3.983   2.604  14.183  0.5654  0.5530 -0.1601
  406TMC3    C3 6113   4.018   2.579  14.316  0.0593 -0.3721 -0.4252
  406TMC3    C4 6114   4.063   2.832  14.198 -0.1521  0.9531  0.5283
  406TMC3    C5 6115   4.090   2.806  14.328 -0.2101 -0.1708 -0.8497
  406TMC3    C6 6116   4.071   2.680  14.390  0.1088  0.2598  0.2744
  406TMC3     C 6117   3.982   2.749  13.993 -0.4537  0.3720 -0.6575
  406TMC3     O 6118   3.960   2.654  13.922  0.9726 -0.2873 -0.7225
  406TMC3     H 6119   3.939   2.529  14.119 -0.8175  0.6186  0.7182
  406TMC3    H1 6120   4.084   2.929  14.155 -0.6405  0.4072 -0.9223
  406TMC3    H2 6121   4.080   2.663  14.496  0.0341 -1.2381  0.0404
  406TMC3    C7 6122   4.192   2.889  14.388 -0.3158  0.3376 -0.4490
  406TMC3    C8 6123   4.020   2.443  14.363 -1.0077  0.4130  0.2694
  406TMC3    O1 6124   4.199   3.006  14.352 -0.1920 -0.0145  0.0816
  406TMC3    O2 6125   3.922   2.375  14.357 -0.0935 -0.4719  0.2834
  407MPD2     C 6126   2.039   0.811   9.419  0.7465  0.2928  0.2782
  407MPD2    C1 6127   2.119   0.811   9.535  0.4366 -0.3134  0.3383
  407MPD2    C2 6128   2.077   0.892   9.642  0.3966 -0.5939 -0.2827
  407MPD2    C3 6129   1.961   0.959   9.643  0.0150 -0.6025  0.1811
  407MPD2    C4 6130   1.873   0.944   9.540  0.1227 -0.1522 -0.0431
  407MPD2    C5 6131   1.916   0.872   9.427  0.2036  0.2543 -0.8016
  407MPD2     H 6132   2.146   0.908   9.723 -2.3708  1.8127  1.6148
  407MPD2    H1 6133   1.773   0.987   9.533 -0.9474 -2.8277 -1.3039
  407MPD2    H2 6134   2.068   0.761   9.327  1.1645 -0.2464  0.6978
  407MPD2    H3 6135   1.851   0.858   9.341 -1.4468  0.4322  0.4350
  407MPD2     N 6136   1.920   1.046   9.747  0.5188 -0.1004 -0.2498
  407MPD2    H5 6137   1.846   1.115   9.741 -0.8822 -1.6552 -0.9084
  407MPD2    N1 6138   2.247   0.761   9.543 -0.0757  0.1049  0.1244
  407MPD2    H7 6139   2.300   0.787   9.625  2.7526  2.9630 -2.6637
  408TMC3    C1 6140   2.443   0.636   9.496  0.3590 -0.0805  0.0878
  408TMC3    C2 6141   2.494   0.507   9.485 -0.7327 -0.3495  0.2106
  408TMC3    C3 6142   2.626   0.490   9.517 -0.5832  0.0450 -0.7747
  408TMC3    C4 6143   2.520   0.743   9.544  0.4879  0.3929 -0.0672
  408TMC3    C5 6144   2.651   0.715   9.570 -0.1464  0.3884  1.6611
  408TMC3    C6 6145   2.707   0.591   9.555 -0.1098 -0.2726 -1.0314
  408TMC3     C 6146   2.301   0.668   9.461  0.0763 -0.5182 -0.8107
  408TMC3     O 6147   2.252   0.590   9.379  0.2173  0.7804 -0.4332
  408TMC3     H 6148   2.434   0.428   9.440  0.0446  1.2546 -3.6098
  408TMC3    H1 6149   2.482   0.845   9.538  0.8725  0.6247  1.6196
  408TMC3    H2 6150   2.814   0.574   9.561  0.0369  0.5397 -1.2686
  408TMC3    C7 6151   2.741   0.829   9.593  0.3582  0.0537 -0.0874
  408TMC3    C8 6152   2.682   0.350   9.517 -0.3780  0.3110  0.1273
  408TMC3    O1 6153   2.841   0.797   9.649 -0.3014  0.1357 -0.1576
  408TMC3    O2 6154   2.607   0.264   9.473  0.4103 -0.1567  0.9329
  409MPD2     C 6155   1.917   0.171  16.503 -0.3482  0.5191  0.3390
  409MPD2    C1 6156   1.962   0.235  16.614 -0.4740  0.5142 -0.0891
  409MPD2    C2 6157   2.051   0.341  16.601 -0.3117  0.5716 -0.5354
  409MPD2    C3 6158   2.085   0.386  16.472 -0.9744  0.0059 -0.7256
  409MPD2    C4 6159   2.033   0.324  16.359  0.3953  0.2627 -0.1804
  409MPD2    C5 6160   1.965   0.211  16.380  0.1956  0.7094 -0.1292
  409MPD2     H 6161   2.100   0.385  16.687 -0.0218 -0.6414 -0.0831
  409MPD2    H1 6162   2.053   0.353  16.257 -1.0781  0.2631 -0.4761
  409MPD2    H2 6163   1.844   0.092  16.511  0.6990 -0.4645  0.2112
  409MPD2    H3 6164   1.923   0.165  16.291 -0.0999  1.7076 -0.4970
  409MPD2     N 6165   2.167   0.491  16.443  0.1425  0.4726  0.1711
  409MPD2    H5 6166   2.180   0.524  16.347 -1.6166 -0.2786 -0.3169
  409MPD2    N1 6167   1.927   0.180  16.737 -0.2113  0.0267  0.0961
  409MPD2    H7 6168   1.879   0.091  16.729 -0.8961  0.4764 -0.8217
  410TMC3    C1 6169   2.337   0.652  16.488  0.5945 -0.7532 -0.0228
  410TMC3    C2 6170   2.400   0.714  16.588 -0.0719 -0.1827 -0.6536
  410TMC3    C3 6171   2.470   0.823  16.567 -1.4364  0.2261  0.5723
  410TMC3    C4 6172   2.336   0.702  16.360  0.4307  0.4235 -0.0354
  410TMC3    C5 6173   2.390   0.831  16.350 -0.7470 -0.0356  0.8593
  410TMC3    C6 6174   2.463   0.888  16.449  0.0162 -0.3524  0.0205
  410TMC3     C 6175   2.228   0.565  16.539  0.4712 -0.5826  0.4847
  410TMC3     O 6176   2.214   0.570  16.659  0.0504 -0.2963  0.2984
  410TMC3     H 6177   2.382   0.693  16.693 -1.7616 -1.9282 -1.3093
  410TMC3    H1 6178   2.270   0.668  16.282 -0.6388  0.2752  0.9417
  410TMC3    H2 6179   2.525   0.977  16.443  1.1289 -1.1235  0.1778
  410TMC3    C7 6180   2.391   0.880  16.209  0.4495  0.1145 -0.3520
  410TMC3    C8 6181   2.594   0.841  16.644 -0.2502  0.5769  0.2068
  410TMC3    O1 6182   2.380   0.792  16.119 -0.5931 -0.2658 -0.1264
  410TMC3    O2 6183   2.635   0.958  16.654 -0.4456  0.4224  0.3451
  411MPD2     C 6184   2.173   1.148  14.347  0.2347  0.7842 -0.2934
  411MPD2    C1 6185   2.049   1.196  14.333 -0.3090 -0.0577  1.2218
  411MPD2    C2 6186   1.945   1.111  14.312 -0.3539 -0.0871 -0.3591
  411MPD2    C3 6187   1.961   0.974  14.313 -0.1273  0.9196 -0.0222
  411MPD2    C4 6188   2.087   0.922  14.327 -0.1024 -0.7354 -0.1023
  411MPD2    C5 6189   2.190   1.013  14.341  0.2222  0.4511 -0.0375
  411MPD2     H 6190   1.844   1.149  14.307  0.1407  1.3070  0.1507
  411MPD2    H1 6191   2.108   0.818  14.349  0.8147 -0.5828 -0.2538
  411MPD2    H2 6192   2.260   1.211  14.357  0.6161  0.6444 -2.6191
  411MPD2    H3 6193   2.291   0.974  14.351  0.0151  0.1663  0.9805
  411MPD2     N 6194   1.854   0.883  14.297 -0.4118 -0.0845 -0.4410
  411MPD2    H5 6195   1.871   0.785  14.318  0.4450  0.4635  1.3737
  411MPD2    N1 6196   2.008   1.329  14.345 -0.1711  0.1388  0.4969
  411MPD2    H7 6197   1.908   1.338  14.330 -0.0923 -1.7659 -1.2398
  412TMC3    C1 6198   1.627   0.803  14.274  0.2048  0.5849 -0.3492
  412TMC3    C2 6199   1.498   0.823  14.313  0.3857  0.3197 -0.8687
  412TMC3    C3 6200   1.409   0.719  14.299 -0.5281  0.4229 -0.0283
  412TMC3    C4 6201   1.664   0.680  14.214 -0.4544 -0.1519  0.0773
  412TMC3    C5 6202   1.568   0.585  14.211  0.0710  0.8989  0.6500
  412TMC3    C6 6203   1.438   0.592  14.256 -0.4366  0.0458  0.8032
  412TMC3     C 6204   1.720   0.915  14.272 -0.0467  0.9457 -0.1888
  412TMC3     O 6205   1.666   1.022  14.256 -0.2308 -0.7070  0.2325
  412TMC3     H 6206   1.470   0.919  14.353 -1.3846  0.3737 -2.2619
  412TMC3    H1 6207   1.755   0.662  14.159  0.0697  2.7179 -0.0189
  412TMC3    H2 6208   1.366   0.517  14.225 -1.9517  1.2666  1.3533
  412TMC3    C7 6209   1.562   0.517  14.077 -0.0053 -0.6097 -0.2375
  412TMC3    C8 6210   1.276   0.760  14.272 -0.0013  0.0200 -0.0975
  412TMC3    O1 6211   1.530   0.398  14.077 -0.6922  0.5527  0.0270
  412TMC3    O2 6212   1.184   0.703  14.326  0.1833 -0.1190 -0.1362
  413MPD2     C 6213   3.719   4.142  15.486  0.6899  0.7258  0.1891
  413MPD2    C1 6214   3.637   4.061  15.410  0.3408  0.3800  0.0807
  413MPD2    C2 6215   3.661   3.924  15.393  0.3864  0.2652 -0.6191
  413MPD2    C3 6216   3.779   3.877  15.438  0.0053 -0.2688 -0.2328
  413MPD2    C4 6217   3.869   3.958  15.500  0.0688  0.5645 -0.4649
  413MPD2    C5 6218   3.840   4.091  15.520  0.3632 -0.3847  0.3234
  413MPD2     H 6219   3.603   3.858  15.330 -0.8417  0.3876  0.3862
  413MPD2    H1 6220   3.971   3.928  15.523 -1.6122 -3.4798  1.6494
  413MPD2    H2 6221   3.704   4.247  15.505 -1.2437  0.6839 -1.0511
  413MPD2    H3 6222   3.913   4.155  15.567 -1.1024  0.1246  1.9094
  413MPD2     N 6223   3.799   3.740  15.401  0.8481  0.0625  0.1564
  413MPD2    H5 6224   3.735   3.709  15.329  1.0082 -0.4254  0.2250
  413MPD2    N1 6225   3.513   4.116  15.368 -0.4925  0.2779  0.1511
  413MPD2    H7 6226   3.499   4.215  15.381 -0.8193  0.4236 -1.3461
  414TMC3    C1 6227   3.911   3.527  15.407  0.2403  0.2814  0.3210
  414TMC3    C2 6228   3.960   3.427  15.489 -0.0275  0.3582  0.2916
  414TMC3    C3 6229   3.978   3.305  15.431  0.1618  0.0191 -0.4914
  414TMC3    C4 6230   3.876   3.503  15.281  0.4867 -0.1025  0.2497
  414TMC3    C5 6231   3.914   3.383  15.218 -0.2295 -0.3772  0.3187
  414TMC3    C6 6232   3.955   3.281  15.295 -0.1694 -0.0816  1.2054
  414TMC3     C 6233   3.883   3.657  15.468  0.3598 -0.9998 -0.7344
  414TMC3     O 6234   3.939   3.676  15.571 -0.1118  0.4100 -0.1211
  414TMC3     H 6235   3.999   3.447  15.588  0.9343 -0.1568  0.0137
  414TMC3    H1 6236   3.840   3.586  15.221 -1.5406 -0.6387  0.7337
  414TMC3    H2 6237   3.984   3.183  15.259  2.5452  0.9780  0.5614
  414TMC3    C7 6238   4.037   3.407  15.145 -0.4348  0.5363 -0.1878
  414TMC3    C8 6239   4.076   3.216  15.484 -0.3616 -0.2997 -0.1736
  414TMC3    O1 6240   4.107   3.500  15.185 -1.0334  0.0323 -0.1059
  414TMC3    O2 6241   4.071   3.096  15.452 -0.0905 -0.1451  0.5376
  415TMC3    C1 6242   3.182   3.145  10.185 -0.2182  0.0810  0.2758
  415TMC3    C2 6243   3.232   3.259  10.133 -0.2737 -0.8298 -0.2665
  415TMC3    C3 6244   3.146   3.354  10.086  0.1522 -0.9439  0.0341
  415TMC3    C4 6245   3.046   3.120  10.191  0.3224  0.1375  0.0102
  415TMC3    C5 6246   2.963   3.216  10.152 -0.0799  0.8004  0.2273
  415TMC3    C6 6247   3.008   3.333  10.095 -0.0322 -0.1652  0.4012
  415TMC3     C 6248   3.265   3.067  10.277 -0.2636 -0.0772  0.2592
  415TMC3     O 6249   3.208   2.966  10.326 -0.3842 -0.0348 -0.0746
  415TMC3     H 6250   3.339   3.264  10.117 -0.0270 -2.0656  1.0421
  415TMC3    H1 6251   3.013   3.023  10.225  0.6105  0.0292 -0.0206
  415TMC3    H2 6252   2.939   3.409  10.060 -0.2097  0.0376  1.1973
  415TMC3    C7 6253   2.828   3.188  10.160  0.1618 -0.2805  0.2914
  415TMC3    C8 6254   3.195   3.471  10.016 -0.0306 -0.8597  0.4794
  415TMC3    O1 6255   2.759   3.249  10.075  0.0362  0.6295 -0.0438
  415TMC3    O2 6256   3.120   3.528   9.940 -0.2692 -0.3401 -0.7362
  416MPD2     C 6257   1.253   1.413  11.606  0.0541  0.1987 -0.4196
  416MPD2    C1 6258   1.203   1.485  11.500  0.2134 -0.2933  0.2168
  416MPD2    C2 6259   1.239   1.469  11.369  0.2031 -0.0133  0.4440
  416MPD2    C3 6260   1.335   1.372  11.341  0.6926  0.6180  0.8128
  416MPD2    C4 6261   1.400   1.311  11.450  0.2395  0.0473  0.1831
  416MPD2    C5 6262   1.356   1.334  11.579 -0.0770 -0.0008 -0.3995
  416MPD2     H 6263   1.195   1.519  11.284  0.9550  0.2431  0.2030
  416MPD2    H1 6264   1.475   1.233  11.439 -2.4505 -2.4554 -0.2133
  416MPD2    H2 6265   1.217   1.431  11.707  0.6469 -0.6127 -0.0726
  416MPD2    H3 6266   1.413   1.286  11.658 -1.4027  0.8849  1.0907
  416MPD2     N 6267   1.373   1.323  11.211 -0.4123 -0.0374  0.5542
  416MPD2    H5 6268   1.416   1.231  11.206 -1.8994 -0.8019  1.5579
  416MPD2    N1 6269   1.085   1.566  11.542 -0.1471 -0.0066 -0.1455
  416MPD2    H7 6270   1.061   1.568  11.640  1.7561  0.4850  0.3264
  417TMC3    C1 6271   0.890   1.696  11.529  0.2324  0.1984  0.1593
  417TMC3    C2 6272   0.831   1.612  11.625  0.0827  0.3745  0.1571
  417TMC3    C3 6273   0.704   1.642  11.656 -0.0708  0.2693  0.2473
  417TMC3    C4 6274   0.822   1.796  11.465  0.0000 -0.5920 -0.2178
  417TMC3    C5 6275   0.689   1.809  11.497  0.4467 -0.2987 -0.2325
  417TMC3    C6 6276   0.639   1.740  11.597  0.1694 -0.1985 -0.8640
  417TMC3     C 6277   1.021   1.657  11.465  0.2263  0.1262 -0.0855
  417TMC3     O 6278   1.056   1.720  11.365  0.1306  0.4279 -0.1501
  417TMC3     H 6279   0.886   1.528  11.665 -2.4432 -1.8622 -1.0944
  417TMC3    H1 6280   0.852   1.859  11.382  0.8120  1.3307  1.5450
  417TMC3    H2 6281   0.556   1.771  11.660  0.7691 -0.0308 -0.1520
  417TMC3    C7 6282   0.593   1.857  11.393 -0.0534  0.1417 -0.4465
  417TMC3    C8 6283   0.666   1.599  11.791  0.6397 -0.8767 -0.6598
  417TMC3    O1 6284   0.630   1.913  11.293 -0.0023  0.0480 -0.3157
  417TMC3    O2 6285   0.635   1.688  11.868  1.1945 -0.0495  0.3922
  418TMC3    C1 6286   0.350   3.703   0.668 -0.9095  0.7269 -0.2082
  418TMC3    C2 6287   0.218   3.681   0.636 -0.9490  0.2296 -0.4974
  418TMC3    C3 6288   0.132   3.620   0.719 -0.2604 -0.5618  0.5728
  418TMC3    C4 6289   0.400   3.648   0.785  0.4477  0.4128  0.6845
  418TMC3    C5 6290   0.313   3.583   0.877 -0.0896  0.1208 -0.1321
  418TMC3    C6 6291   0.180   3.577   0.838  0.2467 -0.3503 -0.3377
  418TMC3     C 6292   0.441   3.771   0.579  0.2661 -0.1235 -0.0686
  418TMC3     O 6293   0.389   3.846   0.500  0.4896 -0.1022 -0.3346
  418TMC3     H 6294   0.181   3.712   0.539 -2.1230 -1.2794 -0.5337
  418TMC3    H1 6295   0.502   3.667   0.817 -0.2664  1.7386  2.1923
  418TMC3    H2 6296   0.106   3.542   0.909  0.1678  2.6028  1.0430
  418TMC3    C7 6297   0.361   3.462   0.936  0.1937  0.6900 -1.0909
  418TMC3    C8 6298   0.035   3.524   0.659  0.3268  0.7861 -0.1236
  418TMC3    O1 6299   0.445   3.403   0.863  0.1229 -0.7832 -0.2174
  418TMC3    O2 6300   4.666   3.501   0.725  0.3950 -0.5446  0.0316
  419MPD2     C 6301   3.056   1.217  12.535  0.2193 -0.0230 -0.5089
  419MPD2    C1 6302   2.991   1.332  12.551  0.2301 -0.0383  0.4809
  419MPD2    C2 6303   2.934   1.365  12.671 -0.2320 -0.4936 -0.2763
  419MPD2    C3 6304   2.936   1.278  12.782 -0.1805 -0.0952  0.1119
  419MPD2    C4 6305   3.006   1.161  12.760 -0.4098  0.5985 -0.4545
  419MPD2    C5 6306   3.062   1.130  12.639 -0.0677 -0.4100  0.5418
  419MPD2     H 6307   2.893   1.464  12.688  1.0663  0.0108 -0.0767
  419MPD2    H1 6308   3.020   1.084  12.836 -1.6293  0.9605  0.1231
  419MPD2    H2 6309   3.112   1.193  12.445 -1.4127  0.4398 -1.6572
  419MPD2    H3 6310   3.119   1.038  12.629  0.0069 -0.0370 -2.4032
  419MPD2     N 6311   2.886   1.316  12.907  0.2836  0.2143 -0.3262
  419MPD2    H5 6312   2.840   1.405  12.920  1.2668  0.3378  2.3250
  419MPD2    N1 6313   2.985   1.433  12.449  0.1618  0.2190 -0.4536
  419MPD2    H7 6314   2.949   1.523  12.481 -0.1071  0.9227 -2.6985
  420TMC3    C1 6315   2.784   1.292  13.121 -0.3293 -0.0438 -0.5896
  420TMC3    C2 6316   2.722   1.418  13.106 -0.2250  0.5218 -0.3620
  420TMC3    C3 6317   2.618   1.450  13.191  0.1962  0.2785  0.0322
  420TMC3    C4 6318   2.751   1.213  13.231  0.3441  0.0848  0.5915
  420TMC3    C5 6319   2.663   1.263  13.330  0.9602 -0.3875  0.0793
  420TMC3    C6 6320   2.592   1.377  13.308  0.3293  0.3017  0.4893
  420TMC3     C 6321   2.877   1.243  13.022  0.5048 -0.3856  0.0102
  420TMC3     O 6322   2.916   1.128  13.034  0.4452  0.2277 -0.1736
  420TMC3     H 6323   2.747   1.486  13.026  1.4889  0.7976  0.3976
  420TMC3    H1 6324   2.806   1.121  13.247 -0.9472 -0.9090 -0.6168
  420TMC3    H2 6325   2.521   1.417  13.380 -1.9363  0.2475 -1.7023
  420TMC3    C7 6326   2.618   1.167  13.439 -0.3495 -0.0529  0.2946
  420TMC3    C8 6327   2.555   1.575  13.167  0.1769 -0.0553  0.1471
  420TMC3    O1 6328   2.698   1.080  13.468  0.3005  0.0689  0.2008
  420TMC3    O2 6329   2.623   1.665  13.119 -0.5160  0.2729 -0.2666
  421TMC3    C1 6330   0.516   2.701  13.510 -0.2748  0.3868  0.5374
  421TMC3    C2 6331   0.480   2.809  13.581  0.0126  0.3657 -1.0124
  421TMC3    C3 6332   0.556   2.845  13.691 -0.1966 -0.0010 -0.0555
  421TMC3    C4 6333   0.634   2.633  13.542 -0.3887 -0.2228 -0.0189
  421TMC3    C5 6334   0.709   2.675  13.647  0.3472  0.3083  0.3018
  421TMC3    C6 6335   0.673   2.784  13.722  0.3643 -0.1392 -0.9810
  421TMC3     C 6336   0.442   2.652  13.395 -0.1771  0.3043  0.2323
  421TMC3     O 6337   0.449   2.528  13.381  0.0873 -0.1188 -0.1973
  421TMC3     H 6338   0.392   2.866  13.551 -0.3325  0.4938  0.2515
  421TMC3    H1 6339   0.662   2.541  13.492  0.9154  0.6542 -0.8849
  421TMC3    H2 6340   0.711   2.797  13.823 -1.7725 -1.7810  0.0339
  421TMC3    C7 6341   0.804   2.586  13.720  0.3797 -0.1363 -0.5965
  421TMC3    C8 6342   0.473   2.867  13.811  0.4263  0.6535 -0.4544
  421TMC3    O1 6343   0.847   2.616  13.832  0.3201  0.3554 -0.0337
  421TMC3    O2 6344   0.500   2.805  13.915 -0.7314  0.7168 -0.1649
  422TMC3    C1 6345   1.908   4.411  12.248  0.5894 -0.3369  0.4684
  422TMC3    C2 6346   1.929   4.504  12.347  0.3095  0.5456 -0.7306
  422TMC3    C3 6347   1.814   4.537  12.425 -0.3504 -0.1471  0.2836
  422TMC3    C4 6348   1.790   4.352  12.225  0.2350  0.0210  0.1944
  422TMC3    C5 6349   1.681   4.379  12.308  0.0202  0.1764  0.4320
  422TMC3    C6 6350   1.691   4.477  12.406  0.6203 -0.1830 -0.3662
  422TMC3     C 6351   2.017   4.396  12.157  0.1403  0.5214  0.0011
  422TMC3     O 6352   2.131   4.420  12.197  0.0033  0.5615 -0.3890
  422TMC3     H 6353   2.032   4.537  12.359  0.1303  0.8179  0.0344
  422TMC3    H1 6354   1.782   4.275  12.150 -0.2634  0.5592 -0.3073
  422TMC3    H2 6355   1.601   4.499  12.463 -0.1567  0.2338 -1.7593
  422TMC3    C7 6356   1.546   4.347  12.258 -0.2544 -0.9166 -1.2020
  422TMC3    C8 6357   1.832   4.663  12.498 -1.0113 -0.0294  0.6477
  422TMC3    O1 6358   1.538   4.331  12.138  0.4340 -0.5940 -0.0122
  422TMC3    O2 6359   1.743   4.691  12.575  0.3782 -0.6193 -0.5106
  423MPD2     C 6360   3.950   0.453   0.463 -0.3356  0.2577  0.5636
  423MPD2    C1 6361   4.024   0.336   0.435 -0.4735  0.3791 -0.4794
  423MPD2    C2 6362   4.038   0.290   0.309  0.0476  0.5737 -0.0896
  423MPD2    C3 6363   3.998   0.361   0.202 -0.0044 -0.4137  0.1731
  423MPD2    C4 6364   3.939   0.485   0.226  0.1574 -0.3106 -0.5415
  423MPD2    C5 6365   3.903   0.527   0.357 -0.6581  0.2203 -0.9553
  423MPD2     H 6366   4.095   0.199   0.293 -0.9228 -0.0243 -0.1160
  423MPD2    H1 6367   3.921   0.551   0.143 -1.0866 -0.9757 -0.8072
  423MPD2    H2 6368   3.929   0.489   0.563  0.5826  2.0583  0.1068
  423MPD2    H3 6369   3.865   0.628   0.373  1.2630  0.5247  1.6943
  423MPD2     N 6370   4.021   0.322   0.072  0.0354  0.4754 -0.0708
  423MPD2    H5 6371   4.005   0.390  17.736 -0.1614 -1.7533 -2.0418
  423MPD2    N1 6372   4.101   0.288   0.546  0.5493  0.6064 -0.5614
  423MPD2    H7 6373   4.087   0.338   0.633 -2.0239 -2.4965  0.8216
  424TMC3    C1 6374   4.259   0.143   0.660  0.2763  0.0044 -0.4438
  424TMC3    C2 6375   4.383   0.087   0.644 -0.7867 -0.0830  0.0021
  424TMC3    C3 6376   4.448   0.043   0.754 -0.3613  0.6262  0.2007
  424TMC3    C4 6377   4.196   0.155   0.772  0.4467  0.9742 -0.3248
  424TMC3    C5 6378   4.258   0.108   0.884  0.1163  0.0595 -0.5675
  424TMC3    C6 6379   4.384   0.047   0.874  0.0457 -0.0079 -0.5081
  424TMC3     C 6380   4.188   0.180   0.535 -0.0796  0.7238 -0.3990
  424TMC3     O 6381   4.204   0.103   0.440  0.6762 -0.2746 -0.1679
  424TMC3     H 6382   4.427   0.084   0.545 -1.1427 -1.5329 -0.0988
  424TMC3    H1 6383   4.093   0.190   0.769 -1.0768 -3.5202 -0.7292
  424TMC3    H2 6384   4.433   0.006   0.961 -0.4211 -3.9044 -2.0525
  424TMC3    C7 6385   4.185   0.089   1.010  0.8471 -0.1137 -0.0318
  424TMC3    C8 6386   4.588   0.001   0.753  1.0381 -0.0318  0.2433
  424TMC3    O1 6387   4.239   0.027   1.096  0.1312 -0.1565 -0.0307
  424TMC3    O2 6388   4.632   4.682   0.856 -0.4347 -0.2076  0.5793
  425MPD2     C 6389   2.809   4.247  17.319  0.0579  0.6171  0.2995
  425MPD2    C1 6390   2.752   4.143  17.248  0.2311 -0.6079 -0.2504
  425MPD2    C2 6391   2.615   4.136  17.242  0.1593  0.8867  0.8761
  425MPD2    C3 6392   2.539   4.224  17.318 -0.5513  0.4201  0.7149
  425MPD2    C4 6393   2.595   4.329  17.390  0.2607  0.0696  0.1771
  425MPD2    C5 6394   2.733   4.341  17.380  0.2037 -0.9044  0.3870
  425MPD2     H 6395   2.571   4.049  17.194  0.6451  2.1336 -1.8377
  425MPD2    H1 6396   2.537   4.409  17.435 -2.2506 -1.2058 -0.8003
  425MPD2    H2 6397   2.915   4.270  17.309  0.0662  0.7298  0.6399
  425MPD2    H3 6398   2.785   4.423  17.428  0.3300 -0.8269  0.1229
  425MPD2     N 6399   2.400   4.215  17.302 -0.5965  0.8315 -0.0046
  425MPD2    H5 6400   2.368   4.135  17.248 -0.3659  0.7139  0.0306
  425MPD2    N1 6401   2.843   4.052  17.200  0.1103  0.2948 -0.3136
  425MPD2    H7 6402   2.939   4.067  17.231 -0.2766 -0.2585  1.1386
  426TMC3    C1 6403   2.907   3.833  17.144 -0.2100 -1.1359  0.0750
  426TMC3    C2 6404   2.922   3.737  17.051  0.6655  0.0251  0.1208
  426TMC3    C3 6405   2.987   3.615  17.093 -0.0620 -0.1434  0.2378
  426TMC3    C4 6406   2.941   3.819  17.277  0.0663 -0.4335 -0.9417
  426TMC3    C5 6407   3.012   3.707  17.309  0.3012  0.0142  0.3044
  426TMC3    C6 6408   3.034   3.608  17.225 -0.4625 -0.3169  0.1780
  426TMC3     C 6409   2.810   3.941  17.121 -0.6897  0.1673 -0.4314
  426TMC3     O 6410   2.713   3.912  17.059 -0.1212  0.4961  0.2894
  426TMC3     H 6411   2.892   3.767  16.951  1.7487  1.0592  0.1011
  426TMC3    H1 6412   2.926   3.902  17.346  4.2952  0.3411 -0.9423
  426TMC3    H2 6413   3.092   3.522  17.258 -0.3668 -1.0424 -1.9363
  426TMC3    C7 6414   3.044   3.681  17.449  0.0508  0.2524  0.2159
  426TMC3    C8 6415   2.999   3.505  16.991  0.0932 -0.2929 -0.1931
  426TMC3    O1 6416   3.054   3.569  17.491 -0.0296 -0.7299  0.2696
  426TMC3    O2 6417   2.935   3.515  16.888 -0.2223 -0.2109  0.3884
  427MPD2     C 6418   1.319   1.177  14.510  1.1632 -0.1425  0.2173
  427MPD2    C1 6419   1.301   1.151  14.639  0.3203  0.8697  0.4552
  427MPD2    C2 6420   1.175   1.146  14.695 -0.0822 -0.0891 -0.2172
  427MPD2    C3 6421   1.066   1.173  14.607  0.5303  0.4092 -0.2326
  427MPD2    C4 6422   1.092   1.205  14.474 -0.2510  0.4468  0.8433
  427MPD2    C5 6423   1.216   1.198  14.425  0.6986 -0.7418 -0.0951
  427MPD2     H 6424   1.179   1.108  14.796  1.2866  0.5207 -0.0485
  427MPD2    H1 6425   1.011   1.227  14.406  0.8689  0.7939 -0.3797
  427MPD2    H2 6426   1.417   1.173  14.465  1.9019 -0.6939  1.8969
  427MPD2    H3 6427   1.243   1.213  14.321  1.3538  0.9635  0.3168
  427MPD2     N 6428   0.930   1.172  14.652  0.4862 -0.0927  0.3631
  427MPD2    H5 6429   0.856   1.198  14.588  0.5308 -1.5114 -0.2807
  427MPD2    N1 6430   1.401   1.111  14.727  0.2056 -0.0602  0.3883
  427MPD2    H7 6431   1.368   1.090  14.821 -0.9748  0.7091  0.1493
  428TMC3    C1 6432   1.607   1.080  14.817  0.5931  0.4775  0.0609
  428TMC3    C2 6433   1.571   0.960  14.877 -0.3300 -0.8848 -0.4152
  428TMC3    C3 6434   1.641   0.911  14.979  0.1788 -0.4566  0.5018
  428TMC3    C4 6435   1.720   1.145  14.846 -0.2920  0.0090 -0.2897
  428TMC3    C5 6436   1.796   1.090  14.949  0.1324  0.0101 -0.1402
  428TMC3    C6 6437   1.753   0.977  15.019 -0.0229  0.1355  0.1478
  428TMC3     C 6438   1.534   1.130  14.710 -0.3991  0.7243 -0.4144
  428TMC3     O 6439   1.586   1.204  14.627 -0.3954  0.4080 -0.2788
  428TMC3     H 6440   1.485   0.903  14.846 -0.0396 -0.3610 -2.1508
  428TMC3    H1 6441   1.754   1.236  14.799  0.4719  0.8686  1.9019
  428TMC3    H2 6442   1.815   0.943  15.101 -1.1260 -0.9267  0.5412
  428TMC3    C7 6443   1.900   1.173  15.009 -0.7489 -0.5518  0.5667
  428TMC3    C8 6444   1.595   0.794  15.060 -0.4006 -0.7565  0.0952
  428TMC3    O1 6445   1.924   1.148  15.123  0.2075  0.3772 -0.0745
  428TMC3    O2 6446   1.673   0.738  15.132 -0.1405  0.0268  0.0532
  429MPD2     C 6447   2.901   1.193  17.585 -0.4419  0.5686  0.1085
  429MPD2    C1 6448   2.800   1.124  17.526  0.0520 -0.0105 -0.3998
  429MPD2    C2 6449   2.727   1.184  17.423  0.4249  0.1743  0.2209
  429MPD2    C3 6450   2.750   1.316  17.381  0.0083 -0.5217 -1.0521
  429MPD2    C4 6451   2.861   1.384  17.443  0.4270 -0.7666 -0.2075
  429MPD2    C5 6452   2.935   1.322  17.540  0.0399  0.1191 -0.6414
  429MPD2     H 6453   2.659   1.129  17.359 -0.3144  1.5631 -0.1707
  429MPD2    H1 6454   2.902   1.480  17.415 -2.7502  0.8396  0.7330
  429MPD2    H2 6455   2.972   1.152  17.656 -2.1106 -0.8281  0.9809
  429MPD2    H3 6456   3.022   1.369  17.585  0.1876  0.2681 -1.0829
  429MPD2     N 6457   2.681   1.370  17.271  0.5770  0.1560 -0.3323
  429MPD2    H5 6458   2.635   1.305  17.208 -0.5154  0.7296 -0.1353
  429MPD2    N1 6459   2.776   0.989  17.552 -0.1495 -0.0341  0.6499
  429MPD2    H7 6460   2.708   0.935  17.499 -1.0969  0.0761  1.7327
  430TMC3    C1 6461   2.651   1.538  17.109 -0.7817 -0.0668 -0.3317
  430TMC3    C2 6462   2.657   1.670  17.077 -0.1785  0.4909 -0.0375
  430TMC3    C3 6463   2.693   1.700  16.947 -0.5701 -0.0220 -0.5734
  430TMC3    C4 6464   2.685   1.441  17.016  0.0564  0.1290  0.1962
  430TMC3    C5 6465   2.719   1.481  16.891  0.3401  0.2998 -0.4735
  430TMC3    C6 6466   2.730   1.608  16.857  0.1555  0.5406 -0.4305
  430TMC3     C 6467   2.682   1.505  17.244 -0.1276 -0.1289 -0.3804
  430TMC3     O 6468   2.699   1.597  17.320 -1.0301  0.1877  0.2624
  430TMC3     H 6469   2.637   1.752  17.145  1.3035 -0.8748  2.0405
  430TMC3    H1 6470   2.668   1.335  17.033  1.9909 -0.7701 -3.3031
  430TMC3    H2 6471   2.795   1.635  16.774  1.9010  0.1940  0.8112
  430TMC3    C7 6472   2.779   1.386  16.800 -0.4617  0.3544 -0.4114
  430TMC3    C8 6473   2.654   1.835  16.901 -0.9520  0.1065 -0.8341
  430TMC3    O1 6474   2.828   1.287  16.851  0.4143 -0.5289 -0.1012
  430TMC3    O2 6475   2.569   1.886  16.969 -0.5247 -0.0077  0.2013
  431MPD2     C 6476   3.475   2.029  12.733  0.4553 -0.5171 -0.5455
  431MPD2    C1 6477   3.506   2.035  12.601 -0.5443 -0.3417 -0.5008
  431MPD2    C2 6478   3.416   1.992  12.507 -0.4841 -1.1242 -0.3197
  431MPD2    C3 6479   3.292   1.936  12.541 -0.2081  0.2687  0.8579
  431MPD2    C4 6480   3.256   1.943  12.672 -0.3150 -0.8934 -0.4026
  431MPD2    C5 6481   3.347   1.986  12.770  0.1183 -0.2947 -0.0175
  431MPD2     H 6482   3.458   1.974  12.409  1.2092 -2.0372  0.5658
  431MPD2    H1 6483   3.162   1.896  12.701 -0.5937 -0.6175 -0.8667
  431MPD2    H2 6484   3.539   2.055  12.816 -3.3074 -0.3429  2.2929
  431MPD2    H3 6485   3.326   1.990  12.876 -0.4454  1.9757 -0.2146
  431MPD2     N 6486   3.211   1.861  12.451  0.4589 -0.4754  0.0914
  431MPD2    H5 6487   3.131   1.812  12.489 -0.5648 -0.6883 -2.3299
  431MPD2    N1 6488   3.637   2.069  12.568  0.3472 -0.0810 -0.2457
  431MPD2    H7 6489   3.696   2.091  12.647  0.3803  1.2013 -0.6189
  432TMC3    C1 6490   3.115   1.782  12.247 -0.2158  0.8123 -0.9917
  432TMC3    C2 6491   3.129   1.777  12.115 -0.2896 -0.5993  0.2056
  432TMC3    C3 6492   3.108   1.658  12.049 -0.5517 -0.2153  0.0321
  432TMC3    C4 6493   3.086   1.669  12.318 -0.2975  0.7226 -0.5588
  432TMC3    C5 6494   3.035   1.557  12.243  0.5664  0.4709 -0.4342
  432TMC3    C6 6495   3.061   1.545  12.110  0.2772  0.2250  0.6832
  432TMC3     C 6496   3.203   1.882  12.312  0.8118 -0.3427 -0.2535
  432TMC3     O 6497   3.285   1.932  12.232 -0.4490 -0.4811  0.1580
  432TMC3     H 6498   3.153   1.870  12.065  2.9967 -1.5132  0.1432
  432TMC3    H1 6499   3.092   1.655  12.425 -0.6804  0.2580 -0.5965
  432TMC3    H2 6500   3.045   1.457  12.050  0.6126  0.3799  0.3619
  432TMC3    C7 6501   3.041   1.428  12.319 -0.8157 -0.2796  0.5053
  432TMC3    C8 6502   3.189   1.628  11.934 -0.6301 -0.1066 -0.1422
  432TMC3    O1 6503   3.109   1.344  12.264  0.1979  0.1315  0.2353
  432TMC3    O2 6504   3.187   1.522  11.880  0.5333 -0.0627  0.2110
  433MPD2     C 6505   2.018   1.099  10.671 -0.3056  0.3714 -0.4016
  433MPD2    C1 6506   1.974   0.983  10.730 -0.0134 -0.3715  0.0309
  433MPD2    C2 6507   1.972   0.974  10.873 -0.0839  0.1272 -0.2414
  433MPD2    C3 6508   2.030   1.076  10.947  0.0944 -0.0992  0.0616
  433MPD2    C4 6509   2.079   1.190  10.888  0.4326 -0.5446 -0.5123
  433MPD2    C5 6510   2.064   1.203  10.749 -0.8074  0.4166 -0.1837
  433MPD2     H 6511   1.929   0.883  10.915  2.9657 -0.8062  0.8230
  433MPD2    H1 6512   2.116   1.276  10.942 -1.6675 -1.0122  1.6683
  433MPD2    H2 6513   2.022   1.109  10.563 -2.4836  0.8406 -0.4220
  433MPD2    H3 6514   2.108   1.293  10.708  0.5030 -0.8966 -1.6983
  433MPD2     N 6515   2.033   1.049  11.085  0.0541  0.3509  0.1641
  433MPD2    H5 6516   1.973   0.979  11.127  0.0045 -0.3318 -1.0577
  433MPD2    N1 6517   1.945   0.870  10.643  0.6020  0.0768 -0.2736
  433MPD2    H7 6518   1.980   0.881  10.549  0.6471  1.3456 -0.1186
  434TMC3    C1 6519   1.957   0.644  10.596  0.3296 -0.2288 -0.0508
  434TMC3    C2 6520   2.035   0.554  10.662  0.2641  0.0581  0.5866
  434TMC3    C3 6521   2.144   0.500  10.597 -0.7047  0.4264 -0.5217
  434TMC3    C4 6522   1.990   0.679  10.465  0.2335  0.0278 -0.5055
  434TMC3    C5 6523   2.084   0.607  10.397  0.1135 -0.3161 -0.5064
  434TMC3    C6 6524   2.171   0.526  10.465 -0.5528  0.7420 -0.0042
  434TMC3     C 6525   1.919   0.746  10.689  0.9420 -0.0281 -0.5650
  434TMC3     O 6526   1.883   0.716  10.802  0.3620  0.0734  0.1670
  434TMC3     H 6527   2.015   0.539  10.768  0.3059  2.0612  0.8902
  434TMC3    H1 6528   1.919   0.725  10.398  1.8557  2.8376 -0.3117
  434TMC3    H2 6529   2.251   0.480  10.407 -0.0170 -0.1451  1.4543
  434TMC3    C7 6530   2.024   0.546  10.285 -0.1260 -0.0022 -0.8192
  434TMC3    C8 6531   2.212   0.403  10.682 -0.9221  0.1452  0.6410
  434TMC3    O1 6532   1.933   0.597  10.224  0.1199 -0.2000  0.4158
  434TMC3    O2 6533   2.201   0.411  10.805 -0.4852 -0.2118 -0.4196
  435MPD2     C 6534   4.663   0.069  15.204 -0.3901 -0.1228 -0.1095
  435MPD2    C1 6535   4.630   0.072  15.338  0.1869 -0.2446  0.3560
  435MPD2    C2 6536   4.715   0.010  15.432  0.5065 -0.3300 -0.1330
  435MPD2    C3 6537   0.096   4.676  15.394 -0.4100 -0.3367 -0.4097
  435MPD2    C4 6538   0.120   4.660  15.256  0.3549 -0.0366  0.5695
  435MPD2    C5 6539   0.037   4.723  15.163 -0.4514  0.2153  0.0170
  435MPD2     H 6540   4.698   0.024  15.538 -1.4119  0.8895 -0.6075
  435MPD2    H1 6541   0.207   4.609  15.216  1.0215  2.7039 -1.4389
  435MPD2    H2 6542   4.603   0.124  15.133 -2.3692 -1.5942  0.4158
  435MPD2    H3 6543   0.047   4.725  15.055 -1.0484  2.7744  0.0038
  435MPD2     N 6544   0.180   4.630  15.498  0.2696 -0.1591 -0.1657
  435MPD2    H5 6545   0.154   4.656  15.593 -0.1745 -1.6037  0.1117
  435MPD2    N1 6546   4.516   0.138  15.389 -0.5147 -0.9672 -0.6566
  435MPD2    H7 6547   4.495   0.125  15.487  0.0281 -0.4797 -0.4748
  436TMC3    C1 6548   4.189   0.257  15.579 -0.3991  0.0003 -0.5624
  436TMC3    C2 6549   4.295   0.211  15.509 -0.2829  0.2282 -0.4588
  436TMC3    C3 6550   4.334   0.281  15.407  0.2238  0.2439 -0.2000
  436TMC3    C4 6551   4.111   0.367  15.545  0.0746  0.2583  1.3533
  436TMC3    C5 6552   4.154   0.428  15.431 -0.3519 -0.1799 -0.6652
  436TMC3    C6 6553   4.265   0.389  15.359  0.3714  0.7316 -1.5054
  436TMC3     C 6554   4.140   0.172  15.689 -0.0766  0.7046  0.2223
  436TMC3     O 6555   4.186   0.065  15.698  0.5762  0.2341 -0.3966
  436TMC3     H 6556   4.352   0.128  15.548  1.9959  1.6277 -0.8430
  436TMC3    H1 6557   4.015   0.387  15.592  0.1720  1.2740  1.1405
  436TMC3    H2 6558   4.293   0.430  15.262  0.4599  0.3399 -1.6475
  436TMC3    C7 6559   4.104   0.564  15.402 -0.0331  0.4026 -0.3894
  436TMC3    C8 6560   4.431   0.227  15.318 -0.3219  0.6236 -0.7129
  436TMC3    O1 6561   4.132   0.622  15.297  0.2347 -0.1157 -0.3324
  436TMC3    O2 6562   4.437   0.270  15.202 -0.0621  0.6880  0.0293
  437TMC3    C1 6563   2.712   2.278  12.999 -0.4893 -0.3024 -0.8903
  437TMC3    C2 6564   2.607   2.253  13.085  0.2030 -0.1159  0.7466
  437TMC3    C3 6565   2.508   2.346  13.080 -0.3894 -0.5100 -0.9952
  437TMC3    C4 6566   2.712   2.382  12.908 -0.0860 -0.6322 -0.4238
  437TMC3    C5 6567   2.608   2.471  12.917  0.1387 -0.1289 -0.3619
  437TMC3    C6 6568   2.501   2.450  13.002 -0.3214 -0.0874  0.8818
  437TMC3     C 6569   2.822   2.186  12.987 -0.2748 -0.3518  0.4165
  437TMC3     O 6570   2.911   2.218  12.905  0.5727  0.4746 -0.1439
  437TMC3     H 6571   2.605   2.176  13.161 -1.9270 -1.3132 -0.5228
  437TMC3    H1 6572   2.794   2.396  12.838 -1.1642  1.2376 -1.2901
  437TMC3    H2 6573   2.410   2.510  13.004 -1.1242 -1.2280 -0.7457
  437TMC3    C7 6574   2.604   2.578  12.823  0.3612  0.2320  0.1632
  437TMC3    C8 6575   2.386   2.312  13.160 -0.2522 -0.6882 -0.2463
  437TMC3    O1 6576   2.494   2.610  12.790  0.4614 -0.7658 -0.0931
  437TMC3    O2 6577   2.355   2.197  13.187  0.7333 -0.6313  0.0328
  438MPD2     C 6578   0.403   3.135  16.328  0.2817  0.5120 -0.0113
  438MPD2    C1 6579   0.535   3.118  16.367  0.0059 -0.2488  0.2974
  438MPD2    C2 6580   0.577   3.167  16.485  0.4666 -1.2388  0.2440
  438MPD2    C3 6581   0.487   3.227  16.572  0.6612 -0.7057  0.5571
  438MPD2    C4 6582   0.354   3.251  16.532 -0.0966  0.2735 -0.7386
  438MPD2    C5 6583   0.321   3.210  16.408 -0.2065 -0.7031 -0.0208
  438MPD2     H 6584   0.684   3.161  16.501  0.7346  1.1610 -0.6319
  438MPD2    H1 6585   0.283   3.307  16.593  2.0585 -0.7323  2.7172
  438MPD2    H2 6586   0.351   3.089  16.245 -0.5160  0.6225  0.4267
  438MPD2    H3 6587   0.224   3.233  16.366 -0.1485  1.5370  1.0576
  438MPD2     N 6588   0.526   3.265  16.704  0.2147 -0.1290 -0.3372
  438MPD2    H5 6589   0.453   3.303  16.763 -0.9432 -0.4245 -1.6061
  438MPD2    N1 6590   0.630   3.039  16.300  0.3914 -0.0341 -0.4317
  438MPD2    H7 6591   0.717   3.026  16.350  1.0055  0.5125 -1.3531
  439TMC3    C1 6592   0.702   2.846  16.181  0.1034  0.7134  0.0779
  439TMC3    C2 6593   0.706   2.777  16.062 -0.2797  0.3383  0.0197
  439TMC3    C3 6594   0.768   2.659  16.068  0.3308  0.1569  0.5534
  439TMC3    C4 6595   0.785   2.819  16.288 -0.6245 -0.4408 -0.0912
  439TMC3    C5 6596   0.844   2.695  16.281 -0.0775 -0.2408 -0.1589
  439TMC3    C6 6597   0.837   2.615  16.174 -0.6643 -0.7664 -0.2824
  439TMC3     C 6598   0.600   2.952  16.198 -0.0399  0.5381  0.2047
  439TMC3     O 6599   0.502   2.947  16.131 -0.0136 -0.2445  0.2310
  439TMC3     H 6600   0.647   2.814  15.979 -1.4976 -0.6965  0.4164
  439TMC3    H1 6601   0.780   2.881  16.376  0.8726  0.2074 -0.4760
  439TMC3    H2 6602   0.898   2.525  16.170 -0.9111 -0.9009 -0.9730
  439TMC3    C7 6603   0.970   2.674  16.359  0.2427  0.0593 -0.4042
  439TMC3    C8 6604   0.798   2.588  15.941 -0.2072  0.2629 -0.4521
  439TMC3    O1 6605   1.016   2.564  16.385  0.5004  0.2471 -0.2492
  439TMC3    O2 6606   0.836   2.471  15.946  0.2030 -0.0555 -0.2243
  440MPD2     C 6607   3.867   2.590  14.657 -0.1523 -0.1596 -0.1436
  440MPD2    C1 6608   3.898   2.722  14.680  0.0567  1.0987 -0.5586
  440MPD2    C2 6609   4.001   2.763  14.769 -0.7726 -0.1196  0.5476
  440MPD2    C3 6610   4.072   2.658  14.824 -0.8529  0.3337 -0.7480
  440MPD2    C4 6611   4.046   2.526  14.792 -0.0009  0.6752 -0.5518
  440MPD2    C5 6612   3.941   2.490  14.714 -0.4798 -0.1324  0.4232
  440MPD2     H 6613   4.018   2.864  14.806  1.2105 -0.0293 -0.6035
  440MPD2    H1 6614   4.109   2.443  14.822 -0.9496 -0.6181 -2.1586
  440MPD2    H2 6615   3.780   2.563  14.598  0.5662  1.8579 -2.1483
  440MPD2    H3 6616   3.919   2.385  14.697 -2.0249  0.2185  0.2834
  440MPD2     N 6617   4.188   2.677  14.907  0.1413  0.1874  0.1407
  440MPD2    H5 6618   4.236   2.593  14.938 -0.7659 -1.4313 -2.9069
  440MPD2    N1 6619   3.818   2.825  14.617 -0.2878  0.4269  0.0585
  440MPD2    H7 6620   3.823   2.915  14.664 -0.2476  1.7476 -2.4761
  441TMC3    C1 6621   4.361   2.762  15.033 -0.4331 -0.6330  0.4243
  441TMC3    C2 6622   4.461   2.851  15.018  0.5829 -0.6347  0.3599
  441TMC3    C3 6623   4.568   2.842  15.105  0.1784  0.7774  0.7708
  441TMC3    C4 6624   4.363   2.661  15.134 -0.3034  0.3828 -1.0045
  441TMC3    C5 6625   4.470   2.667  15.223 -0.0002  0.0557  0.4094
  441TMC3    C6 6626   4.582   2.746  15.190  0.7156  0.1986  0.5697
  441TMC3     C 6627   4.240   2.790  14.955  0.5221 -0.7565 -0.3465
  441TMC3     O 6628   4.213   2.906  14.942 -0.3627 -0.4264  0.4242
  441TMC3     H 6629   4.453   2.939  14.955 -0.0740 -1.2623 -0.4292
  441TMC3    H1 6630   4.279   2.597  15.157  1.0422 -1.1365 -0.2984
  441TMC3    H2 6631   4.666   2.761  15.257  1.7141 -1.1516 -0.3781
  441TMC3    C7 6632   4.437   2.686  15.366 -0.1500 -0.1627 -0.7068
  441TMC3    C8 6633   4.593   2.976  15.167  0.8845 -0.1981 -0.4834
  441TMC3    O1 6634   4.342   2.760  15.385 -0.2273  0.0756  0.5274
  441TMC3    O2 6635   4.701   3.023  15.160  0.3101 -0.2079  0.0769
  442MPD2     C 6636   2.177   2.323  16.577  0.9387 -0.1838 -0.5298
  442MPD2    C1 6637   2.230   2.444  16.528  0.0678  0.4359 -0.2073
  442MPD2    C2 6638   2.207   2.478  16.394  0.6779 -0.1432 -0.1695
  442MPD2    C3 6639   2.144   2.389  16.312 -0.4304 -0.7241 -0.4241
  442MPD2    C4 6640   2.093   2.268  16.363 -0.2970  0.3629  0.0665
  442MPD2    C5 6641   2.116   2.234  16.490 -0.2693 -1.4717 -0.0454
  442MPD2     H 6642   2.231   2.582  16.372 -0.7557 -0.2822 -2.4619
  442MPD2    H1 6643   2.049   2.193  16.298 -1.5009 -1.1932  2.7100
  442MPD2    H2 6644   2.189   2.298  16.682 -1.4713 -0.6600 -0.3795
  442MPD2    H3 6645   2.090   2.137  16.529  2.3781 -2.4030 -0.5806
  442MPD2     N 6646   2.105   2.422  16.180  0.1100 -0.2555 -0.4038
  442MPD2    H5 6647   2.036   2.360  16.139 -0.3344  1.4215 -2.2105
  442MPD2    N1 6648   2.305   2.538  16.611 -0.5301 -0.0974 -0.5082
  442MPD2    H7 6649   2.337   2.622  16.563  1.1048 -0.6043 -0.2962
  443TMC3    C1 6650   2.384   2.630  16.806  0.1413 -0.0359 -0.1811
  443TMC3    C2 6651   2.480   2.693  16.735  0.3169 -0.6305 -0.1259
  443TMC3    C3 6652   2.480   2.829  16.724  0.0326 -0.2154 -1.1271
  443TMC3    C4 6653   2.290   2.705  16.874 -0.6350 -0.1972  0.1010
  443TMC3    C5 6654   2.310   2.843  16.882 -0.3017 -0.3123  0.6834
  443TMC3    C6 6655   2.411   2.909  16.817  0.2727 -0.3217 -0.5317
  443TMC3     C 6656   2.332   2.509  16.746 -0.0174  0.3160 -0.4685
  443TMC3     O 6657   2.284   2.429  16.825 -0.3701 -0.6659 -0.1040
  443TMC3     H 6658   2.544   2.641  16.664  2.1857  1.5748 -0.0570
  443TMC3    H1 6659   2.203   2.650  16.908 -1.4721  0.8874 -0.2835
  443TMC3    H2 6660   2.406   3.017  16.810 -2.3600 -0.4581 -0.5834
  443TMC3    C7 6661   2.197   2.914  16.936  0.5057  0.4610 -0.5193
  443TMC3    C8 6662   2.442   2.871  16.590  0.0724 -0.8245  0.2939
  443TMC3    O1 6663   2.088   2.863  16.959 -0.2807 -0.6612  0.3797
  443TMC3    O2 6664   2.395   2.781  16.525 -0.4810 -0.3875 -0.3722
  444MPD2     C 6665   2.468   3.200  17.364  0.5240  0.2417  0.6832
  444MPD2    C1 6666   2.381   3.112  17.308 -0.7339 -0.5650  0.2180
  444MPD2    C2 6667   2.428   2.999  17.236  0.2962 -0.6837  0.4293
  444MPD2    C3 6668   2.555   2.999  17.192  0.1314 -0.2688  0.3595
  444MPD2    C4 6669   2.637   3.106  17.226 -0.3537 -0.4631 -1.0275
  444MPD2    C5 6670   2.598   3.198  17.317 -0.1306  0.4106 -0.3850
  444MPD2     H 6671   2.366   2.916  17.204 -1.3084 -0.2554  2.4001
  444MPD2    H1 6672   2.734   3.125  17.182  0.1191 -0.4059  0.0458
  444MPD2    H2 6673   2.447   3.281  17.433  2.5346  0.4148  1.0743
  444MPD2    H3 6674   2.671   3.257  17.371 -0.2887 -0.0728  0.3566
  444MPD2     N 6675   2.599   2.892  17.109 -0.6060  0.4017 -0.0259
  444MPD2    H5 6676   2.546   2.806  17.117  2.0520 -0.9028  3.5402
  444MPD2    N1 6677   2.246   3.115  17.346 -0.1842 -0.1993  0.6130
  444MPD2    H7 6678   2.189   3.035  17.317  0.4084 -0.4313  0.1053
  445TMC3    C1 6679   2.747   2.770  16.967  0.0809  0.0489 -0.3257
  445TMC3    C2 6680   2.682   2.654  16.997  0.3572 -0.4835 -0.8582
  445TMC3    C3 6681   2.717   2.542  16.937 -0.1081 -0.1590 -0.2165
  445TMC3    C4 6682   2.840   2.774  16.869 -0.2931  0.8106 -0.1312
  445TMC3    C5 6683   2.868   2.664  16.797 -0.1132  0.3619  0.4458
  445TMC3    C6 6684   2.820   2.544  16.840 -0.1011  0.2571  0.0143
  445TMC3     C 6685   2.716   2.896  17.032 -0.2317  0.0697 -0.7450
  445TMC3     O 6686   2.770   3.000  16.996  0.1544  0.2133  0.4400
  445TMC3     H 6687   2.619   2.649  17.085  1.4779 -0.5757 -0.0518
  445TMC3    H1 6688   2.906   2.860  16.864  1.5428 -0.6588 -0.9946
  445TMC3    H2 6689   2.857   2.446  16.813 -1.7215 -0.2887 -0.2464
  445TMC3    C7 6690   2.961   2.677  16.688 -0.1930 -0.1367  0.0099
  445TMC3    C8 6691   2.675   2.412  16.993  0.6297 -0.3794  0.3480
  445TMC3    O1 6692   3.010   2.784  16.673  0.4640  0.2311  0.1841
  445TMC3    O2 6693   2.707   2.323  16.917  0.1945 -0.3264  0.1420
  446MPD2     C 6694   1.832   0.365  11.195 -0.4996 -0.5409  0.0737
  446MPD2    C1 6695   1.862   0.334  11.064 -0.7485  0.3415  0.7850
  446MPD2    C2 6696   1.957   0.422  11.006 -0.6529  0.8331  0.0816
  446MPD2    C3 6697   2.023   0.523  11.073 -0.0109 -0.3194  0.7616
  446MPD2    C4 6698   1.979   0.547  11.200  0.3825 -0.2440 -0.0720
  446MPD2    C5 6699   1.889   0.472  11.258  0.3887  0.1090 -0.8314
  446MPD2     H 6700   1.980   0.413  10.900  1.9446  1.0100  0.6500
  446MPD2    H1 6701   2.017   0.623  11.266 -2.5715  0.3593  0.9402
  446MPD2    H2 6702   1.757   0.312  11.253 -0.9827  0.8812  0.7475
  446MPD2    H3 6703   1.855   0.496  11.359 -0.6352  1.6095 -1.5412
  446MPD2     N 6704   2.129   0.584  11.014  0.1985  0.3984 -0.3843
  446MPD2    H5 6705   2.158   0.545  10.925 -2.2571  0.1483 -1.0590
  446MPD2    N1 6706   1.794   0.231  10.997  0.1029  0.1644  0.3584
  446MPD2    H7 6707   1.800   0.215  10.897  1.0362 -1.0050  0.6043
  447TMC3    C1 6708   2.314   0.721  10.986 -0.0358  0.2203 -0.1458
  447TMC3    C2 6709   2.279   0.781  10.872 -0.2759 -0.7766  0.1778
  447TMC3    C3 6710   2.366   0.857  10.807  0.1676 -0.2423 -0.2835
  447TMC3    C4 6711   2.424   0.755  11.052  0.0145 -0.3865  0.5848
  447TMC3    C5 6712   2.517   0.835  10.987  0.0635  0.4601 -0.2269
  447TMC3    C6 6713   2.491   0.886  10.859  0.0257 -0.2052 -0.1964
  447TMC3     C 6714   2.205   0.689  11.068  0.8751 -0.3158  0.4162
  447TMC3     O 6715   2.216   0.728  11.182 -1.0822  0.9274  0.2092
  447TMC3     H 6716   2.182   0.762  10.827  0.9012  0.0569 -2.6661
  447TMC3    H1 6717   2.443   0.701  11.143  1.7214  1.6868  1.4668
  447TMC3    H2 6718   2.562   0.936  10.795  0.4831 -1.0789 -0.3671
  447TMC3    C7 6719   2.652   0.846  11.039  0.4548  0.1752  0.5914
  447TMC3    C8 6720   2.314   0.935  10.697 -0.4655  0.0827 -0.3030
  447TMC3    O1 6721   2.742   0.879  10.963  0.4626  0.4952  0.1614
  447TMC3    O2 6722   2.253   0.879  10.609  0.0227 -0.3095 -0.1182
  448TMC3    C1 6723   1.493   4.477  17.420 -0.5049  0.5368 -0.5487
  448TMC3    C2 6724   1.443   4.439  17.297 -0.3141 -0.2987 -0.4350
  448TMC3    C3 6725   1.469   4.310  17.264  0.5127  0.1659 -1.0700
  448TMC3    C4 6726   1.557   4.396  17.510 -0.2391 -0.2918  0.0319
  448TMC3    C5 6727   1.583   4.269  17.469 -0.1497  0.2423  0.9104
  448TMC3    C6 6728   1.537   4.217  17.349 -0.6092  0.7494  0.5518
  448TMC3     C 6729   1.471   4.609  17.468 -0.4860  0.4917 -1.1602
  448TMC3     O 6730   1.522   4.639  17.578 -0.2078 -0.1025  0.0114
  448TMC3     H 6731   1.386   4.501  17.228  2.2330  3.0825  0.4936
  448TMC3    H1 6732   1.595   4.425  17.607 -1.0862  0.6724  0.0714
  448TMC3    H2 6733   1.532   4.109  17.344  0.3816  0.8670 -3.0685
  448TMC3    C7 6734   1.606   4.175  17.580  0.2453 -0.0102 -0.3523
  448TMC3    C8 6735   1.398   4.258  17.142  0.3287  0.1102  0.5174
  448TMC3    O1 6736   1.692   4.091  17.563  0.8401 -0.5245  0.1162
  448TMC3    O2 6737   1.381   4.136  17.146  0.0079  0.1234  0.4242
  449MPD2     C 6738   1.837   2.829  14.051  0.0778 -0.1525 -1.3871
  449MPD2    C1 6739   1.715   2.869  13.997 -0.0848 -0.5115 -0.6663
  449MPD2    C2 6740   1.608   2.774  13.997  0.8601 -0.1651 -0.2374
  449MPD2    C3 6741   1.625   2.638  14.028 -0.4721 -0.0152 -0.4576
  449MPD2    C4 6742   1.748   2.608  14.085  0.6491 -0.2918  0.7466
  449MPD2    C5 6743   1.849   2.698  14.098  0.0845  0.1863  0.6444
  449MPD2     H 6744   1.508   2.802  13.967  0.5028  0.8772  1.8975
  449MPD2    H1 6745   1.767   2.507  14.119  1.8611  0.1465  1.4095
  449MPD2    H2 6746   1.929   2.885  14.056  0.4057 -0.8509  0.4676
  449MPD2    H3 6747   1.945   2.666  14.135  0.7462 -0.2191 -1.3967
  449MPD2     N 6748   1.510   2.546  14.013 -0.2019  0.4538  0.6264
  449MPD2    H5 6749   1.425   2.599  14.003 -0.7216 -0.6049 -0.5350
  449MPD2    N1 6750   1.678   2.999  13.951 -0.5537  0.3203 -0.5329
  449MPD2    H7 6751   1.586   3.007  13.908  0.2633 -0.8173 -2.4758
  450TMC3    C1 6752   1.705   3.233  13.927 -0.1393  0.5347 -0.3313
  450TMC3    C2 6753   1.743   3.275  13.802 -0.0397 -0.5239 -0.3630
  450TMC3    C3 6754   1.647   3.307  13.706  0.5420 -0.2717  0.3196
  450TMC3    C4 6755   1.575   3.225  13.959 -0.3079 -1.0585  0.2754
  450TMC3    C5 6756   1.476   3.261  13.868  0.3665  0.2949  0.4114
  450TMC3    C6 6757   1.513   3.295  13.742  0.9923  0.0746 -0.2313
  450TMC3     C 6758   1.762   3.111  13.969 -0.5127  0.4706  0.2238
  450TMC3     O 6759   1.868   3.122  14.024  0.3241 -0.2740  0.1435
  450TMC3     H 6760   1.848   3.286  13.776 -0.0658 -1.5503 -0.8902
  450TMC3    H1 6761   1.540   3.201  14.059  0.3784 -1.1254  0.5020
  450TMC3    H2 6762   1.444   3.310  13.660  0.6537  2.5631  0.4971
  450TMC3    C7 6763   1.374   3.157  13.878  0.0475 -0.1460 -0.1755
  450TMC3    C8 6764   1.673   3.319  13.559  0.0138  0.6770 -0.2553
  450TMC3    O1 6765   1.422   3.049  13.876  0.0686  0.1003  0.3864
  450TMC3    O2 6766   1.583   3.359  13.486  0.0210  0.4627 -0.2532
  451MPD2     C 6767   3.769   1.794   0.253 -0.2698 -0.2074  0.4591
  451MPD2    C1 6768   3.753   1.688   0.334 -0.3621 -0.5196  0.3805
  451MPD2    C2 6769   3.858   1.597   0.361  0.0055  1.0492 -0.5318
  451MPD2    C3 6770   3.975   1.602   0.286  0.2086 -0.5940 -0.6396
  451MPD2    C4 6771   3.976   1.699   0.186  0.2991  0.4361  0.3860
  451MPD2    C5 6772   3.880   1.794   0.174  0.3294 -0.1836 -0.3483
  451MPD2     H 6773   3.844   1.522   0.438  3.8426  0.2429 -0.6287
  451MPD2    H1 6774   4.060   1.708   0.119  0.4275 -0.5900  0.4052
  451MPD2    H2 6775   3.696   1.872   0.234  0.6916  0.2831 -1.2665
  451MPD2    H3 6776   3.896   1.857   0.087  2.5639 -1.7637 -1.0690
  451MPD2     N 6777   4.079   1.508   0.312 -0.7157  0.5941 -0.0485
  451MPD2    H5 6778   4.050   1.430   0.370 -0.2801  0.2314 -0.3172
  451MPD2    N1 6779   3.629   1.680   0.401  0.4857  0.0789 -0.1615
  451MPD2    H7 6780   3.566   1.758   0.387 -1.2889 -1.6891 -2.0676
  452TMC3    C1 6781   4.302   1.428   0.312 -0.2481 -0.3384  0.2440
  452TMC3    C2 6782   4.263   1.362   0.423 -0.0209  0.2787 -0.4216
  452TMC3    C3 6783   4.341   1.263   0.476 -0.4014  0.1531 -0.2887
  452TMC3    C4 6784   4.422   1.408   0.258  0.5602  0.1080 -0.5132
  452TMC3    C5 6785   4.499   1.308   0.311  0.0527  0.4042  0.9526
  452TMC3    C6 6786   4.461   1.229   0.417  0.2748  0.9713 -0.5668
  452TMC3     C 6787   4.206   1.518   0.257  0.5865  0.4766 -0.0167
  452TMC3     O 6788   4.241   1.592   0.168  0.1564  0.2207  0.1177
  452TMC3     H 6789   4.184   1.401   0.486  0.1234 -2.4849  1.4833
  452TMC3    H1 6790   4.452   1.472   0.176 -1.7376  2.3167  0.3613
  452TMC3    H2 6791   4.524   1.160   0.472 -0.8894  1.0719  0.8781
  452TMC3    C7 6792   4.640   1.319   0.267  0.8664  0.2384 -0.2754
  452TMC3    C8 6793   4.314   1.219   0.615  0.2475 -0.0380 -0.0051
  452TMC3    O1 6794   4.677   1.425   0.221 -0.1306 -0.6408 -0.5893
  452TMC3    O2 6795   4.422   1.186   0.666 -0.6745 -0.0640  0.1749
  453TMC3    C1 6796   4.114   4.083  11.786  0.3666 -0.0874  0.1814
  453TMC3    C2 6797   3.997   4.018  11.756  0.4232 -0.4503 -0.9840
  453TMC3    C3 6798   4.007   3.941  11.644 -0.5285  0.1583  0.1134
  453TMC3    C4 6799   4.218   4.108  11.703 -0.7657 -0.3342  0.1212
  453TMC3    C5 6800   4.221   4.032  11.590  0.4838  0.8597 -0.0964
  453TMC3    C6 6801   4.114   3.948  11.560 -0.1926  0.3455  0.1154
  453TMC3     C 6802   4.152   4.083  11.923 -0.8286  0.0681  0.7044
  453TMC3     O 6803   4.268   4.120  11.945  0.1578 -0.3528 -0.2756
  453TMC3     H 6804   3.909   4.020  11.819 -1.0764 -0.4878 -3.0598
  453TMC3    H1 6805   4.309   4.153  11.742 -1.6130  2.2700 -0.9462
  453TMC3    H2 6806   4.113   3.895  11.466 -0.0567  0.5170  0.0193
  453TMC3    C7 6807   4.323   4.055  11.491 -0.5791  0.6388 -0.0858
  453TMC3    C8 6808   3.907   3.843  11.620  0.3365  0.0857 -0.2105
  453TMC3    O1 6809   4.331   3.971  11.400  0.3455  0.5717 -0.5480
  453TMC3    O2 6810   3.791   3.880  11.632 -0.3051 -0.2734 -0.0925
  454MPD2     C 6811   3.292   3.079  15.820 -0.3712 -0.3514 -0.7673
  454MPD2    C1 6812   3.168   3.019  15.814  0.4352 -0.0933 -0.0675
  454MPD2    C2 6813   3.066   3.040  15.899 -0.3072 -0.5596  0.1274
  454MPD2    C3 6814   3.081   3.140  15.994  0.2418  0.4758 -0.2056
  454MPD2    C4 6815   3.203   3.214  15.992  0.1785 -0.0049 -0.5599
  454MPD2    C5 6816   3.310   3.184  15.911  0.1195 -0.1864 -0.1091
  454MPD2     H 6817   2.975   2.984  15.878 -0.6953 -0.2742  1.0349
  454MPD2    H1 6818   3.224   3.301  16.053  0.1758  0.3956 -1.1316
  454MPD2    H2 6819   3.372   3.062  15.749  0.3356 -1.3869  0.2830
  454MPD2    H3 6820   3.401   3.243  15.917  0.4008 -0.7776  1.4100
  454MPD2     N 6821   2.992   3.159  16.095 -0.2734  0.4001  0.1110
  454MPD2    H5 6822   3.009   3.240  16.155 -1.6290  0.5288  0.3350
  454MPD2    N1 6823   3.142   2.931  15.712  0.4673 -0.5864 -0.1953
  454MPD2    H7 6824   3.048   2.893  15.701 -0.7689  1.9454  1.8783
  455TMC3    C1 6825   2.806   3.096  16.248  0.0118  0.1294 -0.2893
  455TMC3    C2 6826   2.876   3.145  16.353  0.3073  0.2665 -0.2366
  455TMC3    C3 6827   2.881   3.084  16.475 -0.6469 -0.0674  0.4979
  455TMC3    C4 6828   2.729   2.990  16.272 -0.7374 -0.0037  0.5309
  455TMC3    C5 6829   2.745   2.921  16.388 -0.0559  0.0199 -0.0840
  455TMC3    C6 6830   2.823   2.969  16.492  0.1088  0.3547  0.0015
  455TMC3     C 6831   2.875   3.082  16.118  0.2768 -0.1260  0.4378
  455TMC3     O 6832   2.835   2.980  16.064  0.4234  0.3670  0.0963
  455TMC3     H 6833   2.938   3.232  16.335 -0.6480  0.6612 -1.6928
  455TMC3    H1 6834   2.659   2.952  16.198 -1.3049 -2.0655  2.1044
  455TMC3    H2 6835   2.827   2.913  16.584  0.2425 -1.5085 -1.1341
  455TMC3    C7 6836   2.712   2.775  16.400 -0.3580 -0.1041  0.7066
  455TMC3    C8 6837   2.922   3.161  16.589 -0.7770 -0.6913  0.1614
  455TMC3    O1 6838   2.709   2.724  16.512 -0.3736 -0.6183  0.7161
  455TMC3    O2 6839   2.920   3.284  16.574  0.0761  0.3947 -0.5418
  456MPD2     C 6840   0.894   3.525  15.894 -0.2677  0.5783 -0.9958
  456MPD2    C1 6841   0.937   3.428  15.979 -0.0704  0.4316 -0.4650
  456MPD2    C2 6842   0.978   3.472  16.102 -0.8614 -0.6646  0.6295
  456MPD2    C3 6843   0.963   3.601  16.146  0.4099  0.4846 -0.2848
  456MPD2    C4 6844   0.906   3.696  16.063 -0.1489  0.0277  0.3902
  456MPD2    C5 6845   0.875   3.657  15.935  0.3399  0.0577 -0.9654
  456MPD2     H 6846   1.027   3.407  16.173 -0.6077 -0.2182  0.8594
  456MPD2    H1 6847   0.875   3.792  16.103  0.6446 -0.2716  1.7470
  456MPD2    H2 6848   0.875   3.496  15.791  1.9580 -1.5931 -0.7930
  456MPD2    H3 6849   0.854   3.734  15.862 -2.1615  0.9517  0.7029
  456MPD2     N 6850   1.022   3.632  16.271 -0.0835  0.3777  0.0609
  456MPD2    H5 6851   1.067   3.556  16.321 -0.1704 -0.3137 -0.9215
  456MPD2    N1 6852   0.958   3.296  15.932 -0.3417 -0.4292 -0.7113
  456MPD2    H7 6853   0.921   3.277  15.840  0.4151 -0.2425 -1.0576
  457TMC3    C1 6854   1.072   3.747  16.459 -0.3675  0.0017 -0.3282
  457TMC3    C2 6855   1.138   3.854  16.511 -0.4140  0.6422  0.4365
  457TMC3    C3 6856   1.151   3.845  16.652 -0.1298  0.3786 -0.3130
  457TMC3    C4 6857   1.038   3.632  16.524 -0.0521  0.1640  0.1278
  457TMC3    C5 6858   1.050   3.646  16.662 -0.1930  0.1113  0.0771
  457TMC3    C6 6859   1.101   3.750  16.727  0.5165 -0.6050 -0.0333
  457TMC3     C 6860   1.039   3.758  16.321  0.2181 -0.3757  0.6367
  457TMC3     O 6861   1.022   3.870  16.276 -0.4162  0.2924  0.1945
  457TMC3     H 6862   1.180   3.937  16.456 -0.5149 -0.3016 -1.0453
  457TMC3    H1 6863   0.984   3.548  16.482  0.3778  0.1305 -0.3524
  457TMC3    H2 6864   1.093   3.755  16.835 -0.7188 -1.1782 -0.1033
  457TMC3    C7 6865   0.979   3.552  16.743 -0.6075 -0.4460  0.2902
  457TMC3    C8 6866   1.182   3.966  16.726  0.0976 -0.1931 -0.9151
  457TMC3    O1 6867   1.008   3.436  16.719 -0.1397 -0.8641  0.2217
  457TMC3    O2 6868   1.181   3.949  16.848  0.0546 -0.2016  0.3202
  458MPD2     C 6869   2.814   2.947  12.528  0.2377  0.0692  0.0434
  458MPD2    C1 6870   2.913   2.875  12.599 -0.5172  0.4444  0.2961
  458MPD2    C2 6871   2.876   2.780  12.689  0.2878 -0.7189  0.8586
  458MPD2    C3 6872   2.747   2.746  12.715  0.0009  0.1421 -0.5714
  458MPD2    C4 6873   2.649   2.819  12.653 -0.6542  0.1440 -0.5070
  458MPD2    C5 6874   2.681   2.915  12.558 -0.3217  0.9173  0.2013
  458MPD2     H 6875   2.954   2.730  12.745 -1.3653 -3.3016  0.8277
  458MPD2    H1 6876   2.543   2.799  12.665 -0.9368  0.9325 -1.6492
  458MPD2    H2 6877   2.834   3.037  12.470  2.2616  0.2964  1.0927
  458MPD2    H3 6878   2.609   2.979  12.510 -2.0449 -0.6421  0.7293
  458MPD2     N 6879   2.726   2.637  12.803 -0.0676  0.1142  0.3832
  458MPD2    H5 6880   2.810   2.593  12.841  0.0841 -1.1651 -1.4549
  458MPD2    N1 6881   3.052   2.880  12.569 -0.9903 -0.2970  0.3353
  458MPD2    H7 6882   3.106   2.827  12.636  0.4419 -0.1375 -0.6959
  459TMC3    C1 6883   3.254   2.962  12.469 -0.5468 -0.0398 -0.2188
  459TMC3    C2 6884   3.313   3.046  12.381  0.5549 -0.6724  0.3127
  459TMC3    C3 6885   3.417   3.006  12.301  0.5081 -0.2588  0.2846
  459TMC3    C4 6886   3.320   2.843  12.493 -0.4379 -0.0536  0.2530
  459TMC3    C5 6887   3.439   2.817  12.424 -0.2321  0.5304 -0.0462
  459TMC3    C6 6888   3.485   2.891  12.323 -0.3843 -0.7849 -0.2550
  459TMC3     C 6889   3.109   2.964  12.471 -0.5874 -0.9260 -0.5206
  459TMC3     O 6890   3.048   3.026  12.384 -0.0830  0.3881 -0.3930
  459TMC3     H 6891   3.289   3.151  12.370 -0.2070 -1.0615 -1.8305
  459TMC3    H1 6892   3.289   2.769  12.566  1.9103 -0.3764  0.9307
  459TMC3    H2 6893   3.559   2.860  12.250  0.3803  1.2237 -0.3308
  459TMC3    C7 6894   3.536   2.738  12.493 -0.4420 -0.3041  0.2965
  459TMC3    C8 6895   3.492   3.105  12.229 -0.3258 -0.0630 -0.5850
  459TMC3    O1 6896   3.500   2.652  12.567  0.5333 -0.2524 -0.4646
  459TMC3    O2 6897   3.612   3.077  12.224  0.1473 -0.0383 -0.2837
  460MPD2     C 6898   2.440   1.270  10.619 -0.1816 -0.4345 -0.2657
  460MPD2    C1 6899   2.365   1.156  10.600  0.0773 -0.9181 -0.4749
  460MPD2    C2 6900   2.299   1.141  10.482  0.3364 -0.0444  0.1359
  460MPD2    C3 6901   2.306   1.240  10.382 -1.2722 -0.5413  0.2985
  460MPD2    C4 6902   2.391   1.346  10.407  0.3948  0.2064 -0.0788
  460MPD2    C5 6903   2.459   1.358  10.520  0.0923 -0.5063 -0.5945
  460MPD2     H 6904   2.235   1.056  10.464  0.5697 -0.1753 -0.0752
  460MPD2    H1 6905   2.399   1.429  10.338  3.1657  0.5390  0.6694
  460MPD2    H2 6906   2.491   1.282  10.714 -0.4294 -0.6970 -0.0973
  460MPD2    H3 6907   2.526   1.441  10.537 -2.3555  1.6429 -1.3950
  460MPD2     N 6908   2.213   1.240  10.270  0.5844  0.3202 -0.6294
  460MPD2    H5 6909   2.131   1.180  10.281  0.4825  0.6234  0.2749
  460MPD2    N1 6910   2.363   1.065  10.706  0.6345  0.3565 -0.1026
  460MPD2    H7 6911   2.406   1.090  10.794  0.5389  0.7182 -0.1603
  461TMC3    C1 6912   2.121   1.311  10.064 -0.3773  0.1130  0.8756
  461TMC3    C2 6913   2.053   1.197  10.037 -0.1114 -0.5703  0.3288
  461TMC3    C3 6914   1.980   1.194   9.916  0.2073 -0.0565  0.3470
  461TMC3    C4 6915   2.118   1.423   9.984  0.4220 -0.2092  0.4091
  461TMC3    C5 6916   2.030   1.420   9.876  0.1005 -0.4659 -0.9833
  461TMC3    C6 6917   1.965   1.304   9.836  0.0602 -0.2307  0.4016
  461TMC3     C 6918   2.233   1.315  10.157 -0.2672  1.0673 -0.0439
  461TMC3     O 6919   2.327   1.386  10.131 -0.4963  0.0456 -0.1723
  461TMC3     H 6920   2.072   1.109  10.097 -1.5009 -0.4373  0.9598
  461TMC3    H1 6921   2.170   1.509  10.025  1.0873 -0.3599 -0.1065
  461TMC3    H2 6922   1.907   1.303   9.744  0.3716  0.1076  0.1985
  461TMC3    C7 6923   1.998   1.543   9.798  0.1273  0.0058 -0.2087
  461TMC3    C8 6924   1.983   1.057   9.862  0.3478 -1.2546 -0.3808
  461TMC3    O1 6925   1.910   1.527   9.714  0.5892 -0.1077  1.0039
  461TMC3    O2 6926   2.042   0.972   9.931 -0.3947  0.1742 -0.3072
  462TMC3    C1 6927   2.665   1.400   0.299  0.4514  1.5447  0.4560
  462TMC3    C2 6928   2.762   1.359   0.387 -0.1332 -0.2075  0.7854
  462TMC3    C3 6929   2.811   1.231   0.371  0.2233  0.0715 -0.2916
  462TMC3    C4 6930   2.609   1.316   0.202  0.2792  0.2433 -0.2803
  462TMC3    C5 6931   2.654   1.189   0.202  0.4996 -0.0659 -0.1758
  462TMC3    C6 6932   2.761   1.147   0.281 -0.6609 -0.6014  0.8342
  462TMC3     C 6933   2.597   1.522   0.326  0.0089 -0.1079  0.8420
  462TMC3     O 6934   2.624   1.570   0.435 -0.0535 -0.1363 -0.5663
  462TMC3     H 6935   2.795   1.425   0.466  3.4210  0.8786 -1.6042
  462TMC3    H1 6936   2.512   1.340   0.159  1.0111  2.4220 -0.6770
  462TMC3    H2 6937   2.782   1.040   0.276  1.7696 -0.1078  0.4438
  462TMC3    C7 6938   2.569   1.085   0.151 -0.2581  0.0160 -0.0547
  462TMC3    C8 6939   2.955   1.235   0.384 -0.1101 -0.6063  0.0863
  462TMC3    O1 6940   2.571   0.978   0.210 -0.0691  0.1829 -0.1430
  462TMC3    O2 6941   3.001   1.338   0.424 -0.1951 -0.4552  0.0884
  463MPD2     C 6942   4.079   0.337   1.823 -0.1407  0.0332 -0.1986
  463MPD2    C1 6943   3.990   0.361   1.717  0.6891 -0.7031  0.3897
  463MPD2    C2 6944   4.011   0.453   1.622  0.0558  0.6182 -0.0188
  463MPD2    C3 6945   4.130   0.526   1.633  0.5726 -0.3907 -0.0751
  463MPD2    C4 6946   4.219   0.506   1.736  0.3452 -0.3191 -0.3258
  463MPD2    C5 6947   4.187   0.416   1.833  0.0127 -0.0391 -1.0819
  463MPD2     H 6948   3.940   0.469   1.542 -0.9474  3.6182  1.4789
  463MPD2    H1 6949   4.317   0.551   1.738  0.3561 -0.4334  1.5827
  463MPD2    H2 6950   4.065   0.271   1.908  1.4979  1.3547  1.1123
  463MPD2    H3 6951   4.260   0.416   1.912 -0.1603  0.5578 -0.9219
  463MPD2     N 6952   4.162   0.620   1.537  0.0004 -0.0437  0.6441
  463MPD2    H5 6953   4.253   0.664   1.534 -0.1669  0.2218 -0.5522
  463MPD2    N1 6954   3.864   0.299   1.705  0.0553 -0.1563 -0.6164
  463MPD2    H7 6955   3.806   0.333   1.629 -0.1198  3.0363  0.9244
  464TMC3    C1 6956   3.684   0.144   1.735  0.3740  0.2064  0.9020
  464TMC3    C2 6957   3.587   0.218   1.684  0.3005 -0.6531  0.4856
  464TMC3    C3 6958   3.490   0.161   1.598 -0.1661 -0.3383 -0.9067
  464TMC3    C4 6959   3.699   0.014   1.709  0.0441 -0.4378 -0.7665
  464TMC3    C5 6960   3.612   4.695   1.616  0.1457 -0.6021  0.5454
  464TMC3    C6 6961   3.513   0.036   1.556 -0.4089 -0.4307  0.0896
  464TMC3     C 6962   3.806   0.205   1.792 -0.3289  0.2159 -0.4043
  464TMC3     O 6963   3.853   0.154   1.893  0.7560  0.0370 -0.0930
  464TMC3     H 6964   3.584   0.322   1.712  1.0888 -0.5365  0.1521
  464TMC3    H1 6965   3.785   4.695   1.748  1.0848  2.3777  0.7699
  464TMC3    H2 6966   3.432   4.730   1.496  1.4528 -3.1311 -0.5832
  464TMC3    C7 6967   3.651   4.567   1.566 -0.2476 -0.1330  0.1414
  464TMC3    C8 6968   3.415   0.252   1.520  0.1874 -0.0597 -0.3658
  464TMC3    O1 6969   3.745   4.506   1.621 -0.3196  0.0827 -0.5171
  464TMC3    O2 6970   3.401   0.229   1.400 -0.2109 -0.0740 -0.0514
  465MPD2     C 6971   0.266   2.987  17.002 -0.0251 -0.2498 -0.3707
  465MPD2    C1 6972   0.158   3.032  17.061  1.2167  0.6154  0.0256
  465MPD2    C2 6973   0.053   3.085  16.982  0.0295  0.7035  0.1647
  465MPD2    C3 6974   0.053   3.086  16.848 -0.0317 -0.4682 -1.0942
  465MPD2    C4 6975   0.171   3.053  16.789  0.0686 -0.3829  0.6197
  465MPD2    C5 6976   0.271   2.991  16.863 -0.0556  0.1366  0.1810
  465MPD2     H 6977   4.697   3.119  17.031  0.3881  0.1715  1.2039
  465MPD2    H1 6978   0.186   3.058  16.681  1.1264 -0.6604  0.7568
  465MPD2    H2 6979   0.350   2.955  17.063  1.6000  0.9806 -1.9527
  465MPD2    H3 6980   0.358   2.966  16.804 -0.8326  0.3465 -1.0555
  465MPD2     N 6981   4.667   3.117  16.784 -0.1735  0.1817 -0.6759
  465MPD2    H5 6982   4.589   3.140  16.844  0.4947 -1.1924  0.7191
  465MPD2    N1 6983   0.135   3.042  17.203  0.2099 -0.4020 -0.1674
  465MPD2    H7 6984   0.046   3.083  17.226  0.6925  0.5163  0.0542
  466TMC3    C1 6985   4.368   3.368  16.699 -0.5579 -0.2081  0.4310
  466TMC3    C2 6986   4.397   3.461  16.603  0.3838 -0.1852  0.1048
  466TMC3    C3 6987   4.512   3.443  16.526  0.3748  0.2529 -0.0318
  466TMC3    C4 6988   4.448   3.257  16.716  0.2795  0.6352 -0.4992
  466TMC3    C5 6989   4.544   3.233  16.620 -0.2425  0.0428  0.0045
  466TMC3    C6 6990   4.573   3.326  16.522 -0.6581  0.4765 -0.1125
  466TMC3     C 6991   4.295   3.411  16.813  0.2361  0.0464  0.7628
  466TMC3     O 6992   4.312   3.353  16.919 -0.8012 -0.5181 -0.1560
  466TMC3     H 6993   4.342   3.553  16.592 -0.4781 -0.9222 -1.6769
  466TMC3    H1 6994   4.422   3.191  16.799  1.2750  2.1741  1.0312
  466TMC3    H2 6995   4.656   3.314  16.453 -1.8409 -1.4137 -1.1779
  466TMC3    C7 6996   4.654   3.146  16.650  0.6844 -0.7734  0.0182
  466TMC3    C8 6997   4.564   3.552  16.456  0.1837 -1.0897 -0.1381
  466TMC3    O1 6998   4.732   3.122  16.558  0.0774 -0.1826 -0.0696
  466TMC3    O2 6999   4.618   3.528  16.349 -0.2875  0.3297 -0.4403
  467TMC3    C1 7000   0.591   1.790  13.740 -0.9658  0.8730 -0.4225
  467TMC3    C2 7001   0.528   1.906  13.704 -0.8411 -0.5997 -0.2564
  467TMC3    C3 7002   0.395   1.902  13.680  0.1123  0.8941  0.2150
  467TMC3    C4 7003   0.528   1.669  13.726 -0.1199 -0.0945  0.0460
  467TMC3    C5 7004   0.391   1.669  13.706  0.4346  0.0778  0.1962
  467TMC3    C6 7005   0.321   1.788  13.686  0.9747 -0.6745 -0.0608
  467TMC3     C 7006   0.730   1.788  13.755 -0.2167 -0.2391 -0.1764
  467TMC3     O 7007   0.774   1.886  13.811  0.1002  0.1280  0.1475
  467TMC3     H 7008   0.583   1.999  13.700 -0.6230 -0.6573  1.5342
  467TMC3    H1 7009   0.581   1.576  13.742  0.0356  0.1272  0.8149
  467TMC3    H2 7010   0.214   1.805  13.685  1.2400  1.0942  0.1653
  467TMC3    C7 7011   0.325   1.560  13.776  0.6691  0.1975 -0.7397
  467TMC3    C8 7012   0.348   2.013  13.595 -0.4149 -0.3874 -0.2561
  467TMC3    O1 7013   0.394   1.511  13.868 -0.7508 -1.0921  0.0252
  467TMC3    O2 7014   0.428   2.103  13.580 -0.4660 -0.0430  0.0131
  468MPD2     C 7015   4.090   0.468  11.027  0.2537  0.5595 -0.2288
  468MPD2    C1 7016   4.229   0.457  11.005 -0.4162  0.6108 -0.4100
  468MPD2    C2 7017   4.288   0.330  10.986 -0.0129  0.8327 -0.1240
  468MPD2    C3 7018   4.206   0.217  10.985  0.1498  0.6915  0.6472
  468MPD2    C4 7019   4.073   0.237  11.007  0.0741  0.1719 -0.3441
  468MPD2    C5 7020   4.019   0.351  11.037 -0.2284  0.6334 -0.3146
  468MPD2     H 7021   4.393   0.324  10.959 -0.0135  0.7391 -0.1059
  468MPD2    H1 7022   4.007   0.155  10.983  1.3235 -1.6279  2.3697
  468MPD2    H2 7023   4.036   0.560  11.052 -1.9193 -1.4339  2.4439
  468MPD2    H3 7024   3.911   0.355  11.049 -0.3564  0.9558 -1.5935
  468MPD2     N 7025   4.253   0.086  10.946 -0.0143 -0.4998  0.0665
  468MPD2    H5 7026   4.186   0.011  10.963 -1.8760  1.5137  1.6012
  468MPD2    N1 7027   4.319   0.571  11.009  0.1133 -0.3207 -0.2643
  468MPD2    H7 7028   4.418   0.554  10.995  0.2174 -0.6997  0.8898
  469TMC3    C1 7029   4.380   0.802  11.022  0.2592 -0.2852 -0.0758
  469TMC3    C2 7030   4.506   0.782  11.061 -0.4530 -0.3754 -0.4286
  469TMC3    C3 7031   4.597   0.873  11.012  0.6728  0.2552 -0.1622
  469TMC3    C4 7032   4.345   0.884  10.922  0.2640 -0.3161  0.1272
  469TMC3    C5 7033   4.446   0.951  10.860 -0.2125  0.1862  0.2002
  469TMC3    C6 7034   4.570   0.966  10.916  0.2474 -0.0975  0.5623
  469TMC3     C 7035   4.281   0.698  11.050 -0.3050  0.7026 -0.0825
  469TMC3     O 7036   4.170   0.750  11.069  0.7821  0.0247 -0.1478
  469TMC3     H 7037   4.524   0.698  11.126  0.0573  2.6271  3.3439
  469TMC3    H1 7038   4.250   0.865  10.875 -0.4770  2.0703  0.6667
  469TMC3    H2 7039   4.648   1.024  10.867  0.0729 -0.7276 -0.4708
  469TMC3    C7 7040   4.412   1.059  10.775 -0.9010 -0.0849 -0.1084
  469TMC3    C8 7041   4.732   0.866  11.063 -0.8238  0.5012 -0.1501
  469TMC3    O1 7042   4.483   1.060  10.675 -0.2303  0.2682 -0.0755
  469TMC3    O2 7043   0.088   0.898  10.985 -0.1018  0.5036  0.1568
  470TMC3    C1 7044   1.538   0.481   0.544  0.6009 -0.0068 -0.2771
  470TMC3    C2 7045   1.600   0.581   0.614  0.8248  0.6616 -0.6095
  470TMC3    C3 7046   1.603   0.578   0.752  0.8021  0.2128  0.0358
  470TMC3    C4 7047   1.461   0.381   0.604 -0.2818  0.5185  0.5367
  470TMC3    C5 7048   1.456   0.390   0.740  0.1817 -0.7811  0.9447
  470TMC3    C6 7049   1.530   0.481   0.816 -0.8419 -0.0505  0.1205
  470TMC3     C 7050   1.575   0.461   0.404 -1.0062 -0.4596  0.5626
  470TMC3     O 7051   1.521   0.374   0.342  0.1231 -0.3932 -0.3562
  470TMC3     H 7052   1.647   0.670   0.574 -0.0065  1.1331 -0.5390
  470TMC3    H1 7053   1.402   0.306   0.552 -2.3819  1.7244  1.1829
  470TMC3    H2 7054   1.542   0.456   0.921  0.8153 -0.1997 -0.1152
  470TMC3    C7 7055   1.386   0.284   0.799  0.3738 -0.6856  0.2868
  470TMC3    C8 7056   1.720   0.638   0.814  0.3553  0.1647 -0.2266
  470TMC3    O1 7057   1.367   0.182   0.735  0.1739 -0.6086 -0.0496
  470TMC3    O2 7058   1.801   0.679   0.733  0.0953 -0.3390 -0.2113
  471MPD2     C 7059   2.429   2.056  16.499  0.0462  0.2369 -0.2970
  471MPD2    C1 7060   2.523   1.965  16.453  0.1937 -0.5524  0.6604
  471MPD2    C2 7061   2.614   1.910  16.542  0.1765 -0.4883  0.5329
  471MPD2    C3 7062   2.600   1.931  16.679  0.1669 -0.3152 -0.5517
  471MPD2    C4 7063   2.504   2.020  16.727  0.0623  0.8479  0.4478
  471MPD2    C5 7064   2.429   2.089  16.632  0.4164 -0.2740 -0.1776
  471MPD2     H 7065   2.689   1.838  16.513 -0.1011 -0.3289 -0.6137
  471MPD2    H1 7066   2.499   2.052  16.830 -0.9621  0.6752  0.4576
  471MPD2    H2 7067   2.350   2.108  16.446 -0.3820 -0.5314 -0.4129
  471MPD2    H3 7068   2.356   2.158  16.672 -0.8443 -1.5835 -0.2096
  471MPD2     N 7069   2.683   1.860  16.765 -0.4656 -0.4065  0.9585
  471MPD2    H5 7070   2.750   1.801  16.718 -0.4664 -0.3652  0.9050
  471MPD2    N1 7071   2.535   1.932  16.320 -0.4571 -0.4995  0.3844
  471MPD2    H7 7072   2.609   1.867  16.294 -0.7371 -0.2713 -0.9504
  472TMC3    C1 7073   2.481   1.872  16.113 -0.2752  0.1546  0.5519
  472TMC3    C2 7074   2.437   1.902  15.983  0.5020 -0.1334  0.5064
  472TMC3    C3 7075   2.458   1.805  15.889 -0.8802  0.7214 -0.1146
  472TMC3    C4 7076   2.531   1.747  16.147  0.6631  0.4693  0.1330
  472TMC3    C5 7077   2.547   1.657  16.052  0.0492  0.7361  0.0690
  472TMC3    C6 7078   2.511   1.689  15.921  0.3396  0.4396 -0.0090
  472TMC3     C 7079   2.455   1.969  16.214  0.0662  0.0165 -0.1934
  472TMC3     O 7080   2.371   2.061  16.196  0.3907 -0.1486 -0.2380
  472TMC3     H 7081   2.369   1.985  15.966  0.7807 -0.1294 -0.6098
  472TMC3    H1 7082   2.523   1.711  16.249  1.0006  1.0101  0.3531
  472TMC3    H2 7083   2.485   1.612  15.850  0.1015 -0.8069  1.4253
  472TMC3    C7 7084   2.551   1.518  16.094 -0.6155  0.1490 -0.0708
  472TMC3    C8 7085   2.363   1.792  15.784  0.0616  0.1222 -0.4074
  472TMC3    O1 7086   2.519   1.490  16.204  0.6152  0.0640  0.2078
  472TMC3    O2 7087   2.401   1.805  15.671 -0.1175 -0.6850  0.3263
  473MPD2     C 7088   1.876   4.137  14.113 -0.1337 -0.2934  0.3575
  473MPD2    C1 7089   1.806   4.247  14.072 -0.5593 -0.5550 -0.1751
  473MPD2    C2 7090   1.817   4.362  14.145 -0.2255  0.1823 -0.1929
  473MPD2    C3 7091   1.887   4.370  14.257  0.5122 -0.1881  0.2463
  473MPD2    C4 7092   1.952   4.251  14.305  0.6781 -0.3755 -0.8177
  473MPD2    C5 7093   1.945   4.142  14.233 -1.7011 -0.0205  0.0591
  473MPD2     H 7094   1.751   4.442  14.113 -1.7335 -0.7247  0.6230
  473MPD2    H1 7095   2.011   4.256  14.396 -0.1101 -0.0024 -0.3227
  473MPD2    H2 7096   1.873   4.044  14.059  1.8465  1.0402 -2.0917
  473MPD2    H3 7097   1.995   4.050  14.261  0.6028  1.4566  0.7785
  473MPD2     N 7098   1.908   4.491  14.325 -0.0435 -0.1167 -0.4077
  473MPD2    H5 7099   1.957   4.482  14.413  1.2403  1.4354 -0.9727
  473MPD2    N1 7100   1.740   4.252  13.946 -0.4353 -0.4820  0.1590
  473MPD2    H7 7101   1.715   4.346  13.916  1.9714  0.7200  1.8807
  474TMC3    C1 7102   1.922   0.003  14.347 -0.6789 -0.7019 -0.4240
  474TMC3    C2 7103   1.922   0.121  14.274  0.3112  0.4692  0.2405
  474TMC3    C3 7104   1.999   0.221  14.337  0.1421  0.8848  0.3912
  474TMC3    C4 7105   2.005   4.719  14.456 -0.8104  0.4739  0.4832
  474TMC3    C5 7106   2.074   0.082  14.511 -0.4917  0.0831 -0.0843
  474TMC3    C6 7107   2.076   0.203  14.448 -0.6186 -0.2338 -0.5934
  474TMC3     C 7108   1.866   4.617  14.280  0.4046  0.5190 -0.0462
  474TMC3     O 7109   1.805   4.645  14.177  0.1287 -0.3661  1.0244
  474TMC3     H 7110   1.869   0.124  14.179  1.0687 -0.9536 -0.2269
  474TMC3    H1 7111   2.004   4.621  14.501 -1.6055  0.3473  0.1987
  474TMC3    H2 7112   2.145   0.285  14.464  0.9801 -1.4366 -1.1811
  474TMC3    C7 7113   2.190   0.042  14.580 -0.5289  0.3110 -0.0681
  474TMC3    C8 7114   2.009   0.342  14.271 -1.0072  0.2811 -0.2026
  474TMC3    O1 7115   2.186   4.725  14.689  0.4681  0.3434 -0.2893
  474TMC3    O2 7116   2.019   0.439  14.339  0.3559  0.4278  0.0126
  475MPD2     C 7117   0.025   2.966  11.164 -0.2210  0.3493  0.1067
  475MPD2    C1 7118   0.088   3.045  11.076 -0.6568 -0.2174 -0.2367
  475MPD2    C2 7119   0.017   3.137  11.000 -0.0268  0.2028  0.0804
  475MPD2    C3 7120   4.612   3.141  11.009 -0.8979 -0.4090  0.8134
  475MPD2    C4 7121   4.556   3.064  11.104  0.2335  0.0175  0.1136
  475MPD2    C5 7122   4.628   2.973  11.176  0.0209 -0.6522  0.0908
  475MPD2     H 7123   0.065   3.203  10.929  0.4121  0.2361  0.3990
  475MPD2    H1 7124   4.450   3.060  11.125  0.4021  0.5915  1.0382
  475MPD2    H2 7125   0.071   2.887  11.222 -2.4647  0.8800  2.6028
  475MPD2    H3 7126   4.579   2.908  11.248 -1.7504  1.0020  0.3877
  475MPD2     N 7127   4.536   3.225  10.915  0.7389 -0.4575 -0.1709
  475MPD2    H5 7128   4.585   3.287  10.850 -0.8648  3.4566  2.3201
  475MPD2    N1 7129   0.225   3.014  11.065  0.2236  0.0326  0.9901
  475MPD2    H7 7130   0.267   2.950  11.132 -0.0086 -0.4925  0.6397
  476TMC3    C1 7131   0.445   3.040  10.995 -0.6856 -1.0855  1.2465
  476TMC3    C2 7132   0.529   3.058  10.892  0.3030 -0.8812  0.9585
  476TMC3    C3 7133   0.652   3.118  10.913 -0.7322  0.0384  0.1824
  476TMC3    C4 7134   0.486   3.054  11.127 -0.1663  0.0851  0.0952
  476TMC3    C5 7135   0.616   3.096  11.146  0.1217  0.4886 -0.7128
  476TMC3    C6 7136   0.702   3.126  11.045 -0.2622 -0.2584 -0.0242
  476TMC3     C 7137   0.306   3.061  10.959 -0.6334 -0.4012 -0.4747
  476TMC3     O 7138   0.278   3.136  10.868 -0.1429 -0.0216 -0.2908
  476TMC3     H 7139   0.484   3.047  10.794 -1.6065  2.1930  1.4603
  476TMC3    H1 7140   0.422   3.032  11.212 -1.7233  1.1693 -0.8085
  476TMC3    H2 7141   0.798   3.172  11.066 -0.3612  0.4825 -1.1958
  476TMC3    C7 7142   0.650   3.154  11.272  0.2338  0.5634  0.5322
  476TMC3    C8 7143   0.699   3.198  10.802  0.6766  0.5643  0.4504
  476TMC3    O1 7144   0.615   3.091  11.373  0.1815 -0.2942 -0.3549
  476TMC3    O2 7145   0.652   3.186  10.689 -0.4319 -0.0432  0.1143
  477MPD2     C 7146   3.054   4.670  11.734 -0.5313 -0.8568 -0.0301
  477MPD2    C1 7147   2.969   4.613  11.656 -0.2426 -0.1282  0.0754
  477MPD2    C2 7148   2.932   4.481  11.686 -0.5693  0.0934  0.8541
  477MPD2    C3 7149   2.978   4.415  11.803  0.4982 -0.2319  0.0810
  477MPD2    C4 7150   3.060   4.488  11.887 -1.1743 -0.5496 -0.1993
  477MPD2    C5 7151   3.097   4.617  11.856 -0.2085 -0.4621  0.3545
  477MPD2     H 7152   2.863   4.436  11.615  0.3765 -1.5061  0.9652
  477MPD2    H1 7153   3.098   4.455  11.983 -0.5401 -0.8455 -0.5500
  477MPD2    H2 7154   3.100   0.028  11.701 -1.0891 -0.9680 -1.0956
  477MPD2    H3 7155   3.167   4.670  11.920  0.9046 -2.0550  0.4386
  477MPD2     N 7156   2.926   4.288  11.833 -0.2629  0.6707 -0.2474
  477MPD2    H5 7157   2.877   4.234  11.763  0.5683  0.8762 -0.9827
  477MPD2    N1 7158   2.930   4.699  11.542  0.0633  0.1953  0.2506
  477MPD2    H7 7159   2.953   0.062  11.544  0.3941  0.1528 -1.5068
  478TMC3    C1 7160   2.812   0.030  11.350  0.3480 -0.1852 -0.2476
  478TMC3    C2 7161   2.795   0.163  11.394  0.1699 -0.4178 -0.5281
  478TMC3    C3 7162   2.767   0.261  11.304 -0.2256 -0.0370 -0.0052
  478TMC3    C4 7163   2.787   4.728  11.220  0.4736 -0.0423  0.0113
  478TMC3    C5 7164   2.759   0.101  11.134 -0.2860 -0.0640 -0.5357
  478TMC3    C6 7165   2.738   0.230  11.174 -0.0952  0.0852  0.2209
  478TMC3     C 7166   2.852   4.654  11.440 -0.2371 -0.3135 -0.3914
  478TMC3     O 7167   2.811   4.543  11.412  0.0663 -0.1844  0.3563
  478TMC3     H 7168   2.812   0.184  11.499 -0.0197 -1.4928 -0.2806
  478TMC3    H1 7169   2.784   4.625  11.186 -1.1926  0.2160 -0.6162
  478TMC3    H2 7170   2.719   0.310  11.104 -1.4701 -1.4483 -1.1514
  478TMC3    C7 7171   2.701   0.060  11.006 -0.4036  0.3417  0.4108
  478TMC3    C8 7172   2.698   0.379  11.351  0.2638  0.1795 -0.3502
  478TMC3    O1 7173   2.731   4.682  10.962 -0.0052  0.3400  1.1958
  478TMC3    O2 7174   2.619   0.425  11.274  0.6242  0.1661  0.0315
  479MPD2     C 7175   2.094   1.472  14.899 -0.1411 -0.2914  0.0941
  479MPD2    C1 7176   2.058   1.365  14.979  0.2073  0.2862  0.1947
  479MPD2    C2 7177   2.109   1.368  15.108 -0.6085  0.5275  0.0170
  479MPD2    C3 7178   2.173   1.476  15.159 -0.6927 -0.1029 -0.0202
  479MPD2    C4 7179   2.209   1.579  15.078 -0.2234  0.2389  0.0854
  479MPD2    C5 7180   2.166   1.575  14.954 -0.6275 -0.1764 -0.7608
  479MPD2     H 7181   2.099   1.285  15.177 -1.2273  1.1917  0.7189
  479MPD2    H1 7182   2.269   1.659  15.119  1.2561  0.4220 -2.4002
  479MPD2    H2 7183   2.056   1.494  14.800  2.6814 -1.6520 -1.2854
  479MPD2    H3 7184   2.194   1.663  14.896  2.5287 -1.6627 -1.4684
  479MPD2     N 7185   2.200   1.483  15.297 -0.1362 -0.0939 -0.4053
  479MPD2    H5 7186   2.258   1.560  15.327 -0.4292 -0.2003  0.4356
  479MPD2    N1 7187   1.957   1.271  14.934  0.0714  1.2592 -0.3329
  479MPD2    H7 7188   1.930   1.283  14.837 -0.4615 -1.1034 -0.4796
  480TMC3    C1 7189   1.914   1.165  15.507  0.1913 -0.7357 -0.4248
  480TMC3    C2 7190   1.800   1.201  15.438  0.0752 -0.3894  0.6601
  480TMC3    C3 7191   1.807   1.313  15.360  0.5254 -0.6472 -0.4966
  480TMC3    C4 7192   2.028   1.233  15.494 -0.3173 -0.6074  0.7739
  480TMC3    C5 7193   2.028   1.335  15.406 -0.2858 -0.3680 -0.6699
  480TMC3    C6 7194   1.921   1.393  15.351  0.1498  0.3083 -0.0589
  480TMC3     C 7195   1.895   1.056  15.604  0.5116 -0.7084 -0.2072
  480TMC3     O 7196   1.800   0.978  15.587  0.3380 -0.5504 -0.2561
  480TMC3     H 7197   1.703   1.156  15.456 -0.6131  1.0267  0.4657
  480TMC3    H1 7198   2.113   1.188  15.544  0.0933 -0.4332  0.2274
  480TMC3    H2 7199   1.934   1.481  15.289 -0.3765  0.1751 -0.3619
  480TMC3    C7 7200   2.161   1.398  15.400 -0.8939 -0.1295 -0.1687
  480TMC3    C8 7201   1.691   1.330  15.276  0.8530 -0.8910  0.2752
  480TMC3    O1 7202   2.213   1.394  15.512 -0.2698 -0.4260 -0.1618
  480TMC3    O2 7203   1.582   1.282  15.311  0.3246  0.5887 -0.1021
  481MPD2     C 7204   3.158   0.758  13.789  0.3789 -0.0468  0.1001
  481MPD2    C1 7205   3.066   0.703  13.871  0.1995  0.0147  0.0844
  481MPD2    C2 7206   3.093   0.693  14.007 -0.0314 -0.5448  0.0800
  481MPD2    C3 7207   3.210   0.729  14.064  0.3716  0.2389  0.1295
  481MPD2    C4 7208   3.310   0.767  13.980 -0.2390 -0.6253 -0.4839
  481MPD2    C5 7209   3.281   0.788  13.846 -0.0288  0.1172 -0.2530
  481MPD2     H 7210   3.019   0.658  14.078 -0.7881  1.9362  0.5088
  481MPD2    H1 7211   3.408   0.796  14.016 -1.1389  0.9668  0.6852
  481MPD2    H2 7212   3.149   0.760  13.681 -2.8997 -0.4887  0.3687
  481MPD2    H3 7213   3.364   0.822  13.786  0.9130 -0.4987  0.7022
  481MPD2     N 7214   3.243   0.720  14.202  0.2631  0.3290 -0.3148
  481MPD2    H5 7215   3.338   0.745  14.230 -0.0422  0.8680  0.2405
  481MPD2    N1 7216   2.939   0.663  13.822 -0.5534 -0.0022  0.3323
  481MPD2    H7 7217   2.922   0.696  13.727  0.9790 -0.1596  0.0026
  482TMC3    C1 7218   2.728   0.575  13.808  0.2214 -0.0871  0.0965
  482TMC3    C2 7219   2.708   0.455  13.736  0.4759 -0.1361  0.4530
  482TMC3    C3 7220   2.581   0.412  13.705 -0.4955  0.3169  0.9339
  482TMC3    C4 7221   2.631   0.641  13.869 -0.2593  0.6329 -0.0579
  482TMC3    C5 7222   2.503   0.597  13.844 -0.1522  0.6446  0.3641
  482TMC3    C6 7223   2.474   0.487  13.759  0.1688 -0.5349  0.4618
  482TMC3     C 7224   2.847   0.579  13.885  0.1754  0.0844 -0.2224
  482TMC3     O 7225   2.833   0.542  14.004  0.0282  0.3233 -0.4959
  482TMC3     H 7226   2.788   0.393  13.698  0.0784 -0.6109  0.3868
  482TMC3    H1 7227   2.648   0.730  13.928  1.7405  0.2428 -0.0552
  482TMC3    H2 7228   2.371   0.465  13.733  0.3156  0.9659 -1.3708
  482TMC3    C7 7229   2.407   0.705  13.835 -0.2496 -0.4418  0.4464
  482TMC3    C8 7230   2.562   0.327  13.587  0.1524 -0.3819 -0.1062
  482TMC3    O1 7231   2.295   0.670  13.854 -0.0228 -0.1814 -0.5915
  482TMC3    O2 7232   2.663   0.280  13.536 -0.5123 -0.4020  0.4527
  483TMC3    C1 7233   1.476   4.533   0.799  0.1816  0.4688  1.0556
  483TMC3    C2 7234   1.509   4.664   0.758 -0.6641 -0.1430  0.1085
  483TMC3    C3 7235   1.627   4.710   0.793  0.1063  0.8079 -0.1117
  483TMC3    C4 7236   1.557   4.468   0.892  0.1893  0.2091  0.2050
  483TMC3    C5 7237   1.678   4.527   0.930 -0.0525 -0.8455 -0.1917
  483TMC3    C6 7238   1.718   4.646   0.877 -0.1900  0.2389  0.1758
  483TMC3     C 7239   1.339   4.499   0.798 -0.3532 -0.1874 -0.1167
  483TMC3     O 7240   1.262   4.592   0.766 -0.4484  0.0275 -1.0010
  483TMC3     H 7241   1.450   4.709   0.679 -0.7869 -1.5850 -0.6294
  483TMC3    H1 7242   1.543   4.366   0.926 -0.2429 -0.5429 -2.2456
  483TMC3    H2 7243   1.822   4.678   0.883  0.0179 -0.6324  1.1797
  483TMC3    C7 7244   1.770   4.451   1.012  0.3725  0.3147  0.2470
  483TMC3    C8 7245   1.681   0.094   0.724 -0.2051 -0.6263 -0.4042
  483TMC3    O1 7246   1.884   4.487   1.018 -0.1134  0.0302 -0.0598
  483TMC3    O2 7247   1.652   0.100   0.604  0.0005 -0.1923 -0.0068
  484MPD2     C 7248   3.383   3.359  11.983 -0.2085  0.8029  0.2281
  484MPD2    C1 7249   3.478   3.294  12.066 -0.1831  0.7032 -0.0572
  484MPD2    C2 7250   3.610   3.326  12.058  0.0953  0.3108 -0.0211
  484MPD2    C3 7251   3.652   3.429  11.973 -0.0210  0.1962  0.4048
  484MPD2    C4 7252   3.557   3.491  11.894  0.0113 -0.1266 -0.0037
  484MPD2    C5 7253   3.425   3.460  11.907 -0.0170  0.4836  0.2652
  484MPD2     H 7254   3.675   3.269  12.123  0.2885  0.6011  0.0394
  484MPD2    H1 7255   3.570   3.583  11.837 -1.1430  0.3539  0.5181
  484MPD2    H2 7256   3.274   3.355  11.987 -0.3004  1.0598 -1.9356
  484MPD2    H3 7257   3.357   3.503  11.834  0.4017 -2.0005 -1.5865
  484MPD2     N 7258   3.784   3.484  11.978 -0.1897  0.1991 -0.1971
  484MPD2    H5 7259   3.800   3.570  11.926 -2.1465 -0.5055 -1.9516
  484MPD2    N1 7260   3.423   3.199  12.153 -0.4616 -0.2252 -0.2299
  484MPD2    H7 7261   3.322   3.200  12.158 -0.4197 -1.3081  0.9449
  485TMC3    C1 7262   3.982   3.546  12.084 -0.1610  1.1290 -0.0790
  485TMC3    C2 7263   4.061   3.525  12.197 -0.5668 -0.3811  0.1008
  485TMC3    C3 7264   4.186   3.577  12.204 -0.2776  0.2142 -0.7514
  485TMC3    C4 7265   4.027   3.631  11.980 -0.1401  0.8668  0.3084
  485TMC3    C5 7266   4.149   3.689  12.001  0.0914 -0.3409 -0.7178
  485TMC3    C6 7267   4.233   3.668  12.107  0.4129  0.1410  0.3430
  485TMC3     C 7268   3.877   3.445  12.071 -0.5836 -0.0167 -0.5409
  485TMC3     O 7269   3.888   3.348  12.144 -0.4761 -0.1044  0.0454
  485TMC3     H 7270   4.029   3.462  12.280  0.2778  0.8748  1.3749
  485TMC3    H1 7271   3.981   3.624  11.882 -0.5131 -1.8270  0.6829
  485TMC3    H2 7272   4.328   3.718  12.112  0.4031  0.3071 -1.0083
  485TMC3    C7 7273   4.224   3.697  11.885 -0.3647 -0.3516 -0.0916
  485TMC3    C8 7274   4.286   3.476  12.213  0.0715 -0.2259 -0.4895
  485TMC3    O1 7275   4.187   3.750  11.781 -0.7534 -0.2258 -0.5057
  485TMC3    O2 7276   4.397   3.502  12.170  0.1112  0.7494 -0.2290
  486MPD2     C 7277   0.664   1.523  12.818 -0.1155 -0.2927 -0.5398
  486MPD2    C1 7278   0.708   1.485  12.689  0.3007 -0.8932  0.0737
  486MPD2    C2 7279   0.712   1.582  12.589  0.2230  0.4847  0.1882
  486MPD2    C3 7280   0.695   1.718  12.624 -0.6598 -0.7476  0.1265
  486MPD2    C4 7281   0.653   1.748  12.752  0.0986  0.2174 -0.2134
  486MPD2    C5 7282   0.634   1.654  12.842 -0.1227 -0.0107  0.2211
  486MPD2     H 7283   0.742   1.554  12.488  0.4592 -0.1593  0.4400
  486MPD2    H1 7284   0.644   1.851  12.784 -1.5643  0.0551 -0.1799
  486MPD2    H2 7285   0.641   1.446  12.891 -1.6585 -0.7597 -1.5317
  486MPD2    H3 7286   0.592   1.686  12.936  1.4102 -0.0613  0.9244
  486MPD2     N 7287   0.721   1.815  12.524 -0.0130  0.4518  0.0594
  486MPD2    H5 7288   0.763   1.793  12.434 -0.5775  2.1419 -0.6158
  486MPD2    N1 7289   0.711   1.350  12.659 -0.1785 -0.0570  0.6051
  486MPD2    H7 7290   0.689   1.283  12.733  2.1803 -1.1979  0.2757
  487TMC3    C1 7291   0.768   1.153  12.549 -0.0008  0.3098 -0.3757
  487TMC3    C2 7292   0.638   1.104  12.553 -0.1513 -0.6583 -0.3457
  487TMC3    C3 7293   0.620   0.979  12.563 -0.2163 -0.0184 -0.0819
  487TMC3    C4 7294   0.879   1.084  12.587 -0.2959  0.2297 -0.1120
  487TMC3    C5 7295   0.854   0.954  12.627 -0.0132  0.5184  0.2277
  487TMC3    C6 7296   0.731   0.901  12.596  0.7780  0.2920  0.6076
  487TMC3     C 7297   0.778   1.297  12.550 -0.0783 -0.2972  0.2111
  487TMC3     O 7298   0.848   1.354  12.468 -0.3252 -0.0617 -0.1666
  487TMC3     H 7299   0.558   1.167  12.518  1.0900  1.8389  1.2676
  487TMC3    H1 7300   0.973   1.138  12.585 -0.3455  0.3019 -0.4901
  487TMC3    H2 7301   0.721   0.795  12.615  1.9346 -0.0371 -0.5701
  487TMC3    C7 7302   0.896   0.929  12.760 -0.6077 -1.0313  0.5417
  487TMC3    C8 7303   0.502   0.928  12.634 -0.5127 -0.0512  0.1897
  487TMC3    O1 7304   0.994   0.990  12.801 -0.4819  0.6035  0.4501
  487TMC3    O2 7305   0.536   0.870  12.734 -0.2847 -0.6875  0.4709
  488MPD2     C 7306   1.510   2.916  16.097  0.3108  0.0501  0.5597
  488MPD2    C1 7307   1.634   2.920  16.156  0.5914 -0.2368  0.6971
  488MPD2    C2 7308   1.640   2.958  16.288 -0.1508 -0.3308 -0.0803
  488MPD2    C3 7309   1.531   3.019  16.348 -0.2808  0.2966 -0.0791
  488MPD2    C4 7310   1.419   3.027  16.279 -0.5305 -0.3024 -0.2094
  488MPD2    C5 7311   1.398   2.968  16.158  0.1781  0.7102 -0.5393
  488MPD2     H 7312   1.737   2.955  16.337 -1.2806 -0.6306  2.1351
  488MPD2    H1 7313   1.331   3.062  16.331 -0.1476 -1.2015  1.0552
  488MPD2    H2 7314   1.496   2.874  15.998 -1.4678 -2.6996  1.9764
  488MPD2    H3 7315   1.300   2.964  16.112 -0.8638  0.2903  1.7685
  488MPD2     N 7316   1.543   3.076  16.479  0.0235 -0.1826 -0.2390
  488MPD2    H5 7317   1.622   3.047  16.536 -1.1399 -0.2957  1.3055
  488MPD2    N1 7318   1.760   2.887  16.088 -0.2614  0.4648 -0.2845
  488MPD2    H7 7319   1.842   2.897  16.148 -0.9444 -2.2387  1.1186
  489TMC3    C1 7320   1.496   3.221  16.661 -0.4309 -0.0182  0.2914
  489TMC3    C2 7321   1.578   3.153  16.738 -0.1494 -0.1657  0.2124
  489TMC3    C3 7322   1.595   3.192  16.867 -0.0791  0.0140  0.1243
  489TMC3    C4 7323   1.426   3.326  16.714  0.0944 -0.2718  0.1789
  489TMC3    C5 7324   1.445   3.359  16.846  0.3529  0.4397  0.8282
  489TMC3    C6 7325   1.539   3.302  16.925 -0.2644 -0.6292 -0.3314
  489TMC3     C 7326   1.464   3.180  16.523  0.0593  0.2007 -0.0548
  489TMC3     O 7327   1.376   3.245  16.467 -0.0254  0.0520 -0.2293
  489TMC3     H 7328   1.642   3.071  16.707  0.2214 -0.2375  1.1581
  489TMC3    H1 7329   1.347   3.378  16.661  1.0162  2.9729  1.9570
  489TMC3    H2 7330   1.536   3.320  17.032 -1.3189 -1.2040 -0.2674
  489TMC3    C7 7331   1.371   3.474  16.893  0.3356 -0.1794 -0.0383
  489TMC3    C8 7332   1.720   3.138  16.927 -0.1627 -0.1911  0.2327
  489TMC3    O1 7333   1.344   3.571  16.819 -0.1837  0.4480 -0.2604
  489TMC3    O2 7334   1.749   3.022  16.895  0.1592  0.0419  0.1475
  490MPD2     C 7335   2.279   2.756  17.578  0.3502  0.4432 -0.0237
  490MPD2    C1 7336   2.331   2.690  17.470  0.5902  0.0280  0.1007
  490MPD2    C2 7337   2.457   2.711  17.427  0.0752  0.1558  0.4454
  490MPD2    C3 7338   2.536   2.803  17.488  0.5663 -0.3936  0.3920
  490MPD2    C4 7339   2.474   2.873  17.593 -0.0416 -0.2594  0.3009
  490MPD2    C5 7340   2.347   2.856  17.636 -0.3947  0.3910  0.0936
  490MPD2     H 7341   2.497   2.654  17.343 -0.2814 -1.4417  1.3647
  490MPD2    H1 7342   2.534   2.955  17.629  1.4272 -1.8638  1.4588
  490MPD2    H2 7343   2.186   2.731  17.628  0.6576 -1.8048 -0.5994
  490MPD2    H3 7344   2.313   2.912  17.722  1.1957  0.2696  0.7926
  490MPD2     N 7345   2.671   2.824  17.470  0.0502 -0.1552  0.2746
  490MPD2    H5 7346   2.713   2.899  17.524 -2.3156  2.0556 -0.9985
  490MPD2    N1 7347   2.252   2.588  17.417  0.5295  0.6042  0.3409
  490MPD2    H7 7348   2.162   2.569  17.460  0.3307 -0.1418 -0.4110
  491TMC3    C1 7349   2.186   2.398  17.290  0.3032 -0.1898  0.3530
  491TMC3    C2 7350   2.159   2.334  17.411 -0.3069 -0.2698 -0.5116
  491TMC3    C3 7351   2.071   2.224  17.408  0.3157 -0.1728  0.0498
  491TMC3    C4 7352   2.131   2.360  17.170  0.2593  0.7832 -0.0068
  491TMC3    C5 7353   2.041   2.260  17.180 -0.7048 -0.2976  0.7687
  491TMC3    C6 7354   2.018   2.180  17.289  0.3282  0.8378  0.1281
  491TMC3     C 7355   2.262   2.522  17.299  0.0130  0.7196 -0.0972
  491TMC3     O 7356   2.314   2.567  17.196  0.0998  0.2589 -0.7464
  491TMC3     H 7357   2.207   2.360  17.505 -1.6606 -0.6873  0.3051
  491TMC3    H1 7358   2.151   2.417  17.080 -2.6184  1.5751 -0.1310
  491TMC3    H2 7359   1.964   2.086  17.279  0.1097  1.1156 -1.3429
  491TMC3    C7 7360   1.972   2.219  17.060  0.3046 -0.2796 -0.4385
  491TMC3    C8 7361   2.063   2.156  17.532 -0.1785 -0.5784 -0.0314
  491TMC3    O1 7362   1.908   2.115  17.059  0.7980  0.1472  0.1358
  491TMC3    O2 7363   2.049   2.230  17.633  0.4576  0.6180 -0.6625
  492MPD2     C 7364   2.474   3.901  11.224 -0.1481  0.0530 -0.2328
  492MPD2    C1 7365   2.402   3.790  11.195  0.1214  0.6986  0.0883
  492MPD2    C2 7366   2.391   3.696  11.294 -0.0628 -0.2803  0.3760
  492MPD2    C3 7367   2.456   3.716  11.419 -0.0200  0.3561  0.3293
  492MPD2    C4 7368   2.528   3.833  11.439  0.0946 -0.1937 -0.2069
  492MPD2    C5 7369   2.547   3.914  11.334 -0.0359 -0.0113  0.2749
  492MPD2     H 7370   2.330   3.608  11.278  0.0027  0.3958 -3.6378
  492MPD2    H1 7371   2.573   3.854  11.535 -2.6969  2.9950  0.4040
  492MPD2    H2 7372   2.495   3.963  11.137  2.8621  0.5067  0.8172
  492MPD2    H3 7373   2.608   4.004  11.331 -0.9445  0.7206  3.3412
  492MPD2     N 7374   2.447   3.615  11.525 -0.3708 -0.0602 -0.2763
  492MPD2    H5 7375   2.478   3.643  11.617 -0.2655  0.5154 -0.4897
  492MPD2    N1 7376   2.334   3.783  11.068  0.5305  0.0058 -0.2876
  492MPD2    H7 7377   2.341   3.863  11.007  1.3994  0.3296  0.2274
  493TMC3    C1 7378   2.207   3.700  10.896  0.5980 -0.1273  0.3787
  493TMC3    C2 7379   2.271   3.784  10.811  0.3324  0.5046  0.4942
  493TMC3    C3 7380   2.201   3.834  10.705  0.4045 -0.3355 -0.2376
  493TMC3    C4 7381   2.078   3.671  10.885 -0.7217  0.1692 -0.8122
  493TMC3    C5 7382   2.007   3.733  10.786 -0.3236 -0.0048 -0.6158
  493TMC3    C6 7383   2.066   3.804  10.688 -0.2727  0.8297 -0.5886
  493TMC3     C 7384   2.270   3.667  11.023  0.3053 -0.4318  0.5491
  493TMC3     O 7385   2.226   3.574  11.089 -0.3087 -0.6641 -0.3519
  493TMC3     H 7386   2.378   3.801  10.809  0.3302  0.5184  0.4905
  493TMC3    H1 7387   2.046   3.593  10.954 -1.0389 -0.0371 -1.1922
  493TMC3    H2 7388   2.005   3.839  10.605  0.1702  0.2741 -1.1544
  493TMC3    C7 7389   1.870   3.683  10.764 -0.0058 -1.0636  0.5730
  493TMC3    C8 7390   2.269   3.889  10.587 -0.0531  0.3624 -0.1113
  493TMC3    O1 7391   1.816   3.687  10.657 -0.5884  0.0353 -0.5726
  493TMC3    O2 7392   2.196   3.888  10.485  0.6007 -0.2266 -0.2856
  494TMC3    C1 7393   3.653   0.231   0.244 -0.1860  0.1670 -0.6198
  494TMC3    C2 7394   3.666   0.094   0.248 -0.4943  0.6989 -0.3038
  494TMC3    C3 7395   3.680   0.037   0.124  0.1253  0.4193  0.4290
  494TMC3    C4 7396   3.649   0.310   0.134  0.4630 -0.1792 -0.2958
  494TMC3    C5 7397   3.650   0.243   0.015  0.1610 -0.1472  0.2446
  494TMC3    C6 7398   3.665   0.106   0.006 -0.4436  1.2651 -0.6025
  494TMC3     C 7399   3.637   0.303   0.365  0.3794  0.0315  0.8474
  494TMC3     O 7400   3.558   0.396   0.365 -0.2172  0.7198  0.1206
  494TMC3     H 7401   3.674   0.032   0.337 -0.9833  0.0477 -0.7077
  494TMC3    H1 7402   3.651   0.418   0.140 -0.4760 -0.3245  2.8522
  494TMC3    H2 7403   3.676   0.049  17.653 -3.7200 -0.8222  0.3295
  494TMC3    C7 7404   3.671   0.314  17.626 -0.2202 -0.7159 -0.3489
  494TMC3    C8 7405   3.714   4.632   0.125 -0.0743  0.4270  0.3739
  494TMC3    O1 7406   3.673   0.236  17.531  0.1073 -0.1998 -0.3678
  494TMC3    O2 7407   3.738   4.597   0.239 -0.0350 -0.3974  0.3133
  495TMC3    C1 7408   1.993   1.552  14.390  0.6263 -0.5567  0.3017
  495TMC3    C2 7409   1.901   1.570  14.284 -0.3304 -0.1284 -0.7431
  495TMC3    C3 7410   1.775   1.620  14.320 -0.1391 -0.2316  0.3307
  495TMC3    C4 7411   1.962   1.582  14.513  0.3237  0.1018 -0.2123
  495TMC3    C5 7412   1.839   1.630  14.540 -0.0474  0.1977 -0.1242
  495TMC3    C6 7413   1.745   1.653  14.450  0.2242  0.1340 -0.4321
  495TMC3     C 7414   2.079   1.441  14.386 -1.1980 -0.4692  0.3778
  495TMC3     O 7415   2.196   1.450  14.421 -0.0790 -0.0431 -0.4340
  495TMC3     H 7416   1.928   1.553  14.181 -0.8168  0.5949 -0.9925
  495TMC3    H1 7417   2.037   1.573  14.591  1.8469 -1.0149 -1.8058
  495TMC3    H2 7418   1.659   1.708  14.486  0.9545  0.2590  1.0959
  495TMC3    C7 7419   1.804   1.617  14.678  0.3794  0.1730  0.2826
  495TMC3    C8 7420   1.666   1.631  14.223  0.0236  0.1417 -0.1226
  495TMC3    O1 7421   1.881   1.662  14.766  0.0162 -0.0481 -0.6345
  495TMC3    O2 7422   1.566   1.679  14.271  0.3256  0.1415  0.6752
  496MPD2     C 7423   4.613   1.391  15.385 -0.1318  0.6505 -0.0951
  496MPD2    C1 7424   4.494   1.394  15.317  0.3397  0.1346 -1.1333
  496MPD2    C2 7425   4.388   1.450  15.377  1.0961  0.4651  0.2131
  496MPD2    C3 7426   4.393   1.503  15.501  0.5810 -0.3333  0.1266
  496MPD2    C4 7427   4.510   1.504  15.570 -0.2443  0.1013 -0.0875
  496MPD2    C5 7428   4.619   1.443  15.512 -0.4292  0.0729  0.5365
  496MPD2     H 7429   4.294   1.442  15.323  0.7378  0.2280  0.8797
  496MPD2    H1 7430   4.526   1.546  15.669 -0.9210 -2.1230  0.9685
  496MPD2    H2 7431   4.695   1.336  15.340 -0.7060  0.0902 -0.4675
  496MPD2    H3 7432   4.711   1.438  15.570  0.8007  0.6666 -1.3594
  496MPD2     N 7433   4.271   1.523  15.578  0.2251 -0.0001  0.2448
  496MPD2    H5 7434   4.289   1.539  15.677  0.8902 -0.2270  0.1622
  496MPD2    N1 7435   4.482   1.330  15.194  0.0328 -0.2517 -0.4426
  496MPD2    H7 7436   4.569   1.298  15.152  0.0122  0.0160 -0.6847
  497TMC3    C1 7437   4.044   1.518  15.638  0.3678 -0.4151 -0.1186
  497TMC3    C2 7438   3.916   1.550  15.596  0.1819 -0.2462  0.4579
  497TMC3    C3 7439   3.821   1.584  15.689  0.6664  0.3612  0.2538
  497TMC3    C4 7440   4.071   1.499  15.769 -0.0939  0.5677  0.8021
  497TMC3    C5 7441   3.968   1.515  15.856  0.3517  0.2359 -0.0990
  497TMC3    C6 7442   3.842   1.564  15.822  0.4374  0.4789 -0.1509
  497TMC3     C 7443   4.143   1.522  15.530 -0.1581  0.1870  0.8077
  497TMC3     O 7444   4.109   1.526  15.414  0.6404  0.1669 -0.3657
  497TMC3     H 7445   3.889   1.548  15.491  2.1978 -0.3219 -0.0658
  497TMC3    H1 7446   4.165   1.459  15.803  0.6117 -0.0126 -1.8683
  497TMC3    H2 7447   3.766   1.581  15.898  1.0207 -2.9882  1.2637
  497TMC3    C7 7448   3.984   1.500  15.997 -0.2874 -0.2522  0.3279
  497TMC3    C8 7449   3.688   1.607  15.648 -0.1588  0.0509  0.3595
  497TMC3    O1 7450   3.971   1.392  16.052  0.4764 -0.1378 -0.4658
  497TMC3    O2 7451   3.605   1.603  15.741  0.0495  0.4170 -0.2018
  498MPD2     C 7452   3.582   3.792   9.895  0.1063  0.1702 -0.2321
  498MPD2    C1 7453   3.626   3.706   9.993  0.2223 -0.5952  0.3395
  498MPD2    C2 7454   3.544   3.605  10.037 -0.8839  0.8583 -1.0167
  498MPD2    C3 7455   3.418   3.589   9.979 -0.2803  0.0724  0.2988
  498MPD2    C4 7456   3.374   3.677   9.888  0.7203  0.4180 -0.1952
  498MPD2    C5 7457   3.456   3.774   9.842 -0.9253  0.4171  0.2749
  498MPD2     H 7458   3.576   3.547  10.123 -1.3906  1.5034 -0.3960
  498MPD2    H1 7459   3.269   3.677   9.859  0.5105  1.2132  0.5854
  498MPD2    H2 7460   3.651   3.868   9.862 -1.8125  1.1837 -1.9110
  498MPD2    H3 7461   3.427   3.836   9.758 -0.7702  0.0378 -0.0599
  498MPD2     N 7462   3.329   3.498  10.037  0.3634 -0.1130  0.3360
  498MPD2    H5 7463   3.384   3.445  10.104  1.5893  0.8489  0.1036
  498MPD2    N1 7464   3.751   3.709  10.054 -0.2171 -0.8278 -0.0297
  498MPD2    H7 7465   3.769   3.633  10.119 -2.1706 -1.7808 -0.5928
  499TMC3    C1 7466   3.976   3.737  10.085 -0.3828 -0.3094 -0.7260
  499TMC3    C2 7467   3.964   3.639  10.182  0.1772 -1.4259  0.2723
  499TMC3    C3 7468   4.079   3.579  10.213 -0.5550  0.4898  0.1381
  499TMC3    C4 7469   4.093   3.771  10.025  0.8783 -0.2778  0.1090
  499TMC3    C5 7470   4.201   3.702  10.065 -0.3244  0.8450  0.4274
  499TMC3    C6 7471   4.195   3.606  10.157  0.0514 -0.2798 -0.4812
  499TMC3     C 7472   3.855   3.783  10.019  0.2909  0.6661 -0.2963
  499TMC3     O 7473   3.864   3.872   9.934 -0.1290 -0.6259  0.6141
  499TMC3     H 7474   3.874   3.614  10.237 -1.2653  0.3985 -1.2577
  499TMC3    H1 7475   4.095   3.848   9.949  1.4472 -2.5577 -2.2136
  499TMC3    H2 7476   4.288   3.555  10.180  1.2168  1.7582 -0.6253
  499TMC3    C7 7477   4.334   3.747  10.021  0.2821 -0.4151  0.0461
  499TMC3    C8 7478   4.075   3.482  10.325  0.0866 -0.2547  0.3355
  499TMC3    O1 7479   4.336   3.865   9.982  0.2835  0.2630 -0.0581
  499TMC3    O2 7480   3.969   3.463  10.381  0.0973  0.3583  0.1452
  500MPD2     C 7481   1.427   4.275  10.791  0.4850 -0.2450 -0.0708
  500MPD2    C1 7482   1.474   4.346  10.678  0.3970  0.2452  0.8563
  500MPD2    C2 7483   1.394   4.367  10.571  0.1055 -0.9235 -0.2280
  500MPD2    C3 7484   1.267   4.313  10.564  0.0412  0.1381  1.0069
  500MPD2    C4 7485   1.223   4.236  10.673 -0.1889 -0.0392 -0.3038
  500MPD2    C5 7486   1.299   4.228  10.790 -0.4361 -0.2996 -0.1682
  500MPD2     H 7487   1.437   4.416  10.485  1.0948 -3.0255 -0.9268
  500MPD2    H1 7488   1.124   4.193  10.681 -0.3287  0.4809  0.6930
  500MPD2    H2 7489   1.487   4.258  10.879  0.2616 -2.4335 -0.3453
  500MPD2    H3 7490   1.255   4.177  10.875 -0.9868  0.4199 -0.0227
  500MPD2     N 7491   1.178   4.329  10.454 -0.6552  0.1185 -0.2741
  500MPD2    H5 7492   1.089   4.281  10.462 -1.1345  1.3882  2.1738
  500MPD2    N1 7493   1.606   4.401  10.672 -0.1783 -0.1109 -0.4128
  500MPD2    H7 7494   1.619   4.458  10.589  0.7704  0.7736  0.3381
  501TMC3    C1 7495   1.827   4.452  10.739 -0.1563 -0.9253  0.4490
  501TMC3    C2 7496   1.834   4.547  10.636  0.3006  0.4059  0.4880
  501TMC3    C3 7497   1.959   4.599  10.616 -0.0655 -0.2090  0.2831
  501TMC3    C4 7498   1.937   4.408  10.807 -0.0343 -0.5321 -0.2072
  501TMC3    C5 7499   2.053   4.473  10.788  0.0548 -0.8876 -0.5210
  501TMC3    C6 7500   2.069   4.576  10.703  0.0354 -0.1299  0.6728
  501TMC3     C 7501   1.700   4.394  10.773 -0.2758  0.0459  0.0208
  501TMC3     O 7502   1.693   4.345  10.886 -0.1717  0.4186  0.0751
  501TMC3     H 7503   1.744   4.590  10.594  0.0796 -1.2828 -0.7551
  501TMC3    H1 7504   1.932   4.342  10.893  1.1144 -0.9000 -0.4262
  501TMC3    H2 7505   2.169   4.604  10.673 -0.3405  0.7490  0.2147
  501TMC3    C7 7506   2.144   4.445  10.897 -0.0933  0.2725 -0.0012
  501TMC3    C8 7507   1.970   4.720  10.533 -0.3507 -0.9918  0.5103
  501TMC3    O1 7508   2.141   4.325  10.930 -0.5818  0.0760  0.3242
  501TMC3    O2 7509   2.060   0.061  10.568  0.4892 -0.7236 -0.2989
  502TMC3    C1 7510   1.312   1.918  14.607 -0.1064  0.1467  0.6144
  502TMC3    C2 7511   1.301   2.048  14.556 -0.0126 -0.6171 -0.4020
  502TMC3    C3 7512   1.188   2.116  14.577  0.9670  0.8512 -0.3238
  502TMC3    C4 7513   1.214   1.879  14.690 -0.1631  0.1403 -0.5728
  502TMC3    C5 7514   1.101   1.952  14.711 -0.0538 -0.4218 -0.0986
  502TMC3    C6 7515   1.083   2.073  14.653 -0.1901  0.2115 -0.5563
  502TMC3     C 7516   1.438   1.917  14.674 -0.8059  0.2461  0.5910
  502TMC3     O 7517   1.535   1.908  14.598  0.0355 -0.1166 -0.2297
  502TMC3     H 7518   1.378   2.082  14.488 -0.9107  1.3765 -0.4397
  502TMC3    H1 7519   1.213   1.774  14.714  1.4832  0.0677 -0.8281
  502TMC3    H2 7520   1.014   2.152  14.682  2.0691  0.7101  3.4044
  502TMC3    C7 7521   1.071   1.960  14.855  0.1300 -0.4366  0.0011
  502TMC3    C8 7522   1.217   2.252  14.607 -0.0776  0.4145  0.3947
  502TMC3    O1 7523   1.159   1.906  14.920 -0.3573  0.4454 -0.4558
  502TMC3    O2 7524   1.125   2.330  14.609 -0.1624  0.0382  0.8605
  503MPD2     C 7525   3.768   3.420  16.783  0.8181 -0.9436  0.3117
  503MPD2    C1 7526   3.800   3.467  16.908  0.2384 -0.2632  0.0937
  503MPD2    C2 7527   3.874   3.384  16.994 -0.4767  0.3791  0.0698
  503MPD2    C3 7528   3.895   3.249  16.960  0.1378  0.3510 -0.0827
  503MPD2    C4 7529   3.848   3.202  16.839 -0.5033  0.0639  0.4601
  503MPD2    C5 7530   3.801   3.293  16.750  0.2100  0.5080  0.4108
  503MPD2     H 7531   3.919   3.423  17.085  1.4843 -0.4396 -0.5547
  503MPD2    H1 7532   3.869   3.100  16.809 -4.3542 -0.4315 -0.5304
  503MPD2    H2 7533   3.712   3.470  16.705 -0.6807 -0.9717  1.3715
  503MPD2    H3 7534   3.770   3.265  16.650  0.0442  0.9484  0.3386
  503MPD2     N 7535   3.950   3.165  17.063  0.0130  0.0433  1.0736
  503MPD2    H5 7536   3.971   3.212  17.150  0.8135  0.9754  0.3775
  503MPD2    N1 7537   3.785   3.606  16.957 -0.2047 -0.0767  0.1939
  503MPD2    H7 7538   3.824   3.627  17.048  1.7960  0.8711 -0.8825
  504TMC3    C1 7539   4.006   2.962  17.181 -1.1193  0.3233  0.3894
  504TMC3    C2 7540   3.972   3.028  17.292  0.0800 -0.2991  0.7349
  504TMC3    C3 7541   4.033   2.998  17.409  0.3605  0.4437  0.1060
  504TMC3    C4 7542   4.095   2.853  17.181  0.3070 -0.3870  0.7194
  504TMC3    C5 7543   4.136   2.822  17.304  0.6731  0.3771  0.2116
  504TMC3    C6 7544   4.117   2.893  17.414 -0.7177  0.7231  0.1327
  504TMC3     C 7545   3.992   3.031  17.052 -0.7234 -0.3229  1.1852
  504TMC3     O 7546   4.024   2.962  16.957  0.0701  0.0238 -0.2025
  504TMC3     H 7547   3.892   3.101  17.297 -0.6015 -1.0698  1.1076
  504TMC3    H1 7548   4.115   2.802  17.087 -1.5852 -1.4144  0.8655
  504TMC3    H2 7549   4.143   2.850  17.510 -0.8727 -1.5828 -0.8612
  504TMC3    C7 7550   4.249   2.734  17.305 -0.2619 -0.4052 -0.0606
  504TMC3    C8 7551   3.987   3.073  17.530 -0.1980 -0.2634  0.2335
  504TMC3    O1 7552   4.263   2.652  17.219 -0.2168  0.0203 -0.7696
  504TMC3    O2 7553   3.915   3.170  17.517 -0.1436  0.0279  0.7069
  505MPD2     C 7554   2.990   2.771  10.978  0.1168  0.2021  0.3909
  505MPD2    C1 7555   2.984   2.651  10.908 -0.3948 -0.4595  0.0993
  505MPD2    C2 7556   3.097   2.575  10.895 -0.0486  0.4364  0.1405
  505MPD2    C3 7557   3.221   2.619  10.930  0.1719 -0.1480 -0.3426
  505MPD2    C4 7558   3.224   2.744  10.988  0.2392 -0.7478  0.1267
  505MPD2    C5 7559   3.114   2.811  11.023  0.8430 -0.1327  1.0719
  505MPD2     H 7560   3.094   2.474  10.855 -2.3224  0.9278 -0.8858
  505MPD2    H1 7561   3.322   2.777  11.020 -1.1083  0.9711  2.4601
  505MPD2    H2 7562   2.901   2.822  11.010 -0.9759  0.4804 -3.1048
  505MPD2    H3 7563   3.108   2.905  11.075  0.5145  0.6103 -0.2976
  505MPD2     N 7564   3.341   2.545  10.912 -0.2532 -0.0577  0.5951
  505MPD2    H5 7565   3.429   2.589  10.934 -0.6246  1.4779 -1.0535
  505MPD2    N1 7566   2.859   2.618  10.862  0.3092 -0.2932  0.2012
  505MPD2    H7 7567   2.787   2.689  10.868  0.8261  0.1394  1.1944
  506TMC3    C1 7568   2.690   2.481  10.779  0.2923 -0.0266  0.1684
  506TMC3    C2 7569   2.648   2.579  10.700  0.0052 -0.2258  0.1575
  506TMC3    C3 7570   2.564   2.535  10.602  0.5382 -0.4044  0.7307
  506TMC3    C4 7571   2.668   2.350  10.752  0.5165  0.5708  0.7446
  506TMC3    C5 7572   2.591   2.317  10.646  0.0556 -0.1693 -0.0368
  506TMC3    C6 7573   2.528   2.410  10.576  1.1317 -1.0767  0.5306
  506TMC3     C 7574   2.826   2.488  10.829 -0.4111  0.0984  0.2717
  506TMC3     O 7575   2.886   2.385  10.839  0.3174  0.4477 -0.0989
  506TMC3     H 7576   2.687   2.680  10.696  0.7909 -0.4960  1.0761
  506TMC3    H1 7577   2.704   2.274  10.821  0.6644 -2.0317 -2.1726
  506TMC3    H2 7578   2.484   2.389  10.479 -0.3135 -0.7346  1.1196
  506TMC3    C7 7579   2.668   2.235  10.548 -0.4120 -0.6941  0.1171
  506TMC3    C8 7580   2.508   2.637  10.508 -0.5805  0.1535 -0.1185
  506TMC3    O1 7581   2.618   2.198  10.446 -0.3963  0.0826  0.7927
  506TMC3    O2 7582   2.400   2.610  10.465  0.1450 -0.2084 -0.0461
  507TMC3    C1 7583   4.657   2.335  15.015  0.1860  0.5692  0.4186
  507TMC3    C2 7584   4.660   2.224  14.939  0.1202 -0.2483  0.4793
  507TMC3    C3 7585   4.665   2.230  14.800  0.3725  0.3294  0.7623
  507TMC3    C4 7586   4.667   2.455  14.955 -0.2012  0.2777 -0.1169
  507TMC3    C5 7587   4.676   2.474  14.822  0.2193  0.5724  0.2093
  507TMC3    C6 7588   4.674   2.357  14.741 -0.9462 -0.1941  0.0673
  507TMC3     C 7589   4.601   2.335  15.146  0.9031 -0.2080 -0.5173
  507TMC3     O 7590   4.607   2.440  15.214 -0.2985  0.1244 -0.2712
  507TMC3     H 7591   4.635   2.130  14.987 -2.0474  0.5281  0.8795
  507TMC3    H1 7592   4.655   2.538  15.023 -1.1004 -0.9868  1.2625
  507TMC3    H2 7593   4.673   2.379  14.635 -0.5429 -0.0248  0.1025
  507TMC3    C7 7594   4.574   2.562  14.778 -0.5981 -0.0552  0.1190
  507TMC3    C8 7595   4.557   2.151  14.741 -0.5909 -0.3426  0.5462
  507TMC3    O1 7596   4.471   2.508  14.737 -0.2245 -0.6845 -0.1846
  507TMC3    O2 7597   4.537   2.041  14.785  0.0195  0.1593  0.1498
  508MPD2     C 7598   0.928   0.033  16.264 -0.2053  0.4510  0.3017
  508MPD2    C1 7599   0.903   0.168  16.267  0.1245  0.0899  0.7463
  508MPD2    C2 7600   0.913   0.245  16.149  0.1388  0.2673 -0.5906
  508MPD2    C3 7601   0.927   0.183  16.029  0.1659  0.3130  0.1015
  508MPD2    C4 7602   0.932   0.048  16.026  0.2411 -0.0777  0.2242
  508MPD2    C5 7603   0.937   4.707  16.144  0.9364  0.4389  0.1431
  508MPD2     H 7604   0.914   0.353  16.151 -0.6881  0.2205  2.4678
  508MPD2    H1 7605   0.946   4.721  15.938  0.8208  0.8224 -0.3123
  508MPD2    H2 7606   0.940   4.715  16.358 -0.3739 -0.4282 -0.1728
  508MPD2    H3 7607   0.952   4.600  16.133  0.1422  0.6745 -3.1526
  508MPD2     N 7608   0.959   0.270  15.924  0.0610 -0.5861 -0.8913
  508MPD2    H5 7609   0.956   0.371  15.928 -0.6952 -0.8686  5.4577
  508MPD2    N1 7610   0.912   0.221  16.398  0.5872  0.8352  0.1805
  508MPD2    H7 7611   0.932   0.161  16.477 -3.9399  0.5110  1.0702
  509TMC3    C1 7612   1.008   0.410  15.487 -0.1996  0.1988 -0.3942
  509TMC3    C2 7613   1.061   0.529  15.531  1.1862 -0.2838  0.1321
  509TMC3    C3 7614   1.103   0.544  15.659 -0.2516 -0.3421  0.0176
  509TMC3    C4 7615   0.994   0.302  15.570 -0.1889  0.5852  0.0931
  509TMC3    C5 7616   1.025   0.326  15.702 -0.2412  0.7132 -0.5714
  509TMC3    C6 7617   1.084   0.441  15.749 -0.3651 -0.9401 -0.5872
  509TMC3     C 7618   0.936   0.399  15.361  0.2912 -0.1854  0.0594
  509TMC3     O 7619   0.901   0.285  15.332  0.4327  0.6441 -0.2819
  509TMC3     H 7620   1.080   0.602  15.453 -1.3860 -1.0727 -1.2180
  509TMC3    H1 7621   0.947   0.207  15.548  1.9653 -0.7051  1.1002
  509TMC3    H2 7622   1.144   0.432  15.839 -0.0323  2.2134 -0.4950
  509TMC3    C7 7623   0.997   0.221  15.795 -0.1717  0.3099 -0.6410
  509TMC3    C8 7624   1.223   0.626  15.686 -0.1300 -0.3916  0.3118
  509TMC3    O1 7625   1.011   0.110  15.750  0.1208  0.0425 -0.5777
  509TMC3    O2 7626   1.317   0.550  15.704  0.4680 -0.0730 -0.2550
  510MPD2     C 7627   3.278   1.798  14.217  0.1164  0.6987 -0.2408
  510MPD2    C1 7628   3.317   1.794  14.345 -0.7608 -0.0649 -0.0246
  510MPD2    C2 7629   3.449   1.794  14.376 -0.6574  0.6351 -0.0035
  510MPD2    C3 7630   3.548   1.769  14.282  0.3832 -0.1527  0.3732
  510MPD2    C4 7631   3.505   1.746  14.154 -0.0041  0.3024 -0.4622
  510MPD2    C5 7632   3.372   1.762  14.119 -0.1313 -0.0605  0.1196
  510MPD2     H 7633   3.471   1.808  14.481  1.2233  2.7934 -0.6716
  510MPD2    H1 7634   3.571   1.712  14.075  0.9314 -1.0398  0.8919
  510MPD2    H2 7635   3.173   1.795  14.191  0.6134  1.9843 -2.3459
  510MPD2    H3 7636   3.338   1.746  14.017 -1.8828  0.3973  0.6326
  510MPD2     N 7637   3.674   1.750  14.323  0.5263  0.1082  0.0183
  510MPD2    H5 7638   3.693   1.761  14.422 -0.1914 -1.1658  0.2948
  510MPD2    N1 7639   3.216   1.792  14.444 -0.8059 -0.8944  0.3416
  510MPD2    H7 7640   3.123   1.767  14.411 -0.0476 -1.5832 -1.3044
  511TMC3    C1 7641   3.151   1.715  14.648  0.8229  0.5819  0.4106
  511TMC3    C2 7642   3.110   1.760  14.776 -0.6838  0.4715 -0.1142
  511TMC3    C3 7643   3.045   1.673  14.853  0.2588 -0.0393  0.4953
  511TMC3    C4 7644   3.119   1.591  14.602  0.5728 -0.6503 -0.6998
  511TMC3    C5 7645   3.059   1.506  14.691  0.1790  0.5632 -0.2253
  511TMC3    C6 7646   3.038   1.538  14.823  0.2690 -0.6401  0.3519
  511TMC3     C 7647   3.234   1.809  14.577 -0.2392  0.0500 -0.0303
  511TMC3     O 7648   3.310   1.880  14.640  0.0672  0.5289  0.6155
  511TMC3     H 7649   3.119   1.867  14.793  0.0800  0.5543 -1.0731
  511TMC3    H1 7650   3.153   1.559  14.504  1.0587  1.1724 -1.1327
  511TMC3    H2 7651   2.984   1.480  14.897  0.4346 -1.9794 -0.5626
  511TMC3    C7 7652   3.025   1.369  14.643  0.4464  0.1530 -0.1311
  511TMC3    C8 7653   3.017   1.724  14.991 -0.5576  0.1561  0.1494
  511TMC3    O1 7654   3.034   1.352  14.523  0.5057  0.2916 -0.0021
  511TMC3    O2 7655   2.997   1.846  14.998  0.4617 -0.5990  0.5807
  512TMC3    C1 7656   1.647   1.767  13.393  0.2734  0.0605 -0.0971
  512TMC3    C2 7657   1.768   1.712  13.427 -0.6254  0.0816 -0.2599
  512TMC3    C3 7658   1.778   1.574  13.444 -0.1972 -0.5585  0.6101
  512TMC3    C4 7659   1.542   1.684  13.366  0.4821 -0.2835 -0.0297
  512TMC3    C5 7660   1.553   1.552  13.398  0.0745  0.2393  0.0215
  512TMC3    C6 7661   1.669   1.492  13.438  0.1363  0.0791 -0.9496
  512TMC3     C 7662   1.643   1.908  13.368  0.1785 -0.3577  0.1078
  512TMC3     O 7663   1.742   1.975  13.395 -0.0795 -0.5722 -0.1522
  512TMC3     H 7664   1.854   1.776  13.440 -0.5250 -0.6197  2.4275
  512TMC3    H1 7665   1.441   1.712  13.337  0.0481 -0.6523  1.1339
  512TMC3    H2 7666   1.678   1.386  13.455 -0.9203 -0.0456 -1.1491
  512TMC3    C7 7667   1.455   1.467  13.337  0.0692 -0.1971 -0.2199
  512TMC3    C8 7668   1.898   1.515  13.488  0.3054  0.6852 -0.2929
  512TMC3    O1 7669   1.338   1.505  13.318 -0.0200  0.2360 -0.0414
  512TMC3    O2 7670   1.909   1.395  13.477  0.1674  0.7347  0.2572
  513MPD2     C 7671   3.909   1.703  13.433  0.2869  0.1319  1.0141
  513MPD2    C1 7672   3.984   1.610  13.372  0.1693 -0.2986 -0.5984
  513MPD2    C2 7673   3.982   1.482  13.426 -0.0503 -0.2213  0.5427
  513MPD2    C3 7674   3.909   1.446  13.537 -0.3466 -0.9905 -0.0449
  513MPD2    C4 7675   3.829   1.544  13.593  0.3906 -0.3131 -0.1592
  513MPD2    C5 7676   3.833   1.669  13.541 -0.4491  0.2522 -0.0231
  513MPD2     H 7677   4.052   1.406  13.391 -0.6043  0.0714 -1.1877
  513MPD2    H1 7678   3.790   1.535  13.694 -1.1127  1.2610 -0.6104
  513MPD2    H2 7679   3.907   1.804  13.394 -1.9696  0.0977  1.0286
  513MPD2    H3 7680   3.762   1.738  13.587  1.2235  2.1650 -0.2988
  513MPD2     N 7681   3.925   1.317  13.593  0.1371  0.0957  0.4251
  513MPD2    H5 7682   3.974   1.250  13.534 -0.7239  0.9164 -1.2272
  513MPD2    N1 7683   4.059   1.636  13.261  0.3041  0.0975 -0.5260
  513MPD2    H7 7684   4.110   1.558  13.222 -0.4726 -0.0472 -1.2389
  514TMC3    C1 7685   4.131   1.698  13.060  0.4567  0.0132  0.0407
  514TMC3    C2 7686   4.074   1.700  12.936  0.2937  0.0951  0.1275
  514TMC3    C3 7687   4.103   1.601  12.849  0.5277  0.6471  0.0687
  514TMC3    C4 7688   4.241   1.627  13.081 -0.4604  0.0119 -0.1538
  514TMC3    C5 7689   4.268   1.525  12.997 -0.6291 -0.1560  0.8532
  514TMC3    C6 7690   4.190   1.506  12.887 -0.1903 -0.0021  0.5078
  514TMC3     C 7691   4.064   1.744  13.173 -0.6675 -0.4606 -0.3365
  514TMC3     O 7692   4.025   1.859  13.180 -0.0451 -0.2392 -0.6024
  514TMC3     H 7693   3.999   1.774  12.910  0.4975 -0.0795 -0.9945
  514TMC3    H1 7694   4.294   1.639  13.175  1.0042 -2.6068 -0.6382
  514TMC3    H2 7695   4.215   1.431  12.813 -0.3318 -0.0356  0.4934
  514TMC3    C7 7696   4.271   1.401  13.074 -0.3273 -0.1031  0.2861
  514TMC3    C8 7697   3.999   1.564  12.752 -0.3345  0.4794 -0.3569
  514TMC3    O1 7698   4.230   1.412  13.190 -0.2863 -0.2438 -0.0797
  514TMC3    O2 7699   3.977   1.443  12.741  0.1730 -0.3364  0.7538
  515MPD2     C 7700   2.312   3.127  14.387 -0.0465  0.1104  0.3917
  515MPD2    C1 7701   2.265   3.079  14.501 -0.2204 -0.1787  0.1274
  515MPD2    C2 7702   2.346   3.100  14.622  0.0410 -0.4196 -0.4447
  515MPD2    C3 7703   2.462   3.180  14.610 -0.7911 -0.2871 -0.0616
  515MPD2    C4 7704   2.501   3.226  14.487  0.4784  0.1650  0.5916
  515MPD2    C5 7705   2.427   3.198  14.378 -0.4531 -0.6680 -0.3169
  515MPD2     H 7706   2.300   3.071  14.715 -1.2481  3.5515  0.1396
  515MPD2    H1 7707   2.591   3.283  14.466  1.5258 -1.6523  0.1296
  515MPD2    H2 7708   2.256   3.131  14.294  1.3850 -0.0204 -0.4908
  515MPD2    H3 7709   2.460   3.245  14.286 -1.1416 -0.9311 -0.6992
  515MPD2     N 7710   2.552   3.202  14.720  0.1460  0.3819 -0.3236
  515MPD2    H5 7711   2.631   3.264  14.704  0.8620 -0.8849 -1.6624
  515MPD2    N1 7712   2.137   3.012  14.512  0.0008 -0.0049  0.2965
  515MPD2    H7 7713   2.102   2.994  14.606 -0.3177 -0.9248 -0.0001
  516TMC3    C1 7714   1.937   2.913  14.468 -0.5144  0.9873  0.0703
  516TMC3    C2 7715   1.827   2.961  14.405 -0.2133  0.0730  0.1497
  516TMC3    C3 7716   1.717   2.882  14.404 -0.1398 -1.0197  0.5149
  516TMC3    C4 7717   1.938   2.792  14.525 -0.3636  0.3765 -0.0800
  516TMC3    C5 7718   1.825   2.715  14.513 -0.2191 -0.0868 -0.4303
  516TMC3    C6 7719   1.710   2.752  14.447 -0.6836  0.1793  0.2000
  516TMC3     C 7720   2.061   2.966  14.412  0.2365 -0.3519  0.9572
  516TMC3     O 7721   2.062   2.997  14.294  0.6517  0.2236  0.6034
  516TMC3     H 7722   1.848   3.033  14.327 -1.8041  1.8554  1.3843
  516TMC3    H1 7723   2.021   2.768  14.591 -0.1044 -0.0232 -0.5537
  516TMC3    H2 7724   1.619   2.693  14.441 -1.7360  1.6188  2.1398
  516TMC3    C7 7725   1.847   2.573  14.538  0.9364 -0.1359 -0.9570
  516TMC3    C8 7726   1.592   2.945  14.363  0.0085  0.0078  0.2430
  516TMC3    O1 7727   1.948   2.543  14.599 -0.2714 -0.0788 -0.3602
  516TMC3    O2 7728   1.491   2.877  14.341  1.2636  0.5908  0.1215
  517MPD2     C 7729   1.762   0.010  17.271  0.0991 -0.1491 -0.2180
  517MPD2    C1 7730   1.842   4.693  17.365 -0.2217 -0.6149  0.3893
  517MPD2    C2 7731   1.883   0.048  17.457  0.3681 -0.4526 -0.4506
  517MPD2    C3 7732   1.848   0.182  17.466  0.3297 -0.3426 -0.6257
  517MPD2    C4 7733   1.759   0.230  17.374  0.2193  0.5076 -0.7076
  517MPD2    C5 7734   1.722   0.141  17.277 -0.5075 -0.0102  0.2065
  517MPD2     H 7735   1.960   0.013  17.524 -1.1583 -0.5664  1.2734
  517MPD2    H1 7736   1.722   0.332  17.378 -0.1888  0.3016  0.4804
  517MPD2    H2 7737   1.729   4.688  17.185 -0.1945 -1.6837  0.9226
  517MPD2    H3 7738   1.648   0.174  17.205 -0.3169  0.0733  0.0485
  517MPD2     N 7739   1.893   0.270  17.564 -0.0832 -0.0719  0.1614
  517MPD2    H5 7740   1.860   0.366  17.561 -0.1765 -0.1143 -0.2396
  517MPD2    N1 7741   1.893   4.564  17.365  0.4968  0.1200  0.2181
  517MPD2    H7 7742   1.949   4.543  17.447  1.9059 -0.7725 -0.9903
  518TMC3    C1 7743   1.961   4.346  17.297 -0.5927 -0.4793 -0.4658
  518TMC3    C2 7744   1.941   4.239  17.212  1.0023  0.4134  0.2990
  518TMC3    C3 7745   2.032   4.132  17.194 -0.0236 -0.2058 -0.4290
  518TMC3    C4 7746   2.081   4.365  17.354  0.2247  0.1949  0.3681
  518TMC3    C5 7747   2.169   4.257  17.343 -0.2493 -0.2378  0.8486
  518TMC3    C6 7748   2.143   4.148  17.270  0.7322 -0.2484  0.1127
  518TMC3     C 7749   1.882   4.466  17.266  0.7215  0.1232 -0.5801
  518TMC3     O 7750   1.821   4.465  17.160 -0.4064 -0.1360 -0.2915
  518TMC3     H 7751   1.848   4.239  17.155  0.5743  0.4181  1.0021
  518TMC3    H1 7752   2.094   4.438  17.433 -0.7983  1.4565 -0.6296
  518TMC3    H2 7753   2.209   4.062  17.271 -0.1392 -0.8866  2.1784
  518TMC3    C7 7754   2.305   4.300  17.365  0.3467 -0.3492  0.8986
  518TMC3    C8 7755   1.978   4.002  17.184  0.2233 -0.8756  0.1700
  518TMC3    O1 7756   2.324   4.382  17.455  0.3561 -0.2745 -0.1071
  518TMC3    O2 7757   2.051   3.909  17.213  1.1552 -0.1111  0.5276
  519MPD2     C 7758   3.177   2.353  14.532  0.1660  0.2720  0.3041
  519MPD2    C1 7759   3.199   2.394  14.405  0.5852 -0.2690  0.3812
  519MPD2    C2 7760   3.281   2.322  14.324 -0.1167  1.2780  0.5343
  519MPD2    C3 7761   3.346   2.208  14.366 -0.0079 -0.3853  0.2836
  519MPD2    C4 7762   3.318   2.169  14.499  0.4973  0.2500 -0.2587
  519MPD2    C5 7763   3.236   2.242  14.580  0.0893  0.5358 -0.0636
  519MPD2     H 7764   3.301   2.357  14.223 -1.1997 -0.0281 -0.1232
  519MPD2    H1 7765   3.363   2.086  14.553 -2.1996 -0.8291  0.3111
  519MPD2    H2 7766   3.137   2.404  14.619  0.2103 -0.1301  0.5624
  519MPD2    H3 7767   3.221   2.203  14.680  0.0158 -3.0675 -1.4732
  519MPD2     N 7768   3.433   2.131  14.279  0.1043  0.2311 -0.7783
  519MPD2    H5 7769   3.480   2.052  14.321 -2.5050 -0.5826  0.6348
  519MPD2    N1 7770   3.155   2.513  14.352 -0.2927 -0.1922 -0.4892
  519MPD2    H7 7771   3.175   2.533  14.255 -1.5255  1.4835 -0.4086
  520TMC3    C1 7772   3.544   2.066  14.073  0.0433 -0.4311  0.4853
  520TMC3    C2 7773   3.531   2.085  13.938 -0.1087 -0.0329  0.6555
  520TMC3    C3 7774   3.645   2.112  13.866  0.2178 -0.0311 -0.7901
  520TMC3    C4 7775   3.668   2.068  14.137  1.0674 -0.3647  0.1098
  520TMC3    C5 7776   3.782   2.096  14.061 -0.1604 -0.1842 -0.0987
  520TMC3    C6 7777   3.771   2.110  13.922 -0.0506 -0.7881 -0.4957
  520TMC3     C 7778   3.443   2.144  14.143 -0.0097  0.0617  0.4623
  520TMC3     O 7779   3.393   2.219  14.060  0.0259  0.4970 -0.0607
  520TMC3     H 7780   3.436   2.061  13.890 -0.3678 -0.7374  1.5089
  520TMC3    H1 7781   3.671   2.034  14.240  1.8372  0.3275  0.3188
  520TMC3    H2 7782   3.852   2.133  13.853  0.3712 -1.4581 -0.2231
  520TMC3    C7 7783   3.910   2.096  14.129 -0.3275 -0.5953 -0.2307
  520TMC3    C8 7784   3.628   2.176  13.736  0.1503  0.9173  0.5766
  520TMC3    O1 7785   3.902   2.054  14.243 -0.4169 -0.0841  0.4255
  520TMC3    O2 7786   3.715   2.169  13.650 -0.0689 -0.0144 -0.9003
  521MPD2     C 7787   0.066   1.707  17.151 -0.3349 -0.3380  0.4431
  521MPD2    C1 7788   0.050   1.615  17.044 -0.3089  0.5185 -0.8317
  521MPD2    C2 7789   0.161   1.595  16.969  0.4196 -0.2458  0.5766
  521MPD2    C3 7790   0.285   1.645  17.000  0.5141  0.0055 -0.2233
  521MPD2    C4 7791   0.294   1.736  17.103 -0.4655 -0.2828 -0.1845
  521MPD2    C5 7792   0.189   1.773  17.173  0.1020 -0.8258  0.0257
  521MPD2     H 7793   0.158   1.519  16.891  1.3059  0.2040  0.1130
  521MPD2    H1 7794   0.391   1.783  17.115 -0.8479  0.2086  0.9605
  521MPD2    H2 7795   4.721   1.718  17.223 -2.5524  1.8001 -2.3269
  521MPD2    H3 7796   0.193   1.843  17.256  0.3479 -1.6833  0.7340
  521MPD2     N 7797   0.401   1.595  16.934 -0.1536 -0.5214  0.6831
  521MPD2    H5 7798   0.374   1.526  16.865 -2.0129  1.9232 -1.0353
  521MPD2    N1 7799   4.659   1.555  17.013 -0.4989  1.2534  0.3205
  521MPD2    H7 7800   4.593   1.555  17.090  0.3563 -1.0015  1.0738
  522TMC3    C1 7801   0.612   1.534  16.880  0.2719 -0.0651  0.5856
  522TMC3    C2 7802   0.722   1.475  16.939  0.0696  0.5893 -0.4068
  522TMC3    C3 7803   0.805   1.406  16.856  0.0847  0.0148  0.3515
  522TMC3    C4 7804   0.572   1.493  16.757 -0.7511  0.7575 -0.2191
  522TMC3    C5 7805   0.650   1.412  16.686 -0.4933  0.1523  0.1429
  522TMC3    C6 7806   0.771   1.368  16.726  0.0222  0.5248  0.3267
  522TMC3     C 7807   0.532   1.617  16.965  0.0491  1.3052 -0.2684
  522TMC3     O 7808   0.578   1.660  17.072  0.0851 -0.1490  0.6485
  522TMC3     H 7809   0.748   1.494  17.042 -0.8079 -0.5342  0.0099
  522TMC3    H1 7810   0.491   1.547  16.710 -0.4253  1.6239  0.2264
  522TMC3    H2 7811   0.835   1.306  16.665  1.0350  0.4281  1.4923
  522TMC3    C7 7812   0.621   1.386  16.548  0.2338 -0.5825 -0.2003
  522TMC3    C8 7813   0.908   1.326  16.921  0.0622  0.0555  0.2851
  522TMC3    O1 7814   0.718   1.386  16.473 -0.3474  0.3205 -0.5226
  522TMC3    O2 7815   0.974   1.375  17.014  0.6512 -0.3771  0.1166
  523MPD2     C 7816   2.154   1.877   9.811  0.1800 -0.6963  0.4342
  523MPD2    C1 7817   2.052   1.786   9.791  0.1972 -0.1012  0.0283
  523MPD2    C2 7818   1.950   1.826   9.710  0.5794  0.1213  0.7174
  523MPD2    C3 7819   1.928   1.961   9.684  0.1242  0.0760 -0.1498
  523MPD2    C4 7820   2.035   2.046   9.708  0.2832  0.3637 -0.2834
  523MPD2    C5 7821   2.151   1.998   9.764 -0.2438  0.9660  0.1282
  523MPD2     H 7822   1.872   1.755   9.683  0.2631  0.1311  1.5992
  523MPD2    H1 7823   2.036   2.150   9.679 -0.6068  0.6967  0.8824
  523MPD2    H2 7824   2.235   1.851   9.879  0.5073 -1.2540 -0.1666
  523MPD2    H3 7825   2.236   2.058   9.792 -0.3535  0.2185  2.0415
  523MPD2     N 7826   1.814   2.016   9.622  0.1091  0.0160 -0.1072
  523MPD2    H5 7827   1.809   2.117   9.606  1.3744 -0.0895 -1.1447
  523MPD2    N1 7828   2.061   1.660   9.847 -0.3162 -0.1085  0.1216
  523MPD2    H7 7829   2.136   1.654   9.915  1.8046  1.9219 -2.0591
  524TMC3    C1 7830   1.623   2.034   9.490 -0.7145  0.0347 -1.0845
  524TMC3    C2 7831   1.598   2.002   9.356 -0.4207 -0.5135 -0.3126
  524TMC3    C3 7832   1.520   2.100   9.294 -0.0828 -0.5182 -0.2968
  524TMC3    C4 7833   1.580   2.143   9.557 -0.1658  0.1305 -0.1609
  524TMC3    C5 7834   1.496   2.227   9.492  0.3543  0.2768  0.2085
  524TMC3    C6 7835   1.467   2.205   9.360  0.5433  0.8317 -0.1666
  524TMC3     C 7836   1.715   1.946   9.560  0.0416  0.1686 -0.2633
  524TMC3     O 7837   1.702   1.824   9.541 -0.4671 -0.1037 -0.0605
  524TMC3     H 7838   1.648   1.920   9.305 -0.3162  0.1522 -1.2878
  524TMC3    H1 7839   1.597   2.148   9.664  2.1941 -0.3161 -0.5235
  524TMC3    H2 7840   1.406   2.280   9.311 -1.3374 -0.3224  0.3907
  524TMC3    C7 7841   1.440   2.339   9.567 -0.8486 -0.0919 -0.1691
  524TMC3    C8 7842   1.468   2.056   9.159 -0.0300  0.2335  0.7079
  524TMC3    O1 7843   1.481   2.342   9.682  0.0818 -0.3997 -0.0378
  524TMC3    O2 7844   1.373   2.116   9.115 -0.5015 -0.4969  0.4362
  525MPD2     C 7845   0.169   1.903  14.630  0.7901 -0.3801  0.0843
  525MPD2    C1 7846   0.242   1.914  14.753 -0.6505 -0.6298  0.0221
  525MPD2    C2 7847   0.302   2.035  14.785  0.0857  0.3777 -0.0019
  525MPD2    C3 7848   0.268   2.144  14.714 -0.2674  0.0853  0.0195
  525MPD2    C4 7849   0.195   2.141  14.593 -0.0906  0.1433 -0.1461
  525MPD2    C5 7850   0.146   2.020  14.555  0.1728 -0.4962 -0.7290
  525MPD2     H 7851   0.368   2.043  14.870 -1.4195 -0.2791  1.2250
  525MPD2    H1 7852   0.179   2.226  14.528 -0.5236  1.4692  1.6912
  525MPD2    H2 7853   0.151   1.811  14.575 -0.5642 -0.4390  0.6251
  525MPD2    H3 7854   0.100   1.998  14.459  1.8728 -2.6898 -1.0427
  525MPD2     N 7855   0.313   2.270  14.759 -1.3824  0.1589 -0.2261
  525MPD2    H5 7856   0.284   2.359  14.718  0.5644  0.7836 -0.2726
  525MPD2    N1 7857   0.276   1.809  14.838 -0.9546 -0.2760  0.4079
  525MPD2    H7 7858   0.341   1.834  14.912 -0.0110  1.2919 -0.9641
  526TMC3    C1 7859   0.299   1.592  14.916  0.1460  0.4125 -1.1980
  526TMC3    C2 7860   0.274   1.637  15.041 -0.3101 -0.8624  0.3994
  526TMC3    C3 7861   0.350   1.582  15.144  1.3632 -0.6234  1.1620
  526TMC3    C4 7862   0.409   1.505  14.899 -0.3902 -0.0207 -0.2600
  526TMC3    C5 7863   0.488   1.455  15.005 -0.6422 -0.2204 -0.6156
  526TMC3    C6 7864   0.453   1.494  15.130  0.2497  0.0394  0.5642
  526TMC3     C 7865   0.250   1.669  14.808 -0.6315  0.4200  1.0497
  526TMC3     O 7866   0.177   1.621  14.720  0.2286 -0.5029  0.1016
  526TMC3     H 7867   0.194   1.708  15.054 -0.4563 -1.0781  0.6715
  526TMC3    H1 7868   0.425   1.481  14.794  2.2288  2.2329 -0.3475
  526TMC3    H2 7869   0.530   1.471  15.203 -0.6467  2.8322  2.3661
  526TMC3    C7 7870   0.631   1.455  14.995 -0.2335 -0.2579 -0.1437
  526TMC3    C8 7871   0.347   1.653  15.267 -0.0111 -0.8069  0.4771
  526TMC3    O1 7872   0.703   1.421  15.091  1.0688  0.5244 -0.4658
  526TMC3    O2 7873   0.456   1.664  15.322 -0.1642  0.3536  0.0418
  527MPD2     C 7874   3.831   0.194   1.361 -0.1826  0.5346 -0.4501
  527MPD2    C1 7875   3.832   0.293   1.270 -0.2012  0.3075  0.3084
  527MPD2    C2 7876   3.919   0.282   1.158 -0.2778 -0.4036  0.5612
  527MPD2    C3 7877   3.991   0.171   1.133 -0.1891 -0.3561  0.1653
  527MPD2    C4 7878   3.991   0.068   1.229 -0.5144 -0.0179  0.3185
  527MPD2    C5 7879   3.918   0.085   1.343 -0.6242  0.3927 -0.0815
  527MPD2     H 7880   3.947   0.369   1.099 -0.2019  0.9228  2.5459
  527MPD2    H1 7881   4.055   4.716   1.222 -1.6134 -0.8885  1.2567
  527MPD2    H2 7882   3.762   0.187   1.444  0.1196 -0.3204 -0.2686
  527MPD2    H3 7883   3.941   0.018   1.425 -0.8300 -0.3531 -0.6327
  527MPD2     N 7884   4.074   0.167   1.019 -0.3934  0.3159  0.2583
  527MPD2    H5 7885   4.083   0.251   0.964  1.3389  0.6060  0.9719
  527MPD2    N1 7886   3.754   0.414   1.280 -0.1406 -0.4596  0.1060
  527MPD2    H7 7887   3.769   0.481   1.205  0.6316  0.4718  1.0792
  528TMC3    C1 7888   3.632   0.587   1.372 -0.0479  0.2131  0.0927
  528TMC3    C2 7889   3.649   0.665   1.478 -0.7964 -0.2276 -0.0736
  528TMC3    C3 7890   3.631   0.797   1.460 -1.1121  0.4692 -0.0876
  528TMC3    C4 7891   3.609   0.636   1.244  0.8408  0.2321 -0.0835
  528TMC3    C5 7892   3.582   0.769   1.232  0.2263  0.2240 -0.5880
  528TMC3    C6 7893   3.602   0.849   1.340 -0.5913 -0.6421  0.0776
  528TMC3     C 7894   3.684   0.451   1.389 -0.3187  0.1839  0.2981
  528TMC3     O 7895   3.693   0.405   1.503 -0.5042 -0.5681  0.0878
  528TMC3     H 7896   3.643   0.616   1.574  1.7261  2.0898  1.2673
  528TMC3    H1 7897   3.593   0.564   1.165  0.1616 -2.1662  2.2404
  528TMC3    H2 7898   3.595   0.957   1.326  0.5113 -0.4098  1.3639
  528TMC3    C7 7899   3.595   0.823   1.106 -0.1346  0.3126 -0.0849
  528TMC3    C8 7900   3.733   0.881   1.528 -0.8902  0.1998  0.2995
  528TMC3    O1 7901   3.631   0.740   1.022 -0.2029  0.2403 -0.0529
  528TMC3    O2 7902   3.773   0.976   1.459  0.2633  0.1913 -0.0063
  529MPD2     C 7903   0.629   3.715   1.155 -0.5608  0.2351 -0.4236
  529MPD2    C1 7904   0.718   3.646   1.069 -0.0548 -0.2844  0.1216
  529MPD2    C2 7905   0.756   3.690   0.952  0.1918  0.3330  0.3430
  529MPD2    C3 7906   0.730   3.825   0.916  0.8217 -0.3610  0.3919
  529MPD2    C4 7907   0.640   3.889   0.995  0.2445  0.1263 -0.2987
  529MPD2    C5 7908   0.580   3.828   1.100 -0.2352 -0.2261 -0.7104
  529MPD2     H 7909   0.819   3.628   0.890 -0.2498 -1.4014  1.6420
  529MPD2    H1 7910   0.605   3.988   0.969 -2.7144 -0.4637  1.4606
  529MPD2    H2 7911   0.579   3.671   1.241 -2.1932  4.4987  0.7813
  529MPD2    H3 7912   0.515   3.891   1.159 -0.8562 -0.2099 -1.4088
  529MPD2     N 7913   0.784   3.889   0.808  0.4410 -0.0804 -0.3858
  529MPD2    H5 7914   0.749   3.984   0.796  0.2500 -0.2371 -1.0358
  529MPD2    N1 7915   0.773   3.528   1.122 -0.7123  0.0991 -0.0932
  529MPD2    H7 7916   0.836   3.469   1.069 -1.3587 -1.2298  0.6149
  530TMC3    C1 7917   0.829   3.381   1.295  0.3005  0.9047 -0.0382
  530TMC3    C2 7918   0.908   3.370   1.406 -0.7126  0.9724 -0.1810
  530TMC3    C3 7919   0.972   3.256   1.439 -0.0852  1.1155  0.5508
  530TMC3    C4 7920   0.827   3.269   1.212 -0.4058 -0.7252 -0.0560
  530TMC3    C5 7921   0.895   3.157   1.243 -0.7258  0.1568 -0.2922
  530TMC3    C6 7922   0.966   3.142   1.361 -0.5289 -0.9197 -0.3853
  530TMC3     C 7923   0.771   3.507   1.260 -0.4370  0.3106  0.7115
  530TMC3     O 7924   0.762   3.580   1.356 -0.5964  0.7600  0.1937
  530TMC3     H 7925   0.920   3.459   1.467 -0.8308  2.9388 -3.0554
  530TMC3    H1 7926   0.762   3.267   1.125 -1.9517  0.1852  1.0620
  530TMC3    H2 7927   1.013   3.049   1.391  0.5590 -0.3956 -0.4489
  530TMC3    C7 7928   0.865   3.037   1.170  0.2293  0.1172 -0.4548
  530TMC3    C8 7929   1.091   3.268   1.523 -0.3554  0.5454 -0.2416
  530TMC3    O1 7930   0.869   3.042   1.049 -0.1813 -0.0488  0.5977
  530TMC3    O2 7931   1.080   3.345   1.619  0.3023  0.2135 -0.7887
  531MPD2     C 7932   4.297   0.897  13.150  0.0590  0.6165 -0.2781
  531MPD2    C1 7933   4.216   0.989  13.212  0.5592 -0.5942 -0.3241
  531MPD2    C2 7934   4.211   1.118  13.155 -0.1729 -0.3740 -0.1399
  531MPD2    C3 7935   4.300   1.150  13.049 -0.2742  0.1531 -0.2487
  531MPD2    C4 7936   4.374   1.052  12.989  0.3155 -0.1836  0.1129
  531MPD2    C5 7937   4.370   0.929  13.041  0.0278  0.2239 -0.5319
  531MPD2     H 7938   4.144   1.194  13.194  0.3662 -1.1813  2.3735
  531MPD2    H1 7939   4.450   1.076  12.916  2.0683 -1.4387  1.5409
  531MPD2    H2 7940   4.306   0.798  13.194  1.3282  1.0432  0.4380
  531MPD2    H3 7941   4.430   0.851  12.998 -2.0188 -2.0061  0.6626
  531MPD2     N 7942   4.316   1.288  13.003 -0.0974 -0.4010 -0.4123
  531MPD2    H5 7943   4.349   1.300  12.908  1.3384  0.7065  0.2341
  531MPD2    N1 7944   4.157   0.959  13.339 -0.6258 -0.2383 -0.2033
  531MPD2    H7 7945   4.157   0.864  13.374 -1.6180 -0.4015 -0.6412
  532TMC3    C1 7946   4.030   0.995  13.534  0.2997 -0.0830 -0.0939
  532TMC3    C2 7947   3.917   1.060  13.582  0.2886  0.5794 -0.7768
  532TMC3    C3 7948   3.929   1.122  13.704  0.6837 -0.5145 -0.2606
  532TMC3    C4 7949   4.135   0.969  13.619 -0.1808  0.3945 -0.2821
  532TMC3    C5 7950   4.131   1.016  13.750  0.3916  0.0207  0.2207
  532TMC3    C6 7951   4.036   1.106  13.786 -0.0653  0.1443  0.3112
  532TMC3     C 7952   4.066   1.042  13.404  0.1330  0.3935 -0.6092
  532TMC3     O 7953   4.036   1.156  13.389 -0.2478  0.2232  0.7629
  532TMC3     H 7954   3.835   1.087  13.516  0.6739  1.5531 -0.8604
  532TMC3    H1 7955   4.226   0.929  13.575 -0.7278 -0.4394 -0.6572
  532TMC3    H2 7956   4.034   1.147  13.886  3.1996  1.4273 -0.1362
  532TMC3    C7 7957   4.263   1.047  13.806  0.9231  0.8209  0.5030
  532TMC3    C8 7958   3.880   1.263  13.707 -0.6800  0.3787 -0.3257
  532TMC3    O1 7959   4.288   1.165  13.834 -0.4076 -0.3522 -0.0160
  532TMC3    O2 7960   3.840   1.318  13.806  0.0784  0.4650  0.1131
  533TMC3    C1 7961   0.441   2.419  14.871 -0.5800 -0.6808 -0.5417
  533TMC3    C2 7962   0.562   2.472  14.884  0.2440  0.3360 -0.1390
  533TMC3    C3 7963   0.560   2.584  14.961  0.5881 -0.7544 -0.2777
  533TMC3    C4 7964   0.327   2.460  14.938  0.6380  0.1935 -0.2740
  533TMC3    C5 7965   0.337   2.569  15.023  0.6283  0.4687 -0.2079
  533TMC3    C6 7966   0.451   2.646  15.023 -0.2500 -0.4119  0.8408
  533TMC3     C 7967   0.427   2.286  14.827 -0.1448 -0.4906  0.2784
  533TMC3     O 7968   0.525   2.214  14.844  0.1019  0.0744 -0.7950
  533TMC3     H 7969   0.647   2.437  14.826 -0.5918  1.5722 -2.1272
  533TMC3    H1 7970   0.240   2.396  14.946  1.4193 -0.8956 -0.4439
  533TMC3    H2 7971   0.470   2.737  15.080  1.9969  0.2518 -0.9251
  533TMC3    C7 7972   0.280   2.538  15.151 -0.5358 -0.5036 -0.0179
  533TMC3    C8 7973   0.667   2.680  14.932  0.4837  0.5461 -0.4778
  533TMC3    O1 7974   0.244   2.424  15.163 -0.4010 -0.1288 -0.0303
  533TMC3    O2 7975   0.776   2.632  14.898  0.8896 -0.8747 -1.1565
  534MPD2     C 7976   3.719   4.342   1.387 -0.1283  0.5279  0.1205
  534MPD2    C1 7977   3.610   4.423   1.371  0.2669 -0.5596  0.3542
  534MPD2    C2 7978   3.527   4.397   1.259  0.4917 -0.8587  0.2163
  534MPD2    C3 7979   3.552   4.294   1.170 -0.7575 -0.4934 -0.2754
  534MPD2    C4 7980   3.664   4.218   1.189  0.3465 -0.4630 -0.1885
  534MPD2    C5 7981   3.743   4.241   1.294 -0.3378  0.3217  0.4041
  534MPD2     H 7982   3.448   4.466   1.234 -0.6672 -2.1944  0.1959
  534MPD2    H1 7983   3.693   4.137   1.123 -0.0550 -0.7151 -0.0609
  534MPD2    H2 7984   3.796   4.358   1.463 -1.2731  0.6332  1.2602
  534MPD2    H3 7985   3.824   4.169   1.307  0.8645  1.2898 -1.6723
  534MPD2     N 7986   3.458   4.257   1.070  0.2741 -0.6764 -0.2746
  534MPD2    H5 7987   3.485   4.185   1.004  2.2881 -2.9085  3.0380
  534MPD2    N1 7988   3.577   4.534   1.456 -0.2990 -0.7347  0.2137
  534MPD2    H7 7989   3.501   4.593   1.425 -0.2659 -0.8597 -0.1073
  535TMC3    C1 7990   3.255   4.186   0.999  0.2760  0.2291 -0.4751
  535TMC3    C2 7991   3.141   4.141   1.047  0.1818  0.1402  0.0118
  535TMC3    C3 7992   3.081   4.036   0.978 -1.0889  0.6513  0.2259
  535TMC3    C4 7993   3.312   4.128   0.880 -0.0207 -0.3670 -0.7568
  535TMC3    C5 7994   3.248   4.025   0.815  0.1352  0.1069 -0.5398
  535TMC3    C6 7995   3.127   3.984   0.865 -0.4175 -0.7818  0.7157
  535TMC3     C 7996   3.329   4.288   1.080 -0.4523 -0.7268  1.0247
  535TMC3     O 7997   3.268   4.348   1.173 -0.4032  0.0369 -0.1522
  535TMC3     H 7998   3.098   4.178   1.139  0.0076  1.7556 -0.7277
  535TMC3    H1 7999   3.403   4.174   0.843  1.4403 -3.0219 -0.5154
  535TMC3    H2 8000   3.079   3.903   0.811  1.3480 -1.0937 -0.4037
  535TMC3    C7 8001   3.286   3.995   0.678  0.2697 -0.4218  0.9409
  535TMC3    C8 8002   2.982   3.951   1.052 -0.1900  0.3076  0.0487
  535TMC3    O1 8003   3.264   3.884   0.633  0.0680  0.1432  0.4764
  535TMC3    O2 8004   2.913   3.880   0.986 -0.1527  0.3363 -0.6655
  536MPD2     C 8005   2.017   2.070  15.942 -0.3378  0.5405 -0.4733
  536MPD2    C1 8006   1.899   2.011  15.978  0.8855 -0.4075 -0.6889
  536MPD2    C2 8007   1.788   2.019  15.890  0.3633  0.3648  0.4322
  536MPD2    C3 8008   1.799   2.089  15.775  0.3118  0.3338 -0.1774
  536MPD2    C4 8009   1.921   2.138  15.738  0.0352 -0.5717 -0.0238
  536MPD2    C5 8010   2.026   2.124  15.818 -0.2598 -0.6750  0.5426
  536MPD2     H 8011   1.700   1.965  15.920  0.7984 -0.3055  0.4918
  536MPD2    H1 8012   1.934   2.194  15.646  0.5503 -1.9384 -0.7815
  536MPD2    H2 8013   2.107   2.072  16.002 -0.1068  1.5844 -0.8593
  536MPD2    H3 8014   2.123   2.160  15.785 -0.5236 -1.5492 -1.1876
  536MPD2     N 8015   1.690   2.112  15.685  0.4455 -0.5288 -0.2180
  536MPD2    H5 8016   1.701   2.162  15.597 -0.6037 -2.2015 -1.2995
  536MPD2    N1 8017   1.891   1.946  16.110  0.5870  1.0843  0.5375
  536MPD2    H7 8018   1.972   1.969  16.166  1.5011  1.3187 -0.8736
  537TMC3    C1 8019   1.824   1.818  16.286 -0.1849 -0.2702 -0.0238
  537TMC3    C2 8020   1.825   1.911  16.382  0.8358 -0.0791 -0.8608
  537TMC3    C3 8021   1.824   1.863  16.513  0.6746 -0.4866 -0.2531
  537TMC3    C4 8022   1.813   1.682  16.316  0.3066  0.5345 -0.1027
  537TMC3    C5 8023   1.803   1.641  16.443  0.1550  0.0935 -0.0385
  537TMC3    C6 8024   1.816   1.729  16.546 -0.0676 -0.5734 -0.1523
  537TMC3     C 8025   1.796   1.859  16.153 -0.0887 -0.4322 -0.0918
  537TMC3     O 8026   1.700   1.814  16.096 -0.1003 -0.1575 -0.3787
  537TMC3     H 8027   1.838   2.013  16.349  1.0714  0.7360  1.7732
  537TMC3    H1 8028   1.796   1.605  16.242 -0.4408 -0.5609  1.1947
  537TMC3    H2 8029   1.789   1.701  16.648  2.2372 -0.6055  0.4490
  537TMC3    C7 8030   1.719   1.532  16.468 -0.0862  0.0505  0.2343
  537TMC3    C8 8031   1.829   1.957  16.628 -0.1772  0.3925 -0.1672
  537TMC3    O1 8032   1.611   1.537  16.410 -0.3156  0.5626 -0.0046
  537TMC3    O2 8033   1.865   1.911  16.734  0.5869  0.3484  0.1319
  538TMC3    C1 8034   2.720   1.158  11.490 -0.0086  0.1413 -0.3955
  538TMC3    C2 8035   2.844   1.121  11.464 -0.1706 -0.1012 -0.5434
  538TMC3    C3 8036   2.898   1.155  11.346 -0.2863  0.2172  1.0349
  538TMC3    C4 8037   2.645   1.232  11.404  1.1184 -0.8218 -0.1924
  538TMC3    C5 8038   2.705   1.271  11.285  0.5049 -0.3245 -0.2503
  538TMC3    C6 8039   2.834   1.236  11.247  0.3531  0.4396  0.7831
  538TMC3     C 8040   2.643   1.102  11.598  0.0717  0.0276  0.2051
  538TMC3     O 8041   2.531   1.140  11.600 -0.7140 -1.0379 -0.6109
  538TMC3     H 8042   2.898   1.060  11.535 -0.7468  0.8177  0.6755
  538TMC3    H1 8043   2.547   1.276  11.424  0.6871 -1.9926  0.2738
  538TMC3    H2 8044   2.883   1.277  11.159  1.2944  0.8550  1.4962
  538TMC3    C7 8045   2.613   1.336  11.190 -0.2781  0.2781 -0.4981
  538TMC3    C8 8046   3.027   1.099  11.325  0.1888 -0.4184 -0.3129
  538TMC3    O1 8047   2.492   1.313  11.200  0.5497 -0.7020 -0.1126
  538TMC3    O2 8048   3.088   1.070  11.428 -0.0840 -0.2545  0.4357
  539MPD2     C 8049   2.673   0.490  11.697  0.4837 -0.3143 -0.4935
  539MPD2    C1 8050   2.644   0.493  11.563  0.0617  0.0491 -0.5584
  539MPD2    C2 8051   2.551   0.587  11.513 -0.0431 -0.3769  0.4552
  539MPD2    C3 8052   2.489   0.667  11.604  0.4982  0.2324  0.0357
  539MPD2    C4 8053   2.505   0.648  11.739 -0.1125 -0.3725 -0.0284
  539MPD2    C5 8054   2.602   0.558  11.785  0.7310 -0.0586  0.0899
  539MPD2     H 8055   2.528   0.595  11.407  0.6240  1.7913  0.4719
  539MPD2    H1 8056   2.448   0.704  11.813  0.2398 -0.7756  0.5400
  539MPD2    H2 8057   2.751   0.425  11.736  0.4329  0.0382  0.1904
  539MPD2    H3 8058   2.615   0.542  11.891  0.1137 -1.8642 -0.1077
  539MPD2     N 8059   2.396   0.758  11.572 -0.1046 -0.4338  0.3547
  539MPD2    H5 8060   2.334   0.797  11.642  0.2094  3.3719 -1.4619
  539MPD2    N1 8061   2.726   0.409  11.477 -0.1419  0.3214  0.1993
  539MPD2    H7 8062   2.802   0.360  11.524 -2.0725 -1.5335  1.3982
  540TMC3    C1 8063   2.266   0.912  11.444  0.1110  1.1009  0.1714
  540TMC3    C2 8064   2.262   1.001  11.341 -0.6844 -0.2848 -0.0991
  540TMC3    C3 8065   2.139   1.049  11.297 -0.4046 -0.0050  0.2369
  540TMC3    C4 8066   2.151   0.860  11.501 -0.2902  0.3882 -0.3907
  540TMC3    C5 8067   2.032   0.906  11.447 -0.3595  0.1628 -0.3235
  540TMC3    C6 8068   2.025   1.003  11.354 -0.5686 -0.0525 -0.0927
  540TMC3     C 8069   2.379   0.821  11.448  0.4669 -0.4629  0.6092
  540TMC3     O 8070   2.451   0.818  11.353  0.9160 -0.0656  0.2959
  540TMC3     H 8071   2.349   1.009  11.277 -0.0389 -0.1059  0.7986
  540TMC3    H1 8072   2.146   0.774  11.568 -0.5563  0.7095  0.0056
  540TMC3    H2 8073   1.934   1.051  11.319 -0.0771  0.1039 -1.1493
  540TMC3    C7 8074   1.907   0.863  11.504 -0.1009 -0.7653  0.5566
  540TMC3    C8 8075   2.130   1.104  11.161 -0.0850  0.4026 -0.4742
  540TMC3    O1 8076   1.803   0.877  11.443  0.4295 -0.3152 -0.3644
  540TMC3    O2 8077   2.224   1.173  11.125 -0.2243 -0.2856 -0.4275
  541MPD2     C 8078   0.408   1.627  13.306  0.2519 -0.1730  0.1933
  541MPD2    C1 8079   0.327   1.533  13.247 -0.4584  0.6585  0.0929
  541MPD2    C2 8080   0.289   1.544  13.116 -0.6942  0.2572 -0.5808
  541MPD2    C3 8081   0.326   1.653  13.049 -0.0379  0.7347  0.0846
  541MPD2    C4 8082   0.400   1.753  13.104 -0.3028 -0.8300  0.5925
  541MPD2    C5 8083   0.454   1.734  13.229 -0.1663 -0.3015  0.2167
  541MPD2     H 8084   0.223   1.467  13.076 -0.5014 -0.1123 -0.1925
  541MPD2    H1 8085   0.426   1.842  13.048  0.5049 -0.2548  1.8824
  541MPD2    H2 8086   0.430   1.622  13.412  0.4318  0.8669  0.2013
  541MPD2    H3 8087   0.517   1.815  13.264 -1.8091  2.0101 -2.0823
  541MPD2     N 8088   0.309   1.675  12.911 -0.7023  0.4501  0.7926
  541MPD2    H5 8089   0.314   1.771  12.879  1.2483  0.6026  1.5503
  541MPD2    N1 8090   0.280   1.414  13.308 -0.1387 -0.0480 -0.0502
  541MPD2    H7 8091   0.225   1.358  13.244 -1.2384 -1.1267  1.8653
  542TMC3    C1 8092   0.296   1.601  12.680 -0.0657  0.1733  0.6534
  542TMC3    C2 8093   0.343   1.503  12.591  0.5991  0.1382 -0.7430
  542TMC3    C3 8094   0.382   1.545  12.468  0.2638  0.5727  0.5090
  542TMC3    C4 8095   0.281   1.727  12.635  0.2927 -0.0195  0.1320
  542TMC3    C5 8096   0.322   1.768  12.509 -0.1048  0.2896 -0.1375
  542TMC3    C6 8097   0.368   1.675  12.421 -0.4967 -0.8151  0.2315
  542TMC3     C 8098   0.285   1.569  12.825  0.3773 -0.3664  0.8411
  542TMC3     O 8099   0.284   1.451  12.852  0.2074  0.0984 -0.0725
  542TMC3     H 8100   0.354   1.398  12.616  1.6105  0.2590 -0.6683
  542TMC3    H1 8101   0.230   1.796  12.702 -0.1946 -0.7077  0.4637
  542TMC3    H2 8102   0.386   1.700  12.317 -3.1840  2.6788  0.5942
  542TMC3    C7 8103   0.281   1.900  12.464  0.2069 -0.0634  0.9750
  542TMC3    C8 8104   0.443   1.444  12.377 -0.3983  0.1575  0.0752
  542TMC3    O1 8105   0.210   1.960  12.540  0.3450 -0.4047  0.4150
  542TMC3    O2 8106   0.429   1.328  12.412  0.2614  1.4262 -0.1548
  543TMC3    C1 8107   0.639   3.220  16.904 -0.5351 -0.2158  0.9859
  543TMC3    C2 8108   0.703   3.123  16.965 -0.3517  0.2085 -0.0390
  543TMC3    C3 8109   0.667   3.095  17.097  0.0976  0.2936  0.2747
  543TMC3    C4 8110   0.543   3.303  16.961 -0.4800 -0.2903 -0.9036
  543TMC3    C5 8111   0.515   3.276  17.092  0.0599 -0.2535 -0.4097
  543TMC3    C6 8112   0.565   3.167  17.156 -1.0691  0.1508  0.2311
  543TMC3     C 8113   0.652   3.241  16.762  0.0204 -0.2687  0.3934
  543TMC3     O 8114   0.761   3.204  16.717  0.5014  0.5302 -0.6050
  543TMC3     H 8115   0.766   3.061  16.901  0.3574  1.4434 -0.5423
  543TMC3    H1 8116   0.523   3.399  16.916 -0.1058  0.8482  1.3584
  543TMC3    H2 8117   0.542   3.155  17.261  0.0661  1.1220  0.5892
  543TMC3    C7 8118   0.425   3.361  17.164 -0.7924 -0.3791  0.0137
  543TMC3    C8 8119   0.664   2.952  17.128  0.0187  0.3416  0.3642
  543TMC3    O1 8120   0.461   3.373  17.280 -0.3800  0.1378  0.4708
  543TMC3    O2 8121   0.681   2.883  17.024  0.1501  0.1348  0.0166
  544MPD2     C 8122   0.829   2.553  17.411  0.5390 -0.4911 -0.1914
  544MPD2    C1 8123   0.775   2.563  17.281  0.0716  0.4401 -1.1468
  544MPD2    C2 8124   0.726   2.683  17.241 -0.8787  0.1389 -0.0840
  544MPD2    C3 8125   0.744   2.796  17.309  0.0098  0.3719  0.3936
  544MPD2    C4 8126   0.814   2.784  17.433  0.3460  0.3371 -0.0765
  544MPD2    C5 8127   0.840   2.664  17.482 -0.0651  0.4915 -0.1750
  544MPD2     H 8128   0.662   2.677  17.153  0.7699 -0.4341 -1.2549
  544MPD2    H1 8129   0.833   2.871  17.494  1.5794  0.0085 -0.0001
  544MPD2    H2 8130   0.860   2.462  17.461  1.0541 -0.3327 -0.2147
  544MPD2    H3 8131   0.884   2.666  17.582 -0.1881  1.7194 -0.1530
  544MPD2     N 8132   0.702   2.924  17.258 -0.0518 -0.4305 -0.2639
  544MPD2    H5 8133   0.715   2.996  17.329 -2.3173  0.8368 -1.1469
  544MPD2    N1 8134   0.768   2.448  17.198 -0.0628  0.3544  0.4647
  544MPD2    H7 8135   0.800   2.359  17.234 -0.8245 -0.2722 -0.3999
  545TMC3    C1 8136   0.741   2.297  17.025  0.3760  0.1003  0.4502
  545TMC3    C2 8137   0.652   2.254  16.930 -0.3690 -0.2177 -0.4690
  545TMC3    C3 8138   0.633   2.116  16.919 -0.2596  0.2550  0.0136
  545TMC3    C4 8139   0.819   2.209  17.098 -0.0714 -1.3781 -0.8923
  545TMC3    C5 8140   0.805   2.076  17.072  0.3939  0.2688  0.8091
  545TMC3    C6 8141   0.702   2.022  16.990  0.2622  0.3741  0.6230
  545TMC3     C 8142   0.731   2.439  17.064 -0.3576 -0.0276 -0.3938
  545TMC3     O 8143   0.674   2.518  16.994  0.3078  0.0482  0.3146
  545TMC3     H 8144   0.596   2.328  16.874  0.2986  0.4332 -0.2864
  545TMC3    H1 8145   0.899   2.240  17.164 -0.7153  0.6710 -1.0698
  545TMC3    H2 8146   0.681   1.916  16.984 -0.4471  0.4023  2.6657
  545TMC3    C7 8147   0.836   1.996  17.188 -0.0863  0.1834  0.4119
  545TMC3    C8 8148   0.518   2.073  16.847  0.6963  0.8596 -0.4815
  545TMC3    O1 8149   0.861   2.070  17.283 -0.2344  0.3396 -0.3307
  545TMC3    O2 8150   0.415   2.121  16.889  0.3371 -0.1661  0.0525
  546MPD2     C 8151   1.786   2.429  17.402 -0.4201  0.3032 -0.6324
  546MPD2    C1 8152   1.711   2.512  17.321  0.1398 -0.2353  0.1892
  546MPD2    C2 8153   1.724   2.649  17.335  0.3299  0.5474  0.0167
  546MPD2    C3 8154   1.826   2.705  17.415  0.1429 -0.3947 -0.7197
  546MPD2    C4 8155   1.905   2.618  17.492 -0.3406 -0.0241  0.3175
  546MPD2    C5 8156   1.881   2.482  17.487  0.3812 -0.3715 -0.7122
  546MPD2     H 8157   1.669   2.721  17.275  0.2334  1.0900  0.7613
  546MPD2    H1 8158   1.987   2.652  17.553 -0.6758  2.6222 -0.7088
  546MPD2    H2 8159   1.799   2.324  17.378 -1.0955 -0.2574  1.5048
  546MPD2    H3 8160   1.940   2.423  17.555 -1.4036 -0.9315  0.3455
  546MPD2     N 8161   1.858   2.843  17.430 -0.0677 -0.2341 -0.0963
  546MPD2    H5 8162   1.905   2.869  17.516  1.0820 -3.2757  0.1996
  546MPD2    N1 8163   1.622   2.444  17.227 -0.0601 -0.4242  0.7445
  546MPD2    H7 8164   1.615   2.343  17.226  0.1064 -0.4476  1.6569
  547TMC3    C1 8165   1.542   2.434  17.002 -0.6190 -0.8067  0.1170
  547TMC3    C2 8166   1.455   2.498  16.921 -0.3181  0.6699 -0.1588
  547TMC3    C3 8167   1.423   2.416  16.814 -0.4747  0.6052  0.3009
  547TMC3    C4 8168   1.602   2.319  16.978  0.0754 -0.5322 -0.4644
  547TMC3    C5 8169   1.576   2.244  16.866  0.8371 -0.3001  0.1145
  547TMC3    C6 8170   1.483   2.295  16.780 -0.0270 -0.9302  0.6121
  547TMC3     C 8171   1.567   2.510  17.121  0.2016  0.6370  0.2289
  547TMC3     O 8172   1.539   2.630  17.117 -0.2978 -0.1824 -0.1536
  547TMC3     H 8173   1.396   2.585  16.946  0.5874  1.4373 -0.7093
  547TMC3    H1 8174   1.682   2.287  17.045 -0.0141 -1.4016 -0.7761
  547TMC3    H2 8175   1.460   2.236  16.692  0.3719 -1.4423  0.8535
  547TMC3    C7 8176   1.580   2.101  16.897  0.4438  0.2553  0.0955
  547TMC3    C8 8177   1.360   2.490  16.702 -0.4289 -0.3718 -0.1528
  547TMC3    O1 8178   1.643   2.072  16.999 -0.4268  0.4717 -0.4395
  547TMC3    O2 8179   1.309   2.429  16.609 -0.0271  0.2778  0.1207
  548MPD2     C 8180   0.947   3.522  12.748 -0.1298  0.6893 -0.2399
  548MPD2    C1 8181   0.932   3.390  12.707  0.1484  0.3166 -0.4139
  548MPD2    C2 8182   1.032   3.301  12.745  0.2963 -0.1653  0.1131
  548MPD2    C3 8183   1.159   3.345  12.786 -0.3264  0.8817  0.1667
  548MPD2    C4 8184   1.168   3.482  12.819  0.4642  0.0242  0.1594
  548MPD2    C5 8185   1.065   3.565  12.800  1.1076  0.5494 -1.0916
  548MPD2     H 8186   1.017   3.195  12.725 -0.7636 -0.1456  0.7402
  548MPD2    H1 8187   1.260   3.534  12.845  0.7018 -2.1871  3.6068
  548MPD2    H2 8188   0.878   3.602  12.723 -1.9198 -0.2169  1.7753
  548MPD2    H3 8189   1.081   3.671  12.817  0.6469  0.3555  0.5591
  548MPD2     N 8190   1.275   3.262  12.788 -0.0958  0.2038 -0.3830
  548MPD2    H5 8191   1.272   3.172  12.742 -2.1064  0.7960 -1.4110
  548MPD2    N1 8192   0.813   3.360  12.633 -0.1851  0.0596  0.8922
  548MPD2    H7 8193   0.742   3.433  12.626 -0.1055  0.2378  1.9138
  549TMC3    C1 8194   0.648   3.239  12.526 -0.0179  0.6946 -0.2853
  549TMC3    C2 8195   0.592   3.351  12.475  0.4395  0.0873  0.3343
  549TMC3    C3 8196   0.474   3.346  12.404 -0.6281  0.3771  0.8753
  549TMC3    C4 8197   0.593   3.115  12.496  0.5527 -0.4140 -0.4862
  549TMC3    C5 8198   0.480   3.111  12.421  0.1361 -0.0415  0.3239
  549TMC3    C6 8199   0.418   3.227  12.374  0.2032 -0.0267  0.6395
  549TMC3     C 8200   0.780   3.241  12.588 -0.2226 -0.0419  0.7749
  549TMC3     O 8201   0.850   3.141  12.573 -0.0778 -0.3012  0.5043
  549TMC3     H 8202   0.626   3.442  12.524 -0.7508  2.2351 -2.8010
  549TMC3    H1 8203   0.647   3.030  12.535 -0.7861 -0.4087  1.3585
  549TMC3    H2 8204   0.329   3.218  12.313  2.4429 -0.0344 -2.5946
  549TMC3    C7 8205   0.399   2.988  12.426  0.3668 -0.2899  0.6225
  549TMC3    C8 8206   0.405   3.467  12.369 -0.7093  0.9234 -0.5921
  549TMC3    O1 8207   0.280   3.001  12.399  0.0820  0.0635  0.2168
  549TMC3    O2 8208   0.285   3.467  12.353  0.6014  0.2898  0.0266
  550TMC3    C1 8209   0.072   1.183  11.902 -0.1249  0.1009 -0.2297
  550TMC3    C2 8210   0.064   1.206  12.038 -0.6653  0.5201  0.0006
  550TMC3    C3 8211   0.122   1.314  12.099  0.7008  0.5286 -0.8101
  550TMC3    C4 8212   0.154   1.260  11.824  0.0518 -0.3222  0.5120
  550TMC3    C5 8213   0.207   1.370  11.881 -0.5159  0.0927 -0.0791
  550TMC3    C6 8214   0.195   1.394  12.015 -0.4699 -0.0678  0.1470
  550TMC3     C 8215   4.709   1.089  11.843 -0.4046  0.0903 -0.6366
  550TMC3     O 8216   4.630   1.051  11.930 -0.7030 -0.3915 -0.2727
  550TMC3     H 8217   0.009   1.139  12.102 -0.6570  0.3556 -0.1626
  550TMC3    H1 8218   0.177   1.230  11.722 -0.5431 -1.7759  0.8063
  550TMC3    H2 8219   0.248   1.477  12.060 -1.4106 -0.5159  2.0976
  550TMC3    C7 8220   0.195   1.499  11.816  0.4043 -0.7174  0.0456
  550TMC3    C8 8221   0.037   1.394  12.182  0.2319 -0.7717 -0.4448
  550TMC3    O1 8222   0.290   1.573  11.810 -0.3758 -0.3897  0.0344
  550TMC3    O2 8223   0.091   1.492  12.233 -0.4234  0.4916 -0.4023
  551TMC3    C1 8224   2.102   3.959  13.211 -0.3568 -0.3937  0.5223
  551TMC3    C2 8225   2.196   4.026  13.142 -0.1395 -0.2104 -0.3011
  551TMC3    C3 8226   2.321   4.040  13.200 -0.7730 -0.2469 -0.3003
  551TMC3    C4 8227   2.134   3.896  13.332 -0.7019  0.3002  0.0298
  551TMC3    C5 8228   2.263   3.896  13.373 -0.7563 -0.3681 -0.0350
  551TMC3    C6 8229   2.365   3.958  13.308 -0.6530  0.0186 -0.1313
  551TMC3     C 8230   1.965   3.958  13.156 -0.6661 -0.3685  0.3385
  551TMC3     O 8231   1.928   4.046  13.080 -0.3615  0.0691  0.0939
  551TMC3     H 8232   2.163   4.093  13.064 -0.3451 -0.9033 -0.8086
  551TMC3    H1 8233   2.059   3.841  13.387  1.4452 -1.0338  1.6387
  551TMC3    H2 8234   2.467   3.963  13.344 -0.5284 -3.3222 -0.0222
  551TMC3    C7 8235   2.292   3.879  13.516  0.1566  0.5141  0.3775
  551TMC3    C8 8236   2.420   4.108  13.122  0.1772  0.4268 -0.3712
  551TMC3    O1 8237   2.410   3.886  13.539 -0.6118 -0.7364  0.0164
  551TMC3    O2 8238   2.530   4.061  13.130  0.0124 -0.5635 -0.0503
  552MPD2     C 8239   4.276   0.977  14.121  0.3700 -0.3481 -0.1283
  552MPD2    C1 8240   4.276   0.838  14.121  0.2606  0.3156  0.2043
  552MPD2    C2 8241   4.398   0.779  14.149  0.7964  0.1968  0.2906
  552MPD2    C3 8242   4.509   0.858  14.186 -0.2511  0.0117 -0.2785
  552MPD2    C4 8243   4.498   0.991  14.192  0.3518  0.2129 -0.3135
  552MPD2    C5 8244   4.390   1.055  14.149  0.4983 -0.4291 -1.1802
  552MPD2     H 8245   4.405   0.671  14.136  0.8382  0.2297  0.0295
  552MPD2    H1 8246   4.591   1.046  14.206  0.3923 -0.0768  0.5604
  552MPD2    H2 8247   4.180   1.023  14.102 -0.1656 -1.4845 -0.1948
  552MPD2    H3 8248   4.380   1.162  14.145  0.1607 -0.4350 -0.5009
  552MPD2     N 8249   4.637   0.819  14.225  0.1551 -0.4218  0.2786
  552MPD2    H5 8250   4.714   0.885  14.229 -1.1189  1.2656 -2.8447
  552MPD2    N1 8251   4.163   0.757  14.096 -0.3829  0.7580 -0.0428
  552MPD2    H7 8252   4.172   0.656  14.096  1.0932  0.8870 -0.4844
  553TMC3    C1 8253   3.933   0.703  14.033 -0.2478  0.8193 -0.2943
  553TMC3    C2 8254   3.844   0.751  13.938 -0.0837 -0.2750 -0.5530
  553TMC3    C3 8255   3.772   0.673  13.842  0.2309 -0.0171  1.0153
  553TMC3    C4 8256   3.938   0.572  14.052 -0.2500  0.0314 -0.1289
  553TMC3    C5 8257   3.865   0.497  13.969 -0.0873 -0.5661  0.0586
  553TMC3    C6 8258   3.782   0.538  13.872 -1.1158 -0.3547  0.6237
  553TMC3     C 8259   4.040   0.800  14.047  0.6122 -0.2955 -0.3532
  553TMC3     O 8260   4.021   0.913  14.016  0.1251  0.2867 -0.2389
  553TMC3     H 8261   3.845   0.853  13.902 -1.7328  0.1737  0.6770
  553TMC3    H1 8262   4.012   0.525  14.115 -2.0243 -1.1639  1.0791
  553TMC3    H2 8263   3.725   0.469  13.812  0.4920 -0.2521 -0.9985
  553TMC3    C7 8264   3.881   0.354  13.970  0.4143 -0.3338 -0.8054
  553TMC3    C8 8265   3.852   0.689  13.718  0.3404  0.1247 -0.1834
  553TMC3    O1 8266   3.789   0.280  14.000  0.2849 -0.1280 -0.0882
  553TMC3    O2 8267   3.959   0.738  13.740 -0.1627  0.4884  0.0277
  554TMC3    C1 8268   1.549   0.570  11.194  0.8655  0.3875  0.6144
  554TMC3    C2 8269   1.527   0.495  11.086  0.1173 -0.0110 -0.3394
  554TMC3    C3 8270   1.565   0.550  10.969  0.4212 -0.4189 -0.0525
  554TMC3    C4 8271   1.597   0.703  11.192 -0.4774 -0.0299  0.3355
  554TMC3    C5 8272   1.625   0.759  11.069  0.0334 -0.5917 -0.2683
  554TMC3    C6 8273   1.611   0.682  10.958 -0.1266 -0.8712  0.8859
  554TMC3     C 8274   1.520   0.514  11.327  0.0421  1.0773 -0.5266
  554TMC3     O 8275   1.536   0.581  11.428 -0.2101  0.0192  0.5926
  554TMC3     H 8276   1.502   0.391  11.103  0.5167 -0.2041 -0.9164
  554TMC3    H1 8277   1.601   0.758  11.285  1.0282  1.2269 -0.4866
  554TMC3    H2 8278   1.632   0.725  10.861 -0.2616 -1.8877  0.4074
  554TMC3    C7 8279   1.665   0.898  11.044  0.2249  0.4547 -0.2364
  554TMC3    C8 8280   1.545   0.469  10.847  0.5193 -0.3003  0.4289
  554TMC3    O1 8281   1.669   0.935  10.929  0.4338  0.5580  0.1626
  554TMC3    O2 8282   1.507   0.353  10.857 -0.0981 -0.5870  0.6265
  555TMC3    C1 8283   0.650   4.129  14.817  0.5800 -0.1031  1.1419
  555TMC3    C2 8284   0.754   4.196  14.876 -0.0253  0.2508 -0.2089
  555TMC3    C3 8285   0.800   4.155  14.996  0.1352  0.5326  0.0201
  555TMC3    C4 8286   0.593   4.023  14.877  0.1811 -0.0437 -0.0458
  555TMC3    C5 8287   0.637   3.980  15.000  0.2809  0.4228 -0.9144
  555TMC3    C6 8288   0.745   4.050  15.057 -0.3774 -0.3062 -0.3826
  555TMC3     C 8289   0.597   4.200  14.706 -0.4607 -0.5998 -0.1640
  555TMC3     O 8290   0.669   4.295  14.673 -0.3160 -0.0438 -0.0083
  555TMC3     H 8291   0.810   4.279  14.836  0.4155  0.6545  1.2576
  555TMC3    H1 8292   0.519   3.963  14.825 -0.6294 -0.3293  1.4400
  555TMC3    H2 8293   0.778   4.020  15.156  0.4737 -1.7040 -1.0949
  555TMC3    C7 8294   0.637   3.841  15.030 -0.4911 -0.1746 -0.1607
  555TMC3    C8 8295   0.882   4.246  15.076 -0.3780  0.1325  0.3403
  555TMC3    O1 8296   0.531   3.788  15.051 -0.1357 -0.1677  0.0836
  555TMC3    O2 8297   0.883   4.366  15.043  0.0840  0.3997 -0.2658
  556MPD2     C 8298   3.474   1.873  10.775  0.1666 -0.8932 -0.5527
  556MPD2    C1 8299   3.386   1.795  10.843  0.0106  0.6263 -0.2633
  556MPD2    C2 8300   3.340   1.678  10.788 -0.2899 -0.6552 -0.6487
  556MPD2    C3 8301   3.374   1.643  10.660  0.2681  0.0925  0.3337
  556MPD2    C4 8302   3.454   1.729  10.585 -0.5452 -0.2048 -0.1443
  556MPD2    C5 8303   3.501   1.837  10.650 -0.0752 -0.3191  0.2549
  556MPD2     H 8304   3.291   1.610  10.858 -1.3068  0.3691 -0.3636
  556MPD2    H1 8305   3.486   1.706  10.484 -0.3636  0.7544 -0.2993
  556MPD2    H2 8306   3.518   1.963  10.817  0.0877 -0.6882 -0.9041
  556MPD2    H3 8307   3.558   1.909  10.592 -0.6354  0.2925  0.4608
  556MPD2     N 8308   3.328   1.517  10.620  0.1721  0.3015 -0.0095
  556MPD2    H5 8309   3.311   1.464  10.705 -0.7159  0.6268  0.0128
  556MPD2    N1 8310   3.355   1.821  10.983 -0.3467 -0.0807  0.0175
  556MPD2    H7 8311   3.286   1.762  11.030 -0.4862  2.0482  2.4852
  557TMC3    C1 8312   3.350   1.302  10.501  0.6264  0.4754  0.0122
  557TMC3    C2 8313   3.358   1.232  10.385 -0.1231  0.3775  0.5654
  557TMC3    C3 8314   3.365   1.094  10.377  0.0875 -0.1841  0.0615
  557TMC3    C4 8315   3.318   1.226  10.610 -0.4858 -0.4874 -0.1423
  557TMC3    C5 8316   3.319   1.089  10.601 -0.6441  0.1081 -0.6601
  557TMC3    C6 8317   3.350   1.017  10.486 -0.0671  0.5591  0.4733
  557TMC3     C 8318   3.348   1.451  10.499 -0.7716  0.3351 -0.3944
  557TMC3     O 8319   3.382   1.495  10.391  0.4602 -0.0366 -0.4294
  557TMC3     H 8320   3.379   1.299  10.302  1.4409  0.7157  1.2400
  557TMC3    H1 8321   3.291   1.266  10.707  1.9369  0.9392 -0.0460
  557TMC3    H2 8322   3.365   0.910  10.489 -1.6747  0.3368  0.2137
  557TMC3    C7 8323   3.289   1.015  10.718  0.3165  0.6082  0.0002
  557TMC3    C8 8324   3.426   1.043  10.259  0.6717 -0.0029 -0.3403
  557TMC3    O1 8325   3.188   0.948  10.716  0.0648 -0.0990  0.2534
  557TMC3    O2 8326   3.476   1.130  10.189 -0.0239  0.2799 -0.5062
  558TMC3    C1 8327   1.079   4.382  10.250 -0.2497  0.0389  0.2404
  558TMC3    C2 8328   0.957   4.377  10.322 -0.1395 -0.3545 -0.1380
  558TMC3    C3 8329   0.851   4.345  10.252 -0.6127  0.4315  0.3239
  558TMC3    C4 8330   1.076   4.384  10.114  0.9568 -0.4982  0.2918
  558TMC3    C5 8331   0.964   4.347  10.047  0.1741  0.4608 -0.2446
  558TMC3    C6 8332   0.852   4.328  10.114 -0.7173  1.1093 -0.8231
  558TMC3     C 8333   1.201   4.375  10.327 -0.3005 -0.1972  0.7961
  558TMC3     O 8334   1.306   4.407  10.281  0.6822 -0.0492 -0.0218
  558TMC3     H 8335   0.956   4.404  10.427  0.2544 -1.4020  0.1318
  558TMC3    H1 8336   1.165   4.412  10.059  0.5278 -0.7789 -0.5355
  558TMC3    H2 8337   0.760   4.294  10.067 -0.4615 -0.4565 -0.1833
  558TMC3    C7 8338   0.956   4.360   9.901  0.1634 -0.1229  0.1832
  558TMC3    C8 8339   0.719   4.318  10.325  0.6842 -0.3400  0.4656
  558TMC3    O1 8340   1.037   4.435   9.844  0.0173 -0.4301  0.1589
  558TMC3    O2 8341   0.619   4.300  10.258 -0.1120 -0.1586  0.0910
  559MPD2     C 8342   1.239   0.038  10.211 -0.2515 -0.3728  0.8621
  559MPD2    C1 8343   1.144   0.025  10.312 -0.6203  0.9499  0.1657
  559MPD2    C2 8344   1.198   0.010  10.437  0.2776  0.7300 -0.6642
  559MPD2    C3 8345   1.336   0.003  10.467  0.2830  0.3438  0.4721
  559MPD2    C4 8346   1.419   0.014  10.361  0.5763  0.1992  0.5200
  559MPD2    C5 8347   1.376   0.027  10.230  0.4567 -0.4591 -0.1871
  559MPD2     H 8348   1.124   0.006  10.517  2.1602  0.2517  1.0532
  559MPD2    H1 8349   1.528   0.012  10.363  0.6547  1.7958 -1.3049
  559MPD2    H2 8350   1.205   0.056  10.109 -0.7705  0.8985  1.2566
  559MPD2    H3 8351   1.452   0.031  10.153  1.2364 -0.3409  0.5968
  559MPD2     N 8352   1.377   4.731  10.601 -0.3322  0.0813  0.6405
  559MPD2    H5 8353   1.305   4.728  10.672  1.3113 -1.8735  2.2469
  559MPD2    N1 8354   1.012   0.029  10.280  0.3953  0.0427  0.2666
  559MPD2    H7 8355   0.980   0.049  10.186  0.3898 -1.4559 -0.0396
  560TMC3    C1 8356   1.516   0.009  10.788  0.1521  0.0539 -0.1139
  560TMC3    C2 8357   1.442   4.637  10.845  0.3647 -0.4064 -0.1539
  560TMC3    C3 8358   1.478   4.613  10.976 -0.3902 -0.8384 -0.2924
  560TMC3    C4 8359   1.625   0.074  10.847  0.2712  0.1621  0.9015
  560TMC3    C5 8360   1.647   0.048  10.983  0.2959 -0.8004  0.5095
  560TMC3    C6 8361   1.574   4.684  11.046  0.2003  0.2799  0.7731
  560TMC3     C 8362   1.505   0.027  10.645 -0.2413  0.7761 -0.3400
  560TMC3     O 8363   1.612   0.056  10.590  0.1598  0.1956  0.0457
  560TMC3     H 8364   1.375   4.575  10.786 -1.0419 -0.2651  1.3296
  560TMC3    H1 8365   1.674   0.154  10.793 -0.9031 -0.1877 -0.6890
  560TMC3    H2 8366   1.586   4.663  11.152 -1.3029 -0.2420  0.8338
  560TMC3    C7 8367   1.730   0.131  11.065 -2.1596 -0.6229  0.9562
  560TMC3    C8 8368   1.380   4.542  11.052 -0.5168  0.5630  0.1391
  560TMC3    O1 8369   1.753   0.101  11.181 -0.8790  0.6157 -0.0473
  560TMC3    O2 8370   1.263   4.560  11.035 -0.4199  0.1190 -0.0090
  561TMC3    C1 8371   3.854   3.627  11.200  0.5221  0.2417  0.4824
  561TMC3    C2 8372   3.733   3.568  11.227 -0.1284 -0.4578  1.1452
  561TMC3    C3 8373   3.634   3.647  11.292  0.1564  0.1902 -0.1546
  561TMC3    C4 8374   3.875   3.755  11.227  0.1472 -0.2275  0.0037
  561TMC3    C5 8375   3.780   3.834  11.290  0.0786  0.1291  0.6911
  561TMC3    C6 8376   3.660   3.782  11.325  0.0972 -0.7414  1.0027
  561TMC3     C 8377   3.963   3.534  11.193 -0.4328 -0.2402  0.0827
  561TMC3     O 8378   3.928   3.419  11.167  0.6770 -0.2539 -0.8764
  561TMC3     H 8379   3.718   3.461  11.218  1.8007 -0.6774  0.6144
  561TMC3    H1 8380   3.971   3.801  11.208 -0.2956  0.8540  0.3672
  561TMC3    H2 8381   3.588   3.850  11.369  1.7153  1.0725  0.8446
  561TMC3    C7 8382   3.813   3.969  11.333  0.9191  0.1674  0.0209
  561TMC3    C8 8383   3.513   3.580  11.340 -0.1234 -0.8538  0.2355
  561TMC3    O1 8384   3.719   4.032  11.387  0.4853  0.0686 -0.2613
  561TMC3    O2 8385   3.488   3.466  11.296  0.0178  0.0397 -0.2293
  562TMC3    C1 8386   0.804   4.237  16.046  0.0916  0.2573  0.2524
  562TMC3    C2 8387   0.777   4.358  15.989  0.1989  0.0644  0.0224
  562TMC3    C3 8388   0.819   4.377  15.866  0.7845  0.2911 -0.3695
  562TMC3    C4 8389   0.870   4.136  15.967 -0.9803  0.1208 -0.6713
  562TMC3    C5 8390   0.919   4.168  15.844 -0.7291  0.3394 -1.4229
  562TMC3    C6 8391   0.881   4.285  15.783 -0.6308  0.3482 -0.3723
  562TMC3     C 8392   0.746   4.210  16.176  0.3470 -0.3645  0.3652
  562TMC3     O 8393   0.738   4.303  16.255 -0.4122  0.5520  0.6922
  562TMC3     H 8394   0.730   4.435  16.049  1.3161  1.5694 -1.0531
  562TMC3    H1 8395   0.886   4.037  16.008  1.0369  0.9396  0.5430
  562TMC3    H2 8396   0.917   4.304  15.683  1.1899  2.3449  0.6616
  562TMC3    C7 8397   0.945   4.058  15.754 -0.1632  0.0189  0.4350
  562TMC3    C8 8398   0.770   4.499  15.796  0.0407  0.8874  0.2447
  562TMC3    O1 8399   0.884   4.054  15.647 -0.2254 -0.0662 -0.6151
  562TMC3    O2 8400   0.725   4.588  15.865  0.2504  0.2855  0.0768
  563MPD2     C 8401   3.168   1.136  15.591 -0.1575 -0.4318 -0.0659
  563MPD2    C1 8402   3.187   1.086  15.715  0.1567 -0.0149 -0.1024
  563MPD2    C2 8403   3.307   1.089  15.778  0.4537 -0.5268 -0.1298
  563MPD2    C3 8404   3.416   1.135  15.712  0.1707 -0.0594  0.0003
  563MPD2    C4 8405   3.394   1.199  15.596 -0.6157 -0.0110  0.5848
  563MPD2    C5 8406   3.275   1.194  15.530 -0.1918 -0.1977 -0.1190
  563MPD2     H 8407   3.321   1.042  15.875 -0.2287 -0.2537  0.1034
  563MPD2    H1 8408   3.481   1.238  15.543 -1.3864  1.3795  0.3354
  563MPD2    H2 8409   3.074   1.135  15.537 -0.0741 -0.7061 -0.2031
  563MPD2    H3 8410   3.264   1.234  15.430  2.0464  0.6445 -0.0266
  563MPD2     N 8411   3.536   1.116  15.785 -0.4675  0.0228  0.1431
  563MPD2    H5 8412   3.525   1.068  15.873  2.2210  0.6693  0.8335
  563MPD2    N1 8413   3.083   1.033  15.790 -0.5091  0.3660  0.6359
  563MPD2    H7 8414   3.107   0.979  15.872  1.5523 -0.6946 -0.6516
  564TMC3    C1 8415   2.877   0.949  15.845 -0.2286 -0.2257 -0.0721
  564TMC3    C2 8416   2.806   0.857  15.775 -0.1571 -0.3590  0.2043
  564TMC3    C3 8417   2.810   0.725  15.818 -0.3100  0.0843 -0.3318
  564TMC3    C4 8418   2.949   0.916  15.956 -0.0152  0.3204 -0.1117
  564TMC3    C5 8419   2.949   0.781  15.996  0.2588 -0.0636  0.6433
  564TMC3    C6 8420   2.883   0.683  15.930 -0.0808  0.1286 -0.2112
  564TMC3     C 8421   2.949   1.036  15.757 -0.6944 -0.3629  0.4217
  564TMC3     O 8422   2.893   1.095  15.668  0.5911 -0.3588  0.0580
  564TMC3     H 8423   2.769   0.886  15.678 -0.8456  0.1544  0.6175
  564TMC3    H1 8424   2.983   0.988  16.030 -3.0689  1.9993 -0.3103
  564TMC3    H2 8425   2.881   0.579  15.961  0.6514  0.5632  1.3122
  564TMC3    C7 8426   3.057   0.742  16.085 -0.7139 -0.0253 -0.1992
  564TMC3    C8 8427   2.714   0.631  15.768  0.2020  0.1078  0.3126
  564TMC3    O1 8428   3.156   0.816  16.084 -0.5910 -0.3362 -0.8959
  564TMC3    O2 8429   2.748   0.515  15.773  1.0308  0.2130 -0.4873
  565TMC3    C1 8430   2.643   3.240  10.645 -0.3440 -0.8610 -0.1173
  565TMC3    C2 8431   2.656   3.144  10.746 -0.0695 -0.3531 -0.1016
  565TMC3    C3 8432   2.564   3.045  10.747  0.6059  0.1098  0.4987
  565TMC3    C4 8433   2.536   3.241  10.552 -0.3341 -0.2196  0.0051
  565TMC3    C5 8434   2.450   3.145  10.572  0.1751 -0.3795 -0.2070
  565TMC3    C6 8435   2.456   3.044  10.669  0.0280 -0.3863 -0.0259
  565TMC3     C 8436   2.727   3.357  10.647 -0.3697  0.7446  0.7276
  565TMC3     O 8437   2.703   3.461  10.589  0.3336 -0.6934 -0.9592
  565TMC3     H 8438   2.748   3.136  10.804  0.4016  3.0134 -0.3359
  565TMC3    H1 8439   2.519   3.311  10.471 -2.6510  1.0321  1.5688
  565TMC3    H2 8440   2.363   2.998  10.698  1.6889 -3.8344 -0.1736
  565TMC3    C7 8441   2.325   3.143  10.496  0.2765 -0.7160  0.9206
  565TMC3    C8 8442   2.570   2.937  10.842  0.9442  0.2463  0.4818
  565TMC3    O1 8443   2.243   3.057  10.531 -0.8535 -0.3264 -0.7030
  565TMC3    O2 8444   2.661   2.950  10.925 -0.1287  0.4372 -0.3327
  566MPD2     C 8445   4.535   4.263  14.392  0.4599  0.2459 -0.4138
  566MPD2    C1 8446   4.593   4.149  14.348  0.0949  0.4808 -0.1895
  566MPD2    C2 8447   4.513   4.052  14.289 -0.2453 -0.1951 -0.1408
  566MPD2    C3 8448   4.375   4.071  14.268  0.0404  0.2787  0.7956
  566MPD2    C4 8449   4.328   4.192  14.311 -0.6978  0.7962  0.0527
  566MPD2    C5 8450   4.398   4.283  14.378 -0.8038 -0.0947  0.6464
  566MPD2     H 8451   4.554   3.955  14.264  0.1849  0.5413 -2.3843
  566MPD2    H1 8452   4.228   4.224  14.284 -0.8808 -0.1990 -0.4555
  566MPD2    H2 8453   4.599   4.340  14.433 -1.9404  0.4615  2.9262
  566MPD2    H3 8454   4.351   4.376  14.405  3.4098  2.9957 -2.5872
  566MPD2     N 8455   4.295   3.996  14.172 -0.4540 -0.7351  0.4995
  566MPD2    H5 8456   4.204   4.028  14.141 -0.1268  0.6085  0.9304
  566MPD2    N1 8457   4.730   4.140  14.361 -0.8448  0.1291 -0.4164
  566MPD2    H7 8458   0.045   4.226  14.382  0.5316 -0.3236 -1.8462
  567TMC3    C1 8459   0.207   4.067  14.336  0.5807  0.3445 -0.2899
  567TMC3    C2 8460   0.255   4.178  14.267  0.0434  0.3724 -0.4450
  567TMC3    C3 8461   0.388   4.194  14.249  0.6305 -0.2176  0.3505
  567TMC3    C4 8462   0.296   3.980  14.397  0.5896  0.1110  0.4943
  567TMC3    C5 8463   0.428   4.011  14.385 -0.1016  0.0171 -0.0701
  567TMC3    C6 8464   0.483   4.112  14.309  0.2851 -0.1226  0.8588
  567TMC3     C 8465   0.069   4.027  14.337 -0.2496 -0.0182 -0.7594
  567TMC3     O 8466   0.037   3.912  14.353 -0.2552 -0.3339 -0.1329
  567TMC3     H 8467   0.193   4.238  14.200  2.1492 -1.0195 -3.6577
  567TMC3    H1 8468   0.250   3.896  14.447 -1.1321  2.7231  3.2938
  567TMC3    H2 8469   0.588   4.135  14.318  0.7841 -1.6583 -1.0540
  567TMC3    C7 8470   0.522   3.919  14.448 -0.5779  0.3386 -0.3674
  567TMC3    C8 8471   0.421   4.228  14.107 -0.1003  0.7051  0.2170
  567TMC3    O1 8472   0.641   3.925  14.412 -0.3080  0.0211  0.2652
  567TMC3    O2 8473   0.324   4.249  14.037  0.5216  0.2878  0.1079
  568MPD2     C 8474   2.675   4.041  16.187 -0.6020 -0.1347 -0.2516
  568MPD2    C1 8475   2.642   4.127  16.284 -0.0388 -0.4080  0.1277
  568MPD2    C2 8476   2.584   4.250  16.242 -0.2780 -0.3722 -0.4731
  568MPD2    C3 8477   2.562   4.282  16.111 -0.0403 -0.1408  0.4300
  568MPD2    C4 8478   2.599   4.186  16.015 -0.1618  0.1659 -0.1350
  568MPD2    C5 8479   2.645   4.068  16.060  0.1953 -0.2369 -0.3854
  568MPD2     H 8480   2.560   4.329  16.313  1.6523 -0.2871  0.0743
  568MPD2    H1 8481   2.598   4.199  15.908 -1.1415 -0.5794 -0.2208
  568MPD2    H2 8482   2.718   3.948  16.223  0.7222 -0.5256 -2.8934
  568MPD2    H3 8483   2.675   3.992  15.988 -0.8705 -2.1575  1.1819
  568MPD2     N 8484   2.502   4.410  16.085 -0.4427 -0.8617 -0.9496
  568MPD2    H5 8485   2.478   4.466  16.166  2.1892  2.0238 -2.1521
  568MPD2    N1 8486   2.673   4.092  16.419 -0.2407 -0.1142 -0.1541
  568MPD2    H7 8487   2.697   3.997  16.443  0.8355 -0.6124 -3.2476
  569TMC3    C1 8488   2.415   4.594  15.986 -0.2012  0.3711  0.4909
  569TMC3    C2 8489   2.326   4.618  16.087  0.3643  0.0974 -0.2326
  569TMC3    C3 8490   2.263   0.003  16.103  0.2330 -0.1390  0.0569
  569TMC3    C4 8491   2.438   4.683  15.887 -0.1994  0.3648  0.5019
  569TMC3    C5 8492   2.365   0.064  15.895 -0.6848  0.2431  0.1965
  569TMC3    C6 8493   2.283   0.100  16.006 -0.2755 -0.1629 -0.0257
  569TMC3     C 8494   2.468   4.463  15.968  0.5640  0.5038  0.4586
  569TMC3     O 8495   2.515   4.427  15.858  0.0156 -0.3969 -0.2256
  569TMC3     H 8496   2.322   4.540  16.162  1.4250  0.9654  0.7071
  569TMC3    H1 8497   2.515   4.657  15.816 -0.2615 -0.6584  0.8074
  569TMC3    H2 8498   2.237   0.197  16.018 -1.9575 -0.9359 -0.2800
  569TMC3    C7 8499   2.416   0.180  15.814  0.0310  0.3317  0.9527
  569TMC3    C8 8500   2.293   0.051  16.245  0.1616  0.7156 -0.1112
  569TMC3    O1 8501   2.535   0.184  15.788  0.2852 -0.6082  0.4131
  569TMC3    O2 8502   2.282   4.704  16.339  0.4096 -0.4022  0.2926
  570TMC3    C1 8503   1.905   2.820  15.925 -0.7240 -0.7525 -0.2698
  570TMC3    C2 8504   1.931   2.891  15.810  0.3666 -0.4095 -0.3492
  570TMC3    C3 8505   2.036   2.984  15.806 -0.4223 -0.1211  0.4126
  570TMC3    C4 8506   1.987   2.835  16.032  0.3665 -0.5049 -0.0257
  570TMC3    C5 8507   2.097   2.914  16.021  0.3606 -0.9980 -0.0314
  570TMC3    C6 8508   2.115   3.000  15.917  0.0435 -0.2948 -0.2510
  570TMC3     C 8509   1.770   2.841  15.955  0.5805 -0.3176  0.3152
  570TMC3     O 8510   1.681   2.857  15.873 -0.0592 -0.2220  0.2721
  570TMC3     H 8511   1.853   2.892  15.734 -1.0735  0.5243  1.1408
  570TMC3    H1 8512   1.969   2.774  16.120 -0.0016 -0.5147 -0.1092
  570TMC3    H2 8513   2.196   3.072  15.924  0.7721 -1.2105  0.8083
  570TMC3    C7 8514   2.164   2.926  16.147 -0.7524 -0.1322 -0.7487
  570TMC3    C8 8515   2.072   3.072  15.696 -0.0284 -0.4625  0.7358
  570TMC3    O1 8516   2.125   2.860  16.242  0.1051 -0.0379  0.4247
  570TMC3    O2 8517   2.177   3.134  15.703 -0.0166 -0.3904 -0.2036
  571MPD2     C 8518   0.244   1.141  16.882  0.9511  0.0433 -0.0422
  571MPD2    C1 8519   0.381   1.137  16.869  0.4086 -0.2163  0.6744
  571MPD2    C2 8520   0.461   1.195  16.965  0.0446 -0.5833 -0.2767
  571MPD2    C3 8521   0.415   1.264  17.072  0.3110 -0.1041 -0.0662
  571MPD2    C4 8522   0.279   1.285  17.077 -0.1101  0.0473 -0.1115
  571MPD2    C5 8523   0.193   1.234  16.979 -0.0202  0.1400 -0.0050
  571MPD2     H 8524   0.569   1.192  16.959  0.0669 -1.3751  0.4707
  571MPD2    H1 8525   0.242   1.346  17.159 -1.3832 -1.4858  0.4624
  571MPD2    H2 8526   0.171   1.098  16.815 -1.0246  1.3446  1.2607
  571MPD2    H3 8527   0.087   1.252  16.994  0.4167  2.2589  0.4798
  571MPD2     N 8528   0.491   1.298  17.188 -0.5971 -0.0193 -0.2689
  571MPD2    H5 8529   0.445   1.343  17.267 -1.7405 -0.5364 -0.6460
  571MPD2    N1 8530   0.433   1.081  16.750 -0.2272 -0.4182  0.2083
  571MPD2    H7 8531   0.366   1.048  16.682  0.5935  0.4573 -1.0253
  572TMC3    C1 8532   0.654   1.252  17.350  0.6003 -0.5205 -0.0169
  572TMC3    C2 8533   0.745   1.160  17.398  0.4000 -0.5412  0.2477
  572TMC3    C3 8534   0.779   1.178  17.528  0.0720  0.0614 -0.2568
  572TMC3    C4 8535   0.616   1.371  17.411  0.2083  0.0108  0.1114
  572TMC3    C5 8536   0.660   1.377  17.540 -0.1770  0.7395  0.1641
  572TMC3    C6 8537   0.743   1.285  17.602  0.7103 -0.2972 -0.1539
  572TMC3     C 8538   0.600   1.222  17.225  0.1108 -0.1294 -0.4576
  572TMC3     O 8539   0.660   1.139  17.159 -0.6308 -0.2200  0.2589
  572TMC3     H 8540   0.764   1.064  17.350 -0.2182  0.7807 -2.6300
  572TMC3    H1 8541   0.558   1.448  17.361  0.6150  1.5295  1.9738
  572TMC3    H2 8542   0.778   1.307  17.701 -1.1688 -0.7756  0.6282
  572TMC3    C7 8543   0.642   1.498  17.616 -0.8372  0.5254  0.6082
  572TMC3    C8 8544   0.794   1.056  17.602  0.0415  0.0923  0.3360
  572TMC3    O1 8545   0.699   1.516  17.720  0.3135  0.3405  0.4009
  572TMC3    O2 8546   0.779   0.947  17.553  0.3606 -0.1810 -0.0190
  573MPD2     C 8547   1.111   0.998   0.217 -0.1255 -0.3046  0.0024
  573MPD2    C1 8548   1.198   1.087   0.162  0.0483 -0.2131 -0.0689
  573MPD2    C2 8549   1.223   1.085   0.028  0.5726  0.5743 -0.5005
  573MPD2    C3 8550   1.161   0.990  17.691 -0.5235  0.0227  0.3266
  573MPD2    C4 8551   1.092   0.890   0.015  0.1380 -0.6624 -0.8457
  573MPD2    C5 8552   1.065   0.893   0.146  0.3022  0.1408 -0.3183
  573MPD2     H 8553   1.288   1.154  17.713 -0.1473  1.3019 -0.4455
  573MPD2    H1 8554   1.040   0.814  17.696 -2.7267  0.9767 -0.4245
  573MPD2    H2 8555   1.091   0.996   0.323  1.0492  0.0390  0.2370
  573MPD2    H3 8556   1.002   0.817   0.192  0.1301 -0.5644 -1.7206
  573MPD2     N 8557   1.180   0.965  17.554  0.2977  0.4036  0.3008
  573MPD2    H5 8558   1.120   0.895  17.511 -0.0604  0.0987  1.3019
  573MPD2    N1 8559   1.239   1.196   0.243 -0.1642 -0.4097 -0.1829
  573MPD2    H7 8560   1.210   1.195   0.341 -1.7387  1.9797 -0.6350
  574TMC3    C1 8561   1.225   1.031  17.337  0.4906  0.6579 -0.2693
  574TMC3    C2 8562   1.103   1.096  17.340  0.7049 -0.4372 -0.3232
  574TMC3    C3 8563   1.097   1.209  17.269 -0.8761  0.7090  0.7810
  574TMC3    C4 8564   1.323   1.071  17.252 -0.0550  0.9601  0.2186
  574TMC3    C5 8565   1.310   1.188  17.182 -0.1832  0.5512 -0.3917
  574TMC3    C6 8566   1.198   1.260  17.186 -0.2637 -0.3100 -0.7812
  574TMC3     C 8567   1.273   1.016  17.469  0.2836 -0.8657 -0.6859
  574TMC3     O 8568   1.377   1.070  17.504  0.3406 -0.2128 -0.1401
  574TMC3     H 8569   1.034   1.079  17.422  1.3559 -0.9987  0.1043
  574TMC3    H1 8570   1.416   1.014  17.253 -0.7242 -0.1455 -0.2801
  574TMC3    H2 8571   1.190   1.354  17.132 -0.2152  1.0581  1.6121
  574TMC3    C7 8572   1.431   1.244  17.125  0.6582 -0.4040 -0.4539
  574TMC3    C8 8573   1.041   1.313  17.350 -0.3903  0.3752 -0.5051
  574TMC3    O1 8574   1.411   1.321  17.031  0.6255  0.1295 -0.3593
  574TMC3    O2 8575   1.053   1.308  17.477 -0.3153 -0.2976  0.2740
  575TMC3    C1 8576   2.865   2.525  11.575  0.0229 -0.5487  0.0853
  575TMC3    C2 8577   2.866   2.390  11.582  0.7179 -0.7626  0.5977
  575TMC3    C3 8578   2.809   2.319  11.478 -0.0466 -0.5132  0.7245
  575TMC3    C4 8579   2.816   2.588  11.465 -0.2069  0.9541 -0.2687
  575TMC3    C5 8580   2.768   2.513  11.359  0.3633 -0.0020 -0.5725
  575TMC3    C6 8581   2.766   2.378  11.364  0.4324 -0.5503 -0.2451
  575TMC3     C 8582   2.938   2.596  11.674  0.9631 -0.2561  0.2345
  575TMC3     O 8583   2.991   2.542  11.763 -0.6865  0.6323 -0.7695
  575TMC3     H 8584   2.900   2.347  11.676 -0.9006 -2.5044  0.3848
  575TMC3    H1 8585   2.815   2.695  11.453 -1.3480  0.9542 -0.1160
  575TMC3    H2 8586   2.744   2.313  11.279 -0.7066 -0.6773  0.1462
  575TMC3    C7 8587   2.728   2.586  11.239 -0.7941  0.2334  0.1815
  575TMC3    C8 8588   2.806   2.171  11.499 -0.2435  0.1719  0.6519
  575TMC3    O1 8589   2.779   2.698  11.223 -0.1671  0.5924 -0.0276
  575TMC3    O2 8590   2.860   2.123  11.599 -0.6810  0.1417  0.3680
  576MPD2     C 8591   2.729   3.872  12.558  0.0909 -0.7519 -0.3263
  576MPD2    C1 8592   2.664   3.953  12.461 -0.3073 -0.0740 -0.1659
  576MPD2    C2 8593   2.548   4.020  12.497  0.8780  0.0573 -0.0537
  576MPD2    C3 8594   2.490   4.004  12.615 -0.6331  0.3066 -0.8911
  576MPD2    C4 8595   2.555   3.927  12.708  0.1198  0.2850 -0.6691
  576MPD2    C5 8596   2.674   3.871  12.684  0.2454  0.3660  0.0098
  576MPD2     H 8597   2.499   4.077  12.419 -0.3134 -1.9758 -0.7993
  576MPD2    H1 8598   2.520   3.900  12.806  2.5037  0.7936  0.3235
  576MPD2    H2 8599   2.822   3.820  12.537  2.3769  4.3737 -2.7523
  576MPD2    H3 8600   2.718   3.804  12.756  0.9243  0.6709 -0.1199
  576MPD2     N 8601   2.369   4.076  12.643 -0.5209 -0.3679 -0.2474
  576MPD2    H5 8602   2.349   4.152  12.579 -2.4646 -1.3032 -0.7487
  576MPD2    N1 8603   2.713   3.968  12.333 -0.9371  0.0160 -0.4992
  576MPD2    H7 8604   2.650   4.017  12.270 -3.0033 -2.1357 -0.0986
  577TMC3    C1 8605   2.852   3.932  12.146 -0.1208  0.6513  0.3570
  577TMC3    C2 8606   2.942   3.844  12.080  0.3068 -0.0416 -0.5907
  577TMC3    C3 8607   2.991   3.871  11.953  0.6375  0.3187  0.0820
  577TMC3    C4 8608   2.838   4.056  12.090 -0.7742  0.1763  0.0418
  577TMC3    C5 8609   2.889   4.087  11.964 -0.1804  0.0659 -0.3591
  577TMC3    C6 8610   2.960   3.989  11.896  0.4514  0.6665  0.3571
  577TMC3     C 8611   2.829   3.909  12.282  0.2592  0.3612 -0.2083
  577TMC3     O 8612   2.917   3.837  12.334 -0.5632 -0.4790 -0.1202
  577TMC3     H 8613   2.959   3.748  12.128  1.5615  0.5604  0.1749
  577TMC3    H1 8614   2.774   4.128  12.139 -0.7345  0.7207 -0.7196
  577TMC3    H2 8615   3.014   4.009  11.804  0.7244  2.0247  0.8220
  577TMC3    C7 8616   2.937   4.228  11.956  0.4602  0.2224 -0.1445
  577TMC3    C8 8617   3.044   3.750  11.889 -0.0390  0.4365  0.0654
  577TMC3    O1 8618   2.962   4.271  12.068 -0.0776  0.1991 -0.2071
  577TMC3    O2 8619   3.018   3.646  11.946 -0.0999  0.3074 -0.4279
  578MPD2     C 8620   1.765   3.904   0.967 -0.0224  0.2335 -0.2332
  578MPD2    C1 8621   1.727   3.787   1.029 -1.1328  0.4252 -0.1489
  578MPD2    C2 8622   1.830   3.700   1.074  0.2449  0.1340 -0.9360
  578MPD2    C3 8623   1.958   3.735   1.057  0.5316 -0.6293  0.5834
  578MPD2    C4 8624   1.993   3.850   0.991 -0.6922  0.0195 -0.2755
  578MPD2    C5 8625   1.893   3.937   0.948  0.4923 -0.6795 -0.1397
  578MPD2     H 8626   1.799   3.613   1.130 -1.4082 -0.0760 -2.1681
  578MPD2    H1 8627   2.098   3.873   0.977 -0.6478  0.0483  0.1017
  578MPD2    H2 8628   1.689   3.974   0.932  0.6856  0.8258 -0.5887
  578MPD2    H3 8629   1.918   4.034   0.907 -0.8671 -0.5208 -0.6028
  578MPD2     N 8630   2.055   3.638   1.090  0.1271  0.3857 -0.1556
  578MPD2    H5 8631   2.017   3.564   1.147 -0.0337 -0.2051 -1.0325
  578MPD2    N1 8632   1.588   3.761   1.038 -0.0401  0.1840  0.4111
  578MPD2    H7 8633   1.536   3.837   0.995 -0.3532 -0.8185 -0.9698
  579TMC3    C1 8634   2.260   3.561   1.170 -0.9594 -0.2214  0.1747
  579TMC3    C2 8635   2.373   3.598   1.232 -0.0243 -0.5107 -0.3850
  579TMC3    C3 8636   2.459   3.510   1.294 -0.6689  0.3872 -0.5362
  579TMC3    C4 8637   2.226   3.425   1.168 -0.5304  0.1633 -0.5310
  579TMC3    C5 8638   2.304   3.336   1.238 -0.2279  0.0092 -0.6334
  579TMC3    C6 8639   2.420   3.375   1.306  0.3421 -0.3609 -0.4583
  579TMC3     C 8640   2.193   3.665   1.086  0.0577 -0.1032  0.1128
  579TMC3     O 8641   2.269   3.755   1.045  0.0856 -0.1511 -0.0387
  579TMC3     H 8642   2.400   3.703   1.230 -0.1308 -0.4119  2.9375
  579TMC3    H1 8643   2.150   3.396   1.097  0.3501 -0.3106 -1.2855
  579TMC3    H2 8644   2.482   3.309   1.366 -0.5474  0.4207  1.3162
  579TMC3    C7 8645   2.284   3.197   1.217  0.3514  0.7496 -0.1501
  579TMC3    C8 8646   2.593   3.544   1.359  0.0679 -0.1926  0.1598
  579TMC3    O1 8647   2.386   3.128   1.240  0.1788  0.0383 -0.7202
  579TMC3    O2 8648   2.649   3.462   1.428  0.4294 -0.5605  0.3059
  580TMC3    C1 8649   1.016   3.158  12.305 -0.5057 -0.6825 -0.7952
  580TMC3    C2 8650   1.082   3.258  12.370 -0.0235 -0.4782 -0.0747
  580TMC3    C3 8651   1.198   3.224  12.433 -0.1923 -0.1458  0.1637
  580TMC3    C4 8652   1.058   3.030  12.306  0.3288 -0.0385  0.4325
  580TMC3    C5 8653   1.168   3.003  12.384  0.3947  0.3136 -0.3624
  580TMC3    C6 8654   1.243   3.102  12.443  0.0781  0.0846  0.8239
  580TMC3     C 8655   0.927   3.204  12.208  1.0519  0.0894 -0.2216
  580TMC3     O 8656   0.951   3.310  12.158  0.2364 -0.4313  0.1818
  580TMC3     H 8657   1.038   3.356  12.387 -1.4013 -1.0699 -0.2042
  580TMC3    H1 8658   1.006   2.947  12.260  2.2870 -1.4490  0.7805
  580TMC3    H2 8659   1.323   3.075  12.510  1.0889  0.0204 -0.4186
  580TMC3    C7 8660   1.173   2.876  12.451 -0.3923 -0.4716 -0.2210
  580TMC3    C8 8661   1.296   3.333  12.431  0.1493 -0.2732 -0.1054
  580TMC3    O1 8662   1.186   2.879  12.572 -0.0522 -0.6996 -0.4922
  580TMC3    O2 8663   1.393   3.320  12.504 -0.4986  0.6901  0.0234
  581MPD2     C 8664   3.665   2.282  14.895  0.1112 -0.8508 -1.4690
  581MPD2    C1 8665   3.688   2.402  14.949 -0.0763 -0.0462  0.5657
  581MPD2    C2 8666   3.595   2.513  14.941 -0.4746  0.1417 -0.1373
  581MPD2    C3 8667   3.471   2.495  14.884 -0.7659 -0.0620  0.0868
  581MPD2    C4 8668   3.451   2.375  14.819  0.4630 -0.4902  0.3313
  581MPD2    C5 8669   3.546   2.273  14.828  0.4819  0.2717 -0.8047
  581MPD2     H 8670   3.616   2.594  15.010 -1.7280  1.3068 -1.1270
  581MPD2    H1 8671   3.363   2.351  14.759 -0.0926  0.7912  0.6424
  581MPD2    H2 8672   3.740   2.203  14.904 -0.1245 -0.8510  0.5600
  581MPD2    H3 8673   3.522   2.180  14.778  0.1706 -0.7509  1.2243
  581MPD2     N 8674   3.384   2.600  14.881  0.2455 -0.8999  0.0949
  581MPD2    H5 8675   3.417   2.693  14.904 -1.4585 -0.5719  1.2150
  581MPD2    N1 8676   3.813   2.407  15.023 -0.1824 -0.3665 -0.0477
  581MPD2    H7 8677   3.875   2.327  15.023  0.2733 -0.0047 -0.9806
  582TMC3    C1 8678   3.983   2.495  15.157  0.5238  0.3117  0.1357
  582TMC3    C2 8679   3.977   2.531  15.288 -0.1687 -0.8544 -0.4202
  582TMC3    C3 8680   4.059   2.465  15.372  0.3584 -0.0729 -0.3699
  582TMC3    C4 8681   4.043   2.376  15.117  0.0362  0.3375  0.2948
  582TMC3    C5 8682   4.112   2.303  15.205  1.0464 -1.1811 -0.5264
  582TMC3    C6 8683   4.136   2.355  15.334  0.8792  0.3159  0.7208
  582TMC3     C 8684   3.868   2.524  15.077  0.0874 -0.1033  0.2824
  582TMC3     O 8685   3.814   2.630  15.105 -0.8245  0.0292 -0.2832
  582TMC3     H 8686   3.930   2.625  15.315  0.7293 -0.4812 -0.1509
  582TMC3    H1 8687   4.031   2.338  15.016  0.4789  2.0962 -0.4198
  582TMC3    H2 8688   4.200   2.309  15.409  2.3629 -1.1114 -1.4170
  582TMC3    C7 8689   4.040   2.173  15.198 -0.1185 -0.1130 -0.0742
  582TMC3    C8 8690   4.082   2.510  15.512  0.1361  0.2737  0.1232
  582TMC3    O1 8691   3.947   2.172  15.118 -0.4659 -0.5559 -0.1929
  582TMC3    O2 8692   4.166   2.443  15.575 -0.0740  0.3826 -0.5197
  583MPD2     C 8693   4.273   4.308  16.809 -1.0042 -0.1991 -0.3076
  583MPD2    C1 8694   4.261   4.374  16.690  0.0911 -0.6097 -0.2653
  583MPD2    C2 8695   4.195   4.498  16.687  0.0641  0.0782  0.0805
  583MPD2    C3 8696   4.146   4.558  16.798 -0.3494 -0.1197 -0.2938
  583MPD2    C4 8697   4.169   4.490  16.915  0.0019 -0.6300 -0.0439
  583MPD2    C5 8698   4.230   4.368  16.918 -0.0404 -0.2381 -0.0191
  583MPD2     H 8699   4.175   4.548  16.593 -0.4093 -0.8231 -0.3008
  583MPD2    H1 8700   4.127   4.524  17.008 -2.7287  0.4909 -1.7005
  583MPD2    H2 8701   4.327   4.215  16.826 -2.0770 -0.5357  1.3058
  583MPD2    H3 8702   4.232   4.314  17.012  3.2697 -1.0652 -0.5539
  583MPD2     N 8703   4.083   4.684  16.792  0.0250  0.2336 -0.0507
  583MPD2    H5 8704   4.057   4.717  16.700 -3.1154  0.6430  0.9914
  583MPD2    N1 8705   4.310   4.326  16.567  0.2265  0.0741 -0.0805
  583MPD2    H7 8706   4.321   4.394  16.492 -1.3928  0.3212 -0.1040
  584TMC3    C1 8707   3.977   0.144  16.898  0.8863 -0.2640 -0.3239
  584TMC3    C2 8708   4.018   0.235  16.798  0.4528 -0.5774 -0.0146
  584TMC3    C3 8709   3.991   0.363  16.824 -0.1267  0.5170  0.1669
  584TMC3    C4 8710   3.914   0.189  17.013  0.2533 -0.9463 -0.2493
  584TMC3    C5 8711   3.879   0.321  17.022  0.4959 -0.4450 -0.0075
  584TMC3    C6 8712   3.921   0.415  16.929 -0.3478 -0.8551 -0.2023
  584TMC3     C 8713   4.037   0.018  16.905 -0.2030 -0.1107  0.4062
  584TMC3     O 8714   4.042   4.714  17.024  0.4376 -0.5421  0.4547
  584TMC3     H 8715   4.086   0.218  16.715 -1.9423  1.0693 -2.3075
  584TMC3    H1 8716   3.877   0.119  17.087 -0.0831 -0.6351 -0.1166
  584TMC3    H2 8717   3.871   0.511  16.919 -0.9688 -0.7830  3.6871
  584TMC3    C7 8718   3.778   0.367  17.117 -0.8907 -0.4574 -0.4486
  584TMC3    C8 8719   4.049   0.456  16.728  0.1724  0.1230  0.5745
  584TMC3    O1 8720   3.687   0.295  17.148 -0.4202  0.6780  0.2658
  584TMC3    O2 8721   4.052   0.414  16.612 -0.4201 -0.3315 -0.0456
  585MPD2     C 8722   3.122   3.374   0.124  0.0991 -0.2826  0.2572
  585MPD2    C1 8723   3.204   3.377   0.017  0.0534  0.2536  0.1552
  585MPD2    C2 8724   3.192   3.270  17.667 -0.2298 -0.6039 -0.3622
  585MPD2    C3 8725   3.110   3.163  17.690 -0.4213 -0.4544 -0.3437
  585MPD2    C4 8726   3.048   3.152   0.073  0.6279  0.1760 -0.7171
  585MPD2    C5 8727   3.050   3.263   0.150  0.2383  0.1166 -0.6998
  585MPD2     H 8728   3.247   3.264  17.574 -1.7490  1.8390 -1.4221
  585MPD2    H1 8729   2.981   3.067   0.088 -1.0172  1.4709 -0.7548
  585MPD2    H2 8730   3.125   3.462   0.188 -0.0450 -0.1958  0.1464
  585MPD2    H3 8731   2.989   3.266   0.240 -3.6994  1.1425 -3.3857
  585MPD2     N 8732   3.095   3.048  17.602  0.0839 -0.2099 -0.1831
  585MPD2    H5 8733   3.037   2.971  17.634 -1.5136  1.6793  1.5061
  585MPD2    N1 8734   3.289   3.496  17.729 -0.2574  0.1654 -0.7369
  585MPD2    H7 8735   3.278   3.575   0.054 -1.4224 -0.2425 -0.4193
  586TMC3    C1 8736   3.073   2.923  17.413  0.0700  0.9850  0.1793
  586TMC3    C2 8737   3.148   2.860  17.316 -0.7376 -0.9924  0.3134
  586TMC3    C3 8738   3.091   2.748  17.265  0.9103  0.2006  0.1943
  586TMC3    C4 8739   2.939   2.896  17.444  0.1984 -0.1703  0.5103
  586TMC3    C5 8740   2.881   2.784  17.387  0.5722  0.4191 -0.5011
  586TMC3    C6 8741   2.965   2.713  17.299 -0.1530 -0.2552  0.0256
  586TMC3     C 8742   3.136   3.039  17.474  0.4269 -0.0706  0.1953
  586TMC3     O 8743   3.209   3.113  17.410  0.7084 -0.5241  0.0182
  586TMC3     H 8744   3.244   2.905  17.295 -1.2260  0.8050  1.9119
  586TMC3    H1 8745   2.886   2.964  17.509 -1.8684 -1.6610  0.3971
  586TMC3    H2 8746   2.925   2.621  17.257  0.2361 -0.4231  0.0236
  586TMC3    C7 8747   2.741   2.739  17.392  0.1668  0.4200 -0.0457
  586TMC3    C8 8748   3.153   2.684  17.144  0.3120  0.4107 -0.4103
  586TMC3    O1 8749   2.712   2.635  17.331 -0.0345 -0.3984  0.1065
  586TMC3    O2 8750   3.062   2.640  17.074 -0.2998  0.2738 -0.2349
  587TMC3    C1 8751   0.368   1.965  16.136 -0.2674  0.2036  0.2052
  587TMC3    C2 8752   0.436   2.031  16.238  0.5281 -1.1157  0.2179
  587TMC3    C3 8753   0.548   1.976  16.284  0.1170 -0.1877 -0.2471
  587TMC3    C4 8754   0.426   1.850  16.085  0.6641  0.2413 -0.2676
  587TMC3    C5 8755   0.547   1.802  16.134 -0.4245  0.1933 -0.1794
  587TMC3    C6 8756   0.598   1.858  16.249 -0.1501 -0.3174  0.3806
  587TMC3     C 8757   0.255   2.019  16.065 -0.3568  0.2451 -0.1037
  587TMC3     O 8758   0.256   1.997  15.943 -0.7091  0.6269 -0.2867
  587TMC3     H 8759   0.402   2.132  16.260 -0.1674 -1.3733  0.3161
  587TMC3    H1 8760   0.374   1.798  16.005 -1.2027 -0.0716  1.1520
  587TMC3    H2 8761   0.698   1.839  16.286 -1.0088 -0.7596  2.4684
  587TMC3    C7 8762   0.598   1.684  16.068  0.4074  0.3898 -0.6226
  587TMC3    C8 8763   0.634   2.043  16.382  0.1669 -0.2687 -0.3561
  587TMC3    O1 8764   0.542   1.660  15.963  0.1333 -0.0792 -0.0926
  587TMC3    O2 8765   0.751   2.010  16.387  0.0280  0.2879 -0.6610
  588TMC3    C1 8766   2.558   0.898   9.899  0.0544  0.1909  0.2541
  588TMC3    C2 8767   2.541   0.766   9.887 -0.4176 -0.5186  0.5094
  588TMC3    C3 8768   2.636   0.690   9.951 -1.2045  0.8042  0.6236
  588TMC3    C4 8769   2.664   0.958   9.959 -0.7433  0.2605 -0.4804
  588TMC3    C5 8770   2.763   0.882  10.000  0.3734 -0.1524  0.5221
  588TMC3    C6 8771   2.754   0.749  10.003  0.6854  0.0314 -0.2140
  588TMC3     C 8772   2.458   0.973   9.837 -0.2221 -0.2922 -0.1471
  588TMC3     O 8773   2.406   0.928   9.738  0.1853  0.2024 -0.0577
  588TMC3     H 8774   2.453   0.724   9.840 -2.0953  2.8343  0.7183
  588TMC3    H1 8775   2.686   1.058   9.924 -0.0086 -0.5140 -2.2556
  588TMC3    H2 8776   2.837   0.693  10.045  0.9024 -0.8676 -1.8476
  588TMC3    C7 8777   2.862   0.945  10.079 -0.2805 -0.1911 -0.2038
  588TMC3    C8 8778   2.631   0.542   9.920  0.1222 -0.7828 -0.0446
  588TMC3    O1 8779   2.969   0.884  10.094  0.6751  0.2190 -0.0813
  588TMC3    O2 8780   2.560   0.519   9.824  0.2031 -0.4538  0.3553
  589TMC3    C1 8781   2.284   1.287   0.836  0.6101  0.0330 -0.1920
  589TMC3    C2 8782   2.411   1.270   0.864  0.0616 -0.1852  0.2386
  589TMC3    C3 8783   2.449   1.151   0.927  0.3738  0.0630  0.2744
  589TMC3    C4 8784   2.198   1.185   0.851 -0.5790  0.2342  0.3550
  589TMC3    C5 8785   2.231   1.072   0.914 -0.5226  0.3091 -0.6487
  589TMC3    C6 8786   2.361   1.048   0.955 -0.0122  0.8467 -0.6229
  589TMC3     C 8787   2.235   1.410   0.791  0.1646  0.0421  0.0384
  589TMC3     O 8788   2.143   1.396   0.709  0.1674  0.4716 -0.4395
  589TMC3     H 8789   2.485   1.349   0.854 -0.1433 -0.2428 -1.7346
  589TMC3    H1 8790   2.097   1.201   0.815 -0.3290 -2.5966 -1.5289
  589TMC3    H2 8791   2.398   0.963   1.012  0.7546  0.9711 -0.9326
  589TMC3    C7 8792   2.136   0.965   0.908  0.1906 -0.4494 -0.0379
  589TMC3    C8 8793   2.596   1.129   0.957 -0.0152  0.3312  0.5932
  589TMC3    O1 8794   2.056   0.969   0.814  0.0769 -0.1620 -0.1210
  589TMC3    O2 8795   2.630   1.037   1.032  0.1531  0.2498  0.4054
  590MPD2     C 8796   1.442   0.022  16.569  0.6537  0.2654 -0.3683
  590MPD2    C1 8797   1.428   0.156  16.549  0.0472 -0.2859 -0.3625
  590MPD2    C2 8798   1.494   0.219  16.445 -0.0542 -0.2857 -0.1382
  590MPD2    C3 8799   1.570   0.147  16.356  0.9677  0.0846 -0.2377
  590MPD2    C4 8800   1.596   0.020  16.385  0.1482  0.0574  0.4210
  590MPD2    C5 8801   1.525   4.692  16.483 -0.7909  0.3466 -0.0043
  590MPD2     H 8802   1.476   0.322  16.416  0.8250  0.1824  0.9832
  590MPD2    H1 8803   1.672   4.696  16.334  1.4005  1.8660  0.2214
  590MPD2    H2 8804   1.390   4.695  16.641  1.5854 -2.3747 -1.9537
  590MPD2    H3 8805   1.530   4.585  16.498  1.7784  0.4737  0.1726
  590MPD2     N 8806   1.633   0.196  16.236 -1.0754  0.5265  0.0606
  590MPD2    H5 8807   1.600   0.291  16.222 -1.0993  0.7238  1.4607
  590MPD2    N1 8808   1.325   0.224  16.621  0.3424  0.2243 -0.8090
  590MPD2    H7 8809   1.264   0.166  16.678  2.7224 -2.1490 -0.7109
  591TMC3    C1 8810   1.762   0.209  16.034  0.2918 -0.8006  0.0890
  591TMC3    C2 8811   1.818   0.146  15.932 -0.1636 -0.4630  0.7545
  591TMC3    C3 8812   1.850   0.211  15.820  0.4298 -0.3451  0.1948
  591TMC3    C4 8813   1.743   0.343  16.038 -0.1782 -0.4617  1.1555
  591TMC3    C5 8814   1.783   0.416  15.930  0.2902 -0.3258 -0.1877
  591TMC3    C6 8815   1.836   0.352  15.820 -0.0212  0.4935  0.4262
  591TMC3     C 8816   1.718   0.130  16.149 -0.6774  0.6639  0.5872
  591TMC3     O 8817   1.756   0.014  16.152  0.1828  0.3551  0.4165
  591TMC3     H 8818   1.836   0.040  15.942 -1.1727 -0.9276 -2.2844
  591TMC3    H1 8819   1.733   0.396  16.132 -1.1880 -1.3564  1.5499
  591TMC3    H2 8820   1.879   0.410  15.739 -0.7407  0.9261  0.3593
  591TMC3    C7 8821   1.869   0.523  15.967  0.4300 -0.6503  0.0460
  591TMC3    C8 8822   1.976   0.157  15.771  0.5694 -0.0439 -0.1173
  591TMC3    O1 8823   1.934   0.507  16.068 -0.4142  0.1832 -0.3338
  591TMC3    O2 8824   2.039   0.098  15.857  0.1466 -0.1079  0.2396
  592MPD2     C 8825   1.472   2.749  11.580  0.3806 -0.2410  0.2069
  592MPD2    C1 8826   1.503   2.794  11.710  0.2488 -0.0354 -0.2378
  592MPD2    C2 8827   1.497   2.696  11.808 -0.1939  0.5136 -0.1315
  592MPD2    C3 8828   1.444   2.570  11.791 -0.5503  0.3136  0.1931
  592MPD2    C4 8829   1.423   2.534  11.660 -0.2323  0.2985 -0.2767
  592MPD2    C5 8830   1.430   2.621  11.561  0.6155  0.9200 -0.2041
  592MPD2     H 8831   1.543   2.723  11.902  0.8282  0.9491 -0.7557
  592MPD2    H1 8832   1.393   2.436  11.624  1.7828 -0.4018 -0.0092
  592MPD2    H2 8833   1.486   2.820  11.499  3.5786 -2.2033 -0.9836
  592MPD2    H3 8834   1.395   2.597  11.461 -0.3724 -0.0685  0.3837
  592MPD2     N 8835   1.426   2.490  11.903  0.9974 -0.2602  0.3943
  592MPD2    H5 8836   1.466   2.518  11.993  1.9804 -1.2800  0.2656
  592MPD2    N1 8837   1.541   2.923  11.736  0.0566  0.9229  0.4447
  592MPD2    H7 8838   1.538   2.984  11.655  0.2078  0.7999  0.3454
  593TMC3    C1 8839   1.615   3.120  11.851 -0.0739 -0.3294 -0.3120
  593TMC3    C2 8840   1.647   3.182  11.971 -0.1975 -1.1334  0.4387
  593TMC3    C3 8841   1.712   3.297  11.969 -1.2472  0.6494  0.0020
  593TMC3    C4 8842   1.651   3.175  11.729  0.0053  0.2793 -0.8601
  593TMC3    C5 8843   1.727   3.293  11.733 -0.4872 -0.4198 -0.2116
  593TMC3    C6 8844   1.747   3.362  11.851 -0.4547 -0.0165 -0.8071
  593TMC3     C 8845   1.576   2.979  11.864 -0.5304 -0.4360 -0.8012
  593TMC3     O 8846   1.567   2.935  11.977 -0.1042  0.5011  0.2348
  593TMC3     H 8847   1.611   3.136  12.062  0.3937  0.5432  1.5243
  593TMC3    H1 8848   1.636   3.126  11.633 -1.5447 -0.7017 -0.1221
  593TMC3    H2 8849   1.797   3.457  11.859  1.4591 -0.9707 -1.5099
  593TMC3    C7 8850   1.734   3.367  11.610  0.6251 -0.3510  0.0241
  593TMC3    C8 8851   1.746   3.360  12.098  0.5058  0.3814  0.2229
  593TMC3    O1 8852   1.669   3.333  11.515 -0.2916 -0.2480  0.3794
  593TMC3    O2 8853   1.681   3.326  12.197  0.3878  0.9297 -0.2937
  594MPD2     C 8854   0.328   1.049  13.876  0.6801  0.4463  0.5591
  594MPD2    C1 8855   0.394   1.008  13.987 -0.3293 -0.1491  0.4224
  594MPD2    C2 8856   0.511   1.061  14.029 -0.5515 -1.0530 -0.1814
  594MPD2    C3 8857   0.571   1.163  13.952  0.1453  0.4963  0.0595
  594MPD2    C4 8858   0.506   1.205  13.838  0.2751  0.9541 -0.8071
  594MPD2    C5 8859   0.384   1.155  13.799 -0.4272 -0.0698  0.1586
  594MPD2     H 8860   0.569   1.025  14.113 -2.2373 -1.5333  0.7691
  594MPD2    H1 8861   0.547   1.291  13.786  0.3517  1.8392  0.7407
  594MPD2    H2 8862   0.241   0.996  13.839  1.3524  0.7417 -1.4709
  594MPD2    H3 8863   0.331   1.207  13.719 -0.6402  1.7910  1.5213
  594MPD2     N 8864   0.682   1.229  14.012  0.5660  0.6861  0.5511
  594MPD2    H5 8865   0.718   1.182  14.094  0.3680 -2.3298 -1.0874
  594MPD2    N1 8866   0.336   0.900  14.058  0.3164  0.4482 -0.1047
  594MPD2    H7 8867   0.259   0.857  14.008  1.4784 -0.8777 -0.7447
  595TMC3    C1 8868   1.022   1.535  14.101 -0.0854  1.1476 -0.2982
  595TMC3    C2 8869   0.947   1.465  14.007 -0.0847  0.0973  0.1034
  595TMC3    C3 8870   0.835   1.398  14.061  0.3243 -0.5468  0.1222
  595TMC3    C4 8871   0.991   1.530  14.230  0.3326  0.7665 -0.0810
  595TMC3    C5 8872   0.882   1.462  14.272 -0.3702  0.5284 -0.2747
  595TMC3    C6 8873   0.795   1.410  14.189  0.6479 -0.4105 -0.3129
  595TMC3     C 8874   1.162   1.569  14.074  0.1680 -0.3477 -0.3080
  595TMC3     O 8875   1.221   1.635  14.157 -0.0855 -0.8517  0.0970
  595TMC3     H 8876   0.958   1.469  13.899 -2.0316 -0.0715 -0.1034
  595TMC3    H1 8877   1.057   1.587  14.295  0.0512 -1.7451  2.3982
  595TMC3    H2 8878   0.700   1.367  14.221 -0.0093  0.6297 -0.8904
  595TMC3    C7 8879   0.852   1.445  14.418 -0.2464 -0.1426  0.4874
  595TMC3    C8 8880   0.742   1.342  13.968  0.6918 -0.3053 -0.4290
  595TMC3    O1 8881   0.751   1.382  14.453 -0.3043  0.1879  0.1689
  595TMC3    O2 8882   0.737   1.407  13.864 -0.7077  0.5924 -0.1282
  596MPD2     C 8883   0.261   4.256  16.822 -0.1505 -0.5220  0.4022
  596MPD2    C1 8884   0.263   4.344  16.718 -0.8213 -0.7282 -0.2348
  596MPD2    C2 8885   0.301   4.303  16.592  0.1113 -0.1417  0.3665
  596MPD2    C3 8886   0.327   4.175  16.566  0.5267 -0.3632 -0.3108
  596MPD2    C4 8887   0.333   4.085  16.670 -0.1728  0.0376 -0.2346
  596MPD2    C5 8888   0.294   4.128  16.792 -0.1529 -0.1595 -0.5670
  596MPD2     H 8889   0.297   4.382  16.518 -0.4472  0.4256  0.9868
  596MPD2    H1 8890   0.366   3.983  16.658  2.0265  0.6424  0.7208
  596MPD2    H2 8891   0.229   4.279  16.923 -0.0515 -1.6206  0.6865
  596MPD2    H3 8892   0.305   4.047  16.864 -0.1906  0.9663  0.6893
  596MPD2     N 8893   0.343   4.124  16.435 -0.8521  0.4036 -0.8869
  596MPD2    H5 8894   0.363   4.024  16.440 -0.8757  0.4501  0.1113
  596MPD2    N1 8895   0.228   4.480  16.730 -0.4467 -0.3466  0.3275
  596MPD2    H7 8896   0.256   4.527  16.644  2.5249 -1.0407  0.9331
  597TMC3    C1 8897   0.158   4.681  16.820 -0.3138  0.1730 -0.7145
  597TMC3    C2 8898   0.165   0.006  16.691 -0.1342 -1.1302  0.9402
  597TMC3    C3 8899   0.099   0.126  16.672 -0.0016 -0.1358  0.3530
  597TMC3    C4 8900   0.092   0.014  16.920  0.1106  0.1310 -0.1481
  597TMC3    C5 8901   0.033   0.133  16.891  0.0351  0.1887 -0.1454
  597TMC3    C6 8902   0.029   0.193  16.769 -0.0990  0.6362 -0.1964
  597TMC3     C 8903   0.199   4.548  16.844  0.2909 -0.4413  0.2581
  597TMC3     O 8904   0.193   4.506  16.958  0.1277  0.4358  0.6985
  597TMC3     H 8905   0.212   4.698  16.603 -0.4705 -0.1117  0.2676
  597TMC3    H1 8906   0.057   4.695  17.008  2.4267 -1.5653 -0.2548
  597TMC3    H2 8907   4.719   0.292  16.768  1.9697  1.5526 -1.3220
  597TMC3    C7 8908   4.661   0.175  16.981  0.1151 -0.2037  0.1091
  597TMC3    C8 8909   0.164   0.224  16.586 -1.0222 -0.1939  0.3183
  597TMC3    O1 8910   4.597   0.078  17.025 -0.1106  0.1993 -0.5262
  597TMC3    O2 8911   0.128   0.340  16.602 -0.1628 -0.9936  0.4603
  598TMC3    C1 8912   2.942   0.737  15.336 -0.0949  0.0978  0.8060
  598TMC3    C2 8913   2.815   0.706  15.372 -0.3067  0.2762 -0.0963
  598TMC3    C3 8914   2.719   0.688  15.278 -0.3420  0.3871 -0.2436
  598TMC3    C4 8915   2.974   0.739  15.203 -0.4925 -0.4906  0.0394
  598TMC3    C5 8916   2.882   0.702  15.111  0.5221  0.3536 -0.5232
  598TMC3    C6 8917   2.751   0.680  15.142  0.4453  0.2869  0.9258
  598TMC3     C 8918   3.041   0.750  15.440  0.1012  0.0434  0.1088
  598TMC3     O 8919   3.131   0.827  15.412  0.1571 -0.8430  0.1127
  598TMC3     H 8920   2.782   0.683  15.473  1.8552  0.0797  0.5453
  598TMC3    H1 8921   3.081   0.744  15.182 -0.3891 -1.6486  0.2673
  598TMC3    H2 8922   2.665   0.660  15.079  1.2963  0.2584 -0.2166
  598TMC3    C7 8923   2.904   0.727  14.977  0.5110 -0.1056 -0.0979
  598TMC3    C8 8924   2.576   0.720  15.315 -0.6829 -0.0463 -0.3498
  598TMC3    O1 8925   2.864   0.639  14.902  0.1831  0.1137 -0.2230
  598TMC3    O2 8926   2.539   0.670  15.419 -0.1535 -0.0702  0.7188
  599MPD2     C 8927   2.569   2.920  15.463 -0.4530  0.1850 -0.0145
  599MPD2    C1 8928   2.611   2.814  15.537 -0.0861  0.3620  0.0528
  599MPD2    C2 8929   2.525   2.736  15.610 -0.4548  0.2848 -0.1818
  599MPD2    C3 8930   2.389   2.761  15.605  0.2885 -0.4472 -0.1848
  599MPD2    C4 8931   2.349   2.882  15.546  0.5836  0.2070  0.3603
  599MPD2    C5 8932   2.435   2.952  15.462  0.1085 -0.5359 -0.6132
  599MPD2     H 8933   2.562   2.645  15.657 -1.2653 -0.4121 -0.9030
  599MPD2    H1 8934   2.244   2.907  15.536 -0.3032 -3.5030  0.2847
  599MPD2    H2 8935   2.637   2.979  15.403  0.0245 -1.6556 -1.2742
  599MPD2    H3 8936   2.404   3.036  15.401  0.4398 -0.6462 -0.9360
  599MPD2     N 8937   2.306   2.679  15.675  0.5006 -0.4226  0.0310
  599MPD2    H5 8938   2.352   2.607  15.729 -1.1013 -0.6348  1.0850
  599MPD2    N1 8939   2.749   2.792  15.522  0.3640 -0.1101  0.2731
  599MPD2    H7 8940   2.811   2.863  15.485  0.8748 -0.3555  0.6500
  600TMC3    C1 8941   2.105   2.577  15.754 -0.2989  0.0986  0.5897
  600TMC3    C2 8942   1.975   2.545  15.729  0.1040  1.0599 -0.1052
  600TMC3    C3 8943   1.905   2.480  15.828 -0.8085  1.0060  0.8780
  600TMC3    C4 8944   2.163   2.575  15.883  0.8084  0.1572 -0.1331
  600TMC3    C5 8945   2.086   2.516  15.972  0.0621  1.0804  0.5326
  600TMC3    C6 8946   1.963   2.465  15.951  0.1599  0.1026 -0.1694
  600TMC3     C 8947   2.168   2.670  15.657  0.1363  0.1353  0.3075
  600TMC3     O 8948   2.095   2.718  15.567 -0.3546 -0.4821 -0.3384
  600TMC3     H 8949   1.941   2.549  15.626 -0.3727 -2.3756 -0.1062
  600TMC3    H1 8950   2.265   2.606  15.905  1.3988 -0.8192 -1.4627
  600TMC3    H2 8951   1.913   2.410  16.029 -2.0491  1.4360 -0.6675
  600TMC3    C7 8952   2.150   2.519  16.098 -0.6325 -0.0902 -0.1512
  600TMC3    C8 8953   1.765   2.465  15.801  0.3258 -0.2335  0.3278
  600TMC3    O1 8954   2.241   2.593  16.115  0.0906  0.2470 -0.2315
  600TMC3    O2 8955   1.721   2.528  15.704 -0.1917 -0.4385  0.1924
  601MPD2     C 8956   0.480   1.979  17.594  0.9445  0.0205 -0.2170
  601MPD2    C1 8957   0.376   1.898  17.561 -0.0867 -0.4243 -0.0267
  601MPD2    C2 8958   0.389   1.762  17.548  0.5876  0.0789  0.9600
  601MPD2    C3 8959   0.512   1.701  17.585 -0.7804 -0.7112 -0.1715
  601MPD2    C4 8960   0.610   1.786  17.631  0.4113 -0.0884  0.1329
  601MPD2    C5 8961   0.595   1.920  17.637 -0.6998  0.2520  0.4620
  601MPD2     H 8962   0.299   1.708  17.520  1.1853  1.4984 -3.6837
  601MPD2    H1 8963   0.708   1.754  17.664  1.2521  1.6455 -0.6500
  601MPD2    H2 8964   0.473   2.087  17.604 -0.2887 -0.0659 -0.2029
  601MPD2    H3 8965   0.676   1.982  17.675 -0.0109  0.9155 -2.0466
  601MPD2     N 8966   0.533   1.561  17.568 -0.0111 -0.6757  0.6854
  601MPD2    H5 8967   0.466   1.508  17.515  2.3896 -2.1202 -0.8848
  601MPD2    N1 8968   0.252   1.965  17.530 -0.2749  0.0505 -0.1986
  601MPD2    H7 8969   0.169   1.916  17.497  0.1328 -0.3254 -0.6827
  602TMC3    C1 8970   0.071   2.119  17.544  0.1726 -0.1861  0.1676
  602TMC3    C2 8971   0.020   2.216  17.631  0.0586  0.1949  0.5401
  602TMC3    C3 8972   4.616   2.198  17.661  0.1749 -0.2216  0.2875
  602TMC3    C4 8973   4.729   2.013  17.494  0.4417  0.5284  0.0805
  602TMC3    C5 8974   4.594   2.023  17.512 -0.6145  0.2901 -0.1983
  602TMC3    C6 8975   4.540   2.096  17.612  0.2287 -0.4015 -0.7831
  602TMC3     C 8976   0.218   2.102  17.553  0.0769  0.2985 -0.7804
  602TMC3     O 8977   0.280   2.198  17.596  0.1197  0.0954 -0.4748
  602TMC3     H 8978   0.083   2.288  17.682  0.8209 -0.3873  0.4133
  602TMC3    H1 8979   0.024   1.940  17.419  1.0628  1.3880 -0.5148
  602TMC3    H2 8980   4.437   2.074  17.637 -0.0372  2.9078  1.0331
  602TMC3    C7 8981   4.498   1.942  17.436 -0.9432 -0.3555  0.1742
  602TMC3    C8 8982   4.547   2.318  17.699 -0.0050  0.1090 -0.1840
  602TMC3    O1 8983   4.533   1.827  17.406  0.3077 -0.1452 -0.0862
  602TMC3    O2 8984   4.617   2.406   0.008 -0.1253  0.0109 -0.0285
  603TMC3    C1 8985   2.231   2.679  11.255 -0.5010  0.4656  0.0950
  603TMC3    C2 8986   2.311   2.639  11.363 -0.1208  0.6958  0.6520
  603TMC3    C3 8987   2.416   2.717  11.395 -0.0762  0.1723  0.1661
  603TMC3    C4 8988   2.258   2.793  11.180  0.2261 -0.6126  0.3945
  603TMC3    C5 8989   2.372   2.860  11.221  0.5286 -0.3622  0.4404
  603TMC3    C6 8990   2.448   2.828  11.331 -0.2296  0.4755  0.7613
  603TMC3     C 8991   2.133   2.578  11.208 -0.6628  1.0230  0.6245
  603TMC3     O 8992   2.146   2.462  11.250  0.0028  0.5693 -0.5060
  603TMC3     H 8993   2.288   2.548  11.417  0.9410 -0.3338 -0.6335
  603TMC3    H1 8994   2.212   2.807  11.082  0.1830 -0.1628  0.4761
  603TMC3    H2 8995   2.554   2.849  11.338  0.2302 -1.6293 -0.0137
  603TMC3    C7 8996   2.388   2.995  11.180 -0.3710 -0.9067 -0.0208
  603TMC3    C8 8997   2.489   2.676  11.513 -0.5596  0.6102  0.3768
  603TMC3    O1 8998   2.492   3.053  11.211 -0.3504 -0.7842  0.1669
  603TMC3    O2 8999   2.495   2.554  11.532 -0.6489 -0.1284  0.4913
  604MPD2     C 9000   3.952   0.125  16.149  1.1678  0.4944  0.0797
  604MPD2    C1 9001   3.954   0.260  16.118  0.3803  0.1202 -1.0838
  604MPD2    C2 9002   3.981   0.301  15.990 -0.1433 -0.0264 -0.2309
  604MPD2    C3 9003   4.022   0.207  15.900  0.6943  0.4593 -0.8446
  604MPD2    C4 9004   4.016   0.076  15.931  0.0697 -0.1748 -1.3408
  604MPD2    C5 9005   3.987   0.034  16.055 -0.2221  0.0535  0.4974
  604MPD2     H 9006   3.985   0.403  15.955  1.1714  0.1688  0.4744
  604MPD2    H1 9007   4.033   0.001  15.854  1.3628 -2.0004  0.7290
  604MPD2    H2 9008   3.923   0.085  16.246 -1.7259  0.2356 -0.8748
  604MPD2    H3 9009   3.975   4.665  16.082  1.3330 -0.8615 -2.3981
  604MPD2     N 9010   4.064   0.246  15.774  0.9582  0.0389 -0.3325
  604MPD2    H5 9011   4.040   0.341  15.748 -1.8864 -0.4214  0.6524
  604MPD2    N1 9012   3.917   0.351  16.226 -0.2910  0.2905 -0.0561
  604MPD2    H7 9013   3.888   0.309  16.313 -1.3119  1.1543  0.0212
  605TMC3    C1 9014   3.881   0.565  16.316 -0.4826  0.3624  0.1603
  605TMC3    C2 9015   3.951   0.674  16.358 -0.4855  0.3952  0.1278
  605TMC3    C3 9016   3.881   0.774  16.422 -0.2463 -0.0916  0.4355
  605TMC3    C4 9017   3.747   0.553  16.337  0.4977  0.6567  0.2880
  605TMC3    C5 9018   3.677   0.661  16.390 -0.6406 -0.1722  0.2481
  605TMC3    C6 9019   3.740   0.767  16.441 -0.1347  0.0830 -0.5235
  605TMC3     C 9020   3.933   0.487  16.211 -0.1247  0.2036 -0.5935
  605TMC3     O 9021   4.000   0.551  16.132  0.1916  0.4220 -0.7664
  605TMC3     H 9022   4.059   0.681  16.352 -0.4275  0.0730  0.8361
  605TMC3    H1 9023   3.701   0.464  16.297 -0.5250  2.0296 -1.6336
  605TMC3    H2 9024   3.690   0.859  16.470 -0.3741 -0.6591  1.3792
  605TMC3    C7 9025   3.530   0.684  16.367 -0.2918  0.5688  0.1543
  605TMC3    C8 9026   3.950   0.902  16.430 -0.3346 -0.9077  0.5101
  605TMC3    O1 9027   3.481   0.799  16.352  0.1271  0.1344 -0.1885
  605TMC3    O2 9028   4.028   0.927  16.337 -0.0817 -0.2359 -0.1421
  606TMC3    C1 9029   0.627   4.289  17.396  0.2081  0.9033  0.1052
  606TMC3    C2 9030   0.601   4.374  17.497 -0.6046 -0.5005 -0.2228
  606TMC3    C3 9031   0.500   4.349  17.583 -0.2346 -0.4295  0.1097
  606TMC3    C4 9032   0.550   4.174  17.379  0.0697 -0.2362 -0.1004
  606TMC3    C5 9033   0.437   4.160  17.462  0.0354  0.5587  0.3934
  606TMC3    C6 9034   0.417   4.242  17.570  0.4446  0.5470  1.0228
  606TMC3     C 9035   0.727   4.331  17.301 -0.1081 -0.1047 -0.0506
  606TMC3     O 9036   0.825   4.383  17.346 -0.4485 -0.2531  0.4536
  606TMC3     H 9037   0.670   4.456  17.507 -1.9256  0.4395  1.1034
  606TMC3    H1 9038   0.571   4.105  17.298  1.3994 -0.9983  0.8927
  606TMC3    H2 9039   0.339   4.218  17.641 -0.3436  0.8445  0.2524
  606TMC3    C7 9040   0.410   4.019  17.495 -0.0286 -0.0363  0.1648
  606TMC3    C8 9041   0.515   4.378  17.726 -0.4180 -0.7125  0.4115
  606TMC3    O1 9042   0.492   3.930  17.465  0.4559  0.1885 -0.2636
  606TMC3    O2 9043   0.490   4.280   0.058  0.4504  0.2881 -0.3610
  607MPD2     C 9044   2.142   2.815  11.684  0.1199  0.0070 -0.2884
  607MPD2    C1 9045   2.119   2.919  11.760 -0.1177  0.4015  0.5374
  607MPD2    C2 9046   2.001   2.922  11.834  0.8346 -0.2191 -0.4653
  607MPD2    C3 9047   1.929   2.805  11.853  0.4680  0.3434  0.0600
  607MPD2    C4 9048   1.966   2.692  11.784 -0.1725  1.0734  0.4270
  607MPD2    C5 9049   2.068   2.703  11.694 -0.6024  1.0601  0.1022
  607MPD2     H 9050   1.985   3.010  11.896 -1.6044 -0.8152 -0.2548
  607MPD2    H1 9051   1.928   2.591  11.790 -1.1086  1.3411 -0.8285
  607MPD2    H2 9052   2.221   2.809  11.610  1.7754  0.0599  1.4926
  607MPD2    H3 9053   2.088   2.614  11.635  0.9816  2.3891 -1.3672
  607MPD2     N 9054   1.844   2.795  11.968  0.2801  0.0102  0.1727
  607MPD2    H5 9055   1.841   2.873  12.033  2.2718  0.6155 -0.4716
  607MPD2    N1 9056   2.196   3.041  11.752  0.4843 -0.1808  0.3117
  607MPD2    H7 9057   2.158   3.127  11.791  1.3481  0.7348 -0.8842
  608TMC3    C1 9058   2.361   3.187  11.706 -0.1954  0.1152  0.3459
  608TMC3    C2 9059   2.359   3.229  11.834 -0.1023  0.4487  0.0103
  608TMC3    C3 9060   2.367   3.357  11.860 -0.9627  0.6971  0.0924
  608TMC3    C4 9061   2.393   3.275  11.607 -1.1433  0.0384 -0.7535
  608TMC3    C5 9062   2.408   3.410  11.635 -0.2749  0.0342 -0.4380
  608TMC3    C6 9063   2.393   3.459  11.763  0.2073 -0.4138  0.0312
  608TMC3     C 9064   2.308   3.059  11.674 -0.9715  0.1937 -0.1701
  608TMC3     O 9065   2.340   3.002  11.575 -0.2769 -0.0582  0.2880
  608TMC3     H 9066   2.377   3.154  11.910  1.7963  1.3819  0.4924
  608TMC3    H1 9067   2.401   3.233  11.508 -1.5065 -0.1270 -0.7124
  608TMC3    H2 9068   2.380   3.565  11.781  1.4701 -0.2276 -0.2234
  608TMC3    C7 9069   2.385   3.493  11.516  0.5229 -0.1657 -0.0083
  608TMC3    C8 9070   2.322   3.409  11.992 -0.0067 -0.1099  0.0107
  608TMC3    O1 9071   2.320   3.437  11.420 -0.0119 -0.5357  0.4408
  608TMC3    O2 9072   2.357   3.518  12.031  0.0361  0.0175  0.0343
  609TMC3    C1 9073   0.369   2.359   9.018 -0.3323  0.5339 -0.2387
  609TMC3    C2 9074   0.348   2.427   8.902 -0.4153 -0.1397 -0.1954
  609TMC3    C3 9075   0.423   2.400   8.790 -0.3281 -0.3950 -0.4183
  609TMC3    C4 9076   0.459   2.254   9.024 -0.8485 -0.0551  0.4988
  609TMC3    C5 9077   0.520   2.222   8.903  0.2857  0.1713  0.3063
  609TMC3    C6 9078   0.511   2.297   8.792 -0.2327  0.4368  0.1374
  609TMC3     C 9079   0.309   2.405   9.145  0.0387  0.3629  0.0169
  609TMC3     O 9080   0.306   2.325   9.237  0.1542  0.3589  0.1307
  609TMC3     H 9081   0.276   2.507   8.906  0.7109  0.8241  0.7301
  609TMC3    H1 9082   0.478   2.195   9.113  3.4796 -1.2872 -1.2387
  609TMC3    H2 9083   0.557   2.272   8.697 -1.4630 -1.1437 -0.0453
  609TMC3    C7 9084   0.621   2.119   8.908 -0.7425  0.4187 -0.0235
  609TMC3    C8 9085   0.390   2.464   8.661  0.1916  0.1197 -0.5801
  609TMC3    O1 9086   0.660   2.085   9.021  0.2058 -0.2244  0.1621
  609TMC3    O2 9087   0.462   2.437   8.564 -0.1614 -0.6353  0.0664
  610TMC3    C1 9088   2.258   2.325  12.764  0.3332 -0.9483  0.3162
  610TMC3    C2 9089   2.359   2.354  12.684 -0.1210 -0.1870 -0.0580
  610TMC3    C3 9090   2.464   2.278  12.672 -0.2518  0.0897  0.3910
  610TMC3    C4 9091   2.252   2.205  12.829 -0.5459 -0.9282  0.0185
  610TMC3    C5 9092   2.360   2.122  12.814  1.4303 -0.3302  0.2275
  610TMC3    C6 9093   2.465   2.157  12.736 -0.0037 -0.2558 -0.0048
  610TMC3     C 9094   2.170   2.432  12.815  0.0445  0.1297 -1.3453
  610TMC3     O 9095   2.062   2.395  12.863 -0.6914 -0.2547 -0.3447
  610TMC3     H 9096   2.351   2.444  12.624  1.6709 -0.3589 -0.5517
  610TMC3    H1 9097   2.163   2.180  12.886 -1.3119  0.4453 -0.5539
  610TMC3    H2 9098   2.553   2.095  12.729  0.5972  0.4662  1.1374
  610TMC3    C7 9099   2.378   2.005  12.898 -0.4016  0.4515 -0.1449
  610TMC3    C8 9100   2.582   2.314  12.591 -0.3007 -0.7546 -0.8525
  610TMC3    O1 9101   2.489   1.959  12.913 -0.0255 -0.4830  0.1810
  610TMC3    O2 9102   2.678   2.242  12.598 -0.0935 -0.5874 -0.7362
  611MPD2     C 9103   1.348   2.848  10.836 -0.0740  0.0261  1.0465
  611MPD2    C1 9104   1.354   2.836  10.702  0.0873  0.2593 -0.4029
  611MPD2    C2 9105   1.465   2.894  10.640  0.4436 -0.6381  0.0678
  611MPD2    C3 9106   1.563   2.960  10.712  0.4811 -0.1270  0.3915
  611MPD2    C4 9107   1.548   2.971  10.847 -0.6673  0.1001 -0.1714
  611MPD2    C5 9108   1.440   2.918  10.910 -0.2583  0.1554  0.5464
  611MPD2     H 9109   1.478   2.888  10.533 -2.3329 -0.9958 -0.2585
  611MPD2    H1 9110   1.616   3.020  10.916 -0.6982 -1.1293  0.7375
  611MPD2    H2 9111   1.260   2.810  10.886 -0.8268  1.5298  0.8437
  611MPD2    H3 9112   1.418   2.925  11.016 -0.7805  0.0104  0.4481
  611MPD2     N 9113   1.672   3.026  10.650 -0.4833 -0.3823  0.0478
  611MPD2    H5 9114   1.730   3.082  10.712  0.1204 -0.3891 -0.5084
  611MPD2    N1 9115   1.246   2.780  10.632  0.2832 -0.0915 -0.0608
  611MPD2    H7 9116   1.160   2.754  10.678  1.3020 -1.2744  1.1484
  612TMC3    C1 9117   1.777   3.161  10.486  0.1644  0.0753  0.7695
  612TMC3    C2 9118   1.873   3.195  10.580  0.0833  0.4529  0.4771
  612TMC3    C3 9119   1.942   3.314  10.560  0.6211  0.0336 -0.3432
  612TMC3    C4 9120   1.748   3.248  10.382  0.1110 -0.4960 -0.8596
  612TMC3    C5 9121   1.793   3.374  10.394 -0.2291 -0.4252 -0.1034
  612TMC3    C6 9122   1.898   3.406  10.474  0.0384 -0.2889 -0.2548
  612TMC3     C 9123   1.679   3.058  10.517  0.2879  0.0353  0.8453
  612TMC3     O 9124   1.603   3.021  10.424 -0.4329  0.3141  0.4629
  612TMC3     H 9125   1.910   3.113  10.641 -0.5492 -1.2242 -1.3580
  612TMC3    H1 9126   1.663   3.233  10.316 -1.7135 -0.2432  1.4324
  612TMC3    H2 9127   1.939   3.507  10.473 -0.9947  0.1371 -0.0652
  612TMC3    C7 9128   1.725   3.474  10.307 -0.1717 -0.3213  0.6808
  612TMC3    C8 9129   2.060   3.337  10.633  0.7838 -0.3168  0.5568
  612TMC3    O1 9130   1.633   3.432  10.238 -0.1316  0.0324  0.4522
  612TMC3    O2 9131   2.132   3.428  10.590 -0.5633 -0.2779 -0.0789
  613MPD2     C 9132   1.838   3.896  16.218  0.5380  0.1795  0.3990
  613MPD2    C1 9133   1.713   3.896  16.166 -0.3197 -0.5325  0.2507
  613MPD2    C2 9134   1.630   3.791  16.190  0.5502 -0.1211  0.1369
  613MPD2    C3 9135   1.686   3.671  16.234  0.2836 -0.1313 -0.0235
  613MPD2    C4 9136   1.807   3.666  16.289 -0.3541  0.0889  0.4701
  613MPD2    C5 9137   1.882   3.775  16.270  0.0420 -0.0760  0.0287
  613MPD2     H 9138   1.531   3.797  16.147 -1.1238 -2.0557  3.7488
  613MPD2    H1 9139   1.860   3.574  16.313  0.4446 -0.4003 -3.1355
  613MPD2    H2 9140   1.903   3.982  16.214  0.2255  0.3181 -1.6912
  613MPD2    H3 9141   1.986   3.762  16.298 -0.8045 -1.0622  2.7037
  613MPD2     N 9142   1.618   3.546  16.217 -0.0679  0.0353 -0.1081
  613MPD2    H5 9143   1.668   3.459  16.234  1.6616  0.8680 -0.9694
  613MPD2    N1 9144   1.665   4.011  16.094 -0.0060 -0.2999 -0.0517
  613MPD2    H7 9145   1.738   4.068  16.052  1.7043 -2.7671 -0.4481
  614TMC3    C1 9146   1.529   4.070  15.908 -0.1492  0.5197 -0.0336
  614TMC3    C2 9147   1.626   4.045  15.813 -0.5371 -0.4813  0.4295
  614TMC3    C3 9148   1.600   4.036  15.679  0.7216  1.0880  0.4755
  614TMC3    C4 9149   1.403   4.111  15.869 -0.4678  0.4875  0.3566
  614TMC3    C5 9150   1.383   4.107  15.736 -0.3166 -0.6665  0.3040
  614TMC3    C6 9151   1.476   4.067  15.642 -0.1643  0.2825  0.0963
  614TMC3     C 9152   1.538   4.014  16.041 -0.2120  0.0043  0.3718
  614TMC3     O 9153   1.429   3.998  16.097  0.5098 -0.1459  0.1403
  614TMC3     H 9154   1.719   4.002  15.847 -0.2590  0.8280  1.3262
  614TMC3    H1 9155   1.324   4.137  15.937 -1.8352 -3.5722  0.2854
  614TMC3    H2 9156   1.449   4.062  15.537 -1.3762  0.1125  0.4186
  614TMC3    C7 9157   1.274   4.177  15.689  0.3248  0.4292  0.1348
  614TMC3    C8 9158   1.635   3.903  15.646 -0.5204  0.0587 -0.0892
  614TMC3    O1 9159   1.234   4.259  15.771 -0.0682  0.0396  0.1254
  614TMC3    O2 9160   1.545   3.830  15.602 -0.0708  0.0496 -0.3328
  615MPD2     C 9161   0.769   0.580  15.693 -0.8487  0.7697  0.3740
  615MPD2    C1 9162   0.708   0.635  15.583  0.1907 -0.1665  0.3197
  615MPD2    C2 9163   0.625   0.553  15.507 -0.5219  0.2693  0.2153
  615MPD2    C3 9164   0.597   0.425  15.541  0.0087  0.1881 -0.4485
  615MPD2    C4 9165   0.627   0.384  15.668  0.0133 -0.1617  0.9771
  615MPD2    C5 9166   0.713   0.462  15.742  0.0083 -0.2188 -0.1418
  615MPD2     H 9167   0.579   0.581  15.413  0.9979  1.0809 -0.2941
  615MPD2    H1 9168   0.595   0.287  15.704  0.7244 -0.5616  0.5210
  615MPD2    H2 9169   0.837   0.635  15.756 -0.8893  1.6680 -0.3580
  615MPD2    H3 9170   0.730   0.428  15.843  2.5862  1.0101 -0.1574
  615MPD2     N 9171   0.514   0.349  15.456  0.3135 -0.0359 -0.1383
  615MPD2    H5 9172   0.513   0.384  15.361 -1.9143 -1.3674 -0.5851
  615MPD2    N1 9173   0.736   0.775  15.545  0.1173 -0.1060  0.1132
  615MPD2    H7 9174   0.672   0.810  15.475  0.6299 -1.4639 -1.0285
  616TMC3    C1 9175   0.801   1.001  15.590  0.2945 -0.3755 -0.4083
  616TMC3    C2 9176   0.911   1.087  15.614  0.3782  0.3432 -0.0381
  616TMC3    C3 9177   0.886   1.217  15.653 -0.1809  0.5548  0.1163
  616TMC3    C4 9178   0.677   1.052  15.564  0.2511 -0.2877  0.0697
  616TMC3    C5 9179   0.657   1.183  15.601  0.1737 -0.4823  0.5256
  616TMC3    C6 9180   0.759   1.266  15.643 -0.0502 -0.0290 -1.0756
  616TMC3     C 9181   0.828   0.858  15.606  0.6890 -0.1242 -0.3357
  616TMC3     O 9182   0.923   0.833  15.677 -0.4321  0.2327 -0.5373
  616TMC3     H 9183   1.010   1.044  15.624  0.1628 -0.1124  0.1293
  616TMC3    H1 9184   0.589   0.992  15.545 -2.4362  2.5092  3.5983
  616TMC3    H2 9185   0.752   1.374  15.652  0.8427 -0.0630  0.0077
  616TMC3    C7 9186   0.512   1.224  15.605  0.4732  0.1393 -0.1137
  616TMC3    C8 9187   1.001   1.298  15.681  0.3572  0.3676 -0.6738
  616TMC3    O1 9188   0.431   1.145  15.559  0.3287  0.3093  0.0080
  616TMC3    O2 9189   1.113   1.260  15.643 -0.1511 -0.3686 -0.1649
  617MPD2     C 9190   2.874   3.923  13.400 -0.0165 -0.0281 -0.0598
  617MPD2    C1 9191   2.965   3.832  13.446  0.0958 -0.2465  0.3459
  617MPD2    C2 9192   2.927   3.749  13.552  0.1048 -0.3177 -0.4209
  617MPD2    C3 9193   2.812   3.768  13.618 -0.6107 -0.4847  0.0433
  617MPD2    C4 9194   2.721   3.852  13.563 -0.1189  0.6031  0.4530
  617MPD2    C5 9195   2.756   3.935  13.462 -0.6441  0.9862 -0.3010
  617MPD2     H 9196   3.007   3.689  13.595 -0.3104 -2.4538 -2.6251
  617MPD2    H1 9197   2.626   3.864  13.615  0.1435  0.8827  0.8671
  617MPD2    H2 9198   2.891   3.989  13.315  1.6500  0.0994  0.3812
  617MPD2    H3 9199   2.687   4.006  13.419 -2.1017  0.2674  0.8455
  617MPD2     N 9200   2.776   3.708  13.738 -0.5452 -0.0485  0.7035
  617MPD2    H5 9201   2.683   3.715  13.778 -0.1071  0.3841  1.6550
  617MPD2    N1 9202   3.090   3.823  13.381  0.3466  0.7310 -0.0506
  617MPD2    H7 9203   3.111   3.903  13.323  1.7748 -1.4177 -2.5155
  618TMC3    C1 9204   3.286   3.724  13.322  0.3766  0.1898  0.2289
  618TMC3    C2 9205   3.357   3.836  13.314 -0.6019 -0.4754 -0.1636
  618TMC3    C3 9206   3.471   3.831  13.243  0.1972 -0.1217 -0.4157
  618TMC3    C4 9207   3.333   3.601  13.278  0.3777 -0.0591  0.8289
  618TMC3    C5 9208   3.450   3.601  13.214 -0.0066  0.4313  0.6580
  618TMC3    C6 9209   3.516   3.717  13.187  0.4242  0.1572 -0.2723
  618TMC3     C 9210   3.170   3.712  13.399 -0.1727 -0.1471  0.0752
  618TMC3     O 9211   3.145   3.606  13.456  0.2344  0.4068 -0.0530
  618TMC3     H 9212   3.341   3.932  13.362 -0.9590  0.3739 -1.9632
  618TMC3    H1 9213   3.265   3.518  13.264 -1.3999  2.1496 -3.8318
  618TMC3    H2 9214   3.620   3.716  13.155  0.8277  1.0990  1.0363
  618TMC3    C7 9215   3.506   3.467  13.182  0.2656 -0.6210 -0.5550
  618TMC3    C8 9216   3.579   3.899  13.310  0.0024  0.1725  0.4647
  618TMC3    O1 9217   3.452   3.369  13.236  0.3168  0.0287 -0.1396
  618TMC3    O2 9218   3.577   4.019  13.335 -0.5077 -0.4210  0.0076
  619MPD2     C 9219   4.287   0.048  13.786  0.2577 -0.0696  0.1786
  619MPD2    C1 9220   4.242   0.137  13.696 -0.1151 -0.1226  0.1255
  619MPD2    C2 9221   4.108   0.130  13.659  0.2854 -0.0381 -0.6980
  619MPD2    C3 9222   4.024   0.041  13.722  0.5831  0.1819  0.2144
  619MPD2    C4 9223   4.073   4.681  13.804  0.4902 -0.4303  0.3524
  619MPD2    C5 9224   4.204   4.682  13.838  0.3397  0.4679 -0.9006
  619MPD2     H 9225   4.077   0.205  13.587  1.2350 -1.6853 -2.8073
  619MPD2    H1 9226   4.013   4.605  13.853 -1.9644  0.8953 -0.6190
  619MPD2    H2 9227   4.386   0.046  13.831  0.7916  1.1627 -0.9582
  619MPD2    H3 9228   4.244   4.615  13.913 -1.1354  0.1698 -0.3748
  619MPD2     N 9229   3.881   0.047  13.704  0.5666  0.2666 -0.4922
  619MPD2    H5 9230   3.830   4.696  13.723 -1.0244  1.4330  0.5707
  619MPD2    N1 9231   4.326   0.233  13.634  0.4438 -0.0654  0.3802
  619MPD2    H7 9232   4.284   0.300  13.570  0.3203 -1.3189 -0.8737
  620TMC3    C1 9233   4.499   0.374  13.589 -0.4498  0.2034  0.5453
  620TMC3    C2 9234   4.415   0.417  13.485  0.1010 -0.5302  0.2717
  620TMC3    C3 9235   4.441   0.546  13.434 -0.5408 -0.4621 -0.3141
  620TMC3    C4 9236   4.594   0.454  13.636 -0.2576  0.1152 -0.1202
  620TMC3    C5 9237   4.621   0.572  13.580  0.1490 -0.0670 -0.9570
  620TMC3    C6 9238   4.534   0.625  13.484 -0.0968 -0.1612 -0.1127
  620TMC3     C 9239   4.451   0.261  13.670  0.7022 -0.0382 -0.2631
  620TMC3     O 9240   4.520   0.218  13.751  0.1023  0.0273  0.1715
  620TMC3     H 9241   4.343   0.354  13.434  0.0294 -0.8844  0.8110
  620TMC3    H1 9242   4.662   0.417  13.712 -1.4293  0.6898  1.2127
  620TMC3    H2 9243   4.550   0.726  13.451  0.7898 -0.1594  0.3153
  620TMC3    C7 9244   0.010   0.641  13.613 -0.3984 -0.3657 -0.4655
  620TMC3    C8 9245   4.310   0.616  13.416  0.5693  0.5842  0.4072
  620TMC3    O1 9246   0.096   0.560  13.647  0.1145 -0.3525 -1.0105
  620TMC3    O2 9247   4.303   0.727  13.469  0.3366  0.3926 -0.6594
  621MPD2     C 9248   0.256   1.483   9.241  0.2202 -0.4979 -0.1152
  621MPD2    C1 9249   0.318   1.424   9.354  0.3789 -0.0272  0.0573
  621MPD2    C2 9250   0.397   1.508   9.429 -0.2617  0.5110  0.2343
  621MPD2    C3 9251   0.408   1.642   9.391 -0.5753 -0.3105  0.0903
  621MPD2    C4 9252   0.338   1.699   9.288  0.1078 -0.2155  0.2373
  621MPD2    C5 9253   0.274   1.612   9.208 -0.6219  0.3780 -0.0525
  621MPD2     H 9254   0.454   1.464   9.510 -0.3354 -1.4148 -0.7648
  621MPD2    H1 9255   0.349   1.803   9.259  0.5731 -0.5127 -0.6429
  621MPD2    H2 9256   0.197   1.431   9.166  0.4057 -1.1056  0.1554
  621MPD2    H3 9257   0.227   1.658   9.121 -1.0768  0.1938  0.0949
  621MPD2     N 9258   0.499   1.722   9.474 -0.2189 -0.3063 -0.4877
  621MPD2    H5 9259   0.548   1.671   9.548 -0.0344  1.1889  0.4204
  621MPD2    N1 9260   0.320   1.284   9.380  0.2611  0.0008  0.0325
  621MPD2    H7 9261   0.348   1.269   9.477 -0.2913 -1.3672 -0.0220
  622TMC3    C1 9262   0.269   1.061   9.371  0.6888  0.1345 -0.0557
  622TMC3    C2 9263   0.339   1.044   9.486 -0.1265  0.2234 -0.1865
  622TMC3    C3 9264   0.321   0.928   9.559 -0.4224  0.2266  0.3470
  622TMC3    C4 9265   0.183   0.967   9.330 -0.2983 -0.0775  0.5909
  622TMC3    C5 9266   0.151   0.856   9.409 -0.3301 -0.0373 -0.3885
  622TMC3    C6 9267   0.214   0.846   9.524  0.5236 -0.0574  0.3162
  622TMC3     C 9268   0.272   1.189   9.300  0.5903 -0.1371 -0.1216
  622TMC3     O 9269   0.214   1.193   9.196 -0.9213 -0.0510 -0.5480
  622TMC3     H 9270   0.423   1.108   9.512 -0.7469  0.8427  0.2991
  622TMC3    H1 9271   0.129   0.980   9.237  0.4987 -1.4392 -0.0607
  622TMC3    H2 9272   0.195   0.758   9.585 -1.1755 -0.4279 -0.7322
  622TMC3    C7 9273   0.021   0.795   9.388  0.1431 -0.2042  0.1615
  622TMC3    C8 9274   0.329   0.933   9.698 -0.3335  0.0471 -0.9120
  622TMC3    O1 9275   0.002   0.682   9.421 -0.1727  0.4130  0.4067
  622TMC3    O2 9276   0.444   0.921   9.739  0.1171  0.4581  0.2735
  623MPD2     C 9277   4.251   0.998  15.659 -0.0791 -0.0610  0.3832
  623MPD2    C1 9278   4.177   1.008  15.770  0.4955 -0.2561  0.1329
  623MPD2    C2 9279   4.196   1.117  15.855  0.1772  0.3468 -0.4938
  623MPD2    C3 9280   4.302   1.205  15.838 -0.3910 -0.4360 -0.3719
  623MPD2    C4 9281   4.380   1.201  15.724  0.5578 -0.7499 -0.6297
  623MPD2    C5 9282   4.350   1.099  15.635  0.6758 -0.3831  0.0631
  623MPD2     H 9283   4.151   1.117  15.953  0.2372  0.3604 -0.4659
  623MPD2    H1 9284   4.458   1.271  15.696  0.5613 -0.3853  0.2936
  623MPD2    H2 9285   4.242   0.912  15.593 -0.7843 -0.9123  1.5792
  623MPD2    H3 9286   4.410   1.086  15.546  2.3185  1.6513  0.8792
  623MPD2     N 9287   4.326   1.300  15.941  0.4733 -0.8312 -0.3057
  623MPD2    H5 9288   4.269   1.291  16.024  0.8062 -0.3399 -0.0211
  623MPD2    N1 9289   4.091   0.909  15.789 -0.1980 -0.1409  0.0492
  623MPD2    H7 9290   4.102   0.829  15.728  0.8487  1.6076 -2.0850
  624TMC3    C1 9291   4.589   1.422  16.273 -0.0986  0.0513  0.6998
  624TMC3    C2 9292   4.486   1.416  16.354  0.1648  0.2680  0.3545
  624TMC3    C3 9293   4.360   1.420  16.305 -0.0144  0.1883  0.5621
  624TMC3    C4 9294   4.573   1.431  16.136 -0.7990 -0.2145  0.3247
  624TMC3    C5 9295   4.447   1.436  16.089 -0.0564 -0.2101 -0.4984
  624TMC3    C6 9296   4.338   1.435  16.173 -0.2497 -0.0252  0.3248
  624TMC3     C 9297   4.722   1.395  16.327  0.0823 -0.1091  0.0456
  624TMC3     O 9298   4.728   1.390  16.448  0.2016  0.0635  0.2201
  624TMC3     H 9299   4.491   1.393  16.460  0.1935  1.9517  0.7231
  624TMC3    H1 9300   4.665   1.441  16.080 -0.0733 -1.5907  1.2715
  624TMC3    H2 9301   4.239   1.461  16.135 -0.7465 -0.5806  1.2453
  624TMC3    C7 9302   4.430   1.387  15.953  0.2805  0.0627 -0.2069
  624TMC3    C8 9303   4.281   1.315  16.364 -0.3375  0.8386  0.3064
  624TMC3    O1 9304   4.515   1.414  15.872  0.6494 -0.0006 -0.1073
  624TMC3    O2 9305   4.258   1.224  16.286 -0.2985  0.1536  0.4011
  625MPD2     C 9306   4.658   2.322   0.676 -0.4074  0.0561  0.5085
  625MPD2    C1 9307   4.659   2.451   0.726 -0.0064 -0.2943 -0.0571
  625MPD2    C2 9308   0.034   2.499   0.796  0.0410  0.4998 -0.3576
  625MPD2    C3 9309   0.152   2.430   0.805  0.1007 -0.1569  0.0499
  625MPD2    C4 9310   0.153   2.303   0.754 -0.6192 -0.7751 -0.0902
  625MPD2    C5 9311   0.042   2.254   0.696 -0.4217 -0.0906  0.6962
  625MPD2     H 9312   0.016   2.599   0.833  0.5081  0.1048  0.9316
  625MPD2    H1 9313   0.245   2.245   0.759  0.1461  0.5439  1.0014
  625MPD2    H2 9314   4.575   2.277   0.621  1.3430 -2.6553  0.0850
  625MPD2    H3 9315   0.039   2.149   0.668 -1.0856  0.5182 -1.5105
  625MPD2     N 9316   0.256   2.494   0.877  0.1761 -0.7849  0.0403
  625MPD2    H5 9317   0.244   2.588   0.912  3.3047  0.4427 -2.1659
  625MPD2    N1 9318   4.550   2.552   0.711  0.0040 -0.4561  0.4720
  625MPD2    H7 9319   4.558   2.636   0.767 -0.8212  0.7137 -1.1625
  626TMC3    C1 9320   4.364   2.658   0.624  0.0870 -0.4069 -0.3101
  626TMC3    C2 9321   4.344   2.735   0.508 -0.4905  0.2667  0.9669
  626TMC3    C3 9322   4.243   2.825   0.513 -0.2618 -0.0059 -0.3160
  626TMC3    C4 9323   4.300   2.672   0.739  0.7202 -0.3294 -0.2943
  626TMC3    C5 9324   4.199   2.768   0.743 -0.1877  0.5825  0.0225
  626TMC3    C6 9325   4.174   2.855   0.630  0.3943 -0.3249 -0.5491
  626TMC3     C 9326   4.452   2.542   0.612  0.8228 -0.1262 -0.3104
  626TMC3     O 9327   4.461   2.474   0.510  0.2040  0.2989  0.1642
  626TMC3     H 9328   4.390   2.708   0.413 -0.9708 -0.0258  0.8158
  626TMC3    H1 9329   4.313   2.602   0.821  1.0066 -0.1006 -0.1451
  626TMC3    H2 9330   4.099   2.933   0.636  2.6558  1.8532 -0.7090
  626TMC3    C7 9331   4.085   2.726   0.826  0.6899 -0.9628 -0.3694
  626TMC3    C8 9332   4.221   2.903   0.390  0.0191 -0.9056 -0.4555
  626TMC3    O1 9333   4.114   2.649   0.919  0.0763  0.0849  0.6796
  626TMC3    O2 9334   4.302   2.888   0.305  0.3001 -0.1911 -0.4238
  627MPD2     C 9335   2.542   2.725  14.752  0.0177 -0.4950 -0.1511
  627MPD2    C1 9336   2.661   2.660  14.707  0.1775  0.6728  0.1385
  627MPD2    C2 9337   2.649   2.549  14.627  0.4413  0.7650 -0.0392
  627MPD2    C3 9338   2.532   2.489  14.595 -0.4170 -0.1978 -0.5974
  627MPD2    C4 9339   2.416   2.547  14.639 -0.2541  0.6573  0.2248
  627MPD2    C5 9340   2.422   2.662  14.716 -0.1329 -0.3600 -0.2798
  627MPD2     H 9341   2.746   2.521  14.585 -0.3065 -0.4847 -0.9362
  627MPD2    H1 9342   2.316   2.520  14.608  0.0469 -1.5623  1.1942
  627MPD2    H2 9343   2.541   2.817  14.808 -2.2409  0.6184 -2.0260
  627MPD2    H3 9344   2.326   2.693  14.756  0.2697  0.3132  0.1829
  627MPD2     N 9345   2.534   2.393  14.495 -0.1311 -0.3913  0.3997
  627MPD2    H5 9346   2.620   2.379  14.443  0.3225  1.7648  0.5764
  627MPD2    N1 9347   2.793   2.701  14.748  0.6876  0.1822  0.0866
  627MPD2    H7 9348   2.875   2.656  14.708 -0.1281 -0.7493 -0.5562
  628TMC3    C1 9349   2.967   2.825  14.838  0.0041  0.6788 -0.2904
  628TMC3    C2 9350   3.037   2.713  14.860 -0.5742 -0.3250 -0.2490
  628TMC3    C3 9351   3.174   2.713  14.847 -0.1198 -0.1878  0.3282
  628TMC3    C4 9352   3.018   2.920  14.761 -0.2931  0.4696 -0.5267
  628TMC3    C5 9353   3.150   2.915  14.742  0.7135 -0.2274  0.6942
  628TMC3    C6 9354   3.235   2.825  14.796  0.7258  0.1326 -0.0282
  628TMC3     C 9355   2.824   2.816  14.807  0.3081 -0.7019  1.0029
  628TMC3     O 9356   2.749   2.909  14.833  0.0369 -0.4601  0.5178
  628TMC3     H 9357   2.981   2.629  14.899  2.1339 -1.9866  0.0355
  628TMC3    H1 9358   2.948   2.985  14.710  2.6228  3.3423 -0.8539
  628TMC3    H2 9359   3.340   2.820  14.770 -0.0194 -1.7546 -2.6656
  628TMC3    C7 9360   3.208   2.962  14.620 -0.3111 -0.9653 -0.3394
  628TMC3    C8 9361   3.250   2.592  14.858 -0.1081  0.1038 -0.3137
  628TMC3    O1 9362   3.310   2.907  14.583 -0.7893 -0.3342  0.6096
  628TMC3    O2 9363   3.186   2.489  14.847  0.1576  0.2893  0.2394
  629MPD2     C 9364   1.278   1.653  15.892  1.1200 -0.3384 -0.2639
  629MPD2    C1 9365   1.283   1.516  15.900  0.5147  0.1943  0.0861
  629MPD2    C2 9366   1.183   1.441  15.844  0.6381 -0.0735  0.0399
  629MPD2    C3 9367   1.068   1.502  15.794  0.4543 -0.2122  0.6651
  629MPD2    C4 9368   1.054   1.638  15.800  0.0155  0.1820 -0.1569
  629MPD2    C5 9369   1.159   1.711  15.845  0.0855 -0.8519  0.1694
  629MPD2     H 9370   1.200   1.335  15.844 -0.1983 -0.2218 -2.2703
  629MPD2    H1 9371   0.970   1.694  15.762 -0.2217 -1.6338 -2.3600
  629MPD2    H2 9372   1.359   1.717  15.922 -0.2821  1.9044 -1.2572
  629MPD2    H3 9373   1.158   1.819  15.833  1.3616 -0.5087  3.0685
  629MPD2     N 9374   0.968   1.417  15.738 -0.4818  0.1224 -0.4618
  629MPD2    H5 9375   0.877   1.462  15.731 -0.2738  0.9417  1.8875
  629MPD2    N1 9376   1.393   1.451  15.960  0.1065  0.2085 -0.0439
  629MPD2    H7 9377   1.472   1.508  15.986  0.1719  0.9666 -1.9242
  630TMC3    C1 9378   1.536   1.287  16.035 -0.3847  0.3328  0.7052
  630TMC3    C2 9379   1.637   1.364  15.981  0.2296 -0.6345  0.0878
  630TMC3    C3 9380   1.760   1.323  16.020 -0.1539 -0.3505  0.1688
  630TMC3    C4 9381   1.560   1.181  16.119  0.2776  0.2879  0.6830
  630TMC3    C5 9382   1.689   1.169  16.171 -0.0224  0.6296  0.4166
  630TMC3    C6 9383   1.794   1.239  16.117 -0.4523 -0.1971  0.7342
  630TMC3     C 9384   1.398   1.320  16.000  0.0376 -0.0047 -0.8129
  630TMC3     O 9385   1.311   1.239  16.034  0.0281  0.2100  0.0403
  630TMC3     H 9386   1.623   1.461  15.933 -1.7764 -1.1141 -0.2888
  630TMC3    H1 9387   1.476   1.127  16.163 -0.5239  1.0494  0.0992
  630TMC3    H2 9388   1.895   1.205  16.133 -0.6195 -0.5585  1.0235
  630TMC3    C7 9389   1.734   1.048  16.230  0.2263 -0.2200 -0.0512
  630TMC3    C8 9390   1.865   1.420  15.982 -0.5378 -0.6791 -0.6439
  630TMC3    O1 9391   1.835   1.062  16.296  0.3405 -0.3782  0.1436
  630TMC3    O2 9392   1.966   1.413  16.052 -0.3329 -0.0281 -0.0824
  631MPD2     C 9393   4.427   0.806  15.297  0.2476 -0.0199  0.1113
  631MPD2    C1 9394   4.501   0.787  15.184  0.2799  0.1769 -0.7845
  631MPD2    C2 9395   4.613   0.710  15.176  0.2205 -0.3850 -0.0362
  631MPD2    C3 9396   4.632   0.614  15.276  0.0598 -0.0925 -0.4012
  631MPD2    C4 9397   4.538   0.619  15.383  0.3470  0.6826 -0.5420
  631MPD2    C5 9398   4.457   0.726  15.405 -0.5806 -0.1710 -0.4125
  631MPD2     H 9399   4.685   0.710  15.094  2.5533  1.9402  2.0236
  631MPD2    H1 9400   4.524   0.542  15.458  0.7026 -0.2164 -1.3945
  631MPD2    H2 9401   4.351   0.883  15.301 -0.9265 -1.1345 -0.9650
  631MPD2    H3 9402   4.382   0.730  15.483  1.1281 -0.1411  1.2349
  631MPD2     N 9403   4.730   0.511  15.265 -0.9485  0.0941 -0.5558
  631MPD2    H5 9404   0.058   0.525  15.186  1.4623  1.0173  1.5342
  631MPD2    N1 9405   4.471   0.887  15.090  0.0086  0.3885 -0.1477
  631MPD2    H7 9406   4.395   0.950  15.114 -0.0648  0.9730 -1.9330
  632TMC3    C1 9407   4.535   1.046  14.929 -0.3635 -0.0034 -0.2786
  632TMC3    C2 9408   4.501   1.131  15.026 -0.1091  0.0509  0.3357
  632TMC3    C3 9409   4.415   1.233  14.995  0.8341  0.0628 -1.1404
  632TMC3    C4 9410   4.484   1.067  14.803 -1.0070  0.2490  0.6763
  632TMC3    C5 9411   4.397   1.167  14.781 -0.0222  0.1256 -0.3257
  632TMC3    C6 9412   4.361   1.260  14.868 -0.1178 -0.1141  0.2103
  632TMC3     C 9413   4.549   0.910  14.978 -0.4912  0.4773 -0.9196
  632TMC3     O 9414   4.634   0.841  14.921 -0.2128  0.2344 -0.7985
  632TMC3     H 9415   4.526   1.096  15.126  2.3568  1.8960  0.3782
  632TMC3    H1 9416   4.487   0.985  14.732  4.3672  3.4445 -2.7756
  632TMC3    H2 9417   4.296   1.344  14.849 -0.2713 -0.7555 -2.0872
  632TMC3    C7 9418   4.330   1.177  14.650  0.3767 -0.5268  0.4941
  632TMC3    C8 9419   4.375   1.317  15.108 -0.3994 -0.6327 -0.0909
  632TMC3    O1 9420   4.394   1.132  14.557  0.4386  0.6665 -0.1555
  632TMC3    O2 9421   4.261   1.359  15.112  0.5367  0.8837 -0.0511
  633MPD2     C 9422   4.564   4.406  17.449  0.0154  0.2728 -0.5762
  633MPD2    C1 9423   4.523   4.302  17.361 -0.0269 -0.2483 -0.0019
  633MPD2    C2 9424   4.455   4.194  17.413 -0.2163 -1.1538  0.1862
  633MPD2    C3 9425   4.412   4.189  17.545 -0.4295 -0.0494  0.1435
  633MPD2    C4 9426   4.454   4.295  17.631  0.1519 -0.6410 -0.3318
  633MPD2    C5 9427   4.527   4.405  17.583 -0.2018  0.6615 -0.3625
  633MPD2     H 9428   4.436   4.109  17.348 -3.9006 -0.0820 -0.1382
  633MPD2    H1 9429   4.449   4.281   0.001  1.2019 -1.5280 -0.3918
  633MPD2    H2 9430   4.623   4.490  17.416  1.2763 -0.4918 -0.2462
  633MPD2    H3 9431   4.570   4.479  17.650 -0.9735  1.4790 -0.7644
  633MPD2     N 9432   4.344   4.073  17.597  1.0969 -0.3356 -0.1092
  633MPD2    H5 9433   4.333   4.062  17.697  2.0822 -1.1777 -0.0925
  633MPD2    N1 9434   4.542   4.311  17.216 -0.5701  0.2111  0.8012
  633MPD2    H7 9435   4.510   4.227  17.169 -0.6049  0.7163 -0.0702
  634TMC3    C1 9436   4.576   4.383  16.996  0.0003  0.3737 -0.0399
  634TMC3    C2 9437   4.628   4.264  16.951  0.6074 -0.0077 -0.4482
  634TMC3    C3 9438   4.652   4.259  16.819  0.8298 -0.1598  0.5315
  634TMC3    C4 9439   4.565   4.494  16.920  0.0480  0.2274 -0.4147
  634TMC3    C5 9440   4.589   4.489  16.787  0.2858  0.0896 -0.5368
  634TMC3    C6 9441   4.644   4.372  16.736 -0.1572  0.0739  0.3435
  634TMC3     C 9442   4.570   4.415  17.139 -0.6384 -0.2301  0.5088
  634TMC3     O 9443   4.599   4.529  17.177  0.2554 -0.8371  0.1460
  634TMC3     H 9444   4.644   4.177  17.013 -1.8633 -0.5196 -0.5302
  634TMC3    H1 9445   4.532   4.584  16.971 -0.4414 -0.6697  0.8302
  634TMC3    H2 9446   4.651   4.371  16.628 -0.6737  1.0577  0.2940
  634TMC3    C7 9447   4.537   4.583  16.688  0.0260  0.0104  0.0029
  634TMC3    C8 9448   4.670   4.127  16.758 -0.4291  0.1773 -0.7457
  634TMC3    O1 9449   4.552   4.538  16.574  0.6573 -0.2950  0.1044
  634TMC3    O2 9450   4.654   4.029  16.826  0.1822  0.1118  1.0265
  635TMC3    C1 9451   0.575   1.037  16.571  0.1221 -0.0035 -0.1661
  635TMC3    C2 9452   0.704   1.024  16.528 -0.2091  0.3174  0.4796
  635TMC3    C3 9453   0.726   0.975  16.406  0.6833 -0.5199 -0.1890
  635TMC3    C4 9454   0.472   1.018  16.483 -0.3304  0.1652  0.3853
  635TMC3    C5 9455   0.494   0.963  16.359 -0.2588 -0.5556 -0.9228
  635TMC3    C6 9456   0.622   0.930  16.326  0.0910 -0.0150 -0.2259
  635TMC3     C 9457   0.564   1.070  16.716  0.3068 -0.5085  0.5605
  635TMC3     O 9458   0.663   1.089  16.783 -0.1750 -0.1437 -0.2895
  635TMC3     H 9459   0.789   1.051  16.590 -1.0737  1.7304  1.0579
  635TMC3    H1 9460   0.372   1.053  16.509 -1.8288 -1.4693 -3.2241
  635TMC3    H2 9461   0.639   0.868  16.239  0.8694 -0.1885  0.0513
  635TMC3    C7 9462   0.390   0.961  16.260  0.1248  0.3378  0.0755
  635TMC3    C8 9463   0.864   0.920  16.387 -0.6155 -0.7442  0.0712
  635TMC3    O1 9464   0.427   0.953  16.145  0.4551 -0.4030 -0.2688
  635TMC3    O2 9465   0.868   0.812  16.334  0.3126  0.1465 -0.2500
  636MPD2     C 9466   1.034   3.803  15.619  0.0423  0.0078  0.1307
  636MPD2    C1 9467   1.081   3.838  15.744  0.1416  0.0911 -0.4054
  636MPD2    C2 9468   1.159   3.747  15.819  0.0078  0.7911 -0.8360
  636MPD2    C3 9469   1.192   3.619  15.767 -0.6446 -0.1694 -0.5495
  636MPD2    C4 9470   1.140   3.589  15.640 -0.0851 -0.4853  0.0587
  636MPD2    C5 9471   1.069   3.683  15.569 -0.0358 -0.1399 -0.4881
  636MPD2     H 9472   1.193   3.787  15.914  0.0622  1.0891 -0.9826
  636MPD2    H1 9473   1.138   3.491  15.595  1.2474  0.3547 -1.8562
  636MPD2    H2 9474   0.978   3.866  15.550  3.4532  1.4841 -1.2694
  636MPD2    H3 9475   1.038   3.663  15.467  0.9051 -1.4340 -0.5266
  636MPD2     N 9476   1.253   3.523  15.846  0.2590  0.4722 -0.3203
  636MPD2    H5 9477   1.274   3.545  15.943 -1.9563  0.7088  0.1052
  636MPD2    N1 9478   1.042   3.967  15.800 -0.1047 -0.1723  0.5303
  636MPD2    H7 9479   1.088   3.988  15.888  1.2973  0.7126 -0.4175
  637TMC3    C1 9480   1.376   3.335  15.898  0.2247  0.1832 -1.1267
  637TMC3    C2 9481   1.364   3.379  16.030 -0.3609 -0.7015 -0.4256
  637TMC3    C3 9482   1.481   3.394  16.100  0.4345  0.0212  0.2050
  637TMC3    C4 9483   1.490   3.280  15.853  0.3141 -0.2778 -0.2609
  637TMC3    C5 9484   1.597   3.268  15.933 -0.1029 -0.8247  0.2261
  637TMC3    C6 9485   1.595   3.330  16.056  0.3325 -0.6134 -0.1779
  637TMC3     C 9486   1.305   3.410  15.796 -0.1093 -0.4304 -0.2954
  637TMC3     O 9487   1.321   3.375  15.677 -0.1470  0.1426 -0.4311
  637TMC3     H 9488   1.269   3.405  16.074 -1.0040 -3.3868 -0.2212
  637TMC3    H1 9489   1.507   3.255  15.749 -0.1518 -0.4016 -0.3075
  637TMC3    H2 9490   1.693   3.337  16.102 -1.0494  1.0303  2.5356
  637TMC3    C7 9491   1.720   3.299  15.866 -0.0424  0.1783  0.0409
  637TMC3    C8 9492   1.501   3.524  16.149  0.2980  0.3070 -0.2303
  637TMC3    O1 9493   1.824   3.247  15.902  0.0738 -0.0782  0.0357
  637TMC3    O2 9494   1.405   3.596  16.119  0.0985  0.1212 -0.1776
  638MPD2     C 9495   0.286   2.736  15.462  0.1390  0.0192  0.0493
  638MPD2    C1 9496   0.259   2.630  15.379  0.0498 -0.2799  0.6216
  638MPD2    C2 9497   0.223   2.506  15.440  0.0390 -0.6284  0.4416
  638MPD2    C3 9498   0.237   2.493  15.575 -0.5319 -0.0589  0.1141
  638MPD2    C4 9499   0.274   2.601  15.650 -0.5882  0.2069  0.1192
  638MPD2    C5 9500   0.301   2.727  15.596  0.6362  0.0729 -0.6112
  638MPD2     H 9501   0.187   2.422  15.382  1.6956 -0.5112 -0.7673
  638MPD2    H1 9502   0.265   2.603  15.758  0.5071 -3.9488  0.2779
  638MPD2    H2 9503   0.294   2.830  15.408 -2.2771  0.5673  0.6681
  638MPD2    H3 9504   0.319   2.814  15.659  0.1496 -0.1735 -0.1324
  638MPD2     N 9505   0.205   2.367  15.641 -0.2331  0.6379 -0.0836
  638MPD2    H5 9506   0.202   2.376  15.742  0.9847  0.1832 -0.0022
  638MPD2    N1 9507   0.279   2.640  15.240 -0.1228 -0.3789  0.4736
  638MPD2    H7 9508   0.304   2.736  15.219 -0.4110 -0.3014  0.4881
  639TMC3    C1 9509   0.211   2.195  15.461  0.4258 -0.0642 -0.3778
  639TMC3    C2 9510   0.131   2.119  15.388 -0.1140 -0.6666  0.3726
  639TMC3    C3 9511   0.181   2.053  15.283  0.1022 -0.0930  0.5531
  639TMC3    C4 9512   0.342   2.193  15.455 -0.1276  0.6470  0.3458
  639TMC3    C5 9513   0.395   2.125  15.345 -0.3284  0.2115  0.5783
  639TMC3    C6 9514   0.317   2.049  15.262  0.1054 -0.1790  0.4561
  639TMC3     C 9515   0.145   2.257  15.579 -0.2670  0.2185  0.3896
  639TMC3     O 9516   0.058   2.185  15.626  0.7606  0.2229  0.7083
  639TMC3     H 9517   0.024   2.130  15.402  0.0730  0.9322  0.5341
  639TMC3    H1 9518   0.406   2.238  15.530  1.4432 -0.2919 -0.4547
  639TMC3    H2 9519   0.356   1.964  15.208  1.0737  0.5293  0.0416
  639TMC3    C7 9520   0.543   2.107  15.345 -0.5302  0.9324 -0.8066
  639TMC3    C8 9521   0.109   1.973  15.186 -0.3331  0.2844 -0.4978
  639TMC3    O1 9522   0.577   2.085  15.460  0.4982 -0.2924  0.5513
  639TMC3    O2 9523   0.166   1.957  15.083  0.0622 -0.1380 -0.5861
  640MPD2     C 9524   1.136   2.756  10.043 -0.4899 -0.2378  0.4462
  640MPD2    C1 9525   1.010   2.779   9.981  0.8070  0.9467 -0.2640
  640MPD2    C2 9526   0.963   2.910   9.991  0.3861  0.4691  0.6437
  640MPD2    C3 9527   1.029   3.013  10.054  0.0082 -0.1645 -0.6291
  640MPD2    C4 9528   1.156   2.986  10.109 -0.5535  0.3155  0.6251
  640MPD2    C5 9529   1.208   2.856  10.107 -0.2068 -0.1177 -0.6772
  640MPD2     H 9530   0.867   2.927   9.943  0.5528 -0.8583 -0.1431
  640MPD2    H1 9531   1.207   3.072  10.148  2.4471 -0.6757 -1.0831
  640MPD2    H2 9532   1.173   2.655  10.035 -0.9434 -0.2545 -1.4625
  640MPD2    H3 9533   1.305   2.838  10.152  0.1324  0.6371 -1.1160
  640MPD2     N 9534   0.974   3.142  10.058  0.0052  0.3324  0.4760
  640MPD2    H5 9535   1.022   3.210  10.117 -0.5374  0.7730  0.4089
  640MPD2    N1 9536   0.948   2.673   9.906  0.4152  0.7320 -0.4402
  640MPD2    H7 9537   1.006   2.590   9.900 -0.4941  0.0001  1.0779
  641TMC3    C1 9538   0.799   2.581   9.744  0.3142  0.0624  0.1551
  641TMC3    C2 9539   0.871   2.469   9.735 -0.0724 -0.0995  0.5406
  641TMC3    C3 9540   0.854   2.394   9.620  0.0961  0.0018  0.7329
  641TMC3    C4 9541   0.717   2.626   9.645  0.5890 -0.2242  0.3816
  641TMC3    C5 9542   0.710   2.554   9.527 -0.9382 -0.7867  0.7616
  641TMC3    C6 9543   0.779   2.441   9.513 -0.7216 -0.2929  0.7207
  641TMC3     C 9544   0.825   2.677   9.844  0.2674  0.2654  0.0640
  641TMC3     O 9545   0.749   2.770   9.854  0.2269 -0.3154 -0.3221
  641TMC3     H 9546   0.929   2.430   9.818  1.2242  0.2454 -0.2055
  641TMC3    H1 9547   0.648   2.708   9.663 -0.0424 -0.7739  0.5012
  641TMC3    H2 9548   0.757   2.378   9.428  1.9991 -2.7482  1.8391
  641TMC3    C7 9549   0.639   2.608   9.414 -0.4719  0.5255  0.0451
  641TMC3    C8 9550   0.939   2.285   9.577  0.5678  0.0758  0.3761
  641TMC3    O1 9551   0.576   2.708   9.443  0.0765  0.0493  0.2450
  641TMC3    O2 9552   0.917   2.238   9.466 -0.0579  0.7116  0.0181
  642TMC3    C1 9553   1.495   3.202  12.827  0.0015  0.2494 -0.5757
  642TMC3    C2 9554   1.614   3.249  12.874 -0.3494  0.4510  0.2772
  642TMC3    C3 9555   1.727   3.176  12.850 -0.2814  0.4404 -0.4397
  642TMC3    C4 9556   1.481   3.093  12.746 -0.3610  0.3022 -0.2759
  642TMC3    C5 9557   1.597   3.018  12.730 -0.4328 -0.3663  0.7664
  642TMC3    C6 9558   1.719   3.059  12.784  0.6183  0.2988 -0.2335
  642TMC3     C 9559   1.390   3.293  12.855 -0.0696  0.5800 -0.1699
  642TMC3     O 9560   1.404   3.383  12.935  0.5330  0.1838  0.2811
  642TMC3     H 9561   1.624   3.335  12.939  1.0320 -0.1799  0.8935
  642TMC3    H1 9562   1.386   3.063  12.702 -0.5317  2.4632 -1.3718
  642TMC3    H2 9563   1.808   3.004  12.755  0.2616 -1.0791  1.3332
  642TMC3    C7 9564   1.595   2.909  12.627 -0.2011  0.4188 -0.3276
  642TMC3    C8 9565   1.843   3.253  12.815 -0.3395  0.5667 -0.4429
  642TMC3    O1 9566   1.495   2.903  12.553  0.6958  0.0683  0.4945
  642TMC3    O2 9567   1.944   3.183  12.820 -0.3511  0.4587  0.0448
  643TMC3    C1 9568   1.260   1.935  17.383  0.4608  0.3915 -0.0680
  643TMC3    C2 9569   1.189   1.998  17.283  0.3389  0.9353 -0.7187
  643TMC3    C3 9570   1.180   1.944  17.158 -0.3772 -0.0978  0.4949
  643TMC3    C4 9571   1.347   1.832  17.344  0.0803 -0.3951  0.1787
  643TMC3    C5 9572   1.354   1.798  17.212  0.4408  0.6868  0.6178
  643TMC3    C6 9573   1.258   1.838  17.120 -0.4990 -0.5493 -0.0239
  643TMC3     C 9574   1.284   2.028  17.485  0.7150  0.4356 -0.0798
  643TMC3     O 9575   1.282   2.145  17.443 -0.1305 -0.2642  0.0512
  643TMC3     H 9576   1.111   2.066  17.316 -0.8240  0.4642 -2.5264
  643TMC3    H1 9577   1.414   1.778  17.409  0.2117  0.6772  0.9235
  643TMC3    H2 9578   1.262   1.792  17.022  0.6764 -0.2675 -0.1075
  643TMC3    C7 9579   1.408   1.664  17.196 -0.0474 -0.3443 -0.5217
  643TMC3    C8 9580   1.150   2.042  17.061  0.0279  0.7137  0.4841
  643TMC3    O1 9581   1.391   1.588  17.292  0.7430  0.0768  0.1828
  643TMC3    O2 9582   1.117   1.997  16.954 -0.3524  0.1118 -0.5779
  644MPD2     C 9583   0.353   2.899   9.610  0.6128 -0.5089  0.5107
  644MPD2    C1 9584   0.364   2.988   9.504  0.8342  0.2488  0.8570
  644MPD2    C2 9585   0.265   3.089   9.478  0.1008 -0.2691  0.5025
  644MPD2    C3 9586   0.160   3.094   9.567 -0.3644 -0.0288 -0.3303
  644MPD2    C4 9587   0.156   3.011   9.676 -0.5099 -0.2702 -0.2444
  644MPD2    C5 9588   0.249   2.911   9.697 -0.2477 -0.0390  0.4983
  644MPD2     H 9589   0.274   3.170   9.407  0.8621 -0.1917  0.6864
  644MPD2    H1 9590   0.083   3.022   9.756  0.8746  0.7662  0.8755
  644MPD2    H2 9591   0.433   2.828   9.627  0.7799 -0.9400 -2.0219
  644MPD2    H3 9592   0.253   2.852   9.788  2.7841  1.3711  1.2867
  644MPD2     N 9593   0.070   3.199   9.551  0.6412  0.0178 -0.1520
  644MPD2    H5 9594   0.094   3.262   9.474 -1.2162  1.3551  0.3607
  644MPD2    N1 9595   0.484   2.977   9.425  0.3380  0.0211  0.2638
  644MPD2    H7 9596   0.539   2.898   9.457 -1.6700 -0.8206  1.6405
  645TMC3    C1 9597   4.626   3.348   9.599 -1.0727 -0.1042  0.2271
  645TMC3    C2 9598   4.498   3.370   9.653  0.1895  0.5568  0.1210
  645TMC3    C3 9599   4.440   3.498   9.635  0.0980  0.8982 -1.4412
  645TMC3    C4 9600   4.686   3.449   9.530  0.2924 -0.3474 -0.4109
  645TMC3    C5 9601   4.625   3.566   9.518  0.1140  0.4790 -0.3542
  645TMC3    C6 9602   4.505   3.599   9.575  0.1110 -0.0403 -0.5972
  645TMC3     C 9603   4.692   3.221   9.624  0.3028 -0.2792 -0.1986
  645TMC3     O 9604   4.626   3.149   9.701  0.2841  0.0831  0.6573
  645TMC3     H 9605   4.448   3.289   9.705 -0.1322  0.5028 -0.2771
  645TMC3    H1 9606   0.048   3.424   9.486 -0.0176 -1.3241 -0.5403
  645TMC3    H2 9607   4.461   3.698   9.569 -2.5010 -1.2008 -0.5800
  645TMC3    C7 9608   4.674   3.671   9.430  0.2070 -0.8411 -0.2877
  645TMC3    C8 9609   4.305   3.532   9.692 -0.2594 -0.2749  0.6810
  645TMC3    O1 9610   4.599   3.771   9.412  0.7407  0.1924 -1.0082
  645TMC3    O2 9611   4.247   3.634   9.647 -0.2314  0.2185  0.7408
  646MPD2     C 9612   0.425   1.277  14.317  0.0216 -0.1035 -0.2517
  646MPD2    C1 9613   0.393   1.299  14.452 -0.1826 -0.2330  1.0350
  646MPD2    C2 9614   0.290   1.390  14.477  0.8064 -0.1565 -0.6081
  646MPD2    C3 9615   0.231   1.450  14.380 -0.4714  0.1754 -0.2029
  646MPD2    C4 9616   0.260   1.428  14.245  0.0145  0.2603 -0.4214
  646MPD2    C5 9617   0.362   1.339  14.216  0.7178 -0.3460  0.0460
  646MPD2     H 9618   0.263   1.417  14.579  0.8371 -1.0698 -0.3578
  646MPD2    H1 9619   0.200   1.473  14.167  0.2357  3.2842  1.1590
  646MPD2    H2 9620   0.509   1.211  14.298  0.8041  1.0396 -0.7390
  646MPD2    H3 9621   0.370   1.326  14.108 -1.7160  0.7901 -0.2802
  646MPD2     N 9622   0.129   1.536  14.427 -0.1807 -0.7127  0.0725
  646MPD2    H5 9623   0.117   1.542  14.528 -0.7039 -2.7529  0.1367
  646MPD2    N1 9624   0.471   1.246  14.554 -0.7211 -0.3457 -0.0392
  646MPD2    H7 9625   0.557   1.204  14.520 -0.4098 -1.0870  1.6192
  647TMC3    C1 9626   0.534   1.175  14.759  0.0648  0.2510  0.6962
  647TMC3    C2 9627   0.492   1.084  14.851  0.7136  0.0204  0.2514
  647TMC3    C3 9628   0.579   1.006  14.916  0.6578 -0.2474 -0.2210
  647TMC3    C4 9629   0.669   1.191  14.729  0.1334 -0.9451 -0.3072
  647TMC3    C5 9630   0.755   1.115  14.796 -0.8010 -0.6342  0.6905
  647TMC3    C6 9631   0.710   1.018  14.893  0.4740 -0.5909 -0.8939
  647TMC3     C 9632   0.433   1.238  14.684  0.0896 -0.2389  0.4539
  647TMC3     O 9633   0.320   1.256  14.726  0.0055  0.3581  0.1771
  647TMC3     H 9634   0.388   1.080  14.881  1.0615 -2.2957  1.1313
  647TMC3    H1 9635   0.698   1.267  14.657 -0.9897 -1.9691 -1.8495
  647TMC3    H2 9636   0.784   0.947  14.930  0.3843  0.1792  0.7649
  647TMC3    C7 9637   0.894   1.120  14.771 -0.5716  0.1109  0.1650
  647TMC3    C8 9638   0.538   0.872  14.954  0.6288 -0.3319  0.4392
  647TMC3    O1 9639   0.961   1.058  14.852  0.2879  0.3466  0.0949
  647TMC3    O2 9640   0.480   0.814  14.868 -0.9258 -0.3216 -0.2061
  648TMC3    C1 9641   0.342   4.098  16.208 -0.4843  0.0629 -1.1258
  648TMC3    C2 9642   0.349   3.962  16.238 -0.2388  0.0981  0.1680
  648TMC3    C3 9643   0.329   3.882  16.123 -0.5181 -0.8111  0.4951
  648TMC3    C4 9644   0.270   4.141  16.098  0.2881  0.6882  0.3657
  648TMC3    C5 9645   0.247   4.054  15.998 -0.2139 -0.1207  0.0124
  648TMC3    C6 9646   0.283   3.923  16.004  0.0229  0.1424 -0.5335
  648TMC3     C 9647   0.349   4.189  16.315  0.6760 -0.3348  0.1134
  648TMC3     O 9648   0.336   4.310  16.292 -0.5961  0.4285  0.2008
  648TMC3     H 9649   0.394   3.922  16.328  0.2196 -1.5373 -0.7895
  648TMC3    H1 9650   0.241   4.244  16.085 -0.2013  0.5780  0.5982
  648TMC3    H2 9651   0.258   3.850  15.927  1.2725  0.7340 -1.4845
  648TMC3    C7 9652   0.168   4.097  15.882  0.2752 -0.1833  0.2432
  648TMC3    C8 9653   0.344   3.742  16.146 -0.5694  0.1721 -0.3971
  648TMC3    O1 9654   0.177   4.029  15.780  0.2336  0.2703 -0.6463
  648TMC3    O2 9655   0.350   3.705  16.262  0.1662 -0.0327 -0.1879
  649TMC3    C1 9656   3.203   0.709  12.854  0.3137 -0.9616 -0.6406
  649TMC3    C2 9657   3.318   0.767  12.878  0.0071  0.2252 -0.3335
  649TMC3    C3 9658   3.388   0.726  12.992 -0.0520  0.7022 -0.4626
  649TMC3    C4 9659   3.144   0.627  12.940  0.1091  0.2823 -0.9582
  649TMC3    C5 9660   3.208   0.591  13.053 -0.5773 -0.5680  0.3084
  649TMC3    C6 9661   3.336   0.639  13.082  0.3484 -0.5244 -0.3787
  649TMC3     C 9662   3.140   0.758  12.738 -0.1873  0.6228  0.8017
  649TMC3     O 9663   3.027   0.796  12.743 -0.2563 -0.0135 -0.4552
  649TMC3     H 9664   3.362   0.830  12.801 -1.1860  2.5501  0.8904
  649TMC3    H1 9665   3.047   0.588  12.912 -2.3525  4.8314  1.2741
  649TMC3    H2 9666   3.393   0.596  13.164  0.3407 -0.7902 -0.5117
  649TMC3    C7 9667   3.159   0.470  13.117  0.3702 -0.1358 -0.2596
  649TMC3    C8 9668   3.518   0.775  13.024  0.4367  0.1010  0.1051
  649TMC3    O1 9669   3.046   0.431  13.085 -0.1528  0.0945 -0.1654
  649TMC3    O2 9670   3.572   0.724  13.122 -0.1250  0.1932 -0.0736
  650TMC3    C1 9671   0.689   2.031  12.440  0.2243  0.0213 -0.4325
  650TMC3    C2 9672   0.605   2.135  12.421 -0.7527 -0.2194 -0.9821
  650TMC3    C3 9673   0.642   2.234  12.332  0.0674  0.1207  0.5506
  650TMC3    C4 9674   0.812   2.022  12.379 -0.1604 -0.1464  0.0164
  650TMC3    C5 9675   0.858   2.139  12.320 -0.2757 -0.2592  0.7430
  650TMC3    C6 9676   0.769   2.224  12.270  0.1529  0.4256 -0.8014
  650TMC3     C 9677   0.649   1.931  12.536 -0.8631 -0.5856  0.3019
  650TMC3     O 9678   0.561   1.967  12.614  0.4802  0.5465 -0.5304
  650TMC3     H 9679   0.507   2.141  12.467 -0.9532  1.1254 -1.5857
  650TMC3    H1 9680   0.881   1.943  12.404  1.2741  0.5427 -1.7864
  650TMC3    H2 9681   0.796   2.294  12.191  1.2233 -1.3604 -2.0003
  650TMC3    C7 9682   0.977   2.192  12.376 -0.1502 -0.0055 -0.0715
  650TMC3    C8 9683   0.594   2.361  12.360 -0.5150  0.7286 -0.5335
  650TMC3    O1 9684   1.039   2.113  12.444 -0.1159 -0.6733 -0.6021
  650TMC3    O2 9685   0.670   2.445  12.315  0.4437 -0.4010 -0.0669
  651MPD2     C 9686   0.047   4.341  10.468 -0.8530 -0.0254  0.3245
  651MPD2    C1 9687   0.052   4.459  10.544 -0.1997  0.3265  0.0958
  651MPD2    C2 9688   0.154   4.556  10.510  0.3898  0.2758 -0.9363
  651MPD2    C3 9689   0.243   4.540  10.404  0.1229 -0.3347 -0.3999
  651MPD2    C4 9690   0.226   4.429  10.325 -0.4835 -0.6101 -0.0240
  651MPD2    C5 9691   0.134   4.331  10.355 -0.7396  0.1343  0.0579
  651MPD2     H 9692   0.152   4.646  10.570 -0.1159 -0.4739  0.1707
  651MPD2    H1 9693   0.283   4.417  10.234  0.5280  2.0966  0.2492
  651MPD2    H2 9694   4.717   4.256  10.487  0.6978 -1.0537  0.9830
  651MPD2    H3 9695   0.136   4.240  10.296  1.3492  0.9415 -1.1185
  651MPD2     N 9696   0.344   4.637  10.392  1.0336 -0.1651  0.0397
  651MPD2    H5 9697   0.341   4.716  10.455 -2.2610 -0.2099 -0.0359
  651MPD2    N1 9698   4.691   4.488  10.643  0.1402  0.2186 -0.3421
  651MPD2    H7 9699   4.720   4.564  10.703 -0.0937  0.2143 -0.2218
  652TMC3    C1 9700   0.779   0.008  10.304 -0.0824  0.1563 -0.3250
  652TMC3    C2 9701   0.674   4.668  10.352 -0.6505  0.1718 -0.0758
  652TMC3    C3 9702   0.553   4.717  10.333  0.2063  0.1717 -0.5466
  652TMC3    C4 9703   0.766   0.122  10.232 -0.0225  0.3858 -0.2715
  652TMC3    C5 9704   0.640   0.155  10.206 -0.5471  0.3786  0.4313
  652TMC3    C6 9705   0.529   0.095  10.262  0.5860  0.5025 -0.5538
  652TMC3     C 9706   0.909   4.732  10.365  0.1776 -0.0143  0.7026
  652TMC3     O 9707   0.911   4.673  10.471 -0.4460 -0.0837 -0.2238
  652TMC3     H 9708   0.693   4.571  10.396  1.7280  0.7505  0.1974
  652TMC3    H1 9709   0.846   0.191  10.207  0.1100  0.3137 -0.0516
  652TMC3    H2 9710   0.427   0.119  10.236  0.3871  0.1068 -0.1373
  652TMC3    C7 9711   0.608   0.284  10.148 -0.8099 -0.5603  1.2141
  652TMC3    C8 9712   0.447   4.626  10.305 -0.4816 -0.4057 -0.7015
  652TMC3    O1 9713   0.496   0.302  10.113 -0.0781  0.0284  0.8225
  652TMC3    O2 9714   0.463   4.559  10.205 -0.4002  0.3355 -0.0306
  653MPD2     C 9715   4.052   4.293  17.598  0.5497 -0.1873  0.5876
  653MPD2    C1 9716   3.990   4.371  17.507  0.4280  0.0848  0.5100
  653MPD2    C2 9717   3.901   4.309  17.414  0.2824 -0.6110  0.0209
  653MPD2    C3 9718   3.880   4.175  17.414 -0.4641 -0.0088  0.4029
  653MPD2    C4 9719   3.941   4.106  17.510 -0.4515  0.3446  0.5650
  653MPD2    C5 9720   4.018   4.160  17.605 -1.2365  0.6027  0.6641
  653MPD2     H 9721   3.859   4.372  17.337  1.7560  1.1721  0.6790
  653MPD2    H1 9722   3.928   3.998  17.512  3.0811 -0.1227 -2.1675
  653MPD2    H2 9723   4.123   4.340  17.665  0.0847  0.5617  0.5475
  653MPD2    H3 9724   4.068   4.096  17.678 -1.3722 -1.4647 -1.0659
  653MPD2     N 9725   3.793   4.114  17.320  0.4265  0.0183 -0.1517
  653MPD2    H5 9726   3.742   4.180  17.261 -0.0160  0.6314  0.9287
  653MPD2    N1 9727   4.011   4.513  17.521  0.0904  0.0196 -0.1911
  653MPD2    H7 9728   4.065   4.547  17.600  2.6846  1.0518 -2.4006
  654TMC3    C1 9729   3.700   3.939  17.184 -0.1237  0.4653  0.6669
  654TMC3    C2 9730   3.633   4.045  17.131  0.1986  0.2704 -0.1828
  654TMC3    C3 9731   3.585   4.030  17.004  0.2982 -0.0372  0.2816
  654TMC3    C4 9732   3.725   3.821  17.117  0.5533 -0.6407  0.0381
  654TMC3    C5 9733   3.698   3.825  16.982 -0.0779 -0.7901 -0.7520
  654TMC3    C6 9734   3.635   3.932  16.925  0.1531  0.2314  0.2787
  654TMC3     C 9735   3.793   3.971  17.291 -0.7088  0.4062 -0.2296
  654TMC3     O 9736   3.868   3.886  17.330  0.2054  0.4379  0.1288
  654TMC3     H 9737   3.595   4.124  17.194 -0.6309 -0.7584  0.6035
  654TMC3    H1 9738   3.786   3.742  17.159 -0.4462 -1.0018  0.8262
  654TMC3    H2 9739   3.597   3.920  16.825 -0.9096 -0.6189  0.7775
  654TMC3    C7 9740   3.725   3.715  16.892  0.3200 -0.4421 -0.0462
  654TMC3    C8 9741   3.474   4.108  16.959 -0.9484  0.3170 -0.3041
  654TMC3    O1 9742   3.691   3.723  16.774  0.2740 -0.0279  0.2700
  654TMC3    O2 9743   3.421   4.082  16.850  0.5235 -0.0578  0.0348
  655MPD2     C 9744   0.576   3.912  15.619 -0.6764 -0.2467 -0.3551
  655MPD2    C1 9745   0.469   3.976  15.571 -0.1209 -0.0216 -0.4301
  655MPD2    C2 9746   0.373   3.907  15.496 -0.0950 -0.4889 -0.0267
  655MPD2    C3 9747   0.414   3.783  15.445  0.5469 -0.6299  0.2153
  655MPD2    C4 9748   0.528   3.728  15.478  0.4591 -0.3154  0.0687
  655MPD2    C5 9749   0.611   3.791  15.573 -0.0803 -0.0159 -0.5622
  655MPD2     H 9750   0.277   3.946  15.463  0.9606  0.4119 -2.0129
  655MPD2    H1 9751   0.562   3.633  15.440 -3.6916 -2.0684  0.7851
  655MPD2    H2 9752   0.645   3.954  15.692 -1.9013  0.5555  0.3355
  655MPD2    H3 9753   0.703   3.745  15.607  0.1577  0.2445 -0.8516
  655MPD2     N 9754   0.340   3.704  15.354 -0.8843  0.0234 -1.1449
  655MPD2    H5 9755   0.392   3.620  15.331  0.8360  1.2927 -1.8091
  655MPD2    N1 9756   0.444   4.114  15.600 -0.0300  0.2371 -0.3888
  655MPD2    H7 9757   0.368   4.160  15.551 -0.6337  0.8387  1.0948
  656TMC3    C1 9758   0.457   4.317  15.707 -0.0917 -0.6362 -0.2232
  656TMC3    C2 9759   0.467   4.386  15.824 -0.1908 -0.4137 -0.0464
  656TMC3    C3 9760   0.400   4.502  15.827  0.0950 -0.3275 -0.0040
  656TMC3    C4 9761   0.410   4.371  15.594 -0.1849  0.0512 -0.1941
  656TMC3    C5 9762   0.340   4.484  15.603  0.1978 -0.2729 -0.1483
  656TMC3    C6 9763   0.341   4.559  15.718  0.1141 -0.0593 -0.2932
  656TMC3     C 9764   0.505   4.181  15.698  0.3597 -0.6354  0.0485
  656TMC3     O 9765   0.570   4.136  15.791  0.0268 -0.7883  0.1575
  656TMC3     H 9766   0.506   4.335  15.911  0.1600 -0.3368 -0.1552
  656TMC3    H1 9767   0.422   4.323  15.497  3.3853 -1.6791  1.1215
  656TMC3    H2 9768   0.296   4.657  15.719 -1.0542 -0.6134  0.9902
  656TMC3    C7 9769   0.284   4.538  15.481  0.9933  0.4521  0.2229
  656TMC3    C8 9770   0.332   4.522  15.956 -0.4020  0.8303 -0.1623
  656TMC3    O1 9771   0.297   4.464  15.385 -0.2452  0.2869 -0.0681
  656TMC3    O2 9772   0.343   4.440  16.045  0.0762 -0.1851 -0.5800
  657TMC3    C1 9773   3.694   2.937  14.463 -0.1384 -0.0549  0.7250
  657TMC3    C2 9774   3.615   3.009  14.543  0.0370  0.0497 -0.0460
  657TMC3    C3 9775   3.604   3.142  14.524  0.4703 -0.6246 -0.6586
  657TMC3    C4 9776   3.751   2.988  14.353  0.0482 -0.6489  0.9270
  657TMC3    C5 9777   3.723   3.121  14.324 -0.0463 -0.1946  0.3875
  657TMC3    C6 9778   3.647   3.205  14.406  0.8803 -0.4228 -0.1267
  657TMC3     C 9779   3.735   2.809  14.510  0.1477 -0.5603 -0.6964
  657TMC3     O 9780   3.736   2.717  14.428  0.5825 -0.0547 -0.0167
  657TMC3     H 9781   3.571   2.951  14.623  2.6017 -1.4692  0.2792
  657TMC3    H1 9782   3.811   2.920  14.294  0.1018  1.4585 -1.4789
  657TMC3    H2 9783   3.644   3.312  14.396 -0.5335 -0.1803  2.8538
  657TMC3    C7 9784   3.831   3.181  14.250 -0.4990 -0.3719 -0.1865
  657TMC3    C8 9785   3.518   3.227  14.611  0.4898 -0.9681  0.0302
  657TMC3    O1 9786   3.895   3.102  14.183  0.0510 -0.3095 -0.0578
  657TMC3    O2 9787   3.496   3.344  14.584  0.8189 -0.1009 -0.0379
  658MPD2     C 9788   0.642   3.565  14.793  0.0855 -0.6554  0.2414
  658MPD2    C1 9789   0.502   3.587  14.794 -0.3033  0.3042  0.0266
  658MPD2    C2 9790   0.456   3.685  14.713  0.2808  0.1932  0.5268
  658MPD2    C3 9791   0.534   3.754  14.624 -0.3529 -0.1553 -0.5557
  658MPD2    C4 9792   0.667   3.717  14.607  0.2435  0.6535 -0.2534
  658MPD2    C5 9793   0.717   3.624  14.696  0.1409  0.0551  0.4287
  658MPD2     H 9794   0.353   3.716  14.727 -0.1471 -0.4565 -1.1869
  658MPD2    H1 9795   0.738   3.749  14.532  0.1557 -2.1550 -1.5270
  658MPD2    H2 9796   0.701   3.500  14.857  1.6437 -0.8973 -1.4410
  658MPD2    H3 9797   0.817   3.586  14.686  0.1664  0.5669 -1.3310
  658MPD2     N 9798   0.462   3.846  14.541  0.3682  0.3599 -0.2510
  658MPD2    H5 9799   0.362   3.852  14.559  0.0086  0.7262 -2.3884
  658MPD2    N1 9800   0.428   3.526  14.891  0.2461  0.0961  0.4020
  658MPD2    H7 9801   0.477   3.476  14.964  1.3424  0.4154 -0.1065
  659TMC3    C1 9802   0.219   3.502  15.021 -0.1669 -0.1796  0.0090
  659TMC3    C2 9803   0.269   3.579  15.125 -0.2400  0.2721  0.2085
  659TMC3    C3 9804   0.168   3.613  15.214  0.3239 -0.2136  0.1811
  659TMC3    C4 9805   0.086   3.467  15.012  0.3724  0.3230  0.2930
  659TMC3    C5 9806   0.003   3.490  15.119  0.2797  0.4372  0.5661
  659TMC3    C6 9807   0.049   3.567  15.220  0.4518 -0.4258  0.6485
  659TMC3     C 9808   0.292   3.526  14.894  0.8723  0.6164  0.3183
  659TMC3     O 9809   0.219   3.551  14.798  0.2050 -0.6333  0.9962
  659TMC3     H 9810   0.373   3.609  15.125 -1.0466  3.0812  0.4853
  659TMC3    H1 9811   0.049   3.419  14.922 -0.6558 -1.7485  1.8044
  659TMC3    H2 9812   4.726   3.579  15.311 -1.2509  1.6086 -0.6890
  659TMC3    C7 9813   4.592   3.462  15.115  0.1689 -0.7156  0.0751
  659TMC3    C8 9814   0.205   3.705  15.321 -0.4230  0.9506 -0.5341
  659TMC3    O1 9815   4.523   3.531  15.187  0.1131  0.1866 -0.2075
  659TMC3    O2 9816   0.118   3.780  15.371  0.4396 -0.0365  0.7467
  660MPD2     C 9817   2.942   3.296  12.634 -0.6203 -0.1546 -0.2093
  660MPD2    C1 9818   2.809   3.319  12.643  0.8543  0.0010  0.3368
  660MPD2    C2 9819   2.727   3.263  12.739 -0.6587  0.3687  0.2743
  660MPD2    C3 9820   2.781   3.168  12.827  0.3612 -0.1949  0.4016
  660MPD2    C4 9821   2.915   3.146  12.824 -0.3806  0.2519  0.4059
  660MPD2    C5 9822   2.992   3.212  12.730 -0.5969  0.1749  0.1774
  660MPD2     H 9823   2.625   3.298  12.751 -0.8021 -0.1872  0.6631
  660MPD2    H1 9824   2.953   3.082  12.903 -0.8567 -1.0280 -0.4087
  660MPD2    H2 9825   3.003   3.346  12.559  1.2529 -1.4010  0.4668
  660MPD2    H3 9826   3.098   3.189  12.728 -0.6744 -0.3689  4.2461
  660MPD2     N 9827   2.709   3.101  12.927 -0.5701  0.4523  0.2260
  660MPD2    H5 9828   2.751   3.027  12.982 -0.3571 -0.6576 -1.4614
  660MPD2    N1 9829   2.761   3.420  12.555  0.3111 -0.1433  0.0822
  660MPD2    H7 9830   2.834   3.469  12.503 -1.0747  1.5883 -0.2228
  661TMC3    C1 9831   2.616   3.579  12.444 -0.0004 -0.0740  0.5165
  661TMC3    C2 9832   2.654   3.539  12.320 -0.7401 -0.5422 -0.1311
  661TMC3    C3 9833   2.608   3.610  12.210  0.0208  0.2500  0.2352
  661TMC3    C4 9834   2.513   3.661  12.454 -0.8972  0.4519  0.4873
  661TMC3    C5 9835   2.461   3.733  12.352 -0.2765  0.4802  0.4091
  661TMC3    C6 9836   2.519   3.709  12.231  0.0886  0.4282  0.5536
  661TMC3     C 9837   2.629   3.470  12.536 -0.3835 -0.0988  0.1351
  661TMC3     O 9838   2.529   3.416  12.579  0.0502  0.1406  0.3673
  661TMC3     H 9839   2.729   3.461  12.309  0.8591  0.7495  1.3870
  661TMC3    H1 9840   2.467   3.669  12.552 -1.9160  1.4592 -0.0879
  661TMC3    H2 9841   2.467   3.757  12.148  2.6498 -0.1149 -1.3477
  661TMC3    C7 9842   2.320   3.754  12.366 -0.2366 -0.5582  0.4955
  661TMC3    C8 9843   2.664   3.614  12.077 -0.7557  0.4370  0.6423
  661TMC3    O1 9844   2.284   3.788  12.474 -0.6106 -0.1440  0.3139
  661TMC3    O2 9845   2.655   3.721  12.013 -0.4215 -0.2389  0.7781
  662MPD2     C 9846   3.484   2.552  16.767  0.0166 -0.0170  0.4949
  662MPD2    C1 9847   3.349   2.528  16.783  0.2774 -0.7085 -0.9661
  662MPD2    C2 9848   3.283   2.589  16.887  0.3203  0.0179 -0.4410
  662MPD2    C3 9849   3.355   2.662  16.984  0.3937 -0.0009 -0.3813
  662MPD2    C4 9850   3.490   2.686  16.957 -0.1900 -0.3061 -0.5527
  662MPD2    C5 9851   3.545   2.638  16.844 -0.6154 -0.8063  0.0856
  662MPD2     H 9852   3.175   2.590  16.897  0.3535 -2.4224  0.3291
  662MPD2    H1 9853   3.547   2.756  17.017 -1.6604  0.6554 -0.2788
  662MPD2    H2 9854   3.542   2.509  16.686  1.3467  0.8986  0.9696
  662MPD2    H3 9855   3.647   2.658  16.814 -1.5690  0.9621 -2.0457
  662MPD2     N 9856   3.287   2.713  17.104 -0.2053  0.5026  0.3155
  662MPD2    H5 9857   3.344   2.757  17.175  1.9291  0.9307 -1.6335
  662MPD2    N1 9858   3.267   2.450  16.698  0.0245 -0.2726  0.0170
  662MPD2    H7 9859   3.175   2.434  16.738 -0.7971  1.1243 -1.3104
  663TMC3    C1 9860   3.212   2.272  16.563  0.1987 -0.9772  0.5351
  663TMC3    C2 9861   3.100   2.250  16.643  0.6357  0.0376  0.1612
  663TMC3    C3 9862   3.006   2.150  16.616 -0.1846  0.0653 -0.4801
  663TMC3    C4 9863   3.233   2.195  16.454  0.6127 -0.3540 -0.1144
  663TMC3    C5 9864   3.137   2.101  16.427 -0.4496 -0.7049 -0.7549
  663TMC3    C6 9865   3.022   2.087  16.495  0.4931 -0.1375 -0.1705
  663TMC3     C 9866   3.309   2.376  16.584  0.4935 -0.2231  0.3132
  663TMC3     O 9867   3.407   2.398  16.513 -0.0548  0.0558 -0.0905
  663TMC3     H 9868   3.085   2.290  16.743  0.1996 -3.9999  1.7333
  663TMC3    H1 9869   3.326   2.197  16.400  0.1821  2.7712 -0.7658
  663TMC3    H2 9870   2.960   1.999  16.478 -1.3650  1.4906 -1.8591
  663TMC3    C7 9871   3.180   1.979  16.357 -0.0112  0.3754 -0.0782
  663TMC3    C8 9872   3.017   2.052  16.721  0.2811  0.0414 -0.3623
  663TMC3    O1 9873   3.249   2.002  16.260  0.0053  0.5897  0.3194
  663TMC3    O2 9874   3.043   1.944  16.676 -0.1898 -0.0482  0.4747
  664MPD2     C 9875   1.444   0.709  17.131 -0.0253 -0.4208  0.0125
  664MPD2    C1 9876   1.567   0.719  17.188 -0.1264 -0.5955 -0.3599
  664MPD2    C2 9877   1.581   0.723  17.326 -0.4798  0.1255 -0.1594
  664MPD2    C3 9878   1.462   0.720  17.407  0.2793  0.1750 -0.1453
  664MPD2    C4 9879   1.342   0.710  17.343 -0.1525  0.4450 -0.7532
  664MPD2    C5 9880   1.330   0.701  17.207  0.0925 -0.2097 -0.1740
  664MPD2     H 9881   1.680   0.717  17.370 -0.7493 -1.1457  0.2644
  664MPD2    H1 9882   1.244   0.705  17.389  1.2636 -0.5741  2.1461
  664MPD2    H2 9883   1.436   0.711  17.023  0.3342 -1.8241 -0.0434
  664MPD2    H3 9884   1.230   0.694  17.167  0.1673 -0.3602 -0.3345
  664MPD2     N 9885   1.473   0.736  17.548  0.0958  0.1807  0.6001
  664MPD2    H5 9886   1.567   0.748  17.584 -0.2797  4.6495  0.0479
  664MPD2    N1 9887   1.681   0.718  17.103 -0.5465  0.1344 -0.0636
  664MPD2    H7 9888   1.768   0.746  17.148 -0.4809  0.8468 -0.6365
  665TMC3    C1 9889   1.420   0.764   0.038  0.4585  0.3969  0.9031
  665TMC3    C2 9890   1.362   0.712   0.151 -0.0591  0.3370  0.5493
  665TMC3    C3 9891   1.402   0.761   0.274 -0.7066  0.4237 -0.6569
  665TMC3    C4 9892   1.506   0.874   0.052  0.0681 -1.2384 -0.3069
  665TMC3    C5 9893   1.542   0.921   0.179  0.0325 -0.2673 -0.1121
  665TMC3    C6 9894   1.491   0.865   0.293  0.2306  0.5030  0.0135
  665TMC3     C 9895   1.373   0.722  17.643  0.3925 -0.4301 -0.3126
  665TMC3     O 9896   1.264   0.671  17.631 -0.2359  0.1862 -0.2915
  665TMC3     H 9897   1.284   0.638   0.144  1.4376 -1.3885  2.0926
  665TMC3    H1 9898   1.546   0.919  17.701  1.2892  0.7937  1.2563
  665TMC3    H2 9899   1.504   0.903   0.393  0.5249 -0.1983  0.2368
  665TMC3    C7 9900   1.621   1.044   0.178  0.3259 -0.5520  0.3962
  665TMC3    C8 9901   1.308   0.758   0.387  0.1530  0.1054 -0.1043
  665TMC3    O1 9902   1.655   1.080   0.069  0.5710 -0.2530 -0.4023
  665TMC3    O2 9903   1.313   0.850   0.467  0.2871  0.1338 -0.1541
  666TMC3    C1 9904   0.598   1.912   9.565 -0.3661 -0.4569  0.4602
  666TMC3    C2 9905   0.710   1.846   9.606  0.2392  0.2653  0.1983
  666TMC3    C3 9906   0.791   1.905   9.702 -0.6435  0.8844 -0.4826
  666TMC3    C4 9907   0.560   2.032   9.614  0.4804  0.3296 -0.0490
  666TMC3    C5 9908   0.641   2.086   9.711  0.7106 -0.8041 -0.9956
  666TMC3    C6 9909   0.755   2.024   9.755 -0.3483 -0.5331  0.6251
  666TMC3     C 9910   0.516   1.858   9.463  0.3060  0.3150  0.2555
  666TMC3     O 9911   0.456   1.944   9.403 -0.3805 -0.2928 -0.4095
  666TMC3     H 9912   0.729   1.745   9.570 -0.4055  0.0219  0.5393
  666TMC3    H1 9913   0.462   2.070   9.587  0.5961 -0.5458 -1.7033
  666TMC3    H2 9914   0.794   2.054   9.852 -0.6726 -2.2904  1.3076
  666TMC3    C7 9915   0.589   2.189   9.795 -0.0627 -0.2112 -0.4424
  666TMC3    C8 9916   0.872   1.812   9.785  0.2412 -0.4519 -0.2361
  666TMC3    O1 9917   0.637   2.210   9.908  0.5472 -0.4265  0.4363
  666TMC3    O2 9918   0.843   1.692   9.777 -0.6018  0.6348 -0.3002
  667MPD2     C 9919   2.642   1.035  14.599  0.4278  0.0925  0.1004
  667MPD2    C1 9920   2.539   1.125  14.626  0.4689 -1.2586 -0.7514
  667MPD2    C2 9921   2.415   1.071  14.658  0.3102  0.5559 -0.2831
  667MPD2    C3 9922   2.394   0.935  14.667  0.6633 -0.9901  0.2717
  667MPD2    C4 9923   2.502   0.853  14.646  0.8405  0.9258 -0.1207
  667MPD2    C5 9924   2.621   0.902  14.608  1.2118 -0.4571  0.1250
  667MPD2     H 9925   2.336   1.139  14.687 -0.8455  0.0819 -2.3257
  667MPD2    H1 9926   2.495   0.747  14.622  0.8792  0.8366  0.2666
  667MPD2    H2 9927   2.742   1.074  14.580 -0.1502  1.2523 -0.5339
  667MPD2    H3 9928   2.695   0.825  14.585 -0.0910 -1.6360 -0.1371
  667MPD2     N 9929   2.271   0.867  14.687  0.0613 -0.2804 -0.4436
  667MPD2    H5 9930   2.273   0.767  14.670  1.3663  0.1990 -3.0843
  667MPD2    N1 9931   2.559   1.269  14.627 -0.2364  0.7342 -0.9327
  667MPD2    H7 9932   2.483   1.331  14.654  0.1732  0.7783  0.1193
  668TMC3    C1 9933   2.672   1.464  14.602 -0.1143 -0.5995 -0.2501
  668TMC3    C2 9934   2.718   1.565  14.522  0.3515  0.1290 -0.4821
  668TMC3    C3 9935   2.753   1.686  14.575  1.3349 -0.6468  0.8310
  668TMC3    C4 9936   2.652   1.492  14.733  0.6501 -0.1722  0.7327
  668TMC3    C5 9937   2.680   1.616  14.782 -0.1584 -0.2065  0.3548
  668TMC3    C6 9938   2.738   1.718  14.706  0.2802 -0.8044 -0.3279
  668TMC3     C 9939   2.659   1.329  14.563  0.1178  0.2300 -0.2185
  668TMC3     O 9940   2.730   1.284  14.475 -0.7206  0.0179  0.0216
  668TMC3     H 9941   2.728   1.554  14.415  2.5306  0.2318 -0.2800
  668TMC3    H1 9942   2.629   1.417  14.808 -0.9199  0.3953  0.8295
  668TMC3    H2 9943   2.775   1.807  14.755 -2.2370  1.6503 -2.9308
  668TMC3    C7 9944   2.630   1.652  14.917  0.1824  0.4974  0.1824
  668TMC3    C8 9945   2.812   1.793  14.496  0.7074 -0.6061  0.4289
  668TMC3    O1 9946   2.594   1.767  14.939 -0.5681 -0.2438  0.3212
  668TMC3    O2 9947   2.857   1.885  14.557  0.2926 -0.0782 -0.5125
  669TMC3    C1 9948   0.256   0.557  14.357  0.4014 -0.8161  0.1650
  669TMC3    C2 9949   0.118   0.567  14.357 -0.1232 -0.4044 -0.4058
  669TMC3    C3 9950   0.075   0.675  14.280 -0.4707  0.7233 -0.2995
  669TMC3    C4 9951   0.352   0.637  14.293 -0.0957  0.6716  0.1625
  669TMC3    C5 9952   0.291   0.726  14.209 -0.4695  0.3723  0.1976
  669TMC3    C6 9953   0.160   0.750  14.207 -0.0798  0.4988 -0.0252
  669TMC3     C 9954   0.305   0.444  14.441  0.4192 -0.0391  0.2722
  669TMC3     O 9955   0.241   0.342  14.459 -0.3708  0.1840  0.3739
  669TMC3     H 9956   0.058   0.488  14.402  0.6283 -0.4876  0.4431
  669TMC3    H1 9957   0.456   0.612  14.280 -0.7095 -1.1806 -1.1982
  669TMC3    H2 9958   0.119   0.835  14.155 -2.1618 -1.2484 -1.2329
  669TMC3    C7 9959   0.387   0.830  14.162  0.8217 -0.4982 -0.2776
  669TMC3    C8 9960   4.669   0.690  14.263 -0.6273 -0.4368  0.0208
  669TMC3    O1 9961   0.505   0.830  14.202 -0.2432  0.3534  0.4765
  669TMC3    O2 9962   4.592   0.590  14.279  0.3542 -0.3352 -0.2745
  670MPD2     C 9963   3.221   2.830  13.588 -0.1349  0.2959 -0.0351
  670MPD2    C1 9964   3.322   2.785  13.674 -0.2124 -0.5572  0.7818
  670MPD2    C2 9965   3.302   2.797  13.808  0.2857  1.0733 -0.4634
  670MPD2    C3 9966   3.186   2.850  13.852  0.2115 -0.1032 -0.2736
  670MPD2    C4 9967   3.078   2.874  13.766  0.3275  0.3497 -1.6372
  670MPD2    C5 9968   3.096   2.865  13.632 -0.3811  0.1242 -0.0595
  670MPD2     H 9969   3.385   2.776  13.875  0.9166 -0.6366 -1.7616
  670MPD2    H1 9970   2.977   2.895  13.800  0.5903  1.3719 -1.4869
  670MPD2    H2 9971   3.240   2.848  13.482  2.0543 -0.5206  0.2186
  670MPD2    H3 9972   3.025   2.899  13.558  2.4828 -0.1395 -2.9303
  670MPD2     N 9973   3.162   2.853  13.994  0.2754 -0.0935  0.1791
  670MPD2    H5 9974   3.237   2.824  14.055  0.7763 -1.1578 -0.9543
  670MPD2    N1 9975   3.451   2.754  13.630  0.4011  0.5192 -0.1110
  670MPD2    H7 9976   3.530   2.744  13.693 -0.9214  0.2435  1.5173
  671TMC3    C1 9977   3.036   2.877  14.196  0.2962 -0.3285 -0.0153
  671TMC3    C2 9978   3.084   2.757  14.245 -0.4165 -0.0582 -0.9337
  671TMC3    C3 9979   3.013   2.701  14.347 -0.2194 -0.7501  0.7591
  671TMC3    C4 9980   2.935   2.945  14.257 -0.1109  0.0821 -0.9086
  671TMC3    C5 9981   2.870   2.884  14.361 -0.5138 -0.3508  0.2187
  671TMC3    C6 9982   2.905   2.761  14.410  0.6600 -0.3304  0.7520
  671TMC3     C 9983   3.053   2.914  14.053  0.8282  0.4517  0.0139
  671TMC3     O 9984   2.973   2.995  14.004  0.0756 -0.6684 -0.0910
  671TMC3     H 9985   3.151   2.694  14.186  0.1134 -0.0559 -0.3313
  671TMC3    H1 9986   2.905   3.043  14.224 -1.2557 -0.5746 -1.8312
  671TMC3    H2 9987   2.839   2.712  14.480  0.3843 -1.0662 -0.0143
  671TMC3    C7 9988   2.768   2.962  14.422  0.0778 -0.0321  0.2113
  671TMC3    C8 9989   3.060   2.586  14.421  0.1442 -0.4668 -0.4534
  671TMC3    O1 9990   2.809   3.054  14.489 -0.0602  0.3278 -0.3461
  671TMC3    O2 9991   3.011   2.577  14.532 -0.7239 -0.2319 -0.4207
  672MPD2     C 9992   4.618   4.049   0.164  0.2822  0.2330  1.0403
  672MPD2    C1 9993   4.591   4.017   0.295  0.7470 -0.0956 -0.4048
  672MPD2    C2 9994   4.683   4.019   0.399  0.4271  0.0368 -0.1483
  672MPD2    C3 9995   0.076   4.063   0.378  0.1604  0.3522 -0.1851
  672MPD2    C4 9996   0.110   4.079   0.242 -0.0647 -0.1220 -0.3109
  672MPD2    C5 9997   0.014   4.085   0.143 -0.6085 -0.1055  0.6732
  672MPD2     H 9998   4.649   3.982   0.495 -1.7504  0.4285 -0.7615
  672MPD2    H1 9999   0.212   4.103   0.212 -0.7963  0.6246 -2.1706
  672MPD2    H210000   4.548   4.038   0.082 -1.0426  2.0619  1.9407
  672MPD2    H310001   0.038   4.103   0.039  0.8164  1.6295  1.3097
  672MPD2     N10002   0.181   4.087   0.474 -0.0797  0.0238 -0.0789
  672MPD2    H510003   0.264   4.139   0.444  1.2565 -2.2148 -0.2507
  672MPD2    N110004   4.456   3.987   0.324  0.1912  0.3320 -0.3241
  672MPD2    H710005   4.441   3.956   0.420 -0.9803 -0.1784 -0.6660
  673TMC3    C110006   4.222   3.962   0.309 -0.4947 -0.1822  0.5560
  673TMC3    C210007   4.222   3.848   0.377  0.3327  0.0645  0.8945
  673TMC3    C310008   4.100   3.788   0.409  0.2227  0.9049  0.0166
  673TMC3    C410009   4.103   4.022   0.270 -0.4295 -0.1882  0.0440
  673TMC3    C510010   3.984   3.970   0.306 -0.1706 -0.4684 -0.0698
  673TMC3    C610011   3.978   3.852   0.380 -0.2250 -0.1918 -0.4956
  673TMC3     C10012   4.348   3.995   0.239 -0.5249  0.3764 -0.5325
  673TMC3     O10013   4.337   4.061   0.132 -0.1882 -1.0336 -0.1159
  673TMC3     H10014   4.313   3.800   0.410  0.4568  1.2872  2.3316
  673TMC3    H110015   4.097   4.123   0.230 -1.3386 -1.4490 -2.9653
  673TMC3    H210016   3.881   3.814   0.411 -0.2412  0.9397  0.8647
  673TMC3    C710017   3.861   4.012   0.243  0.1017  0.3739  0.1709
  673TMC3    C810018   4.090   3.647   0.447  0.5908  0.2814  0.0381
  673TMC3    O110019   3.769   3.935   0.239 -0.1440 -0.5847  0.7075
  673TMC3    O210020   3.982   3.589   0.426  0.5801  0.3651 -0.1469
  674MPD2     C10021   3.387   3.644  16.861 -0.0875 -0.5885  0.1233
  674MPD2    C110022   3.389   3.536  16.948 -0.7271 -0.5354 -0.5261
  674MPD2    C210023   3.360   3.562  17.081  0.5485 -1.3233  0.5985
  674MPD2    C310024   3.343   3.692  17.121  0.4092 -0.5107 -0.8738
  674MPD2    C410025   3.331   3.789  17.023  0.0925  0.0271 -0.1063
  674MPD2    C510026   3.346   3.770  16.892 -0.3614  0.7138  0.1579
  674MPD2     H10027   3.360   3.485  17.157  1.3159 -1.3109  0.6116
  674MPD2    H110028   3.297   3.887  17.057  0.5329  0.2420 -0.2850
  674MPD2    H210029   3.420   3.628  16.759 -0.8753  1.8198 -0.5118
  674MPD2    H310030   3.331   3.846  16.816 -0.8855  0.4122 -0.0367
  674MPD2     N10031   3.351   3.710  17.263  0.2946 -0.3255 -0.5112
  674MPD2    H510032   3.380   3.628  17.316 -0.1867 -0.5887 -0.6574
  674MPD2    N110033   3.425   3.417  16.887 -0.3498  0.1636 -0.0038
  674MPD2    H710034   3.425   3.426  16.786 -2.4961 -0.8133 -0.0973
  675TMC3    C110035   3.485   3.284  17.080 -0.6166 -0.3029 -0.5665
  675TMC3    C210036   3.468   3.153  17.133  0.4371 -0.2854 -0.6655
  675TMC3    C310037   3.544   3.118  17.242 -0.1344 -0.1566  0.1259
  675TMC3    C410038   3.585   3.362  17.131 -0.8154  0.0175  0.0946
  675TMC3    C510039   3.654   3.324  17.241  0.5796 -0.5781 -0.0672
  675TMC3    C610040   3.637   3.196  17.297 -0.2361 -0.3630  0.5759
  675TMC3     C10041   3.454   3.291  16.940 -0.1522  0.5710 -0.5861
  675TMC3     O10042   3.486   3.186  16.882  0.2352  0.1262 -0.5487
  675TMC3     H10043   3.404   3.084  17.079 -0.3928 -0.2317  0.2598
  675TMC3    H110044   3.607   3.454  17.078  1.8169 -0.3849  0.4571
  675TMC3    H210045   3.712   3.155  17.365 -0.8991 -1.3784  0.6977
  675TMC3    C710046   3.711   3.436  17.320 -0.3112 -0.0743  0.3233
  675TMC3    C810047   3.514   2.985  17.297 -0.3022  0.5952 -0.6652
  675TMC3    O110048   3.731   3.545  17.264  0.4743  0.2274  0.1268
  675TMC3    O210049   3.470   2.897  17.222 -0.1696  0.0079 -0.5179
  676MPD2     C10050   1.094   2.586  11.242  0.0208  0.8652 -0.6993
  676MPD2    C110051   1.111   2.485  11.330 -0.2624 -0.3367  0.3928
  676MPD2    C210052   1.145   2.362  11.279 -0.2473  0.2818  0.4874
  676MPD2    C310053   1.157   2.340  11.142  0.1399  0.0103 -0.2353
  676MPD2    C410054   1.136   2.450  11.056 -0.6367 -0.0480  0.1437
  676MPD2    C510055   1.108   2.574  11.102 -0.3268 -0.1154 -0.1467
  676MPD2     H10056   1.140   2.285  11.355  0.1394 -0.7251 -0.5115
  676MPD2    H110057   1.158   2.436  10.951  1.2254 -1.7926  0.7746
  676MPD2    H210058   1.051   2.681  11.273  0.7858  1.5100 -1.5957
  676MPD2    H310059   1.080   2.655  11.036  0.1460  0.3585  0.2334
  676MPD2     N10060   1.179   2.213  11.082 -0.7862  0.3292  0.2489
  676MPD2    H510061   1.175   2.201  10.981  1.3874  0.1242  0.1779
  676MPD2    N110062   1.101   2.499  11.471  0.1588 -0.5896 -0.0250
  676MPD2    H710063   1.107   2.411  11.521  0.3068 -0.2192  0.6097
  677TMC3    C110064   1.084   2.613  11.683 -0.8895 -0.5027 -0.5127
  677TMC3    C210065   1.031   2.511  11.743 -0.1239  0.2437 -1.1931
  677TMC3    C310066   1.005   2.522  11.876 -0.4250 -0.0974 -0.4056
  677TMC3    C410067   1.112   2.730  11.742  0.0541  0.3287  0.2766
  677TMC3    C510068   1.096   2.730  11.881  0.2965  0.9248  0.1693
  677TMC3    C610069   1.046   2.630  11.949 -0.0956 -0.3309 -0.0117
  677TMC3     C10070   1.098   2.618  11.535 -0.3369 -0.8718 -0.2931
  677TMC3     O10071   1.108   2.730  11.487  0.3176 -0.2676 -0.1042
  677TMC3     H10072   1.004   2.425  11.682  2.5637 -1.3897 -0.1213
  677TMC3    H110073   1.148   2.813  11.682 -0.7307  0.3094 -0.2188
  677TMC3    H210074   1.020   2.638  12.054 -0.4507  0.0015 -0.1237
  677TMC3    C710075   1.150   2.839  11.962 -0.1061  0.4797 -0.0457
  677TMC3    C810076   0.980   2.403  11.949 -0.0981  0.4983 -0.5504
  677TMC3    O110077   1.155   2.825  12.082 -0.5010 -0.5091 -0.9467
  677TMC3    O210078   0.992   2.404  12.073  0.4467 -0.1402  0.1136
  678MPD2     C10079   3.078   1.262   0.957  0.4514 -0.2551 -0.2193
  678MPD2    C110080   3.026   1.299   0.833 -0.2456  0.0391 -0.5738
  678MPD2    C210081   2.892   1.272   0.814  0.9081 -0.0066 -0.3169
  678MPD2    C310082   2.816   1.215   0.914 -0.0490 -0.2398  0.1719
  678MPD2    C410083   2.878   1.175   1.036 -0.2516 -0.2404 -0.8155
  678MPD2    C510084   3.011   1.196   1.053 -0.0886  0.7653  1.0807
  678MPD2     H10085   2.853   1.293   0.715 -1.2041 -2.0173  0.0822
  678MPD2    H110086   2.822   1.134   1.119  1.5978 -0.5357  0.2868
  678MPD2    H210087   3.184   1.274   0.977 -0.2402  0.4136  3.1350
  678MPD2    H310088   3.050   1.169   1.150  1.2926 -0.5541  0.1719
  678MPD2     N10089   2.680   1.213   0.888 -0.2609 -0.4437 -0.2634
  678MPD2    H510090   2.639   1.270   0.815  0.0815  1.6871  1.1987
  678MPD2    N110091   3.098   1.373   0.736  0.3273 -0.5050 -0.3773
  678MPD2    H710092   3.050   1.392   0.648 -1.8843 -0.1703  0.8871
  679TMC3    C110093   3.451   1.608   0.541  0.3684 -0.5746  0.7483
  679TMC3    C210094   3.405   1.533   0.642  0.0380  0.2337 -0.1263
  679TMC3    C310095   3.272   1.509   0.650 -0.4676  0.1587  0.9573
  679TMC3    C410096   3.365   1.660   0.449 -0.5249  0.3146  0.2280
  679TMC3    C510097   3.229   1.634   0.468  0.9163 -0.5675 -0.6567
  679TMC3    C610098   3.178   1.557   0.565 -0.5112  0.4334 -0.5167
  679TMC3     C10099   3.590   1.588   0.490  0.0235 -0.9587 -0.1491
  679TMC3     O10100   3.654   1.502   0.545  0.2460 -0.1063  0.3240
  679TMC3     H10101   3.477   1.476   0.699 -1.2854 -1.3580 -0.0218
  679TMC3    H110102   3.394   1.707   0.356 -1.5121  1.7702  0.6539
  679TMC3    H210103   3.071   1.561   0.586 -0.7058  1.5382 -1.7144
  679TMC3    C710104   3.139   1.687   0.372 -0.2453  0.2147 -0.3427
  679TMC3    C810105   3.226   1.426   0.754  0.3497 -0.1633 -0.5335
  679TMC3    O110106   3.179   1.790   0.321 -0.1561 -0.6487 -0.1716
  679TMC3    O210107   3.284   1.442   0.858 -0.2880  0.6097  0.0730
  680MPD2     C10108   2.239   0.105  13.246  0.2523 -0.7166  0.2563
  680MPD2    C110109   2.373   0.079  13.268  0.0037  0.4159 -0.0355
  680MPD2    C210110   2.439   0.156  13.361 -0.0897  0.3488  0.4122
  680MPD2    C310111   2.370   0.244  13.442 -0.9405  0.3721  0.6013
  680MPD2    C410112   2.235   0.258  13.422 -0.5093 -0.1971  0.6122
  680MPD2    C510113   2.168   0.191  13.323 -0.2091  0.3386 -0.0189
  680MPD2     H10114   2.546   0.148  13.382  0.1552 -0.6059 -1.2304
  680MPD2    H110115   2.180   0.329  13.483 -0.0029  0.4802  0.2797
  680MPD2    H210116   2.185   0.065  13.162  1.8649  0.5122 -1.3700
  680MPD2    H310117   2.065   0.215  13.302 -1.0387 -1.5301  1.9307
  680MPD2     N10118   2.430   0.321  13.545 -0.8179  0.8973 -0.2034
  680MPD2    H510119   2.360   0.377  13.592 -0.5398  0.9814  0.1146
  680MPD2    N110120   2.437   4.714  13.185  0.2076  0.8078 -0.7294
  680MPD2    H710121   2.387   4.682  13.103  1.1308 -1.8636 -0.2466
  681TMC3    C110122   2.613   4.641  13.323  0.1524  0.1710  0.1763
  681TMC3    C210123   2.528   4.618  13.428  0.0048 -0.0783  0.2353
  681TMC3    C310124   2.574   4.601  13.555 -0.2177 -0.7504 -0.0883
  681TMC3    C410125   2.745   4.665  13.345  0.1569 -0.1898  0.2244
  681TMC3    C510126   2.794   4.664  13.473 -1.1787 -0.3590  0.5617
  681TMC3    C610127   2.709   4.637  13.577 -0.2848 -0.0978  0.4857
  681TMC3     C10128   2.561   4.663  13.192 -0.7061 -0.3802 -0.0995
  681TMC3     O10129   2.639   4.631  13.100  0.0524 -1.4242 -0.3711
  681TMC3     H10130   2.422   4.611  13.408 -0.0828  0.7041  0.4221
  681TMC3    H110131   2.811   4.670  13.258  0.9072 -0.4683  0.7742
  681TMC3    H210132   2.754   4.646  13.676 -1.0974 -1.9051  1.0135
  681TMC3    C710133   2.930   4.715  13.501  0.1516  0.1659  0.3948
  681TMC3    C810134   2.474   4.644  13.649 -0.3169 -0.3908  0.5142
  681TMC3    O110135   2.985   4.703  13.613 -0.3787  0.0961 -0.0172
  681TMC3    O210136   2.362   4.612  13.621  0.6084 -0.3341  0.1353
  682MPD2     C10137   4.478   2.800  10.731 -0.9905  0.7568  0.2292
  682MPD2    C110138   4.471   2.658  10.719  0.3486  0.2662  0.6301
  682MPD2    C210139   4.427   2.586  10.825  0.2704  0.3188 -0.6313
  682MPD2    C310140   4.395   2.646  10.947 -0.5756  0.6929 -0.3477
  682MPD2    C410141   4.419   2.782  10.963 -0.2798 -0.2491  0.0962
  682MPD2    C510142   4.450   2.855  10.853 -0.1064 -0.2870 -0.4855
  682MPD2     H10143   4.412   2.482  10.801 -1.6192 -0.1809  2.6564
  682MPD2    H110144   4.396   2.840  11.052  2.0778 -0.8776  1.1136
  682MPD2    H210145   4.509   2.872  10.656 -0.4769  0.9297  0.6048
  682MPD2    H310146   4.467   2.962  10.858  0.8703 -0.4260 -0.7838
  682MPD2     N10147   4.342   2.583  11.066 -0.2096 -0.1656  0.1848
  682MPD2    H510148   4.313   2.638  11.146  0.7346 -0.9054  1.0446
  682MPD2    N110149   4.517   2.581  10.605  0.1008  0.4135  0.3202
  682MPD2    H710150   4.496   2.482  10.601 -1.6317  0.7702  0.4376
  683TMC3    C110151   4.333   2.419  11.429 -0.2756  0.3061  0.2232
  683TMC3    C210152   4.288   2.291  11.455 -0.3785  0.2731  0.7942
  683TMC3    C310153   4.231   2.231  11.350  0.0578  0.3061  0.1987
  683TMC3    C410154   4.324   2.481  11.309 -0.1957  0.5673  0.7419
  683TMC3    C510155   4.271   2.409  11.207 -0.0332  0.0826 -0.2541
  683TMC3    C610156   4.218   2.284  11.224 -0.1120 -0.2769 -0.6782
  683TMC3     C10157   4.411   2.480  11.530  0.1167  0.4303  0.2914
  683TMC3     O10158   4.455   2.592  11.500  0.0231  0.5593  0.9422
  683TMC3     H10159   4.274   2.248  11.553  0.2699  0.6626  1.0645
  683TMC3    H110160   4.364   2.581  11.297  1.1465  0.2133  2.3554
  683TMC3    H210161   4.172   2.231  11.141  0.8602 -0.9191 -0.8012
  683TMC3    C710162   4.321   2.446  11.076  0.5180 -0.6088  0.4341
  683TMC3    C810163   4.157   2.109  11.382  0.3818 -0.3585 -0.3239
  683TMC3    O110164   4.320   2.362  10.983  0.1460  0.3481 -0.9626
  683TMC3    O210165   4.059   2.116  11.452 -0.1524  0.0873  0.1018
  684MPD2     C10166   3.676   1.289  16.460  0.2768  0.0555  0.8604
  684MPD2    C110167   3.698   1.349  16.339  0.1716 -0.0016  0.5006
  684MPD2    C210168   3.677   1.481  16.324 -0.7098  0.0419  0.8295
  684MPD2    C310169   3.629   1.561  16.425  0.3684  0.1639  1.1258
  684MPD2    C410170   3.610   1.505  16.549  0.2653 -0.0594 -0.0845
  684MPD2    C510171   3.640   1.369  16.560  0.0566  0.0748 -0.6421
  684MPD2     H10172   3.696   1.518  16.224  0.6173 -3.3543 -0.1755
  684MPD2    H110173   3.581   1.573  16.628 -0.6646  2.8144 -2.8790
  684MPD2    H210174   3.684   1.182  16.479 -0.8325 -0.3478 -0.9594
  684MPD2    H310175   3.624   1.321  16.656 -0.1348 -0.3591 -0.8916
  684MPD2     N10176   3.600   1.698  16.406  0.1630 -0.7090 -0.1476
  684MPD2    H510177   3.568   1.745  16.489  0.8112 -1.6445  0.6321
  684MPD2    N110178   3.751   1.282  16.221  0.8802  0.6130 -0.1262
  684MPD2    H710179   3.790   1.332  16.142  0.1340 -2.0646 -2.2169
  685TMC3    C110180   3.787   1.116  16.074  0.3357 -0.1252  0.4343
  685TMC3    C210181   3.726   1.178  15.970 -0.0710 -0.4219 -0.1443
  685TMC3    C310182   3.756   1.149  15.843 -0.3360  0.0257 -0.5961
  685TMC3    C410183   3.892   1.026  16.049 -0.1107 -0.0707 -0.3874
  685TMC3    C510184   3.939   1.017  15.924 -0.0281 -0.2309 -0.1088
  685TMC3    C610185   3.866   1.068  15.819  0.0878 -0.1152 -0.5356
  685TMC3     C10186   3.754   1.150  16.208  0.5659 -0.0612 -0.0426
  685TMC3     O10187   3.728   1.061  16.283  0.1575  0.0327  0.3641
  685TMC3     H10188   3.635   1.235  15.980 -0.8031 -1.4239 -1.0461
  685TMC3    H110189   3.951   0.987  16.131 -2.2682 -0.6230  0.9054
  685TMC3    H210190   3.886   1.034  15.718  0.3741  1.9352 -1.1788
  685TMC3    C710191   4.015   0.899  15.903  0.6837  0.7407 -0.7534
  685TMC3    C810192   3.655   1.170  15.749  0.1329  0.3761 -0.0761
  685TMC3    O110193   3.973   0.792  15.949  0.0163  0.1080 -0.1044
  685TMC3    O210194   3.682   1.241  15.650 -0.4294 -0.1340 -0.1037
  686MPD2     C10195   0.174   0.658  14.831 -0.4508 -0.4642  0.2620
  686MPD2    C110196   0.231   0.635  14.957  0.4391  1.0235 -0.0160
  686MPD2    C210197   0.291   0.518  14.997  0.3234  0.1291  0.1293
  686MPD2    C310198   0.270   0.404  14.911  0.0504 -0.7081 -0.4542
  686MPD2    C410199   0.217   0.425  14.793  0.1892 -0.1912  0.1149
  686MPD2    C510200   0.177   0.548  14.750  0.3978  0.6256  0.2665
  686MPD2     H10201   0.344   0.508  15.091 -2.3662 -4.0528  1.2422
  686MPD2    H110202   0.213   0.343  14.721 -1.8976 -0.4341  0.5096
  686MPD2    H210203   0.128   0.753  14.808 -2.0292 -1.2187  0.2670
  686MPD2    H310204   0.140   0.552  14.648  2.0149  0.9508 -0.3078
  686MPD2     N10205   0.312   0.271  14.932 -0.2392  0.1616  0.2987
  686MPD2    H510206   0.317   0.216  14.846 -0.6110  2.2234 -1.0319
  686MPD2    N110207   0.232   0.746  15.051  0.6506  0.4879  0.5600
  686MPD2    H710208   0.192   0.833  15.017  0.8367  0.1064 -0.6177
  687TMC3    C110209   0.300   0.276  15.165 -0.3399 -0.1705 -0.4176
  687TMC3    C210210   0.170   0.314  15.196 -0.1069 -0.0258  0.0187
  687TMC3    C310211   0.138   0.337  15.325  1.3351 -0.0475 -0.6826
  687TMC3    C410212   0.385   0.227  15.271 -1.4461 -0.5357  0.0734
  687TMC3    C510213   0.332   0.216  15.393 -0.5095  0.2469  0.0248
  687TMC3    C610214   0.216   0.286  15.425  0.4207 -0.1084 -0.2628
  687TMC3     C10215   0.335   0.206  15.047  1.0870 -0.3277  0.2248
  687TMC3     O10216   0.387   0.098  15.056 -0.6094 -0.4438  0.3169
  687TMC3     H10217   0.105   0.345  15.115 -0.1846  0.3060  0.2107
  687TMC3    H110218   0.479   0.179  15.248 -1.9717 -0.8977 -1.2718
  687TMC3    H210219   0.186   0.319  15.524  1.7844  1.4155 -0.3450
  687TMC3    C710220   0.424   0.248  15.498  0.6233 -0.0903  0.0566
  687TMC3    C810221   0.025   0.422  15.359  0.0126  0.0296 -0.0028
  687TMC3    O110222   0.378   0.220  15.606  0.6425  0.1802 -0.2000
  687TMC3    O210223   4.719   0.415  15.473  0.3500  0.2470 -0.0511
  688MPD2     C10224   4.288   0.479  17.137 -0.5820 -0.0572 -0.3628
  688MPD2    C110225   4.298   0.341  17.158 -0.0355  0.8034 -0.1908
  688MPD2    C210226   4.412   0.286  17.108  0.2213  0.2629  0.2257
  688MPD2    C310227   4.510   0.359  17.041 -1.1720 -0.0953  0.6847
  688MPD2    C410228   4.494   0.495  17.024 -0.0744 -0.1196 -0.3377
  688MPD2    C510229   4.379   0.551  17.072  0.5456  0.1152 -0.9165
  688MPD2     H10230   4.418   0.179  17.122  1.9666  0.2900 -0.3179
  688MPD2    H110231   4.569   0.543  16.962  1.6284 -1.9026  0.3342
  688MPD2    H210232   4.204   0.538  17.171  0.9673 -0.0714  3.4298
  688MPD2    H310233   4.368   0.658  17.059 -1.2852  0.1303  0.6601
  688MPD2     N10234   4.625   0.307  16.982 -0.0164  0.1740 -0.1395
  688MPD2    H510235   4.689   0.374  16.942 -0.9215  0.3315 -1.3250
  688MPD2    N110236   4.209   0.261  17.236  0.1383 -0.6521  0.6424
  688MPD2    H710237   4.225   0.161  17.242 -1.0956 -1.0412 -2.7423
  689TMC3    C110238   4.075   0.222  17.416 -0.7005  0.1733  0.5967
  689TMC3    C210239   4.094   0.261  17.552 -0.0875 -0.1725  0.6349
  689TMC3    C310240   4.047   0.167  17.643  0.3492 -0.6481  0.4191
  689TMC3    C410241   4.015   0.107  17.376  0.4433  0.2037  0.2153
  689TMC3    C510242   3.987   0.010  17.472 -0.0106  0.1396 -0.6331
  689TMC3    C610243   3.997   0.045  17.608  0.0582  0.3400  0.2116
  689TMC3     C10244   4.115   0.318  17.321 -0.0332  0.2770  0.5362
  689TMC3     O10245   4.113   0.434  17.357  0.1582 -0.3098 -0.7457
  689TMC3     H10246   4.157   0.343  17.584 -0.3642 -0.3490  1.6144
  689TMC3    H110247   4.019   0.083  17.270  2.0881 -1.4014  0.6477
  689TMC3    H210248   3.964   4.707  17.681 -1.9933  1.4925  0.4479
  689TMC3    C710249   3.972   4.609  17.429  0.5709 -0.2494 -0.0160
  689TMC3    C810250   4.033   0.193   0.047 -0.2066  0.2148  0.8537
  689TMC3    O110251   3.922   4.590  17.316 -0.3810  0.3780 -0.6973
  689TMC3    O210252   4.018   0.090   0.111 -0.2514  0.2877  0.4039
  690MPD2     C10253   1.852   1.919  15.449  0.7771 -0.4833 -0.1365
  690MPD2    C110254   1.794   1.840  15.352 -0.7872  0.1244 -0.0501
  690MPD2    C210255   1.864   1.827  15.234  0.4511 -0.0274 -0.5599
  690MPD2    C310256   1.980   1.894  15.198 -0.2200  0.4192  1.0418
  690MPD2    C410257   2.032   1.961  15.302 -0.2884  0.4004  0.1351
  690MPD2    C510258   1.969   1.976  15.419  0.8883  0.5521  0.5926
  690MPD2     H10259   1.822   1.772  15.149 -0.8058  0.4552 -0.2581
  690MPD2    H110260   2.133   2.000  15.300  0.2022 -0.9151 -1.2826
  690MPD2    H210261   1.794   1.940  15.539  0.0547  1.5647 -1.0686
  690MPD2    H310262   2.010   2.038  15.499 -0.3112  0.0649  1.5733
  690MPD2     N10263   2.039   1.881  15.069 -0.3297 -0.3270 -0.1645
  690MPD2    H510264   1.982   1.834  14.999  0.6278 -1.4898 -0.1536
  690MPD2    N110265   1.674   1.763  15.374 -0.0403 -0.0470  0.1323
  690MPD2    H710266   1.631   1.726  15.291 -0.6214  0.3384  0.2599
  691TMC3    C110267   1.526   1.628  15.493  0.3062  0.6978 -0.3722
  691TMC3    C210268   1.435   1.629  15.392  0.2677  0.3040  0.3165
  691TMC3    C310269   1.349   1.527  15.381 -0.1836 -0.4808  0.2167
  691TMC3    C410270   1.518   1.529  15.594 -0.1133 -0.3316  0.4407
  691TMC3    C510271   1.439   1.421  15.569  0.5531  0.1068  0.4510
  691TMC3    C610272   1.357   1.419  15.459  0.1147  0.1537  0.1403
  691TMC3     C10273   1.624   1.730  15.501 -0.5109 -0.2581  0.1632
  691TMC3     O10274   1.683   1.749  15.605  0.0903 -0.0135 -0.0372
  691TMC3     H10275   1.426   1.712  15.322  1.0403  0.0336 -0.1001
  691TMC3    H110276   1.585   1.541  15.678  0.5389 -3.8179  0.4368
  691TMC3    H210277   1.299   1.329  15.440  0.1122  0.4314 -1.2001
  691TMC3    C710278   1.477   1.305  15.643  0.5002  0.2607 -0.9115
  691TMC3    C810279   1.217   1.541  15.331 -0.6518  0.2734  0.2634
  691TMC3    O110280   1.586   1.306  15.697  0.7067  0.4987  0.9914
  691TMC3    O210281   1.176   1.453  15.262 -0.4878 -0.4079  0.2020
  692TMC3    C110282   2.956   2.675  15.524  0.1812  0.9941 -0.2232
  692TMC3    C210283   3.025   2.787  15.534 -1.2414  0.0110  0.3030
  692TMC3    C310284   3.161   2.786  15.533  0.1506  0.0130 -1.0851
  692TMC3    C410285   3.014   2.549  15.526 -0.1786  0.4316  0.7291
  692TMC3    C510286   3.149   2.550  15.520  0.2859 -0.3036 -0.4207
  692TMC3    C610287   3.221   2.667  15.534 -0.0530  0.2534  0.2653
  692TMC3     C10288   2.812   2.679  15.554  0.4252 -0.0771 -0.4310
  692TMC3     O10289   2.768   2.570  15.582  0.2408  0.1956  0.0778
  692TMC3     H10290   2.976   2.881  15.511 -0.3736  0.2586 -0.5342
  692TMC3    H110291   2.960   2.456  15.532 -0.1260  0.4994  2.2762
  692TMC3    H210292   3.328   2.654  15.535 -0.1291 -0.4009 -0.0126
  692TMC3    C710293   3.216   2.422  15.513 -0.6061  0.5480  0.6516
  692TMC3    C810294   3.230   2.873  15.626 -0.1885 -0.1083  0.3161
  692TMC3    O110295   3.181   2.344  15.421  0.3828 -0.0339 -0.4380
  692TMC3    O210296   3.348   2.885  15.614 -0.5420 -0.5852  0.5409
  693MPD2     C10297   2.554   1.643  10.791  0.6553 -0.8138  0.0283
  693MPD2    C110298   2.456   1.570  10.856 -0.3808 -0.1635  0.0839
  693MPD2    C210299   2.500   1.487  10.958 -0.0865 -0.0829 -0.1631
  693MPD2    C310300   2.631   1.489  11.000  0.9891  0.1727  0.2451
  693MPD2    C410301   2.727   1.548  10.930 -0.2029 -0.3468 -0.4798
  693MPD2    C510302   2.688   1.626  10.820 -0.1651 -0.2900  0.3056
  693MPD2     H10303   2.422   1.430  11.008  1.9310 -2.9200 -0.2855
  693MPD2    H110304   2.833   1.547  10.950 -0.6029 -0.5690  1.5842
  693MPD2    H210305   2.532   1.699  10.701  1.7291 -0.1442  0.1809
  693MPD2    H310306   2.758   1.684  10.760 -0.6854  0.0567  0.0328
  693MPD2     N10307   2.681   1.414  11.102  0.7653 -0.5461 -0.6312
  693MPD2    H510308   2.782   1.422  11.114  0.6580 -0.0257 -0.1076
  693MPD2    N110309   2.318   1.568  10.824 -0.4846  0.5800 -0.5900
  693MPD2    H710310   2.259   1.517  10.889 -1.6214  2.2963 -0.2693
  694TMC3    C110311   2.110   1.614  10.717  0.2743 -0.1028 -0.3738
  694TMC3    C210312   2.050   1.592  10.595 -0.2173 -0.0469 -0.8683
  694TMC3    C310313   1.922   1.553  10.595 -1.0162  0.5431  0.4408
  694TMC3    C410314   2.048   1.577  10.841 -0.2772  0.1341 -0.2843
  694TMC3    C510315   1.919   1.536  10.833  0.2214  0.5161  0.9755
  694TMC3    C610316   1.857   1.528  10.715  0.4769 -0.1221 -0.5098
  694TMC3     C10317   2.258   1.633  10.720  0.0997 -0.0997  0.7291
  694TMC3     O10318   2.306   1.699  10.629  0.1194  0.2707  0.7651
  694TMC3     H10319   2.106   1.594  10.501 -0.2202  1.4881 -0.8437
  694TMC3    H110320   2.097   1.595  10.936 -0.4466  1.0648 -0.3721
  694TMC3    H210321   1.753   1.498  10.710  0.5305 -0.8110  2.3518
  694TMC3    C710322   1.857   1.503  10.959 -0.7186 -0.1983  0.1841
  694TMC3    C810323   1.858   1.494  10.476  0.0980 -0.7953  0.5244
  694TMC3    O110324   1.893   1.568  11.057 -0.2042  0.2372  0.5282
  694TMC3    O210325   1.775   1.417  10.501  0.7880  0.2340 -0.3881
  695MPD2     C10326   3.457   2.289  13.496 -1.1666 -0.6368 -0.2842
  695MPD2    C110327   3.419   2.284  13.629 -0.0377  0.3897 -0.2026
  695MPD2    C210328   3.296   2.326  13.660  0.2474  0.2382 -0.2832
  695MPD2    C310329   3.215   2.396  13.576 -0.0808 -0.7840  0.6266
  695MPD2    C410330   3.259   2.408  13.443 -0.9203 -0.4707  0.5572
  695MPD2    C510331   3.380   2.355  13.401  0.4507 -0.0504  0.4781
  695MPD2     H10332   3.265   2.317  13.764 -0.9795  0.1257 -0.6525
  695MPD2    H110333   3.198   2.460  13.370  0.6111  1.0445  0.3726
  695MPD2    H210334   3.547   2.242  13.459 -0.3465  0.2539  0.6086
  695MPD2    H310335   3.410   2.370  13.298  0.0409 -1.5180  0.1516
  695MPD2     N10336   3.086   2.452  13.621  0.3158 -0.3121  0.7980
  695MPD2    H510337   3.054   2.432  13.715  0.4982  1.1820  1.1823
  695MPD2    N110338   3.497   2.224  13.734 -0.3954  0.6481  0.2437
  695MPD2    H710339   3.443   2.218  13.820 -0.4379 -2.8704 -0.0053
  696TMC3    C110340   2.885   2.596  13.628  0.6092  0.7510  0.3082
  696TMC3    C210341   2.858   2.549  13.758 -0.1587  0.5196 -1.1621
  696TMC3    C310342   2.737   2.598  13.814  0.4161 -0.2534  0.5858
  696TMC3    C410343   2.800   2.679  13.557  0.2583  0.3790  0.1339
  696TMC3    C510344   2.680   2.719  13.608 -0.3622  0.3274  0.3009
  696TMC3    C610345   2.648   2.676  13.740  0.7445  0.0216  0.0796
  696TMC3     C10346   3.011   2.554  13.554  0.1285  0.6862  0.5058
  696TMC3     O10347   3.040   2.615  13.450 -0.2701 -0.0166 -0.3072
  696TMC3     H10348   2.928   2.503  13.827 -0.1799 -1.7711 -2.6510
  696TMC3    H110349   2.820   2.698  13.452 -1.4835 -0.8190 -0.4128
  696TMC3    H210350   2.560   2.707  13.796 -0.9581 -0.4488 -2.3712
  696TMC3    C710351   2.621   2.841  13.564  0.2260  0.2882 -0.3931
  696TMC3    C810352   2.740   2.610  13.958  0.2264  0.3353 -0.1500
  696TMC3    O110353   2.660   2.878  13.458  0.2771 -0.0061 -0.1902
  696TMC3    O210354   2.837   2.660  14.004  1.3719  0.1097  0.1134
  697MPD2     C10355   2.831   3.946  15.370  0.9518  0.2124  0.0352
  697MPD2    C110356   2.715   3.975  15.293 -0.0899 -0.0577  0.0160
  697MPD2    C210357   2.694   4.104  15.251  0.0835  0.4861 -0.0804
  697MPD2    C310358   2.786   4.207  15.274  0.1226  0.4460  0.3392
  697MPD2    C410359   2.893   4.179  15.346  0.4171 -0.4292  0.0963
  697MPD2    C510360   2.918   4.050  15.387  0.3143  0.8482  0.2533
  697MPD2     H10361   2.605   4.128  15.192 -0.3931 -1.6461 -0.2369
  697MPD2    H110362   2.964   4.255  15.378  2.2940 -2.1030 -0.0776
  697MPD2    H210363   2.859   3.853  15.417  0.2550 -0.9641 -1.8876
  697MPD2    H310364   3.002   4.028  15.453 -0.1401 -0.5323  0.3621
  697MPD2     N10365   2.746   4.336  15.248  0.4345 -0.3521  0.0344
  697MPD2    H510366   2.665   4.350  15.189  1.2113 -2.0040 -1.4101
  697MPD2    N110367   2.623   3.876  15.250  0.2182 -0.8155  0.0400
  697MPD2    H710368   2.559   3.911  15.179 -1.4241 -1.0199  1.4077
  698TMC3    C110369   2.767   4.572  15.229  0.0865  0.7873  0.7281
  698TMC3    C210370   2.828   4.686  15.272  0.1928 -0.0983  0.4850
  698TMC3    C310371   2.822   0.065  15.195  1.2080 -0.5531 -0.3283
  698TMC3    C410372   2.707   4.559  15.110 -0.1522  0.7450 -0.0483
  698TMC3    C510373   2.710   4.671  15.033  0.1693 -0.1129  0.0561
  698TMC3    C610374   2.771   0.057  15.065  0.7887 -0.7959  0.1915
  698TMC3     C10375   2.800   4.455  15.304  0.5145  0.3428  0.0863
  698TMC3     O10376   2.886   4.470  15.390 -0.2482 -0.2256 -0.6303
  698TMC3     H10377   2.880   4.691  15.367  0.4627  1.6184  0.2538
  698TMC3    H110378   2.667   4.463  15.079  0.7980 -0.1007  1.3510
  698TMC3    H210379   2.758   0.142  14.999  1.6894 -0.6072  0.2563
  698TMC3    C710380   2.617   4.667  14.916  0.5734 -0.2510  0.2722
  698TMC3    C810381   2.923   0.170  15.217 -0.0874  0.5186  0.1743
  698TMC3    O110382   2.508   4.610  14.928  0.0510 -0.2453  0.4221
  698TMC3    O210383   2.932   0.197  15.334 -0.1868 -0.2392 -0.5807
  699TMC3    C110384   2.522   3.036  13.060 -0.1041  0.7808  0.3108
  699TMC3    C210385   2.569   2.909  13.067 -0.2821  0.1961 -0.4071
  699TMC3    C310386   2.492   2.827  13.150 -0.4676 -0.3378  0.9462
  699TMC3    C410387   2.396   3.081  13.100 -0.7105 -0.1186  0.6334
  699TMC3    C510388   2.337   2.998  13.190 -0.3938  0.7559  0.4113
  699TMC3    C610389   2.380   2.870  13.215  0.8935  0.6456 -0.0252
  699TMC3     C10390   2.582   3.127  12.955  0.8767 -0.3056  0.2937
  699TMC3     O10391   2.507   3.218  12.914  0.2275  0.0404 -0.5344
  699TMC3     H10392   2.647   2.868  13.004 -0.2265 -1.5927  0.8364
  699TMC3    H110393   2.367   3.185  13.090  0.1961  0.1311  0.6344
  699TMC3    H210394   2.331   2.816  13.295 -0.3855  1.5740 -0.1633
  699TMC3    C710395   2.221   3.036  13.266  0.1509 -0.2288 -0.1950
  699TMC3    C810396   2.554   2.713  13.206  0.5125  0.5679  0.7561
  699TMC3    O110397   2.199   2.988  13.375 -0.2658 -0.5251 -0.3373
  699TMC3    O210398   2.471   2.641  13.255  0.1017  0.0299  0.3535
  700TMC3    C110399   1.948   0.157  16.970  0.4181  0.6757 -0.3564
  700TMC3    C210400   1.999   0.034  16.963 -0.7546  0.2341  0.2166
  700TMC3    C310401   2.069   4.720  17.064  0.5552 -0.0984 -0.0858
  700TMC3    C410402   1.967   0.228  17.080 -0.0871  0.1556 -0.3458
  700TMC3    C510403   2.048   0.184  17.179  0.0044 -0.1353 -0.6360
  700TMC3    C610404   2.100   0.063  17.170 -0.7448  0.0176 -0.3420
  700TMC3     C10405   1.951   0.243  16.856  0.0029 -0.4823  1.2851
  700TMC3     O10406   1.989   0.353  16.877  0.9729  0.6226  0.5640
  700TMC3     H10407   1.980   4.709  16.874  0.8877 -1.1080  0.7625
  700TMC3    H110408   1.909   0.319  17.095 -0.0613  0.1090  0.0454
  700TMC3    H210409   2.170   0.033  17.247 -1.6672  0.7642  0.7874
  700TMC3    C710410   2.116   0.283  17.251 -0.0081  0.2927 -0.1313
  700TMC3    C810411   2.126   4.583  17.052  0.3158  0.1551  0.3488
  700TMC3    O110412   2.156   0.256  17.363  0.6935 -0.6314 -0.4048
  700TMC3    O210413   2.225   4.560  17.122  0.0342  0.0806  0.1660
  701TMC3    C110414   1.754   4.059  15.257  0.4976 -0.4096 -0.4509
  701TMC3    C210415   1.711   4.046  15.121 -0.0057 -0.0748  0.2150
  701TMC3    C310416   1.712   3.919  15.068 -0.4052  0.3170 -0.6759
  701TMC3    C410417   1.813   3.946  15.319  0.0941  0.2058  0.0819
  701TMC3    C510418   1.830   3.824  15.251 -0.3983 -0.8869  0.2528
  701TMC3    C610419   1.779   3.810  15.123 -0.0457  0.2939  0.0811
  701TMC3     C10420   1.711   4.172  15.332  0.1699  0.3802  0.5352
  701TMC3     O10421   1.749   4.178  15.452  0.0060  0.1070 -0.2350
  701TMC3     H10422   1.668   4.130  15.066  1.2272  1.8647  2.2446
  701TMC3    H110423   1.822   3.959  15.427 -2.2005 -1.0697  0.4372
  701TMC3    H210424   1.805   3.718  15.071  0.7308 -0.2574  1.4563
  701TMC3    C710425   1.942   3.740  15.291  0.3157 -0.5842  0.6424
  701TMC3    C810426   1.665   3.917  14.931 -0.4686 -0.1938  0.1228
  701TMC3    O110427   1.947   3.623  15.265 -0.0090  0.4717 -0.2044
  701TMC3    O210428   1.630   4.027  14.886  0.6827  0.3840 -0.0158
  702MPD2     C10429   1.430   1.988  10.481  0.2596 -0.6651 -0.6002
  702MPD2    C110430   1.322   2.043  10.549 -0.8956  0.3537 -0.8342
  702MPD2    C210431   1.252   2.144  10.487 -0.6703  0.4535 -0.4711
  702MPD2    C310432   1.286   2.187  10.358  0.1637 -0.0105 -0.1572
  702MPD2    C410433   1.386   2.119  10.295  0.4609  0.6308  0.0873
  702MPD2    C510434   1.455   2.023  10.355 -0.7617  0.0164 -0.2811
  702MPD2     H10435   1.167   2.181  10.543  1.0834  3.4046  0.2305
  702MPD2    H110436   1.416   2.153  10.197  0.4370  2.0916  0.5718
  702MPD2    H210437   1.502   1.923  10.528  0.4648  0.0035  0.0125
  702MPD2    H310438   1.543   1.984  10.304 -0.3831  1.0982 -0.4480
  702MPD2     N10439   1.243   2.313  10.308 -0.2710 -0.1201 -0.1093
  702MPD2    H510440   1.296   2.371  10.244 -1.2776  0.5225 -0.3621
  702MPD2    N110441   1.296   2.011  10.686 -0.2231 -0.3460  0.1323
  702MPD2    H710442   1.221   2.057  10.736 -0.0890  0.2349 -0.2007
  703TMC3    C110443   1.090   2.500  10.306 -0.5658 -0.1783 -0.6738
  703TMC3    C210444   0.958   2.524  10.338 -0.2368 -0.0763 -0.1675
  703TMC3    C310445   0.917   2.632  10.419 -0.3858  0.8526 -0.3852
  703TMC3    C410446   1.184   2.585  10.351  0.0016  1.1216 -0.7545
  703TMC3    C510447   1.146   2.685  10.433  0.5151 -0.6093  0.2814
  703TMC3    C610448   1.020   2.707  10.475  0.4290  0.1615 -0.0608
  703TMC3     C10449   1.117   2.358  10.322 -0.4886  0.4675 -0.5313
  703TMC3     O10450   1.028   2.306  10.386 -0.4107 -0.0365  0.0950
  703TMC3     H10451   0.885   2.472  10.278 -0.3091  2.5885 -2.4176
  703TMC3    H110452   1.285   2.557  10.324 -0.5923 -1.1804 -0.5891
  703TMC3    H210453   1.005   2.781  10.553 -0.0930  0.5059 -0.4881
  703TMC3    C710454   1.261   2.747  10.495  0.2117  0.5472 -0.2394
  703TMC3    C810455   0.811   2.591  10.510  0.6368  0.2162 -0.7993
  703TMC3    O110456   1.361   2.743  10.425 -0.5783 -0.0484 -0.7557
  703TMC3    O210457   0.751   2.672  10.581 -0.3697 -0.2660 -0.4481
  704TMC3    C110458   3.279   4.318  12.970  0.7128  0.4528 -0.6341
  704TMC3    C210459   3.404   4.375  12.986  0.5875 -0.3529 -0.4534
  704TMC3    C310460   3.508   4.292  13.005  0.0867  0.0699 -0.3433
  704TMC3    C410461   3.255   4.183  12.982  0.8561 -0.0063 -0.2075
  704TMC3    C510462   3.365   4.103  13.011  0.2120  0.3581 -0.0465
  704TMC3    C610463   3.492   4.157  13.023  0.5183  0.2243 -0.6953
  704TMC3     C10464   3.195   4.386  12.878 -0.5898  0.2990 -0.0611
  704TMC3     O10465   3.083   4.336  12.875 -0.2076 -0.3949 -0.2418
  704TMC3     H10466   3.439   4.476  12.970 -1.1822  0.1299 -1.1830
  704TMC3    H110467   3.161   4.138  12.952  0.2966  0.2064  1.2034
  704TMC3    H210468   3.577   4.091  13.031  0.2987 -0.0164 -0.3343
  704TMC3    C710469   3.364   3.969  12.947 -0.1052 -0.5659  0.6001
  704TMC3    C810470   3.615   4.327  12.913  0.1810 -0.9194 -0.6532
  704TMC3    O110471   3.474   3.937  12.899 -0.1885 -0.4329 -0.2032
  704TMC3    O210472   3.596   4.402  12.823 -0.2076  0.3274  0.2617
  705MPD2     C10473   3.164   2.517  16.237 -0.0710 -0.2660  0.5151
  705MPD2    C110474   3.182   2.639  16.310  0.3091 -0.4566 -0.2537
  705MPD2    C210475   3.118   2.659  16.429  0.0842  0.1363 -0.7610
  705MPD2    C310476   3.032   2.560  16.481  0.3065 -0.1080 -0.2454
  705MPD2    C410477   2.994   2.454  16.398 -0.8236 -0.6530 -0.4220
  705MPD2    C510478   3.056   2.440  16.274  0.4809  0.1904  0.1457
  705MPD2     H10479   3.140   2.751  16.483  0.8430 -1.0412  0.9125
  705MPD2    H110480   2.921   2.381  16.431 -0.7068 -0.4242  0.3606
  705MPD2    H210481   3.200   2.504  16.136  0.6298 -0.5061  0.7974
  705MPD2    H310482   3.029   2.352  16.218  0.9750 -1.4810  2.5500
  705MPD2     N10483   2.963   2.566  16.605 -0.3919  0.0828 -0.0163
  705MPD2    H510484   2.898   2.490  16.623 -1.3801  0.9341  0.0699
  705MPD2    N110485   3.265   2.745  16.254 -0.0689  0.0994  0.3195
  705MPD2    H710486   3.271   2.839  16.294  2.2255  1.0813 -2.2809
  706TMC3    C110487   3.638   2.938  16.074 -0.0914 -0.4500 -0.6944
  706TMC3    C210488   3.626   3.046  16.153  0.6689 -0.2365 -0.3109
  706TMC3    C310489   3.506   3.059  16.213 -0.9177 -0.6406 -0.4834
  706TMC3    C410490   3.541   2.848  16.052  0.4304  0.4115  0.5906
  706TMC3    C510491   3.419   2.859  16.116  0.0940 -0.8469  0.8771
  706TMC3    C610492   3.397   2.969  16.191 -1.2603 -0.5250 -0.0946
  706TMC3     C10493   3.772   2.902  16.034 -0.0657  0.8005 -0.6792
  706TMC3     O10494   3.860   2.960  16.096 -0.1331  0.2789  0.0516
  706TMC3     H10495   3.706   3.117  16.176  0.4042  0.5527 -1.8472
  706TMC3    H110496   3.557   2.759  15.992  0.6771 -0.7901  2.4528
  706TMC3    H210497   3.299   2.990  16.233 -1.2839  0.8184 -0.8169
  706TMC3    C710498   3.343   2.738  16.139 -0.1852 -0.9389 -0.1483
  706TMC3    C810499   3.475   3.204  16.238 -0.0655  0.3426  0.0699
  706TMC3    O110500   3.379   2.636  16.077 -0.2361  0.6991  0.2333
  706TMC3    O210501   3.540   3.295  16.186  0.2556  0.3286 -0.1160
  707TMC3    C110502   0.676   2.138   0.579  0.0720 -0.0305  0.0387
  707TMC3    C210503   0.580   2.044   0.614  0.4919 -0.9602 -0.6109
  707TMC3    C310504   0.448   2.055   0.576  0.4867  0.4361 -0.2706
  707TMC3    C410505   0.632   2.251   0.525 -0.0236  0.4936  0.6522
  707TMC3    C510506   0.500   2.273   0.496  0.2693  0.5589 -0.2317
  707TMC3    C610507   0.405   2.175   0.527  0.1362  0.4847  0.5497
  707TMC3     C10508   0.806   2.090   0.542  0.0410  0.4340 -0.9220
  707TMC3     O10509   0.869   2.031   0.630  0.3169  0.0461 -0.3908
  707TMC3     H10510   0.618   1.961   0.672  0.2884  0.3181  1.3922
  707TMC3    H110511   0.703   2.330   0.500 -0.7968  1.5913  1.9342
  707TMC3    H210512   0.303   2.200   0.500 -0.2210 -0.8895  0.6747
  707TMC3    C710513   0.469   2.418   0.483 -0.0903  0.1049  0.1114
  707TMC3    C810514   0.354   1.958   0.632  0.0137 -0.3668 -0.1537
  707TMC3    O110515   0.564   2.498   0.466 -0.7462 -0.3607 -0.5041
  707TMC3    O210516   0.235   1.988   0.652  0.1109  0.2677  0.6314
  708MPD2     C10517   1.448   0.525  13.584  0.5135  0.9047  0.2772
  708MPD2    C110518   1.453   0.656  13.630 -0.3256 -0.1281  0.5125
  708MPD2    C210519   1.499   0.679  13.759 -0.7058  0.2306 -0.1903
  708MPD2    C310520   1.523   0.574  13.844  0.1430  0.4923 -0.3578
  708MPD2    C410521   1.498   0.450  13.800  0.3178 -0.3200  0.2590
  708MPD2    C510522   1.460   0.421  13.671  0.4649 -0.1690 -0.6417
  708MPD2     H10523   1.493   0.778  13.803 -0.8223 -0.7050  1.8988
  708MPD2    H110524   1.514   0.361  13.861 -2.0093 -0.1674  1.0751
  708MPD2    H210525   1.408   0.498  13.487 -0.1214 -0.8470  1.0300
  708MPD2    H310526   1.437   0.320  13.641  1.6137 -0.9321  1.0628
  708MPD2     N10527   1.568   0.605  13.973 -1.4154 -0.0867  0.9528
  708MPD2    H510528   1.583   0.702  14.002 -0.3798  0.0843 -0.1355
  708MPD2    N110529   1.419   0.755  13.541  0.0221  0.1713  0.0998
  708MPD2    H710530   1.363   0.726  13.461 -1.6348  1.5297  0.7756
  709TMC3    C110531   1.363   0.982  13.490  0.6280 -0.0843  0.3684
  709TMC3    C210532   1.246   0.931  13.429  0.0365  0.0465  0.1709
  709TMC3    C310533   1.136   1.006  13.447 -0.0968  0.4315  0.2683
  709TMC3    C410534   1.361   1.103  13.549  0.2745  0.3666  0.6000
  709TMC3    C510535   1.238   1.150  13.596  0.1717  0.1939 -0.8099
  709TMC3    C610536   1.128   1.111  13.530  0.0755  0.5833 -0.3043
  709TMC3     C10537   1.448   0.888  13.564  0.0472  0.5249  0.3036
  709TMC3     O10538   1.531   0.937  13.641 -0.4306  0.4235  0.1041
  709TMC3     H10539   1.236   0.831  13.388 -0.0344 -0.5638  1.7014
  709TMC3    H110540   1.450   1.150  13.589  0.3507  0.9760 -0.2743
  709TMC3    H210541   1.030   1.150  13.553  0.0114 -1.1585  2.4320
  709TMC3    C710542   1.228   1.151  13.736  0.9696 -1.2307 -0.2419
  709TMC3    C810543   1.007   0.964  13.401  0.1709  0.0369  0.2385
  709TMC3    O110544   1.334   1.164  13.795  0.7899  0.0301  0.1725
  709TMC3    O210545   0.911   0.957  13.477 -0.0878 -0.6037 -0.4580
  710TMC3    C110546   2.793   2.349  17.646 -0.8294 -0.4764 -0.0591
  710TMC3    C210547   2.844   2.332  17.522  0.3562  0.5023 -0.1208
  710TMC3    C310548   2.871   2.203  17.479  0.6380 -0.0545 -0.2812
  710TMC3    C410549   2.779   2.244  17.734  0.9756 -0.5457  0.1583
  710TMC3    C510550   2.829   2.122  17.702 -0.0617 -0.3545 -0.1712
  710TMC3    C610551   2.873   2.096  17.573  0.4416  0.2170 -0.6792
  710TMC3     C10552   2.762   2.484  17.697  0.3609 -0.1151  0.6499
  710TMC3     O10553   2.822   2.574  17.645 -0.3064  0.2110  0.3214
  710TMC3     H10554   2.861   2.420  17.461  0.7411  1.5653  1.5074
  710TMC3    H110555   2.761   2.261   0.102  0.1723 -1.8891  0.2250
  710TMC3    H210556   2.932   2.007  17.557 -0.7791 -0.4799 -1.2821
  710TMC3    C710557   2.838   2.015   0.060 -0.4711 -0.0334  0.2361
  710TMC3    C810558   2.911   2.193  17.348  0.2347 -0.5223 -0.1734
  710TMC3    O110559   2.865   2.048   0.173  0.5315  0.1664  0.1635
  710TMC3    O210560   2.939   2.298  17.290  0.3182 -0.1525  0.1216
  711TMC3    C110561   2.648   3.183  14.939  0.2088  0.5719  0.8681
  711TMC3    C210562   2.692   3.307  14.943 -0.6530 -0.7488 -0.4063
  711TMC3    C310563   2.760   3.341  15.058  1.1387  0.4017 -0.2139
  711TMC3    C410564   2.650   3.100  15.048 -0.2540 -0.8864 -0.2975
  711TMC3    C510565   2.724   3.126  15.154 -0.0160 -0.2297 -0.4491
  711TMC3    C610566   2.782   3.253  15.163 -0.2663 -0.7287  0.3579
  711TMC3     C10567   2.540   3.154  14.849  0.4326  0.0997  0.3141
  711TMC3     O10568   2.447   3.090  14.900  0.1062 -0.3855  0.1435
  711TMC3     H10569   2.669   3.381  14.867  1.5797 -0.0496 -0.3880
  711TMC3    H110570   2.603   3.003  15.036 -1.1771 -0.4370 -0.2473
  711TMC3    H210571   2.849   3.276  15.245  0.6869  0.2814 -0.6924
  711TMC3    C710572   2.814   3.015  15.188  0.0693 -0.3884 -0.6407
  711TMC3    C810573   2.822   3.468  15.060 -0.1936  0.1607  0.2053
  711TMC3    O110574   2.924   3.040  15.243 -0.4072  0.0507  0.2247
  711TMC3    O210575   2.785   3.547  14.974 -0.4979 -0.0332  0.4855
  712MPD2     C10576   3.381   4.268  14.034 -0.3533  0.1366  0.6541
  712MPD2    C110577   3.311   4.330  13.930  0.0317  0.1063 -0.2988
  712MPD2    C210578   3.327   4.459  13.901  0.3245  0.2875  0.3933
  712MPD2    C310579   3.426   4.531  13.969 -0.3598  0.8601  0.0180
  712MPD2    C410580   3.489   4.475  14.079  0.4412  0.2092 -0.1168
  712MPD2    C510581   3.465   4.346  14.108 -0.1191 -0.4392  0.0803
  712MPD2     H10582   3.273   4.505  13.819 -2.9218 -1.3544  1.6187
  712MPD2    H110583   3.564   4.528  14.136  1.4526 -1.0600 -0.2540
  712MPD2    H210584   3.371   4.161  14.049 -0.6677 -0.0246 -0.6774
  712MPD2    H310585   3.512   4.293  14.190  0.0439 -0.0309  0.2490
  712MPD2     N10586   3.461   4.663  13.933  0.2218 -0.5842 -0.4224
  712MPD2    H510587   3.556   4.687  13.958 -0.0187  0.7059 -0.7624
  712MPD2    N110588   3.215   4.270  13.846  0.1681  0.0494 -0.2043
  712MPD2    H710589   3.186   4.325  13.766 -1.7140  0.8782  1.0464
  713TMC3    C110590   3.466   0.105  13.790 -0.0425  0.4209  0.0948
  713TMC3    C210591   3.593   0.065  13.753  0.0453 -1.5294  0.0730
  713TMC3    C310592   3.668   0.146  13.672 -0.5253  0.0164 -0.3500
  713TMC3    C410593   3.410   0.224  13.753 -0.0078  0.7462  0.2155
  713TMC3    C510594   3.481   0.295  13.662 -0.3873  0.1210 -0.2191
  713TMC3    C610595   3.611   0.262  13.625  0.2039  1.0548  0.2456
  713TMC3     C10596   3.384   0.007  13.855  0.7037  0.0335  0.3999
  713TMC3     O10597   3.266   0.013  13.846  0.6780  0.2892  0.4774
  713TMC3     H10598   3.633   4.706  13.789  0.9974 -1.1730 -0.0555
  713TMC3    H110599   3.306   0.248  13.776 -1.1834 -1.2538 -2.9515
  713TMC3    H210600   3.667   0.329  13.561 -0.0130  2.1821  1.2386
  713TMC3    C710601   3.447   0.432  13.633  0.5518  0.6552  0.3110
  713TMC3    C810602   3.809   0.157  13.672 -0.3430 -0.4034 -0.8705
  713TMC3    O110603   3.534   0.518  13.639 -0.8971  0.1311  0.1210
  713TMC3    O210604   3.856   0.261  13.625 -0.4530  0.2065  0.2507
  714MPD2     C10605   1.562   3.126   1.678  0.0179  0.2662  0.3323
  714MPD2    C110606   1.532   3.039   1.577 -0.3353  0.2274  0.2112
  714MPD2    C210607   1.410   3.063   1.510 -0.2835  0.5120  0.3423
  714MPD2    C310608   1.318   3.163   1.549 -0.0526  0.1538  0.4494
  714MPD2    C410609   1.354   3.243   1.652  0.0944 -0.4541  0.0397
  714MPD2    C510610   1.475   3.220   1.715  0.3505 -0.1211  0.9383
  714MPD2     H10611   1.382   2.999   1.428  0.9387 -0.2938  0.5546
  714MPD2    H110612   1.299   3.333   1.678 -0.8135 -1.0740  0.2585
  714MPD2    H210613   1.654   3.117   1.736  1.5589 -2.0569 -2.4786
  714MPD2    H310614   1.500   3.287   1.796  2.4134 -0.3811  0.5234
  714MPD2     N10615   1.193   3.182   1.482 -0.4999  0.1863  0.5228
  714MPD2    H510616   1.178   3.141   1.391 -0.2241 -0.0090  0.5655
  714MPD2    N110617   1.625   2.941   1.541 -0.1818  0.7302 -0.5175
  714MPD2    H710618   1.716   2.937   1.588 -0.3226 -0.0693 -0.3006
  715TMC3    C110619   1.737   2.787   1.401 -0.7680  0.1568  0.1672
  715TMC3    C210620   1.715   2.663   1.342 -0.0701 -0.3508  0.4533
  715TMC3    C310621   1.824   2.594   1.293 -0.0518  0.4743 -0.4255
  715TMC3    C410622   1.868   2.832   1.426  0.4180  0.1891  0.1691
  715TMC3    C510623   1.969   2.755   1.375 -0.1472 -0.3356 -0.3716
  715TMC3    C610624   1.951   2.633   1.316 -0.7765 -0.4230 -0.2983
  715TMC3     C10625   1.614   2.851   1.441  0.5520  0.2642  0.0973
  715TMC3     O10626   1.515   2.816   1.377  0.2418  0.3683  0.1600
  715TMC3     H10627   1.618   2.615   1.341 -0.8599  1.2693 -0.0538
  715TMC3    H110628   1.885   2.937   1.446 -0.2039  1.1312 -4.1782
  715TMC3    H210629   2.033   2.589   1.260 -1.2887 -0.7503 -0.7819
  715TMC3    C710630   2.107   2.796   1.397 -0.0117 -0.0336 -0.2469
  715TMC3    C810631   1.792   2.471   1.215  0.5000 -0.3014  0.1795
  715TMC3    O110632   2.126   2.907   1.438 -0.6577 -0.1441  0.6180
  715TMC3    O210633   1.705   2.484   1.134  0.1542  0.0694 -0.1213
  716MPD2     C10634   1.206   2.120   9.762  0.2571  0.2822 -0.1850
  716MPD2    C110635   1.125   2.153   9.656  0.1067  0.2304 -0.6254
  716MPD2    C210636   1.131   2.077   9.539 -0.0064 -0.2213  0.5040
  716MPD2    C310637   1.229   1.971   9.533  1.1930  0.5553  0.2203
  716MPD2    C410638   1.310   1.947   9.643  0.4384  0.1940 -0.0659
  716MPD2    C510639   1.300   2.022   9.754  0.6415 -0.2978 -0.2054
  716MPD2     H10640   1.072   2.116   9.457 -0.5053 -3.1363 -0.5229
  716MPD2    H110641   1.382   1.866   9.643 -0.8363 -0.9550  2.3047
  716MPD2    H210642   1.201   2.183   9.850  1.2974  1.4016 -0.9283
  716MPD2    H310643   1.367   2.006   9.838 -1.4018  1.0663  1.7007
  716MPD2     N10644   1.245   1.903   9.408  0.0805 -0.6013  0.0300
  716MPD2    H510645   1.180   1.932   9.336 -2.6558 -2.1732  1.8574
  716MPD2    N110646   1.034   2.255   9.677  0.4434  0.4247  0.0300
  716MPD2    H710647   1.034   2.302   9.767  0.0219 -1.0385  0.7955
  717TMC3    C110648   1.304   1.739   9.245  0.1519 -0.3840 -0.1464
  717TMC3    C210649   1.238   1.819   9.160 -0.0373 -0.0323 -0.8945
  717TMC3    C310650   1.171   1.757   9.055 -0.5625 -0.0098 -0.3457
  717TMC3    C410651   1.312   1.603   9.226 -0.3453  0.3358  0.3115
  717TMC3    C510652   1.241   1.550   9.121  0.0245 -0.4397 -0.4386
  717TMC3    C610653   1.167   1.622   9.032 -0.1424 -0.3519  0.4159
  717TMC3     C10654   1.326   1.788   9.380 -0.1063  0.2576  0.1859
  717TMC3     O10655   1.402   1.731   9.457  0.0430 -0.0663  0.4335
  717TMC3     H10656   1.226   1.927   9.169  1.7117  0.1751 -0.9971
  717TMC3    H110657   1.362   1.538   9.297 -1.0081  0.3320  0.7641
  717TMC3    H210658   1.106   1.572   8.958  0.3431  1.3108 -1.1027
  717TMC3    C710659   1.225   1.406   9.109  1.0306 -1.0044 -0.4913
  717TMC3    C810660   1.073   1.840   8.987  0.0997 -0.5808 -0.0157
  717TMC3    O110661   1.144   1.360   9.031 -0.2244  0.1175 -0.1808
  717TMC3    O210662   1.041   1.946   9.041  1.1597  0.5775  0.3035
  718MPD2     C10663   0.705   4.596  13.048 -0.1768  0.3151  0.0515
  718MPD2    C110664   0.635   4.668  12.961  0.1500 -0.0274  0.9433
  718MPD2    C210665   0.506   4.626  12.932 -0.1348 -0.2963 -0.4122
  718MPD2    C310666   0.444   4.534  13.008  0.6245  0.1647  0.4651
  718MPD2    C410667   0.505   4.463  13.105  0.1624 -0.4237  0.8755
  718MPD2    C510668   0.640   4.493  13.123 -0.0557  0.4850  0.6353
  718MPD2     H10669   0.450   4.678  12.854 -2.0202  0.0895  1.1887
  718MPD2    H110670   0.462   4.391  13.173 -1.8126 -0.1397 -0.0665
  718MPD2    H210671   0.807   4.618  13.077  0.6860 -0.4948 -2.3777
  718MPD2    H310672   0.692   4.457  13.211 -1.0424 -2.5515 -0.0322
  718MPD2     N10673   0.306   4.523  12.986  0.8075 -0.1299 -0.4812
  718MPD2    H510674   0.263   4.582  12.915  0.8554 -0.2988 -0.6502
  718MPD2    N110675   0.703   0.035  12.888 -0.7624  0.1186 -0.0107
  718MPD2    H710676   0.802   0.036  12.866 -0.5452  1.0018  0.9751
  719TMC3    C110677   0.719   0.169  12.696  0.3284  0.3169  0.0948
  719TMC3    C210678   0.702   0.073  12.600 -0.1758  0.2189 -0.6037
  719TMC3    C310679   0.633   0.119  12.482  0.5211  0.1006 -0.1385
  719TMC3    C410680   0.728   0.301  12.665 -0.5307 -0.3426  0.6840
  719TMC3    C510681   0.692   0.339  12.541 -0.2744 -0.1276  0.2796
  719TMC3    C610682   0.645   0.253  12.447 -0.2580  0.3288 -0.3476
  719TMC3     C10683   0.642   0.129  12.813 -0.1693 -0.0458  0.3143
  719TMC3     O10684   0.524   0.163  12.825 -0.6880 -0.0168 -0.1819
  719TMC3     H10685   0.711   4.701  12.620 -1.7487  0.0721 -0.6222
  719TMC3    H110686   0.780   0.368  12.733  0.5042 -2.5628  2.0438
  719TMC3    H210687   0.611   0.288  12.350 -1.6912  1.3618  0.5291
  719TMC3    C710688   0.690   0.476  12.508  0.0802 -0.7095 -0.2407
  719TMC3    C810689   0.495   0.073  12.490  0.1616 -0.0764  0.7533
  719TMC3    O110690   0.599   0.549  12.549  0.4545 -0.2077 -0.1745
  719TMC3    O210691   0.485   4.691  12.519  0.2702  0.1843  0.4578
  720MPD2     C10692   4.123   2.222  13.566 -0.0566  0.0472 -0.5608
  720MPD2    C110693   4.103   2.124  13.472 -0.1249  0.6505  0.0518
  720MPD2    C210694   4.101   1.994  13.518  0.0282 -1.0480  0.0577
  720MPD2    C310695   4.111   1.965  13.650 -0.0452  0.0345  0.2618
  720MPD2    C410696   4.117   2.066  13.741 -0.0842  0.6578 -0.1538
  720MPD2    C510697   4.126   2.192  13.698 -0.4321  0.0990  1.1475
  720MPD2     H10698   4.090   1.923  13.437  1.8353 -1.7570  0.4297
  720MPD2    H110699   4.095   2.044  13.845  0.4742 -1.0809 -0.4063
  720MPD2    H210700   4.129   2.326  13.535 -1.2504 -0.0507 -1.1120
  720MPD2    H310701   4.131   2.269  13.774 -2.4130 -0.1480  1.5331
  720MPD2     N10702   4.089   1.835  13.689  0.0205 -0.0415 -0.3058
  720MPD2    H510703   4.071   1.759  13.623 -0.9342 -0.0635 -0.0216
  720MPD2    N110704   4.103   2.143  13.330  0.2752 -0.0060  0.0965
  720MPD2    H710705   4.088   2.058  13.276  2.5636 -0.0513 -0.4677
  721TMC3    C110706   4.101   1.651  13.827  0.5558  0.3226 -0.2185
  721TMC3    C210707   4.037   1.590  13.929 -0.3353  0.7473  0.3511
  721TMC3    C310708   4.095   1.480  13.990 -0.2951 -0.2961 -0.0541
  721TMC3    C410709   4.219   1.602  13.784  0.0736  0.4500 -0.2087
  721TMC3    C510710   4.278   1.492  13.845 -0.3612 -0.3181  0.2013
  721TMC3    C610711   4.225   1.435  13.964  0.0836 -0.0589  0.0159
  721TMC3     C10712   4.079   1.790  13.819  0.2055  0.2650  0.5906
  721TMC3     O10713   4.081   1.846  13.929 -0.3065 -0.1800 -0.2363
  721TMC3     H10714   3.947   1.639  13.966  0.3901  3.3032 -1.2567
  721TMC3    H110715   4.279   1.662  13.717 -0.0690 -0.8236 -1.4879
  721TMC3    H210716   4.236   1.333  13.999 -0.4413  0.0063  0.3673
  721TMC3    C710717   4.412   1.466  13.800  0.2518  0.7313 -0.3647
  721TMC3    C810718   4.020   1.435  14.109 -0.0697 -0.5906 -0.0817
  721TMC3    O110719   4.443   1.503  13.691 -0.2722 -0.1108 -0.3602
  721TMC3    O210720   3.902   1.466  14.120  0.3572  0.4954  0.3189
  722MPD2     C10721   2.219   0.608  13.504 -0.1034  0.2429 -0.5612
  722MPD2    C110722   2.250   0.615  13.367 -0.3184 -0.1596 -0.4861
  722MPD2    C210723   2.150   0.587  13.275  0.2435  0.1612  0.8274
  722MPD2    C310724   2.019   0.552  13.319  0.1859 -0.3803 -0.5245
  722MPD2    C410725   1.993   0.545  13.452 -0.3930  0.2601  0.2106
  722MPD2    C510726   2.093   0.564  13.542 -0.7106 -0.1202  0.0466
  722MPD2     H10727   2.160   0.580  13.167 -3.4681 -0.3680  0.5194
  722MPD2    H110728   1.897   0.521  13.497 -0.0057 -1.6134  0.0515
  722MPD2    H210729   2.293   0.635  13.578  1.2990 -0.1861 -1.8123
  722MPD2    H310730   2.069   0.563  13.648 -3.1577 -2.2454 -0.5178
  722MPD2     N10731   1.918   0.520  13.222 -0.2164  0.0106 -0.0793
  722MPD2    H510732   1.948   0.545  13.128 -1.9627  1.0675 -0.3653
  722MPD2    N110733   2.371   0.672  13.321  0.0589  0.3856 -0.1425
  722MPD2    H710734   2.377   0.702  13.224 -2.3093 -2.1721 -1.0564
  723TMC3    C110735   1.723   0.533  13.134  0.7803 -0.2596 -0.3427
  723TMC3    C210736   1.756   0.481  13.012  0.2171 -0.1067  0.4540
  723TMC3    C310737   1.734   0.554  12.893 -0.3958  0.0402  0.1704
  723TMC3    C410738   1.666   0.653  13.140 -0.5671 -0.0985 -0.8968
  723TMC3    C510739   1.629   0.715  13.020  0.6565  0.6494 -0.0059
  723TMC3    C610740   1.669   0.676  12.896  0.7975  0.8420 -0.0554
  723TMC3     C10741   1.790   0.494  13.249  0.1078 -0.6867  0.0599
  723TMC3     O10742   1.733   0.492  13.357 -0.5922  0.4384 -0.3696
  723TMC3     H10743   1.815   0.390  13.014 -1.7946 -1.4036  1.6184
  723TMC3    H110744   1.648   0.703  13.234  0.3287  2.7182 -2.2047
  723TMC3    H210745   1.629   0.722  12.806 -0.5814  0.1210  0.1875
  723TMC3    C710746   1.532   0.826  13.014 -0.7847 -0.3824 -1.1795
  723TMC3    C810747   1.792   0.514  12.764 -0.2876 -0.1221 -0.3153
  723TMC3    O110748   1.457   0.824  12.917 -0.1409 -0.2076 -0.0463
  723TMC3    O210749   1.808   0.606  12.684 -0.6968 -0.3564  0.4114
  724TMC3    C110750   2.855   3.849  10.862  0.1503  0.0528  0.2904
  724TMC3    C210751   2.841   3.875  10.727  0.2524  0.4727 -0.3977
  724TMC3    C310752   2.946   3.950  10.666 -0.1013  0.5348  0.2345
  724TMC3    C410753   2.965   3.901  10.936  0.8363 -0.0537 -0.6337
  724TMC3    C510754   3.067   3.964  10.871 -0.3094 -0.1406 -0.1213
  724TMC3    C610755   3.056   4.001  10.743 -0.4572  0.6561 -0.0240
  724TMC3     C10756   2.763   3.774  10.927  0.1278 -0.1839  0.4006
  724TMC3     O10757   2.648   3.764  10.881 -0.4494 -0.0110 -0.2773
  724TMC3     H10758   2.744   3.853  10.684  1.0488 -0.2933 -1.8051
  724TMC3    H110759   2.985   3.871  11.038  2.1159  1.4945 -0.4383
  724TMC3    H210760   3.135   4.057  10.695  1.2115 -1.8337 -0.1932
  724TMC3    C710761   3.170   4.037  10.949  0.6331  0.3229 -0.0267
  724TMC3    C810762   2.929   4.005  10.531 -0.1157 -0.3653 -0.3455
  724TMC3    O110763   3.278   4.059  10.891  0.0691 -0.1948  0.3801
  724TMC3    O210764   2.866   3.933  10.460 -0.2467  0.5778  0.1096
  725TMC3    C110765   4.533   2.217  12.307 -0.4572 -0.3530 -0.4195
  725TMC3    C210766   4.432   2.265  12.225 -0.0565 -0.8384 -0.2223
  725TMC3    C310767   4.342   2.176  12.172  0.6444 -0.4017 -0.3578
  725TMC3    C410768   4.545   2.080  12.332  0.9699 -0.6889 -0.3720
  725TMC3    C510769   4.457   1.994  12.274 -0.9428  0.4906 -0.7902
  725TMC3    C610770   4.359   2.043  12.197  0.1599  0.3541 -0.0241
  725TMC3     C10771   4.567   2.301  12.420  0.1780  0.4918  0.4089
  725TMC3     O10772   4.606   2.412  12.390  0.2218  0.3408 -0.0796
  725TMC3     H10773   4.425   2.373  12.216 -2.6779 -0.8692  1.5695
  725TMC3    H110774   4.622   2.037  12.395  1.8882  1.8481  0.2415
  725TMC3    H210775   4.302   1.981  12.129 -0.8692  0.3386  0.8369
  725TMC3    C710776   4.504   1.852  12.270  0.2891  0.4346 -0.0679
  725TMC3    C810777   4.243   2.216  12.077  0.3325  0.0151  0.4501
  725TMC3    O110778   4.620   1.834  12.302 -0.9153  0.2486  0.1972
  725TMC3    O210779   4.147   2.142  12.072 -0.2288  0.0702 -0.6355
  726MPD2     C10780   2.315   4.392  10.525 -0.6846 -0.0846  0.3854
  726MPD2    C110781   2.210   4.407  10.429 -0.3596 -0.6194 -0.3729
  726MPD2    C210782   2.096   4.331  10.439 -0.7707  0.3902  0.0645
  726MPD2    C310783   2.084   4.239  10.540  0.0378  0.3689 -0.0096
  726MPD2    C410784   2.190   4.222  10.627  0.1314 -0.3789  1.4197
  726MPD2    C510785   2.302   4.303  10.627 -0.1620 -0.4290 -0.4665
  726MPD2     H10786   2.020   4.355  10.365  0.4819 -2.4555 -2.1235
  726MPD2    H110787   2.184   4.147  10.705 -0.2591 -1.1411  0.6609
  726MPD2    H210788   2.411   4.441  10.512 -1.3655  0.9437 -0.9181
  726MPD2    H310789   2.389   4.301  10.691 -0.6922  0.3761  0.2791
  726MPD2     N10790   1.971   4.162  10.563 -0.2086 -0.6641 -0.5302
  726MPD2    H510791   1.964   4.105  10.647 -0.1988  0.9458  0.5695
  726MPD2    N110792   2.211   4.501  10.320  0.0809  0.2311 -0.0884
  726MPD2    H710793   2.127   4.504  10.263  0.6841 -1.4806 -1.0709
  727TMC3    C110794   2.296   4.683  10.171 -0.0391 -0.1945 -0.2086
  727TMC3    C210795   2.364   0.072  10.180  0.4062  0.4221  0.0535
  727TMC3    C310796   2.325   0.171  10.099 -1.0292 -0.4520  0.2659
  727TMC3    C410797   2.199   4.663  10.083 -0.5785  0.7320  0.2926
  727TMC3    C510798   2.159   0.036  10.012  0.8600 -0.6532  0.5670
  727TMC3    C610799   2.216   0.164  10.015 -0.3204  0.6202 -0.6504
  727TMC3     C10800   2.314   4.592  10.287 -0.5794  0.5551 -0.7210
  727TMC3     O10801   2.420   4.612  10.348 -0.1024  0.1911  0.7285
  727TMC3     H10802   2.449   0.089  10.245  0.3625 -1.1474  0.5247
  727TMC3    H110803   2.143   4.571  10.081 -2.6080  1.9819 -0.2773
  727TMC3    H210804   2.185   0.254   9.965 -0.7454 -0.1234 -1.7273
  727TMC3    C710805   2.036   0.017   9.930 -0.0116 -0.2628  0.3258
  727TMC3    C810806   2.351   0.304  10.155  0.3912  0.1927 -0.0115
  727TMC3    O110807   1.945   4.682   9.968 -0.3496 -0.0871  0.6833
  727TMC3    O210808   2.385   0.300  10.275 -0.4507 -0.1169 -0.5232
  728TMC3    C110809   2.184   1.917  14.885  0.1304 -0.7440  0.1403
  728TMC3    C210810   2.316   1.921  14.842  0.3400 -0.4207 -0.1083
  728TMC3    C310811   2.333   1.907  14.711  0.2776  0.3881 -0.2723
  728TMC3    C410812   2.075   1.903  14.797  0.0488 -0.7792 -0.2881
  728TMC3    C510813   2.099   1.887  14.665  0.1154  0.1286 -0.4041
  728TMC3    C610814   2.228   1.886  14.622 -0.0060 -0.4873  0.2290
  728TMC3     C10815   2.158   1.939  15.026 -0.2981  1.4161  0.2188
  728TMC3     O10816   2.256   1.982  15.083  0.0524 -0.2106 -0.2070
  728TMC3     H10817   2.399   1.947  14.906  0.1868  1.0661 -0.5279
  728TMC3    H110818   1.973   1.900  14.834 -0.3167  1.5834 -1.0950
  728TMC3    H210819   2.247   1.869  14.516 -0.8773 -2.3744  0.3712
  728TMC3    C710820   2.005   1.936  14.573  0.2553 -0.3295 -0.6460
  728TMC3    C810821   2.453   1.967  14.650 -0.4770 -0.1781 -0.1889
  728TMC3    O110822   2.005   1.900  14.459 -0.0303  0.1354  0.3633
  728TMC3    O210823   2.498   1.918  14.549  0.0535 -1.2811 -0.0616
  729MPD2     C10824   4.087   3.714  16.850 -0.0986 -0.2906  0.0442
  729MPD2    C110825   4.152   3.601  16.894  0.5164 -0.3446  0.0130
  729MPD2    C210826   4.164   3.580  17.033 -0.1845 -0.6180 -0.0030
  729MPD2    C310827   4.117   3.682  17.125 -0.5856 -0.0257  0.2288
  729MPD2    C410828   4.056   3.794  17.073  0.0829  0.0038 -0.9197
  729MPD2    C510829   4.046   3.810  16.939  0.4802 -0.1151 -0.3756
  729MPD2     H10830   4.222   3.495  17.069 -1.8561 -1.7243  0.0740
  729MPD2    H110831   4.017   3.869  17.141 -0.3860 -2.3734  1.4264
  729MPD2    H210832   4.082   3.737  16.744 -1.5941 -0.1314  0.1482
  729MPD2    H310833   4.015   3.908  16.907 -3.8695 -1.0996  0.8302
  729MPD2     N10834   4.134   3.687  17.263 -0.4269 -0.3598  0.0455
  729MPD2    H510835   4.095   3.769  17.308 -1.4558 -0.9402  0.2224
  729MPD2    N110836   4.216   3.520  16.792  0.5661 -0.0555 -0.0373
  729MPD2    H710837   4.188   3.545  16.698 -1.8543 -2.9640 -0.1064
  730TMC3    C110838   4.222   3.647  17.471 -0.2980  0.0063 -0.2629
  730TMC3    C210839   4.337   3.597  17.527  0.6333  0.6487  0.1726
  730TMC3    C310840   4.400   3.671  17.624  0.2285  0.2598  0.3902
  730TMC3    C410841   4.185   3.772  17.512 -0.7284 -0.6209 -0.8072
  730TMC3    C510842   4.257   3.850  17.600 -0.4060 -0.5192 -0.5228
  730TMC3    C610843   4.365   3.793  17.663 -0.3497 -0.0066  0.3897
  730TMC3     C10844   4.195   3.596  17.342  0.7917 -0.5228 -0.3213
  730TMC3     O10845   4.219   3.480  17.315 -0.0387 -0.0732  0.0483
  730TMC3     H10846   4.372   3.498  17.500 -0.0137  0.2770  0.6819
  730TMC3    H110847   4.096   3.817  17.468 -1.2237  0.9330  1.7577
  730TMC3    H210848   4.412   3.840   0.010  1.5276 -2.9607  0.9570
  730TMC3    C710849   4.288   3.970  17.522 -0.1890 -1.0370  0.7925
  730TMC3    C810850   4.539   3.644  17.642 -0.5538 -0.5779 -0.5361
  730TMC3    O110851   4.257   3.961  17.405  0.1945  0.1376 -0.4632
  730TMC3    O210852   4.582   3.533  17.636  0.0135 -0.3910 -0.0108
  731MPD2     C10853   3.765   1.601  12.310 -0.4002 -0.3026 -0.6969
  731MPD2    C110854   3.885   1.676  12.302  0.3012 -0.3156  0.1849
  731MPD2    C210855   3.958   1.681  12.418  0.6467  0.1228 -0.6213
  731MPD2    C310856   3.917   1.629  12.538 -0.4661  0.6516 -0.6485
  731MPD2    C410857   3.803   1.555  12.540 -0.8371 -0.3717 -0.4917
  731MPD2    C510858   3.726   1.548  12.431  0.0103 -0.6462 -0.4063
  731MPD2     H10859   4.045   1.746  12.420  0.0585  0.8921 -0.1204
  731MPD2    H110860   3.776   1.506  12.633  0.4293 -0.3249 -0.1044
  731MPD2    H210861   3.712   1.589  12.217  0.1359  1.4252 -1.2140
  731MPD2    H310862   3.629   1.500  12.434 -1.1514  1.7064 -0.2847
  731MPD2     N10863   3.997   1.659  12.650 -0.4152  0.3150  0.0803
  731MPD2    H510864   4.036   1.753  12.652 -0.3074  0.2852 -0.8198
  731MPD2    N110865   3.936   1.720  12.170 -0.2575  0.5138 -0.4162
  731MPD2    H710866   3.891   1.671  12.093  1.1676 -2.0158  0.3874
  732TMC3    C110867   4.057   1.813  11.990  0.3719  0.1576 -0.1057
  732TMC3    C210868   3.945   1.854  11.933  0.5600  0.1894  0.3078
  732TMC3    C310869   3.947   1.924  11.814  0.2034  0.6788  0.3897
  732TMC3    C410870   4.177   1.832  11.928 -0.0426 -0.2116 -0.4919
  732TMC3    C510871   4.182   1.900  11.808 -0.1631  0.0716  0.3158
  732TMC3    C610872   4.066   1.942  11.748  0.1871 -0.1263 -0.7929
  732TMC3     C10873   4.053   1.785  12.136  0.2689 -0.7351  0.0676
  732TMC3     O10874   4.141   1.834  12.208  0.3228  0.4065 -0.1321
  732TMC3     H10875   3.851   1.844  11.987  1.4167  1.2901  1.9863
  732TMC3    H110876   4.268   1.808  11.982 -0.2363  2.3541  1.0036
  732TMC3    H210877   4.069   1.989  11.650 -0.5292  0.0241 -0.7420
  732TMC3    C710878   4.312   1.921  11.747 -1.1484 -1.0194  0.0088
  732TMC3    C810879   3.842   1.878  11.721 -0.5789  0.0658  0.6910
  732TMC3    O110880   4.337   2.022  11.680  0.0282 -0.0616  0.1170
  732TMC3    O210881   3.870   1.830  11.614 -0.4304 -0.1530 -0.1323
  733TMC3    C110882   4.607   4.546  13.097  0.3442 -0.1273 -0.5042
  733TMC3    C210883   4.718   4.466  13.116  0.9950  0.4777  0.1173
  733TMC3    C310884   0.082   4.472  13.019  0.7822 -0.3146 -0.0410
  733TMC3    C410885   4.585   4.611  12.975  0.0294  0.2296  0.2505
  733TMC3    C510886   4.675   4.593  12.875 -0.3467 -0.2298  0.0068
  733TMC3    C610887   0.059   4.528  12.895  0.7687 -0.8768 -0.0512
  733TMC3     C10888   4.484   4.541  13.173  0.4878  1.3461 -0.1424
  733TMC3     O10889   4.397   4.628  13.163 -0.4594  0.5218 -0.0224
  733TMC3     H10890   0.004   4.419  13.211  1.5481  0.5177  0.0140
  733TMC3    H110891   4.485   4.641  12.945  0.2771  0.4082 -0.4021
  733TMC3    H210892   0.133   4.523  12.816  0.4982  0.7787 -0.4082
  733TMC3    C710893   4.658   4.665  12.755  0.6721  0.4772  0.6035
  733TMC3    C810894   0.219   4.469  13.069 -0.3426 -0.0997 -0.0989
  733TMC3    O110895   4.551   4.715  12.726  0.2443  0.4989 -0.3574
  733TMC3    O210896   0.228   4.441  13.184 -0.4368 -0.1124 -0.3050
  734MPD2     C10897   2.150   3.218  12.432  0.6209 -0.5410 -0.0353
  734MPD2    C110898   2.086   3.152  12.324  0.1300 -0.2974  0.3594
  734MPD2    C210899   2.118   3.191  12.194  0.3027  0.4219  0.0088
  734MPD2    C310900   2.211   3.289  12.174  0.2407 -0.0687  0.0416
  734MPD2    C410901   2.285   3.340  12.282 -0.2247 -1.0135 -0.5244
  734MPD2    C510902   2.251   3.313  12.408  0.5581  0.0360 -1.1545
  734MPD2     H10903   2.073   3.152  12.104 -0.1126 -0.0597  0.4238
  734MPD2    H110904   2.379   3.393  12.272 -1.0680  0.4475 -0.7013
  734MPD2    H210905   2.114   3.203  12.533 -1.5791  1.8663 -0.4716
  734MPD2    H310906   2.290   3.375  12.487 -2.2678 -1.0878  1.1467
  734MPD2     N10907   2.241   3.311  12.037 -0.1958  0.0052  0.1444
  734MPD2    H510908   2.196   3.259  11.962  1.1099  0.1262 -0.7278
  734MPD2    N110909   1.998   3.045  12.350  0.3344  0.9704  0.0562
  734MPD2    H710910   1.987   3.012  12.445  1.7552  0.6333  0.1117
  735TMC3    C110911   1.854   2.865  12.296  0.3172 -0.3589  0.3616
  735TMC3    C210912   1.762   2.825  12.203 -0.0034  0.1260  0.5445
  735TMC3    C310913   1.752   2.698  12.158 -0.4221  0.5126  0.3922
  735TMC3    C410914   1.938   2.771  12.348 -0.0330 -0.8209  0.0803
  735TMC3    C510915   1.918   2.638  12.312  0.5494 -0.3058 -0.0964
  735TMC3    C610916   1.823   2.595  12.220 -0.1773  0.0174 -0.3184
  735TMC3     C10917   1.921   2.988  12.249 -0.6077 -0.0640  0.3927
  735TMC3     O10918   1.896   3.005  12.132  0.7597 -0.2879  0.9430
  735TMC3     H10919   1.694   2.898  12.161 -2.0936 -1.5643  0.9592
  735TMC3    H110920   2.019   2.786  12.418  0.1195 -0.9305 -0.0685
  735TMC3    H210921   1.827   2.495  12.178 -0.2873 -0.5337  0.9853
  735TMC3    C710922   2.017   2.542  12.365 -0.7375  0.4202  0.2747
  735TMC3    C810923   1.778   2.683  12.014  0.8091  0.6848 -0.3090
  735TMC3    O110924   2.132   2.581  12.379 -0.4391  1.0488  0.1847
  735TMC3    O210925   1.794   2.566  11.974 -0.0783 -0.3059 -0.3812
  736MPD2     C10926   1.983   2.199  12.482 -0.2879  0.0762  0.0050
  736MPD2    C110927   2.036   2.311  12.421 -0.1818  0.8497 -0.0179
  736MPD2    C210928   2.161   2.297  12.365 -0.2121  0.7862  0.2156
  736MPD2    C310929   2.237   2.182  12.384 -0.6145  0.0466  0.3716
  736MPD2    C410930   2.191   2.087  12.474  0.2170 -0.0065  0.1460
  736MPD2    C510931   2.060   2.092  12.517 -0.0920  0.5522 -0.0378
  736MPD2     H10932   2.205   2.365  12.293 -0.7237 -0.0432 -0.8745
  736MPD2    H110933   2.259   2.006  12.501 -0.7452 -1.0376 -0.5349
  736MPD2    H210934   1.883   2.199  12.524 -0.5933 -0.6975 -0.7311
  736MPD2    H310935   2.025   2.017  12.587  0.3500  2.1513  1.8969
  736MPD2     N10936   2.367   2.164  12.334  0.1232 -0.3727 -0.7568
  736MPD2    H510937   2.408   2.072  12.347  1.8064  0.5595  0.5621
  736MPD2    N110938   1.959   2.423  12.396  0.3463  0.1344  0.0434
  736MPD2    H710939   1.859   2.408  12.402  0.4738 -1.5495 -1.9847
  737TMC3    C110940   2.563   2.204  12.198 -0.1983  0.8022  0.0062
  737TMC3    C210941   2.629   2.306  12.146 -0.7575  0.1873 -0.4940
  737TMC3    C310942   2.697   2.298  12.029 -0.3494 -0.5218  0.1316
  737TMC3    C410943   2.563   2.080  12.139 -0.2219 -0.0826 -0.1293
  737TMC3    C510944   2.647   2.061  12.033 -0.0815  0.0732  0.4815
  737TMC3    C610945   2.706   2.169  11.968 -0.6595 -0.1270  0.1235
  737TMC3     C10946   2.429   2.253  12.246  0.1491  1.0624 -0.2499
  737TMC3     O10947   2.413   2.369  12.212 -0.0867  0.0191 -0.1317
  737TMC3     H10948   2.623   2.403  12.194  0.0995 -0.7044  1.4195
  737TMC3    H110949   2.522   2.002  12.201 -0.5747 -0.1953 -0.5014
  737TMC3    H210950   2.743   2.151  11.868 -3.7748 -0.3763 -1.0076
  737TMC3    C710951   2.687   1.931  11.990 -0.3236  0.0910  0.3491
  737TMC3    C810952   2.670   2.400  11.929  0.0211 -0.2997 -0.5889
  737TMC3    O110953   2.612   1.837  12.016  0.3172 -0.4916  0.5282
  737TMC3    O210954   2.659   2.354  11.818  0.1941 -0.1321 -0.1728
  738MPD2     C10955   3.134   0.366  15.227 -0.5222 -0.1723  0.1416
  738MPD2    C110956   3.074   0.324  15.111 -0.4766  0.4561 -0.3652
  738MPD2    C210957   3.114   0.384  14.991 -0.3065  0.1015  0.3752
  738MPD2    C310958   3.198   0.491  14.988 -0.0646  0.2229 -0.4861
  738MPD2    C410959   3.261   0.529  15.100  0.6163  0.0063  0.3602
  738MPD2    C510960   3.227   0.465  15.219  1.1733 -0.3563 -0.7028
  738MPD2     H10961   3.072   0.349  14.897  1.9298  3.5538 -1.9284
  738MPD2    H110962   3.329   0.614  15.103  2.7432 -1.6885 -0.1451
  738MPD2    H210963   3.116   0.332  15.329  4.2849 -1.8822  0.4419
  738MPD2    H310964   3.264   0.505  15.312 -0.7875 -1.9340  0.7398
  738MPD2     N10965   3.225   0.557  14.872 -0.0215 -0.3051 -0.2144
  738MPD2    H510966   3.310   0.613  14.877  0.1518 -0.5701 -0.1915
  738MPD2    N110967   2.981   0.223  15.108 -0.3058 -0.2615  0.5374
  738MPD2    H710968   2.954   0.203  15.012  0.6823 -1.3081  0.4824
  739TMC3    C110969   3.235   0.611  14.646  0.5676  0.3524 -0.7456
  739TMC3    C210970   3.187   0.589  14.522  0.0023 -0.2111 -0.2482
  739TMC3    C310971   3.224   0.689  14.433 -0.6315 -0.5853  0.6086
  739TMC3    C410972   3.300   0.726  14.689 -0.0030  0.3123  0.4173
  739TMC3    C510973   3.330   0.828  14.593  0.5184 -0.1855  0.2859
  739TMC3    C610974   3.289   0.803  14.463  0.2552  0.4147  0.4415
  739TMC3     C10975   3.167   0.535  14.745 -0.1366 -0.6447 -0.4636
  739TMC3     O10976   3.096   0.441  14.706  0.0278 -0.3102  0.3135
  739TMC3     H10977   3.141   0.495  14.493  0.2097 -0.7217  1.0633
  739TMC3    H110978   3.317   0.754  14.793  1.1384  0.8040  0.0933
  739TMC3    H210979   3.295   0.881  14.388 -2.4186 -0.8058 -1.0348
  739TMC3    C710980   3.351   0.963  14.642  0.1671  0.0421 -0.3401
  739TMC3    C810981   3.156   0.685  14.305 -0.0280 -0.2029 -0.4149
  739TMC3    O110982   3.354   0.974  14.761 -0.3456  0.1665  0.1929
  739TMC3    O210983   3.038   0.656  14.304  0.3631  0.0428  0.0830
  740TMC3    C110984   3.898   1.724  14.313 -0.3677  0.4969 -0.1717
  740TMC3    C210985   3.894   1.706  14.449 -0.1115  0.2870 -0.3190
  740TMC3    C310986   4.011   1.722  14.516  0.4277 -0.0127  0.8173
  740TMC3    C410987   4.014   1.746  14.245 -0.2968  0.1283  0.0465
  740TMC3    C510988   4.133   1.753  14.317  0.2235  0.1389 -0.0683
  740TMC3    C610989   4.134   1.729  14.455 -0.1147 -0.1386  0.5224
  740TMC3     C10990   3.777   1.751  14.241 -0.1531  0.0659 -0.7768
  740TMC3     O10991   3.786   1.777  14.121  0.1025  0.4862 -0.2551
  740TMC3     H10992   3.812   1.659  14.501  0.1047  0.8518  0.5415
  740TMC3    H110993   4.012   1.766  14.139  1.1693 -2.1346 -0.3950
  740TMC3    H210994   4.225   1.716  14.513  0.0138  0.9700  0.5630
  740TMC3    C710995   4.255   1.717  14.246 -0.4080 -0.1590 -0.1217
  740TMC3    C810996   4.023   1.695  14.656 -0.1688 -0.5252 -0.3629
  740TMC3    O110997   4.333   1.650  14.310  0.1837 -0.4076 -0.7444
  740TMC3    O210998   4.128   1.705  14.708  0.0948  0.6545 -0.3053
  741TMC3    C110999   3.242   1.141  13.756 -0.3700 -0.0977 -0.3561
  741TMC3    C211000   3.109   1.158  13.796 -0.4380 -0.5489 -0.0757
  741TMC3    C311001   3.077   1.139  13.927 -0.3362  0.3948 -0.2033
  741TMC3    C411002   3.342   1.115  13.850  0.1913  0.3088  0.0853
  741TMC3    C511003   3.297   1.095  13.979 -0.3516  0.4571 -0.0476
  741TMC3    C611004   3.166   1.108  14.024  0.8849  0.5202 -0.2557
  741TMC3     C11005   3.269   1.168  13.613 -0.7385 -0.7471  0.5221
  741TMC3     O11006   3.173   1.154  13.538  0.5586  0.3806  0.4231
  741TMC3     H11007   3.029   1.167  13.723  3.1850  1.9804 -3.7074
  741TMC3    H111008   3.444   1.092  13.822 -0.1750  0.6858 -1.5727
  741TMC3    H211009   3.140   1.109  14.129  0.8389  0.1561 -0.2628
  741TMC3    C711010   3.396   1.064  14.085 -0.4372 -0.4027  0.0049
  741TMC3    C811011   2.937   1.109  13.946  0.0649  0.2622  0.0183
  741TMC3    O111012   3.360   1.021  14.196  0.0073  0.2363  0.2438
  741TMC3    O211013   2.854   1.130  13.856  0.1960 -0.2337  0.4048
  742TMC3    C111014   3.197   4.347  15.255 -0.0606 -0.6624 -0.6244
  742TMC3    C211015   3.144   4.335  15.129  0.3949  0.2776  0.1201
  742TMC3    C311016   3.175   4.215  15.060 -0.3640  0.0935  0.4095
  742TMC3    C411017   3.284   4.255  15.307 -0.3002  0.4087  0.2010
  742TMC3    C511018   3.311   4.138  15.244 -0.2679  0.0793  0.1093
  742TMC3    C611019   3.254   4.116  15.121  0.1978  0.0427  0.0525
  742TMC3     C11020   3.185   4.475  15.326 -0.7713 -0.3938 -0.0069
  742TMC3     O11021   3.153   4.570  15.251  0.4065  0.2140 -0.1233
  742TMC3     H11022   3.053   4.393  15.113  0.9764  0.8879 -0.9359
  742TMC3    H111023   3.330   4.276  15.403 -0.2510 -1.7740  0.6554
  742TMC3    H211024   3.277   4.028  15.061  1.6162  0.0821  0.5575
  742TMC3    C711025   3.428   4.055  15.281  0.0766 -0.0397  0.1206
  742TMC3    C811026   3.101   4.187  14.936  0.5130  0.1005  0.6583
  742TMC3    O111027   3.434   3.950  15.215 -0.3464  0.0492 -0.9028
  742TMC3    O211028   3.076   4.076  14.904 -0.1443 -0.0853 -0.7873
  743MPD2     C11029   0.473   1.018   1.383  0.1633  0.0121 -0.0871
  743MPD2    C111030   0.590   0.990   1.315  0.4374 -0.1438  0.2597
  743MPD2    C211031   0.674   0.895   1.376 -1.0565  0.1424  0.6607
  743MPD2    C311032   0.633   0.822   1.488 -0.9488  0.3409 -0.0442
  743MPD2    C411033   0.509   0.837   1.534  0.1492 -0.0324 -0.0849
  743MPD2    C511034   0.431   0.938   1.490 -0.0530 -0.1706 -0.2099
  743MPD2     H11035   0.762   0.859   1.323 -0.5186  1.9049  0.3457
  743MPD2    H111036   0.459   0.766   1.600  0.8771  0.4466  0.9879
  743MPD2    H211037   0.393   1.075   1.338 -0.1738 -0.0851  0.3870
  743MPD2    H311038   0.326   0.956   1.513 -0.0936 -0.6126 -0.0395
  743MPD2     N11039   0.719   0.715   1.515 -0.0289 -0.4981 -0.5668
  743MPD2    H511040   0.809   0.714   1.469  1.3267 -0.4668  2.1065
  743MPD2    N111041   0.605   1.053   1.188 -0.2256 -0.0421 -0.3490
  743MPD2    H711042   0.527   1.111   1.158 -1.3543 -1.1925  0.3768
  744TMC3    C111043   0.688   1.070   0.964 -0.2826 -0.3867  0.8594
  744TMC3    C211044   0.652   1.205   0.950 -0.7666 -0.6429  0.3713
  744TMC3    C311045   0.705   1.262   0.835 -0.2781 -0.7334  0.0499
  744TMC3    C411046   0.767   1.002   0.876  0.2284 -0.1262 -0.4255
  744TMC3    C511047   0.810   1.068   0.761 -0.0574 -0.1907  0.1073
  744TMC3    C611048   0.781   1.199   0.741  0.0192 -0.4994 -1.0395
  744TMC3     C11049   0.702   1.023   1.099 -0.7806 -0.7960 -0.0259
  744TMC3     O11050   0.791   0.940   1.116 -0.0910 -0.3512 -0.0645
  744TMC3     H11051   0.621   1.267   1.033  0.6714  1.5925 -0.7816
  744TMC3    H111052   0.810   0.905   0.898  0.9352  0.0794 -0.9197
  744TMC3    H211053   0.808   1.241   0.645 -0.3677  0.5547 -0.6910
  744TMC3    C711054   0.887   0.999   0.665 -0.0379  0.6901 -0.3157
  744TMC3    C811055   0.642   1.378   0.788  1.4394  0.0121 -0.5232
  744TMC3    O111056   0.982   1.049   0.607 -0.1042 -0.6658 -0.7241
  744TMC3    O211057   0.672   1.416   0.677  0.3002 -0.0337  0.4830
  745TMC3    C111058   3.082   4.091  13.760  0.0630 -0.5173  0.2199
  745TMC3    C211059   2.962   4.038  13.800  0.5531  0.2586 -0.1480
  745TMC3    C311060   2.840   4.102  13.766 -0.6572 -0.0238 -0.3916
  745TMC3    C411061   3.082   4.169  13.648  1.1174  0.2943  0.8021
  745TMC3    C511062   2.955   4.204  13.595 -0.4077 -0.2656 -0.0732
  745TMC3    C611063   2.834   4.185  13.659 -0.2205  0.0162  0.6317
  745TMC3     C11064   3.173   4.141  13.864  0.7233  0.0305 -0.4937
  745TMC3     O11065   3.167   4.083  13.970  0.0162  0.5118  0.0252
  745TMC3     H11066   2.953   3.974  13.887 -0.1910  1.2767  0.5223
  745TMC3    H111067   3.177   4.182  13.597  0.7339  0.0291  0.0123
  745TMC3    H211068   2.742   4.235  13.632 -0.5085 -0.7681  0.1473
  745TMC3    C711069   2.958   4.292  13.483  0.2066  0.4927  0.0660
  745TMC3    C811070   2.773   4.156  13.878  0.0932 -0.2490  1.0265
  745TMC3    O111071   2.850   4.320  13.440 -0.4798 -0.2483 -0.3628
  745TMC3    O211072   2.657   4.193  13.870 -0.1383 -0.7454  0.5843
  746TMC3    C111073   1.201   1.987  11.068 -0.4600 -0.0458  0.3381
  746TMC3    C211074   1.290   2.008  10.967 -0.5806  0.6881  0.2567
  746TMC3    C311075   1.317   1.895  10.893  0.5017  1.1715 -0.9337
  746TMC3    C411076   1.147   1.860  11.102 -0.1198 -0.2562  0.2728
  746TMC3    C511077   1.178   1.756  11.014  0.1931 -0.0699  0.1934
  746TMC3    C611078   1.264   1.771  10.911 -0.4329  0.6822 -0.3011
  746TMC3     C11079   1.187   2.100  11.157 -0.7291 -0.3714  0.8139
  746TMC3     O11080   1.151   2.074  11.269 -0.0761  0.1086  0.3479
  746TMC3     H11081   1.332   2.101  10.931  1.7810 -0.1327  0.8389
  746TMC3    H111082   1.065   1.857  11.174 -0.6838  1.5205 -0.3076
  746TMC3    H211083   1.305   1.680  10.868  0.5679  0.3323  1.4004
  746TMC3    C711084   1.062   1.668  10.982 -0.1527  0.3112  0.2833
  746TMC3    C811085   1.354   1.905  10.749  0.9488 -0.0016 -0.2313
  746TMC3    O111086   1.040   1.647  10.868  0.0325  0.3907  0.6624
  746TMC3    O211087   1.417   1.806  10.707  0.1454 -0.2676  0.1168
  747TMC3    C111088   3.343   1.943  11.192 -0.2097  0.0913  0.4441
  747TMC3    C211089   3.266   1.850  11.253 -0.0571 -0.0081 -0.0090
  747TMC3    C311090   3.236   1.867  11.387 -0.2743  0.5150  0.3609
  747TMC3    C411091   3.380   2.065  11.246  0.9622  0.1678 -0.2814
  747TMC3    C511092   3.351   2.077  11.384  0.1181 -0.5904  0.3262
  747TMC3    C611093   3.279   1.981  11.455 -0.2523  0.3314 -0.0905
  747TMC3     C11094   3.402   1.932  11.054  0.3251  0.3646 -0.4058
  747TMC3     O11095   3.468   2.032  11.026 -0.1648  0.4159  0.1611
  747TMC3     H11096   3.232   1.756  11.209  0.0483 -0.8036  1.6050
  747TMC3    H111097   3.437   2.142  11.195  0.9980  0.7160  0.5679
  747TMC3    H211098   3.271   1.998  11.562 -0.8852  0.4682 -0.1564
  747TMC3    C711099   3.338   2.217  11.428  1.0050 -0.2300  0.3169
  747TMC3    C811100   3.129   1.790  11.444 -0.1027 -0.0508 -0.8093
  747TMC3    O111101   3.428   2.253  11.503  0.4079 -0.0662  0.4075
  747TMC3    O211102   3.072   1.714  11.370  0.5175  0.3984 -0.1344
  748MPD2     C11103   0.050   2.058   1.132  0.1718 -0.5918 -0.2556
  748MPD2    C111104   0.104   2.182   1.132 -0.6372 -0.3599  0.6274
  748MPD2    C211105   0.238   2.199   1.115 -0.3141  0.2289 -0.0652
  748MPD2    C311106   0.320   2.093   1.082 -0.5075 -0.2105 -0.2952
  748MPD2    C411107   0.260   1.964   1.081 -0.4272  1.0416 -1.0072
  748MPD2    C511108   0.126   1.952   1.108 -0.4717 -0.5191  0.2855
  748MPD2     H11109   0.284   2.297   1.117  0.3363 -0.1571  4.2681
  748MPD2    H111110   0.309   1.870   1.059 -0.2451  0.0196  3.5841
  748MPD2    H211111   4.677   2.048   1.145 -0.0314 -0.4216 -1.8320
  748MPD2    H311112   0.082   1.854   1.093  0.1904 -0.4101 -2.4610
  748MPD2     N11113   0.461   2.103   1.052 -0.0198  0.4735  0.2071
  748MPD2    H511114   0.507   2.194   1.062  2.8072 -1.0353  0.9324
  748MPD2    N111115   0.013   2.290   1.143 -0.4628  0.4740 -0.1801
  748MPD2    H711116   4.650   2.264   1.154 -0.1663 -0.0466  1.1347
  749TMC3    C111117   0.682   2.027   1.010 -0.1662 -0.2418 -0.2892
  749TMC3    C211118   0.777   1.936   1.051 -0.3666 -0.2376 -0.1667
  749TMC3    C311119   0.907   1.966   1.029 -0.6291  0.8684  0.1919
  749TMC3    C411120   0.721   2.150   0.950 -0.7103 -0.1542 -0.1382
  749TMC3    C511121   0.850   2.167   0.915 -0.4500 -0.3875  0.3912
  749TMC3    C611122   0.943   2.081   0.965 -1.0726 -0.7574  0.1266
  749TMC3     C11123   0.539   1.994   1.030  0.6248 -0.4131 -0.2117
  749TMC3     O11124   0.518   1.875   1.054 -0.6123 -0.2461  0.4249
  749TMC3     H11125   0.746   1.845   1.100 -0.1335 -0.2906 -0.1141
  749TMC3    H111126   0.639   2.216   0.923 -1.3706 -1.0358 -0.2875
  749TMC3    H211127   1.047   2.101   0.940 -0.8153  0.2413  1.9537
  749TMC3    C711128   0.901   2.284   0.844  0.3807  0.1569 -0.1837
  749TMC3    C811129   1.007   1.897   1.116  0.2230  0.2527  0.1081
  749TMC3    O111130   0.839   2.387   0.846  0.0451  0.3312  0.1559
  749TMC3    O211131   0.970   1.842   1.221 -0.3324 -0.2635 -0.4131
  750MPD2     C11132   0.941   3.798  11.616 -0.7140 -0.6648 -0.3235
  750MPD2    C111133   0.870   3.724  11.709  0.3022  1.0461  0.1861
  750MPD2    C211134   0.899   3.590  11.723  1.1449 -0.1437  0.6363
  750MPD2    C311135   0.983   3.525  11.629 -0.4424 -0.1559 -0.1883
  750MPD2    C411136   1.027   3.601  11.520 -0.4414 -0.1155 -0.8335
  750MPD2    C511137   1.017   3.735  11.524  0.0292 -0.8459 -0.7068
  750MPD2     H11138   0.845   3.527  11.792  0.5202 -1.7031 -1.2780
  750MPD2    H111139   1.085   3.561  11.438  0.4213 -0.0324 -0.2734
  750MPD2    H211140   0.923   3.904  11.599 -0.1871 -0.6030 -0.4711
  750MPD2    H311141   1.060   3.795  11.444  0.4061 -0.0417  0.1032
  750MPD2     N11142   0.997   3.380  11.619  0.3603  0.0257  0.7754
  750MPD2    H511143   1.034   3.349  11.529 -1.7958  0.6122 -0.3115
  750MPD2    N111144   0.779   3.784  11.795 -0.2386  0.2787  0.6377
  750MPD2    H711145   0.754   3.879  11.769 -2.0931 -0.1674  0.7327
  751TMC3    C111146   0.955   3.156  11.643  0.3841  0.0786 -0.5823
  751TMC3    C211147   0.872   3.068  11.702 -0.9561 -0.1380 -0.0220
  751TMC3    C311148   0.839   2.957  11.627 -0.7638  0.2204 -0.1258
  751TMC3    C411149   1.010   3.142  11.518 -0.4890 -0.5222 -0.3872
  751TMC3    C511150   0.973   3.036  11.447 -0.0836 -0.5852  0.1370
  751TMC3    C611151   0.881   2.946  11.496 -0.5890 -0.3852 -1.1066
  751TMC3     C11152   0.951   3.286  11.708 -0.0988  0.5940 -0.4056
  751TMC3     O11153   0.880   3.306  11.805  0.3564  0.3827  0.1415
  751TMC3     H11154   0.821   3.086  11.795 -2.9764 -0.3307 -1.0902
  751TMC3    H111155   1.081   3.214  11.480 -0.9592 -0.5175 -1.2525
  751TMC3    H211156   0.847   2.858  11.441 -2.3308  0.2423 -1.0277
  751TMC3    C711157   1.010   3.047  11.308 -0.0039  0.4569  0.1357
  751TMC3    C811158   0.744   2.864  11.682 -0.0295  0.6849  0.5053
  751TMC3    O111159   1.071   3.146  11.264 -0.4584 -0.3048  0.2284
  751TMC3    O211160   0.755   2.829  11.800 -0.3138  0.1042  0.2572
  752TMC3    C111161   0.189   3.074  17.420 -0.3143 -0.5322  0.2896
  752TMC3    C211162   0.279   3.138  17.498 -0.5349  0.2452 -0.2292
  752TMC3    C311163   0.230   3.222  17.598  0.2850  0.6659  0.4022
  752TMC3    C411164   0.056   3.084  17.441 -0.0547 -0.4183  0.0636
  752TMC3    C511165   0.011   3.163  17.545 -0.3137  0.6844 -0.4945
  752TMC3    C611166   0.102   3.233  17.629  0.5636 -0.2554  0.0214
  752TMC3     C11167   0.232   3.021  17.298  0.2995 -0.0358  0.2921
  752TMC3     O11168   0.344   2.981  17.292 -0.3798 -0.7685  0.0221
  752TMC3     H11169   0.385   3.113  17.502 -0.6782 -0.2328  0.5747
  752TMC3    H111170   4.718   3.022  17.390  0.7925 -0.0534 -1.5761
  752TMC3    H211171   0.067   3.307  17.701 -1.0152  1.0447 -2.0917
  752TMC3    C711172   4.598   3.155  17.567 -0.8298  0.0852  0.1029
  752TMC3    C811173   0.319   3.312  17.667  0.1511  0.6096 -0.2973
  752TMC3    O111174   4.524   3.100  17.488  0.0512  0.0395 -0.1214
  752TMC3    O211175   0.281   3.334   0.042  0.5934 -0.2443  0.1567
  753TMC3    C111176   1.592   4.334  13.573  0.3431  1.4649 -0.7942
  753TMC3    C211177   1.672   4.300  13.680 -0.2353  0.6859  0.0141
  753TMC3    C311178   1.664   4.168  13.733  1.0263 -1.4319 -0.2307
  753TMC3    C411179   1.514   4.241  13.514 -0.1498 -0.0299  0.5183
  753TMC3    C511180   1.502   4.116  13.566 -0.1160 -0.1875 -0.4371
  753TMC3    C611181   1.579   4.080  13.676 -0.7683 -0.6660  0.2603
  753TMC3     C11182   1.621   4.459  13.501  0.3959 -0.1558 -0.0219
  753TMC3     O11183   1.553   4.480  13.401 -0.2501 -0.4244  0.1389
  753TMC3     H11184   1.742   4.369  13.725 -0.3353  2.3195 -2.3031
  753TMC3    H111185   1.446   4.267  13.433  0.3578 -0.2332  0.0268
  753TMC3    H211186   1.581   3.976  13.705 -0.2381 -1.3421 -2.2216
  753TMC3    C711187   1.414   4.011  13.509  0.2129  0.2749  0.0952
  753TMC3    C811188   1.715   4.141  13.867  0.6864  0.3707 -0.6455
  753TMC3    O111189   1.379   3.928  13.590 -0.3401  0.1089  0.0910
  753TMC3    O211190   1.707   4.021  13.897 -0.5598  0.3930 -0.6918
  754MPD2     C11191   0.914   2.717  12.662 -0.1609  0.2000 -0.4105
  754MPD2    C111192   0.822   2.617  12.703 -0.1226  0.1187 -1.0261
  754MPD2    C211193   0.706   2.663  12.764  0.2073  0.2105 -0.5242
  754MPD2    C311194   0.689   2.802  12.787 -0.2517 -0.3565  0.0152
  754MPD2    C411195   0.789   2.893  12.757  0.1964 -0.1428  0.1971
  754MPD2    C511196   0.893   2.848  12.690 -0.3312 -0.0084  0.1565
  754MPD2     H11197   0.624   2.592  12.777 -0.2939  0.9604  0.3531
  754MPD2    H111198   0.791   3.002  12.761 -0.5436 -0.0713 -1.7969
  754MPD2    H211199   0.993   2.693  12.592  0.6778 -0.2378  0.6952
  754MPD2    H311200   0.956   2.919  12.636 -1.0463  0.7874  0.3682
  754MPD2     N11201   0.574   2.862  12.846  0.9236 -0.4744  0.3436
  754MPD2    H511202   0.558   2.962  12.835 -0.2711 -0.6432  0.5842
  754MPD2    N111203   0.855   2.479  12.671 -0.9729 -0.7040 -0.1626
  754MPD2    H711204   0.927   2.464  12.601  0.1704  2.4088  0.3361
  755MPD2     C11205   4.726   3.511  13.149  0.6114 -0.0494 -0.7843
  755MPD2    C111206   4.675   3.389  13.168  0.0651  0.0192 -0.0869
  755MPD2    C211207   4.726   3.282  13.095 -0.5745  0.3055  0.5084
  755MPD2    C311208   0.092   3.298  13.006 -0.3848  0.2977  0.1762
  755MPD2    C411209   0.153   3.418  12.995 -0.1855  0.3250  0.3056
  755MPD2    C511210   0.094   3.521  13.059  0.1338 -0.0268  0.2304
  755MPD2     H11211   4.676   3.187  13.107  0.7519 -0.5282 -0.6074
  755MPD2    H111212   0.244   3.428  12.936 -0.1650 -0.8813  0.1307
  755MPD2    H211213   4.687   3.601  13.196 -1.9107 -0.4865 -2.0786
  755MPD2    H311214   0.141   3.617  13.044 -1.3990  0.9071  1.3993
  755MPD2     N11215   0.157   3.192  12.936  0.7213  0.5535  0.7079
  755MPD2    H511216   0.242   3.217  12.887  1.4070  0.2672  1.7419
  755MPD2    N111217   4.557   3.374  13.237 -0.1079 -0.4207 -0.4301
  755MPD2    H711218   4.531   3.277  13.234 -0.1628 -0.5003  2.2762
  756MPD2     C11219   0.861   4.393   9.617 -0.5087  0.3739  0.0126
  756MPD2    C111220   0.807   4.303   9.706  0.0767  0.3553 -0.2032
  756MPD2    C211221   0.704   4.227   9.672 -0.1392 -1.2732  0.6128
  756MPD2    C311222   0.640   4.243   9.555  0.0780 -0.0735  0.5387
  756MPD2    C411223   0.697   4.326   9.459  0.1221  0.1017 -0.2370
  756MPD2    C511224   0.805   4.397   9.492  0.0016  0.4101  0.2076
  756MPD2     H11225   0.667   4.163   9.752 -1.5522 -0.3440  0.7043
  756MPD2    H111226   0.655   4.343   9.361 -1.4049 -1.2493  0.1891
  756MPD2    H211227   0.955   4.447   9.630 -2.2594  3.7119 -1.3129
  756MPD2    H311228   0.850   4.468   9.423 -0.2204  1.3078  0.9924
  756MPD2     N11229   0.519   4.169   9.527  1.0004  0.1675 -0.4477
  756MPD2    H511230   0.487   4.111   9.604  0.3358  1.1272 -0.0049
  756MPD2    N111231   0.856   4.289   9.840 -0.2880 -0.0609  0.0266
  756MPD2    H711232   0.822   4.208   9.891  0.1359 -0.9688 -1.1289
  757MPD2     C11233   4.633   3.562   9.951  0.4288 -1.0808 -0.0566
  757MPD2    C111234   4.554   3.667   9.948 -0.1726 -0.0475  0.4560
  757MPD2    C211235   4.593   3.781   9.883  0.5285  0.3258  0.3786
  757MPD2    C311236   4.716   3.777   9.817  0.1570 -0.5964  0.0590
  757MPD2    C411237   0.064   3.668   9.823 -0.4551  0.2181 -0.3424
  757MPD2    C511238   0.017   3.555   9.884  0.1631  0.0468  0.1137
  757MPD2     H11239   4.533   3.871   9.878 -0.0079 -0.0214  0.5927
  757MPD2    H111240   0.149   3.660   9.756 -0.0230  1.6995  0.0275
  757MPD2    H211241   4.600   3.471  10.000 -1.9719  0.1981  0.6898
  757MPD2    H311242   0.066   3.459   9.882  1.4289  0.6941  0.0661
  757MPD2     N11243   0.011   3.882   9.724  0.1074 -0.4451  0.6843
  757MPD2    H511244   4.674   3.947   9.692  1.5036 -0.2173 -1.9465
  757MPD2    N111245   4.425   3.653  10.002 -0.3336 -0.2461 -0.4871
  757MPD2    H711246   4.407   3.554  10.015 -1.5541  0.0054 -0.1687
  758MPD2     C11247   1.025   2.678  15.492 -0.2567  0.2849  0.5829
  758MPD2    C111248   1.043   2.577  15.581  0.3298  0.2061  0.0880
  758MPD2    C211249   0.970   2.565  15.695  0.9992 -0.2566  0.3916
  758MPD2    C311250   0.883   2.667  15.719 -0.1050  0.4293  0.3334
  758MPD2    C411251   0.862   2.767  15.631 -0.1010 -0.0981 -0.2879
  758MPD2    C511252   0.923   2.766  15.509  0.7511 -0.3524  0.0411
  758MPD2     H11253   0.982   2.489  15.771 -1.1754 -1.2417 -0.2671
  758MPD2    H111254   0.794   2.850  15.644 -1.8188 -1.5913  0.2821
  758MPD2    H211255   1.092   2.689  15.408 -1.3150  2.5825  0.0397
  758MPD2    H311256   0.919   2.849  15.440 -0.5528 -0.0483  0.4811
  758MPD2     N11257   0.803   2.675  15.837  0.1659 -0.0527  0.7729
  758MPD2    H511258   0.752   2.762  15.848  1.3149  0.6774  0.3286
  758MPD2    N111259   1.155   2.498  15.557  0.5123  0.0843  0.3860
  758MPD2    H711260   1.203   2.526  15.473  0.8578  1.3784  1.0148
  759MPD2     C11261   4.220   1.642   9.713 -0.1451  0.6415 -0.0906
  759MPD2    C111262   4.263   1.672   9.842 -0.7017  0.0586  0.5363
  759MPD2    C211263   4.310   1.794   9.885  0.1235 -0.0090 -0.2106
  759MPD2    C311264   4.343   1.890   9.787 -0.4668  0.2762 -0.0268
  759MPD2    C411265   4.316   1.858   9.655 -0.4798 -0.0840  0.0929
  759MPD2    C511266   4.252   1.741   9.623  0.4332 -0.2608 -0.1912
  759MPD2     H11267   4.330   1.808   9.991 -2.7753  1.5963  0.1414
  759MPD2    H111268   4.349   1.918   9.572 -0.3324 -1.9489 -1.1919
  759MPD2    H211269   4.183   1.544   9.686  0.5994  0.5171 -0.6636
  759MPD2    H311270   4.233   1.712   9.521  3.0187 -2.8571  0.0463
  759MPD2     N11271   4.411   2.006   9.829 -0.1781  0.0563  0.0419
  759MPD2    H511272   4.418   2.032   9.926 -0.2637 -1.3953  0.4418
  759MPD2    N111273   4.262   1.572   9.936 -0.1612  0.4391  0.4263
  759MPD2    H711274   4.265   1.587  10.037 -1.9290 -2.1405  0.8766
  760MPD2     C11275   3.770   3.583  11.568  1.2145 -0.4742  0.1877
  760MPD2    C111276   3.904   3.602  11.575 -0.1539  0.2652 -0.1780
  760MPD2    C211277   3.991   3.495  11.574  0.9998  1.0062 -0.1540
  760MPD2    C311278   3.949   3.364  11.543  0.4592  0.3366  0.0552
  760MPD2    C411279   3.812   3.345  11.533 -0.3797  0.3738 -0.1759
  760MPD2    C511280   3.732   3.451  11.545 -0.0653  0.1334 -0.4469
  760MPD2     H11281   4.094   3.525  11.590  0.6377  1.5022  1.2783
  760MPD2    H111282   3.770   3.249  11.505  1.6105 -0.4594 -0.3613
  760MPD2    H211283   3.701   3.666  11.575  1.1470 -0.5292  0.1851
  760MPD2    H311284   3.625   3.431  11.545  0.4602 -2.6540 -0.0505
  760MPD2     N11285   4.032   3.249  11.532 -0.9127  0.7139  0.3892
  760MPD2    H511286   3.986   3.168  11.494  1.1228 -0.3624  0.2289
  760MPD2    N111287   3.967   3.722  11.597  0.0522  0.3090 -0.3570
  760MPD2    H711288   4.068   3.719  11.610 -0.4345 -1.3352  3.0137
  761MPD2     C11289   0.264   2.707  11.620  1.1810 -1.0461  0.8142
  761MPD2    C111290   0.324   2.727  11.494 -0.9140  0.4656  0.7202
  761MPD2    C211291   0.453   2.776  11.486  0.1202  0.6005 -0.4352
  761MPD2    C311292   0.523   2.792  11.605  0.2325  0.1543 -0.2245
  761MPD2    C411293   0.472   2.776  11.729 -0.0142 -0.0018  0.1635
  761MPD2    C511294   0.331   2.736  11.733 -0.8387  0.5219  0.8985
  761MPD2     H11295   0.502   2.792  11.390 -1.1242 -0.2453 -1.2223
  761MPD2    H111296   0.528   2.793  11.820 -1.1845  2.3859  0.4433
  761MPD2    H211297   0.163   2.670  11.627  1.1559 -1.3185 -1.2705
  761MPD2    H311298   0.279   2.726  11.828 -2.2366 -1.7105 -0.0954
  761MPD2     N11299   0.658   2.827  11.584 -0.3967 -0.3525 -0.0598
  761MPD2    H511300   0.676   2.856  11.489  0.9582 -0.8458  0.0545
  761MPD2    N111301   0.247   2.704  11.378 -0.8584 -0.2891  0.3345
  761MPD2    H711302   0.162   2.652  11.399 -1.1681  1.0261  2.3422
  762MPD2     C11303   0.588   2.187  10.735 -0.4102 -0.4219  0.2158
  762MPD2    C111304   0.570   2.327  10.764 -1.1461 -0.0928  0.0813
  762MPD2    C211305   0.647   2.414  10.692  0.6068  0.7441 -0.2244
  762MPD2    C311306   0.753   2.374  10.609  0.2253  0.4986  0.2475
  762MPD2    C411307   0.772   2.238  10.594 -0.2431  0.8315 -1.0336
  762MPD2    C511308   0.688   2.147  10.650 -0.0981 -0.2448  0.1982
  762MPD2     H11309   0.627   2.520  10.693 -0.4346  0.5327  0.7931
  762MPD2    H111310   0.847   2.204  10.522  0.9042  0.2444  0.4408
  762MPD2    H211311   0.531   2.105  10.776 -0.8144  0.1233  0.7554
  762MPD2    H311312   0.698   2.040  10.642  1.5098 -0.0396 -0.4293
  762MPD2     N11313   0.816   2.454  10.516  0.0777 -0.7105 -0.3415
  762MPD2    H511314   0.887   2.408  10.460  0.9695 -0.5886  0.6868
  762MPD2    N111315   0.473   2.359  10.864 -0.2570  0.4687  0.1469
  762MPD2    H711316   0.420   2.280  10.899  0.6493  1.0114  2.7099
  763MPD2     C11317   2.674   2.289  16.239 -0.8814  0.0979  0.2368
  763MPD2    C111318   2.719   2.360  16.133 -0.2834  0.2414 -0.5928
  763MPD2    C211319   2.735   2.499  16.146 -0.0661  0.1068 -0.1899
  763MPD2    C311320   2.711   2.561  16.262  0.6018 -0.3511 -0.3232
  763MPD2    C411321   2.658   2.489  16.368  0.7293 -0.5240 -0.2525
  763MPD2    C511322   2.645   2.352  16.356 -0.1337  0.7076  0.2510
  763MPD2     H11323   2.758   2.557  16.057 -2.4459  1.6811  0.2447
  763MPD2    H111324   2.628   2.529  16.464  0.6611 -2.1836  0.4237
  763MPD2    H211325   2.650   2.184  16.225  0.1441 -0.2811  1.3099
  763MPD2    H311326   2.596   2.296  16.435  0.8103 -0.5342 -0.0434
  763MPD2     N11327   2.733   2.702  16.282 -0.5263 -0.4794  0.7369
  763MPD2    H511328   2.757   2.755  16.199  0.1018  0.3669  1.4509
  763MPD2    N111329   2.743   2.298  16.005  0.1605  0.6625  0.2232
  763MPD2    H711330   2.763   2.364  15.930 -3.0995  0.5261 -0.7713
  764MPD2     C11331   1.618   4.050   0.111  0.1186  0.2092  0.6572
  764MPD2    C111332   1.502   4.113   0.057 -1.0692  0.6377  0.2675
  764MPD2    C211333   1.382   4.122   0.124  0.1616 -0.4758 -0.3018
  764MPD2    C311334   1.369   4.057   0.250  0.1882  0.0105 -0.1309
  764MPD2    C411335   1.482   3.999   0.304 -0.1087  0.0672 -0.3896
  764MPD2    C511336   1.601   3.988   0.233  0.2893 -0.2105 -0.5199
  764MPD2     H11337   1.300   4.174   0.077 -0.8225 -0.4616  1.4293
  764MPD2    H111338   1.492   3.960   0.405 -2.5627 -2.0382 -0.9465
  764MPD2    H211339   1.715   4.046   0.063  0.5713 -0.7796  1.6691
  764MPD2    H311340   1.686   3.934   0.274  0.7637  0.4920 -0.5881
  764MPD2     N11341   1.246   4.058   0.320  0.3112 -0.0073 -0.1434
  764MPD2    H511342   1.178   4.120   0.276  1.5965  0.8006 -1.0005
  764MPD2    N111343   1.508   4.188  17.674 -0.4492 -0.3034 -0.0609
  764MPD2    H711344   1.432   4.252  17.656  0.9412  1.5916  0.8335
  765MPD2     C11345   0.761   1.762  15.394  0.0274  0.4415  0.0999
  765MPD2    C111346   0.848   1.807  15.490  0.3042  0.4964  0.5913
  765MPD2    C211347   0.975   1.773  15.478  0.6532 -0.1333  0.2188
  765MPD2    C311348   1.024   1.685  15.379 -1.1597  1.1485  0.7367
  765MPD2    C411349   0.935   1.636  15.290  0.9882 -0.2836 -1.3119
  765MPD2    C511350   0.806   1.682  15.292 -0.1482 -0.0248 -0.0240
  765MPD2     H11351   1.044   1.807  15.554  1.8040  1.1049 -1.3695
  765MPD2    H111352   0.973   1.566  15.216 -0.8407 -3.0724  0.3666
  765MPD2    H211353   0.663   1.803  15.413  0.2230  0.7333  0.4851
  765MPD2    H311354   0.736   1.645  15.218  0.2670  3.5467 -2.1692
  765MPD2     N11355   1.157   1.643  15.395  0.1079 -0.1768  0.5057
  765MPD2    H511356   1.214   1.686  15.467  0.4424  1.1859 -0.5624
  765MPD2    N111357   0.794   1.886  15.594  0.1408 -0.3906  0.5519
  765MPD2    H711358   0.693   1.891  15.600  0.4015  1.0011  3.5282
  766MPD2     C11359   0.108   1.844  15.674 -0.2555  0.6932  0.1869
  766MPD2    C111360   0.239   1.850  15.633  0.4185  0.7573  0.1023
  766MPD2    C211361   0.272   1.778  15.518  0.2950 -0.1307  0.4894
  766MPD2    C311362   0.179   1.710  15.441 -0.3246  0.0159 -0.6349
  766MPD2    C411363   0.042   1.718  15.478 -0.8534  0.1487 -0.0310
  766MPD2    C511364   0.008   1.777  15.598  0.3955 -0.8916 -0.1722
  766MPD2     H11365   0.374   1.788  15.482 -0.3451  2.8282 -0.4988
  766MPD2    H111366   4.696   1.690  15.411  0.5540 -0.2513 -1.5910
  766MPD2    H211367   0.075   1.898  15.762  1.3878  1.2047  0.4754
  766MPD2    H311368   4.638   1.794  15.621  1.1990  0.7755  2.3460
  766MPD2     N11369   0.217   1.659  15.319  0.4677  0.0884  0.4478
  766MPD2    H511370   0.142   1.627  15.258 -1.4161 -0.1549  2.8652
  766MPD2    N111371   0.330   1.930  15.693  0.3031  0.1630 -0.1967
  766MPD2    H711372   0.300   1.982  15.775 -1.6674  0.8215 -1.3370
  767MPD2     C11373   4.526   1.802  15.207  0.2823 -0.0948 -0.2845
  767MPD2    C111374   4.628   1.866  15.144  0.3357 -0.1632  0.3226
  767MPD2    C211375   4.639   1.853  15.004 -0.5480 -0.4276  0.3453
  767MPD2    C311376   4.553   1.772  14.939 -0.2521 -0.4882 -0.6277
  767MPD2    C411377   4.447   1.714  14.996 -0.2228 -0.3112  0.4409
  767MPD2    C511378   4.435   1.727  15.130 -0.1506 -0.0772  0.4716
  767MPD2     H11379   4.723   1.891  14.948  0.3820 -1.3573  1.1043
  767MPD2    H111380   4.368   1.665  14.941  0.6152 -2.7177  1.3802
  767MPD2    H211381   4.507   1.805  15.314 -0.3601 -0.5082 -0.3861
  767MPD2    H311382   4.361   1.675  15.189  0.5969 -1.8068 -0.0811
  767MPD2     N11383   4.556   1.771  14.796 -0.2966 -0.1058 -0.1934
  767MPD2    H511384   4.598   1.854  14.755  0.5186  0.3238  1.4987
  767MPD2    N111385   4.722   1.935  15.230  0.1050  0.0293 -0.8188
  767MPD2    H711386   4.701   1.950  15.328  2.0984 -1.8431 -0.1086
  768MPD2     C11387   0.947   1.721  10.429  1.3334 -0.2346  0.0953
  768MPD2    C111388   0.920   1.585  10.450 -0.6631  0.0781 -0.0480
  768MPD2    C211389   1.012   1.494  10.499 -0.8290 -0.5398  0.1341
  768MPD2    C311390   1.137   1.553  10.532  1.0348  0.4208 -0.0286
  768MPD2    C411391   1.167   1.686  10.498 -0.0443 -0.1619 -0.2677
  768MPD2    C511392   1.073   1.772  10.454  0.6375 -0.1737  0.1636
  768MPD2     H11393   0.979   1.393  10.518  0.1645 -1.1447 -1.3471
  768MPD2    H111394   1.270   1.717  10.507  0.1554 -1.3079  1.4696
  768MPD2    H211395   0.876   1.787  10.383  1.7896 -1.3324 -2.2004
  768MPD2    H311396   1.095   1.875  10.430  0.1071  0.0929  0.8260
  768MPD2     N11397   1.228   1.484  10.614  0.2487 -0.2974 -0.4057
  768MPD2    H511398   1.322   1.518  10.636  0.4038 -0.3905 -0.9162
  768MPD2    N111399   0.787   1.537  10.439 -0.7279 -0.2263  0.0405
  768MPD2    H711400   0.776   1.437  10.449 -0.0102 -0.2937  0.1439
  769MPD2     C11401   1.480   3.655  14.552 -0.6223 -0.2711 -1.1314
  769MPD2    C111402   1.501   3.567  14.653  0.4359  0.4210 -0.4902
  769MPD2    C211403   1.560   3.619  14.768 -0.4222  0.2501  1.0152
  769MPD2    C311404   1.594   3.754  14.773  0.0715 -0.1580  0.6018
  769MPD2    C411405   1.561   3.840  14.673 -0.0935  0.5038  0.2924
  769MPD2    C511406   1.501   3.787  14.561 -0.1818  0.0297  0.1880
  769MPD2     H11407   1.561   3.555  14.855 -0.2318 -0.6945  0.3260
  769MPD2    H111408   1.576   3.947  14.678 -0.5989  0.6640 -1.7291
  769MPD2    H211409   1.420   3.629  14.465 -1.6238 -0.7976 -0.2736
  769MPD2    H311410   1.463   3.854  14.484  0.0675  0.5194  0.4927
  769MPD2     N11411   1.652   3.794  14.892 -0.0003  0.7829  0.4868
  769MPD2    H511412   1.676   3.721  14.958  0.1694 -0.6758 -1.1933
  769MPD2    N111413   1.461   3.434  14.629  0.5738  0.1301  0.2803
  769MPD2    H711414   1.387   3.414  14.562  2.5804 -2.3160 -1.2321
  770MPD2     C11415   1.543   2.351  14.741  0.3976  0.1411 -0.0051
  770MPD2    C111416   1.422   2.375  14.690  0.9569  0.2335 -0.5213
  770MPD2    C211417   1.368   2.503  14.683 -0.3396 -0.4288  0.0268
  770MPD2    C311418   1.447   2.607  14.725 -0.1518 -0.3156  0.4785
  770MPD2    C411419   1.567   2.584  14.784  0.4069 -0.1993 -0.3323
  770MPD2    C511420   1.617   2.455  14.796  0.5400  0.4106 -0.1683
  770MPD2     H11421   1.267   2.512  14.644 -0.5177 -2.8133 -0.0753
  770MPD2    H111422   1.625   2.654  14.843  0.1089  0.5970 -0.9796
  770MPD2    H211423   1.586   2.252  14.756  1.0680  0.5589  0.8211
  770MPD2    H311424   1.703   2.430  14.857  0.2330  1.6365  0.7898
  770MPD2     N11425   1.398   2.740  14.723  0.2365 -0.2832  0.9962
  770MPD2    H511426   1.298   2.749  14.712  0.4933  1.2663 -0.0093
  770MPD2    N111427   1.351   2.262  14.645  0.1257  0.0619 -0.3829
  770MPD2    H711428   1.395   2.171  14.650 -1.4496 -0.6583  0.5024
  771MPD2     C11429   2.354   1.554  13.708  0.0843 -0.7897 -0.3646
  771MPD2    C111430   2.302   1.682  13.695  0.1557 -0.5817 -0.4295
  771MPD2    C211431   2.173   1.697  13.655  0.1807  0.6398  0.8621
  771MPD2    C311432   2.112   1.589  13.599  0.1341 -0.5406 -0.0031
  771MPD2    C411433   2.163   1.461  13.612  0.6199 -0.1128 -0.6850
  771MPD2    C511434   2.287   1.449  13.671 -0.1623 -0.5824  0.5036
  771MPD2     H11435   2.139   1.799  13.656  0.0218  0.5984 -0.3770
  771MPD2    H111436   2.116   1.373  13.571 -0.1097 -0.3987  0.7923
  771MPD2    H211437   2.453   1.546  13.752  0.0308  0.8552  0.0436
  771MPD2    H311438   2.332   1.352  13.688  2.2057  0.2074 -1.3044
  771MPD2     N11439   1.980   1.609  13.545  0.0001 -0.0542 -0.7205
  771MPD2    H511440   1.956   1.706  13.566 -1.5550 -0.1294 -2.1418
  771MPD2    N111441   2.377   1.801  13.711  0.1911  0.0911  0.1003
  771MPD2    H711442   2.331   1.892  13.704  0.1897  0.0401 -0.6102
  772MPD2     C11443   2.180   2.341  14.022  0.3794  0.3126 -0.0270
  772MPD2    C111444   2.159   2.250  13.928 -0.3069  0.6926  0.0186
  772MPD2    C211445   2.033   2.202  13.910 -0.2738 -0.1240  0.7420
  772MPD2    C311446   1.933   2.235  13.995 -0.6568 -0.2181  0.1163
  772MPD2    C411447   1.960   2.325  14.098  0.2485  0.5553  0.1790
  772MPD2    C511448   2.085   2.377  14.107  0.6140 -0.2990  0.1862
  772MPD2     H11449   2.018   2.136  13.826  2.0909 -0.6786  0.7571
  772MPD2    H111450   1.892   2.348  14.179 -0.2274 -0.0216 -0.0528
  772MPD2    H211451   2.281   2.376  14.042  0.2997  0.2562  0.4563
  772MPD2    H311452   2.108   2.453  14.181  0.3726 -0.4739  0.4405
  772MPD2     N11453   1.804   2.174  13.987 -0.2604  0.3626 -0.3907
  772MPD2    H511454   1.743   2.201  14.063 -2.2749 -1.3917 -1.3644
  772MPD2    N111455   2.264   2.210  13.847 -0.6586  1.1407 -0.6301
  772MPD2    H711456   2.248   2.144  13.771 -0.8875 -1.9112  2.0645
  773MPD2     C11457   1.565   2.915  17.644 -0.2245 -0.1886  0.4290
  773MPD2    C111458   1.485   2.813  17.580  0.3543  0.5998  0.3696
  773MPD2    C211459   1.513   2.685  17.618 -0.6409  0.0626 -0.7023
  773MPD2    C311460   1.620   2.652  17.701  0.3490 -0.4099 -0.6900
  773MPD2    C411461   1.695   2.752   0.011 -0.3899 -0.3991 -0.2838
  773MPD2    C511462   1.663   2.879  17.732 -0.5191 -0.4841  0.0856
  773MPD2     H11463   1.457   2.596  17.590 -0.0705 -0.8779  1.0904
  773MPD2    H111464   1.780   2.725   0.072 -0.9657 -0.3381  0.5343
  773MPD2    H211465   1.550   3.021  17.625  0.0232 -0.1360  0.5245
  773MPD2    H311466   1.719   2.953   0.049 -1.7759  0.4251  0.1296
  773MPD2     N11467   1.645   2.508  17.717  0.5215 -0.0192  0.0461
  773MPD2    H511468   1.580   2.446  17.669  1.6268 -0.2210 -1.1983
  773MPD2    N111469   1.377   2.838  17.491  0.7457  0.8399  0.3120
  773MPD2    H711470   1.327   2.760  17.449  0.3239  0.7721  0.9371
  774MPD2     C11471   0.146   1.954  13.292  0.4802  0.2063 -0.2751
  774MPD2    C111472   0.250   2.014  13.362 -0.8143 -0.6287  0.1706
  774MPD2    C211473   0.329   2.109  13.313 -0.0876  0.1933 -0.1894
  774MPD2    C311474   0.317   2.130  13.175  1.0111  0.2163  0.6392
  774MPD2    C411475   0.214   2.069  13.101 -0.5712 -0.2651  0.1166
  774MPD2    C511476   0.122   1.995  13.166 -0.1116  0.8866  0.0885
  774MPD2     H11477   0.404   2.163  13.369 -0.2422 -1.5610  1.7162
  774MPD2    H111478   0.197   2.082  12.995  1.7166 -0.6310 -0.2869
  774MPD2    H211479   0.081   1.882  13.339  2.7280 -0.4052  1.9139
  774MPD2    H311480   0.040   1.954  13.107  1.8269 -1.3696 -1.0398
  774MPD2     N11481   0.412   2.220  13.121  0.3768 -0.0253 -0.1465
  774MPD2    H511482   0.483   2.244  13.190 -1.0675 -0.9355  1.6325
  774MPD2    N111483   0.261   1.966  13.498  0.4747  0.2806  0.2966
  774MPD2    H711484   0.203   1.887  13.522 -0.0678  1.3364  2.3973
  775MPD2     C11485   1.871   3.175  15.408 -0.4340 -0.3709 -0.1676
  775MPD2    C111486   1.986   3.156  15.483 -0.6193 -0.1081  0.1596
  775MPD2    C211487   2.104   3.215  15.438  0.3885  0.4515  0.2691
  775MPD2    C311488   2.105   3.284  15.314 -0.4427  0.3159 -0.1830
  775MPD2    C411489   1.984   3.293  15.242  0.4353 -0.1472  0.5449
  775MPD2    C511490   1.872   3.237  15.287  0.5426  0.3067  0.0181
  775MPD2     H11491   2.196   3.217  15.496  0.3349 -1.1156  0.3984
  775MPD2    H111492   1.984   3.345  15.147 -0.5370 -2.3445 -0.6505
  775MPD2    H211493   1.779   3.124  15.435 -0.9879  0.1532 -1.0707
  775MPD2    H311494   1.791   3.228  15.216  0.0831  1.2922  0.4242
  775MPD2     N11495   2.212   3.354  15.261 -0.6008 -0.5916  0.5032
  775MPD2    H511496   2.202   3.414  15.180 -0.0911  0.9885  1.5965
  775MPD2    N111497   1.973   3.086  15.607 -0.3333 -0.3068  0.2904
  775MPD2    H711498   1.884   3.044  15.634 -0.0094 -0.5737  0.9318
  776MPD2     C11499   4.705   3.924  11.822  0.1660 -0.0891  0.5092
  776MPD2    C111500   0.095   3.979  11.811  0.8606 -0.1342 -0.4837
  776MPD2    C211501   0.099   4.114  11.806 -0.0171 -0.0331  0.6343
  776MPD2    C311502   4.716   4.194  11.801 -0.0882  0.8675 -0.2473
  776MPD2    C411503   4.592   4.135  11.815 -0.2300  0.3787  0.2117
  776MPD2    C511504   4.587   4.000  11.823 -0.2790 -0.3534  0.5254
  776MPD2     H11505   0.195   4.159  11.780 -1.6457  2.6873 -0.6202
  776MPD2    H111506   4.497   4.187  11.814 -0.7027 -0.4802  0.2206
  776MPD2    H211507   4.683   3.818  11.828 -0.1320  0.0247  1.4195
  776MPD2    H311508   4.498   3.940  11.835  0.2877 -1.0287  1.4218
  776MPD2     N11509   4.725   4.341  11.792 -0.7614  0.1682 -1.0200
  776MPD2    H511510   4.637   4.392  11.802 -0.1754  1.7371 -3.7126
  776MPD2    N111511   0.205   3.889  11.803 -0.4675 -0.6077  0.8703
  776MPD2    H711512   0.189   3.793  11.829 -0.2071 -0.6159  0.9970
  777MPD2     C11513   1.786   1.486   0.361 -0.4085  0.7195  0.2725
  777MPD2    C111514   1.767   1.407   0.465 -0.2688 -0.0890  0.5098
  777MPD2    C211515   1.726   1.276   0.444 -0.2542  0.1716 -0.0884
  777MPD2    C311516   1.694   1.231   0.315 -0.7155 -0.1529 -0.0469
  777MPD2    C411517   1.712   1.314   0.215 -0.6381  0.2551 -0.2071
  777MPD2    C511518   1.766   1.440   0.236 -0.0373 -0.9237  0.5567
  777MPD2     H11519   1.710   1.211   0.530 -3.3165  1.2122  0.1545
  777MPD2    H111520   1.687   1.296   0.111  1.7724  2.7705 -1.2207
  777MPD2    H211521   1.823   1.588   0.366 -0.0157  0.5631  0.4957
  777MPD2    H311522   1.794   1.498   0.149  1.5476 -2.8731 -0.2309
  777MPD2     N11523   1.644   1.101   0.300  0.1140  0.5898  0.3397
  777MPD2    H511524   1.606   1.056   0.383 -1.4949  0.3154 -0.5407
  777MPD2    N111525   1.795   1.467   0.590  0.0207 -0.2141  0.4679
  777MPD2    H711526   1.799   1.567   0.604 -0.0222 -0.2656  0.8636
  778MPD2     C11527   2.989   1.952  14.317  0.6358 -0.3235  0.0237
  778MPD2    C111528   2.904   1.849  14.276  0.7003 -0.9782 -0.5560
  778MPD2    C211529   2.890   1.826  14.142  0.1146  0.2887  0.3424
  778MPD2    C311530   2.948   1.906  14.048  0.5920  0.3606 -0.1829
  778MPD2    C411531   3.025   2.010  14.089 -0.4698  0.0745  0.1985
  778MPD2    C511532   3.047   2.026  14.223 -0.2379 -0.4897  0.3181
  778MPD2     H11533   2.826   1.752  14.095  0.9703 -0.2394 -0.0065
  778MPD2    H111534   3.088   2.074  14.028 -1.1513 -0.9338 -1.5626
  778MPD2    H211535   3.011   1.976  14.421 -0.1156  2.2181 -0.3917
  778MPD2    H311536   3.106   2.109  14.261 -0.5142  1.3807 -3.4068
  778MPD2     N11537   2.937   1.880  13.909  0.0444  0.3533  0.4109
  778MPD2    H511538   2.883   1.795  13.892  0.9293  0.0132 -0.7041
  778MPD2    N111539   2.839   1.762  14.365 -0.1472  0.2537 -1.2954
  778MPD2    H711540   2.779   1.697  14.317 -0.6681 -0.7393  0.6823
  779MPD2     C11541   1.902   0.434  13.926 -0.3058 -0.0680  0.6100
  779MPD2    C111542   1.959   0.449  14.052  0.5747 -0.6123 -0.3276
  779MPD2    C211543   1.995   0.583  14.084 -0.0528 -0.3852  0.1259
  779MPD2    C311544   1.964   0.688  13.997  0.0697 -0.0017  0.2759
  779MPD2    C411545   1.900   0.658  13.881 -0.0042 -0.0046  0.3307
  779MPD2    C511546   1.871   0.532  13.844  0.4510  0.3832  0.0693
  779MPD2     H11547   2.060   0.599  14.169  0.4052 -1.9222  0.0633
  779MPD2    H111548   1.885   0.729  13.801 -1.4539 -1.0543 -0.3315
  779MPD2    H211549   1.878   0.334  13.890 -0.1175  0.3712 -0.7209
  779MPD2    H311550   1.830   0.511  13.747  1.7731 -0.5417 -0.2918
  779MPD2     N11551   2.005   0.817  14.031 -0.1818 -0.0467  0.2858
  779MPD2    H511552   2.083   0.824  14.095 -0.4358  2.3894  0.3225
  779MPD2    N111553   1.983   0.341  14.137  0.2775  0.2315 -0.0220
  779MPD2    H711554   1.980   0.247  14.097 -0.1430  0.0535  0.4220
  780MPD2     C11555   1.931   0.353   0.828  0.2641  0.3658 -0.1021
  780MPD2    C111556   1.849   0.275   0.744 -0.0834  0.1749  0.0289
  780MPD2    C211557   1.872   0.292   0.612  0.3795 -0.0442  0.7179
  780MPD2    C311558   1.972   0.370   0.556 -0.0384  0.9068  0.4026
  780MPD2    C411559   2.062   0.440   0.642  0.4402  0.3493 -1.0498
  780MPD2    C511560   2.036   0.432   0.775  0.1634 -0.5572  0.9906
  780MPD2     H11561   1.812   0.235   0.542  0.4854  1.0019 -0.2192
  780MPD2    H111562   2.143   0.499   0.602  1.2273  0.7169  1.1047
  780MPD2    H211563   1.938   0.337   0.935  0.8327 -0.5179 -0.2707
  780MPD2    H311564   2.099   0.489   0.843 -0.1503  1.1231 -0.1080
  780MPD2     N11565   1.988   0.374   0.419 -0.3793  0.3728 -0.9647
  780MPD2    H511566   1.915   0.325   0.369 -0.7030 -2.4970  2.3379
  780MPD2    N111567   1.759   0.183   0.796 -0.2737  0.2369 -0.5574
  780MPD2    H711568   1.764   0.155   0.894 -1.6409  0.1150 -0.5195
  781MPD2     C11569   4.088   2.667  12.144 -0.7150  0.8023  0.6837
  781MPD2    C111570   3.973   2.589  12.141  0.5367 -0.5159  0.4633
  781MPD2    C211571   3.863   2.642  12.074 -0.0919 -0.3123 -0.5885
  781MPD2    C311572   3.864   2.771  12.026 -0.0334 -0.6123  0.2819
  781MPD2    C411573   3.980   2.846  12.027  0.3367  0.3891  0.3676
  781MPD2    C511574   4.092   2.794  12.083 -0.0768  0.0502  0.3929
  781MPD2     H11575   3.784   2.572  12.050  0.1791 -0.4734 -1.0064
  781MPD2    H111576   3.982   2.938  11.971 -1.5523 -0.1880 -0.6478
  781MPD2    H211577   4.168   2.624  12.203 -0.9020  0.2791  0.5517
  781MPD2    H311578   4.182   2.855  12.083 -0.3474  0.4446  2.4958
  781MPD2     N11579   3.747   2.829  11.970 -0.5119 -0.3661  0.5410
  781MPD2    H511580   3.773   2.920  11.932  2.5768 -1.1660  0.6729
  781MPD2    N111581   3.963   2.463  12.206 -0.7551  0.0885 -0.2971
  781MPD2    H711582   3.879   2.411  12.183 -0.4572  0.5524 -2.4283
  782MPD2     C11583   1.195   3.602  10.222  1.2177 -0.3051 -0.4713
  782MPD2    C111584   1.241   3.569  10.348 -0.5418  0.3112 -1.0726
  782MPD2    C211585   1.285   3.659  10.434  0.7256  0.2798 -0.3835
  782MPD2    C311586   1.293   3.796  10.398  0.2830  0.6399 -0.6518
  782MPD2    C411587   1.242   3.837  10.278  0.3916 -0.4491  0.9737
  782MPD2    C511588   1.187   3.735  10.197 -0.6112 -0.3088  0.8464
  782MPD2     H11589   1.313   3.630  10.534  0.7396  1.4825 -0.0407
  782MPD2    H111590   1.251   3.942  10.253 -0.9242  0.3457  3.8408
  782MPD2    H211591   1.158   3.530  10.150 -0.4215  0.6132 -0.5534
  782MPD2    H311592   1.144   3.752  10.099 -1.4885  4.9550  2.1546
  782MPD2     N11593   1.372   3.883  10.483  0.5276 -0.2317  0.5351
  782MPD2    H511594   1.424   3.837  10.556 -0.3538 -1.2494  0.5203
  782MPD2    N111595   1.266   3.433  10.383  0.5479  0.0858 -0.0109
  782MPD2    H711596   1.324   3.414  10.464 -0.5954 -1.9626  0.3225
  783MPD2     C11597   0.874   2.825  11.049  0.1284 -0.4319  0.2641
  783MPD2    C111598   0.943   2.931  11.099  0.1314 -0.0232 -0.2872
  783MPD2    C211599   1.003   3.019  11.006 -0.0216 -0.4176 -0.2883
  783MPD2    C311600   0.988   2.990  10.872 -0.6038  0.5167 -0.3702
  783MPD2    C411601   0.897   2.892  10.829 -0.1440  0.0341  0.0863
  783MPD2    C511602   0.843   2.810  10.917  0.0923 -0.4344  0.3343
  783MPD2     H11603   1.073   3.094  11.038  0.4129 -0.6422 -0.7160
  783MPD2    H111604   0.867   2.888  10.725 -0.0209  0.7809  0.0244
  783MPD2    H211605   0.833   2.747  11.112 -0.6354  0.0351  0.3453
  783MPD2    H311606   0.771   2.735  10.887 -0.1410 -0.5699  1.2627
  783MPD2     N11607   1.061   3.077  10.788 -0.2507  0.2254 -0.2043
  783MPD2    H511608   1.127   3.139  10.833  0.0493  1.0069 -1.7111
  783MPD2    N111609   0.944   2.949  11.236  0.6769 -0.1489  0.0329
  783MPD2    H711610   0.893   2.882  11.292  0.4136 -1.7829 -2.1494
  784MPD2     C11611   4.226   3.214   0.687 -0.6139 -0.9362 -0.3746
  784MPD2    C111612   4.322   3.307   0.715 -0.4878 -0.1520 -0.2228
  784MPD2    C211613   4.289   3.434   0.673 -0.7063  0.0066 -0.0363
  784MPD2    C311614   4.196   3.466   0.584 -0.0399 -0.4606 -0.0444
  784MPD2    C411615   4.115   3.365   0.542 -0.2493 -0.1226  0.1792
  784MPD2    C511616   4.125   3.240   0.596  0.7902  0.2726 -0.1740
  784MPD2     H11617   4.367   3.509   0.680  0.5724 -1.3558  0.2348
  784MPD2    H111618   4.023   3.377   0.487 -1.1137 -2.1303  1.1910
  784MPD2    H211619   4.218   3.116   0.733 -2.0656  0.1151  1.6567
  784MPD2    H311620   4.046   3.167   0.577 -0.3418  1.3631  0.2920
  784MPD2     N11621   4.190   3.600   0.537  0.0416 -0.8257 -0.4663
  784MPD2    H511622   4.241   3.675   0.582 -1.0380 -0.3286 -0.0636
  784MPD2    N111623   4.438   3.293   0.793 -0.1301 -0.5156  0.4030
  784MPD2    H711624   4.495   3.373   0.818  0.0924 -0.6409  0.2892
  785MPD2     C11625   3.124   2.100  10.362  0.1768 -0.5859  0.1179
  785MPD2    C111626   3.136   2.171  10.480 -0.1935 -0.1020  0.1914
  785MPD2    C211627   3.024   2.208  10.550 -0.0545  0.0845  0.3718
  785MPD2    C311628   2.904   2.182  10.499 -0.0114  0.8938 -0.3867
  785MPD2    C411629   2.889   2.117  10.376  0.1664  0.2881 -0.4129
  785MPD2    C511630   2.999   2.076  10.311  0.2338  0.1455  0.6827
  785MPD2     H11631   3.042   2.273  10.635  0.7996  1.0646 -0.5612
  785MPD2    H111632   2.790   2.107  10.334  0.1203 -3.0282  0.4708
  785MPD2    H211633   3.209   2.057  10.311  1.1070  3.9136 -2.1083
  785MPD2    H311634   2.990   2.021  10.218  2.0122 -0.4375  0.8661
  785MPD2     N11635   2.801   2.241  10.577  0.4540  0.0031  0.5400
  785MPD2    H511636   2.832   2.282  10.665  0.4687  0.1412  0.4709
  785MPD2    N111637   3.259   2.203  10.540  0.5084 -0.4649  0.2538
  785MPD2    H711638   3.259   2.261  10.623  1.4024  0.2556 -0.2440
  786MPD2     C11639   2.695   4.292  14.628  0.1036  0.2400 -0.4694
  786MPD2    C111640   2.775   4.178  14.629 -0.6001  0.0579  0.1433
  786MPD2    C211641   2.880   4.182  14.724  0.6041  0.0622 -0.5017
  786MPD2    C311642   2.917   4.295  14.801  0.2626  0.5961  0.0660
  786MPD2    C411643   2.839   4.406  14.783 -0.0575  0.7163 -0.5752
  786MPD2    C511644   2.728   4.399  14.698  0.2510  0.8489  0.8652
  786MPD2     H11645   2.936   4.089  14.729 -0.9365 -0.8948 -1.0913
  786MPD2    H111646   2.860   4.497  14.838  0.4627 -0.4498  1.1840
  786MPD2    H211647   2.612   4.304  14.561 -2.3608 -1.3966  2.2875
  786MPD2    H311648   2.652   4.476  14.700  0.4467  1.0452  0.7331
  786MPD2     N11649   3.033   4.299  14.890 -0.2947  0.0039 -0.0765
  786MPD2    H511650   3.062   4.380  14.944  1.1034 -0.6572  0.1643
  786MPD2    N111651   2.762   4.068  14.545 -1.2126 -0.1583 -0.0009
  786MPD2    H711652   2.837   4.001  14.554 -0.6027  0.3582 -1.3085
  787MPD2     C11653   3.149   3.618  14.413  0.5556 -0.1403 -0.7691
  787MPD2    C111654   3.133   3.680  14.298  0.1814 -0.3822  0.3115
  787MPD2    C211655   3.207   3.645  14.189 -0.3865 -0.6892 -0.4176
  787MPD2    C311656   3.316   3.558  14.199 -0.0175  0.4294 -0.2480
  787MPD2    C411657   3.343   3.504  14.317 -0.3278  0.5245 -0.9113
  787MPD2    C511658   3.248   3.522  14.417 -0.1159 -0.4026  0.5608
  787MPD2     H11659   3.186   3.692  14.094 -0.6515 -0.6153 -0.3211
  787MPD2    H111660   3.408   3.418  14.328 -0.1734  0.8191  0.4503
  787MPD2    H211661   3.090   3.640  14.501  1.3559 -5.4406  1.0792
  787MPD2    H311662   3.265   3.474  14.512  0.1775  1.4951  1.4584
  787MPD2     N11663   3.389   3.536  14.077 -0.1827 -0.8467 -0.4453
  787MPD2    H511664   3.369   3.601  14.001  0.9978 -0.9929 -0.8837
  787MPD2    N111665   3.022   3.771  14.292  0.0179  0.2245 -0.0921
  787MPD2    H711666   2.966   3.796  14.373  0.3007  2.7576 -0.6958
  788MPD2     C11667   0.367   3.077   1.267 -0.7205 -0.1664  0.4464
  788MPD2    C111668   0.396   3.076   1.130  0.1268 -0.8149 -0.4137
  788MPD2    C211669   0.393   3.200   1.061 -0.6061  0.9481  0.2553
  788MPD2    C311670   0.348   3.314   1.129  0.4460  0.0059 -0.7779
  788MPD2    C411671   0.331   3.316   1.265 -0.1517  0.0120  0.4286
  788MPD2    C511672   0.342   3.196   1.330 -0.0504 -0.3402  0.0938
  788MPD2     H11673   0.412   3.198   0.954 -3.8688  0.5811 -0.3375
  788MPD2    H111674   0.300   3.407   1.316 -0.1863  0.4278 -0.3278
  788MPD2    H211675   0.365   2.989   1.330 -1.0526 -1.5135 -1.4629
  788MPD2    H311676   0.304   3.187   1.431  0.2268 -0.7436  0.1669
  788MPD2     N11677   0.314   3.434   1.059 -0.6604 -0.0761  0.2627
  788MPD2    H511678   0.269   3.508   1.113  0.1587  0.7503 -0.1936
  788MPD2    N111679   0.433   2.958   1.065  0.5280 -0.5294  0.4577
  788MPD2    H711680   0.452   2.952   0.965 -2.5092 -0.0628 -0.1687
  789MPD2     C11681   0.725   2.271  16.550  0.0807 -0.3909  0.3586
  789MPD2    C111682   0.594   2.234  16.535  1.0509  0.4158 -0.1941
  789MPD2    C211683   0.495   2.311  16.586  0.9720 -0.4938  0.3299
  789MPD2    C311684   0.528   2.435  16.647  0.1160 -0.5723 -0.4666
  789MPD2    C411685   0.657   2.468  16.662 -0.8144 -1.0786 -0.0294
  789MPD2    C511686   0.753   2.386  16.615  0.5892 -0.2332  0.1244
  789MPD2     H11687   0.395   2.270  16.587 -0.4268  2.8865  0.4455
  789MPD2    H111688   0.694   2.562  16.701 -1.7749 -0.6831 -0.0641
  789MPD2    H211689   0.814   2.221  16.513  0.2523  0.4882 -0.3992
  789MPD2    H311690   0.848   2.437  16.624  0.9522 -1.2636  2.1192
  789MPD2     N11691   0.431   2.531  16.685 -0.2980 -0.6883  0.4675
  789MPD2    H511692   0.449   2.608  16.749  0.3476  0.3813 -1.0058
  789MPD2    N111693   0.557   2.127  16.460 -0.1107  0.0221 -0.6294
  789MPD2    H711694   0.458   2.110  16.446 -0.5694  2.3236 -0.2265
  790MPD2     C11695   0.993   4.229  13.495  0.6266  0.0149 -0.6260
  790MPD2    C111696   0.994   4.090  13.495  0.7900  0.4680 -0.1820
  790MPD2    C211697   0.959   4.021  13.377 -0.2579 -0.1996 -0.1598
  790MPD2    C311698   0.948   4.093  13.257  0.3575  0.3257  0.0677
  790MPD2    C411699   0.939   4.236  13.261 -0.1833 -0.2084  0.0706
  790MPD2    C511700   0.969   4.300  13.383 -0.0805  0.8546  0.0245
  790MPD2     H11701   0.953   3.913  13.383  1.1237 -0.3151 -0.7623
  790MPD2    H111702   0.909   4.299  13.178  1.2021  0.8396  0.3795
  790MPD2    H211703   1.009   4.284  13.587  0.3285  0.2010 -0.6840
  790MPD2    H311704   0.964   4.408  13.394  1.2352  0.9463 -0.3037
  790MPD2     N11705   0.936   4.018  13.144  0.2878 -0.0741  0.0709
  790MPD2    H511706   0.937   3.918  13.160 -1.0606 -0.0564  0.2191
  790MPD2    N111707   1.021   4.023  13.624  0.2523 -0.5279  0.3332
  790MPD2    H711708   1.051   4.085  13.698  2.9037 -2.3012  0.7565
  791MPD2     C11709   0.331   3.936  13.020  0.1911  0.6411 -0.1779
  791MPD2    C111710   0.394   3.873  12.911  0.8161 -0.3710  0.1011
  791MPD2    C211711   0.320   3.800  12.824  0.0776  0.5552 -0.1117
  791MPD2    C311712   0.182   3.792  12.833  0.4731  0.1347 -0.2725
  791MPD2    C411713   0.121   3.877  12.929  0.3770 -0.4076 -0.1751
  791MPD2    C511714   0.197   3.948  13.017  0.4485 -0.0718 -0.2515
  791MPD2     H11715   0.359   3.753  12.734  0.1060 -1.2583  0.8468
  791MPD2    H111716   0.013   3.868  12.935  0.2292  2.6210  1.1545
  791MPD2    H211717   0.391   3.994  13.089 -0.0458  0.9788 -0.2563
  791MPD2    H311718   0.143   4.012  13.085 -0.1429 -0.5719 -0.2436
  791MPD2     N11719   0.120   3.707  12.747  1.0755 -0.0723  0.3212
  791MPD2    H511720   0.184   3.656  12.686  0.3953 -0.6109  0.0636
  791MPD2    N111721   0.532   3.881  12.893  0.2758  0.5490 -0.4969
  791MPD2    H711722   0.580   3.931  12.968  0.1223  0.5105 -0.3743
  792MPD2     C11723   1.467   4.294  11.309  0.1428 -0.1942 -0.1762
  792MPD2    C111724   1.387   4.365  11.226 -0.3638 -0.5560 -0.2643
  792MPD2    C211725   1.255   4.337  11.230 -0.2322 -0.7138 -0.2600
  792MPD2    C311726   1.214   4.226  11.304 -0.2405 -1.2243 -0.6154
  792MPD2    C411727   1.301   4.151  11.381 -0.2447 -0.5254 -0.2377
  792MPD2    C511728   1.434   4.186  11.389 -0.1707 -0.0584 -0.0806
  792MPD2     H11729   1.185   4.397  11.174 -0.0725  1.0490  1.4478
  792MPD2    H111730   1.269   4.059  11.429 -2.6154  1.2214  1.5546
  792MPD2    H211731   1.572   4.316  11.326 -0.1836 -2.5480  4.8256
  792MPD2    H311732   1.511   4.143  11.452  0.1848  0.0900 -0.4087
  792MPD2     N11733   1.085   4.171  11.291 -0.7734  0.5045  0.1336
  792MPD2    H511734   1.062   4.079  11.327 -0.0540  0.8854  1.5321
  792MPD2    N111735   1.445   4.459  11.145 -0.3131  0.3905 -0.1029
  792MPD2    H711736   1.546   4.454  11.140 -0.4912 -3.9342  0.3955
  793MPD2     C11737   0.519   4.342  10.534  0.0579  0.0414 -0.9149
  793MPD2    C111738   0.647   4.295  10.554 -0.2898 -0.8379 -0.5436
  793MPD2    C211739   0.680   4.252  10.678 -0.6494  0.5999 -0.1399
  793MPD2    C311740   0.586   4.245  10.776  0.1083  0.4094  0.2116
  793MPD2    C411741   0.452   4.283  10.751 -0.0737  0.0205  0.3982
  793MPD2    C511742   0.416   4.331  10.623  0.0550  0.2559 -0.3219
  793MPD2     H11743   0.781   4.225  10.706 -1.1552 -2.9632 -1.7413
  793MPD2    H111744   0.372   4.277  10.824 -0.9680 -1.0668 -0.6793
  793MPD2    H211745   0.489   4.388  10.441 -1.5495 -1.1002 -0.9551
  793MPD2    H311746   0.315   4.359  10.597 -1.0017 -2.9380  0.3207
  793MPD2     N11747   0.635   4.195  10.903  0.0796  0.2512 -0.2735
  793MPD2    H511748   0.735   4.184  10.919  0.1748 -0.4933 -1.3923
  793MPD2    N111749   0.745   4.315  10.458  0.7558  0.2650  0.2747
  793MPD2    H711750   0.842   4.289  10.473  0.7337 -0.5808 -1.1760
  794MPD2     C11751   0.794   3.420  17.208  0.4560 -0.4576 -0.2096
  794MPD2    C111752   0.882   3.360  17.119 -0.3329 -0.1834  0.7244
  794MPD2    C211753   0.911   3.419  16.994  1.2846  0.2702  0.7230
  794MPD2    C311754   0.864   3.543  16.961 -0.1986  0.4174  0.6065
  794MPD2    C411755   0.769   3.605  17.045 -0.2704  0.1767 -0.6477
  794MPD2    C511756   0.737   3.535  17.169 -0.8124 -0.0939  0.2473
  794MPD2     H11757   0.985   3.363  16.938 -0.3674 -2.0293  0.8636
  794MPD2    H111758   0.716   3.695  17.015 -0.0599  0.4117 -0.3133
  794MPD2    H211759   0.769   3.385  17.307 -1.5539 -2.6799 -1.5149
  794MPD2    H311760   0.656   3.575  17.230  0.4841 -0.5420  2.2361
  794MPD2     N11761   0.896   3.611  16.837 -0.3618 -0.0258  0.1841
  794MPD2    H511762   0.877   3.711  16.830  0.8839  0.1386 -0.8431
  794MPD2    N111763   0.954   3.245  17.160 -0.6548 -0.0116  0.0843
  794MPD2    H711764   1.002   3.204  17.081  1.5471 -0.1727  1.5273
  795MPD2     C11765   3.192   0.806  13.385 -0.2919  0.2709  0.0178
  795MPD2    C111766   3.106   0.693  13.400  0.3675 -0.7020  0.2129
  795MPD2    C211767   3.158   0.585  13.462 -0.4361  0.3486  1.0095
  795MPD2    C311768   3.286   0.579  13.516 -0.0967 -0.3790 -0.3992
  795MPD2    C411769   3.375   0.679  13.486  0.0322 -0.0052  0.6977
  795MPD2    C511770   3.324   0.790  13.421  0.5926 -0.3635  0.1853
  795MPD2     H11771   3.094   0.499  13.479  0.2025 -0.2156  0.5832
  795MPD2    H111772   3.481   0.686  13.505  0.3046 -0.4051 -0.6407
  795MPD2    H211773   3.168   0.903  13.342  0.3062  0.8679  1.0294
  795MPD2    H311774   3.391   0.875  13.406 -0.2192  0.5051  1.4796
  795MPD2     N11775   3.324   0.452  13.581 -0.2569 -0.4843 -0.5645
  795MPD2    H511776   3.249   0.384  13.581 -0.6246 -0.0933  1.2115
  795MPD2    N111777   2.975   0.696  13.341  0.2615  0.4026  0.2265
  795MPD2    H711778   2.914   0.617  13.360 -1.3187  0.5965 -4.0018
  796MPD2     C11779   3.472   2.040  15.715  0.3343  0.4097  0.4985
  796MPD2    C111780   3.457   2.141  15.811 -0.6673  0.2482  0.0402
  796MPD2    C211781   3.399   2.259  15.783 -0.3935 -0.6002 -0.4616
  796MPD2    C311782   3.364   2.284  15.657 -0.4647 -0.6611 -0.1851
  796MPD2    C411783   3.389   2.195  15.558  0.4120  0.8226 -0.8186
  796MPD2    C511784   3.437   2.068  15.593  0.6136  0.4667 -0.5140
  796MPD2     H11785   3.370   2.327  15.862 -1.8464 -1.2785 -0.4084
  796MPD2    H111786   3.371   2.217  15.454  0.2757  2.5615 -0.4310
  796MPD2    H211787   3.524   1.946  15.729 -1.8557 -0.8358  0.2510
  796MPD2    H311788   3.438   1.998  15.510  1.9282  0.8276 -0.7883
  796MPD2     N11789   3.288   2.402  15.627 -0.3190  0.8018  0.0387
  796MPD2    H511790   3.272   2.458  15.711 -1.0382  1.5558 -0.5938
  796MPD2    N111791   3.504   2.109  15.937 -0.3635 -0.6004 -0.0693
  796MPD2    H711792   3.545   2.017  15.952 -0.5189 -0.5907  0.4269
  797MPD2     C11793   4.277   1.855  17.255 -0.0963  0.4695 -0.7043
  797MPD2    C111794   4.278   1.977  17.328  0.1796  0.2890 -0.2615
  797MPD2    C211795   4.169   2.053  17.319 -0.1078 -0.7023 -0.1824
  797MPD2    C311796   4.067   2.022  17.241  0.4039  0.0423 -0.0822
  797MPD2    C411797   4.074   1.916  17.153  0.0234 -0.3277 -0.2914
  797MPD2    C511798   4.178   1.825  17.169 -0.1012  0.1695  0.8369
  797MPD2     H11799   4.162   2.144  17.378  1.4805 -1.7194  1.5652
  797MPD2    H111800   3.996   1.891  17.082 -1.5764  0.5062  1.1640
  797MPD2    H211801   4.357   1.786  17.277 -0.3173  0.5721  0.4171
  797MPD2    H311802   4.188   1.731  17.116 -0.0461  0.0994  0.9729
  797MPD2     N11803   3.945   2.102  17.232  0.8576 -0.8848  0.1573
  797MPD2    H511804   3.886   2.096  17.150 -0.3989  1.3605  0.8807
  797MPD2    N111805   4.394   2.015  17.404 -0.3635 -0.2236 -0.1956
  797MPD2    H711806   4.409   2.114  17.421  0.3250 -0.9009  3.1227
  798MPD2     C11807   4.138   2.634  17.655  0.5091 -0.0964 -0.5024
  798MPD2    C111808   4.113   2.517  17.584  0.7069  0.0074  0.2097
  798MPD2    C211809   4.202   2.410  17.600 -0.7481  0.6671  0.2681
  798MPD2    C311810   4.321   2.425  17.672 -0.1699  0.1140  0.1863
  798MPD2    C411811   4.345   2.539   0.003 -1.2788 -0.5213  0.6400
  798MPD2    C511812   4.249   2.643  17.732 -0.8361 -0.1999  0.5362
  798MPD2     H11813   4.186   2.316  17.549 -2.4031  0.7712  0.5926
  798MPD2    H111814   4.434   2.565   0.059 -0.4536  0.4544 -1.1443
  798MPD2    H211815   4.082   2.726  17.649  1.1516  0.3749  0.8665
  798MPD2    H311816   4.262   2.738   0.044  1.8281  0.3295 -1.1733
  798MPD2     N11817   4.411   2.313  17.673 -0.2397  0.4676 -0.0013
  798MPD2    H511818   4.372   2.228  17.633  0.1453  0.7039 -0.8829
  798MPD2    N111819   4.003   2.494  17.504  0.4088 -0.2790  0.2781
  798MPD2    H711820   3.984   2.399  17.474 -0.5466 -0.3169  1.0096
  799MPD2     C11821   3.287   3.066  14.356 -0.2266  0.2280  0.5504
  799MPD2    C111822   3.175   3.105  14.423 -0.2009  0.0897 -0.1363
  799MPD2    C211823   3.084   3.190  14.367 -0.0904 -0.4375 -0.6532
  799MPD2    C311824   3.107   3.247  14.245 -0.8413 -0.7465 -0.4679
  799MPD2    C411825   3.227   3.221  14.182 -0.1969 -0.1982  0.3952
  799MPD2    C511826   3.314   3.128  14.239  0.3179  0.0893  0.2617
  799MPD2     H11827   2.990   3.202  14.418 -1.2584 -2.9312 -2.2366
  799MPD2    H111828   3.251   3.263  14.085 -0.7657 -0.5733  0.0976
  799MPD2    H211829   3.357   2.996  14.399  0.5153 -0.3879 -1.6926
  799MPD2    H311830   3.401   3.093  14.184 -1.2139 -3.2511 -0.0794
  799MPD2     N11831   3.015   3.327  14.171  0.3867 -0.1281  0.2139
  799MPD2    H511832   3.022   3.342  14.071  1.6833  0.3090  0.3623
  799MPD2    N111833   3.134   3.056  14.550 -0.6975 -0.0194 -0.9050
  799MPD2    H711834   3.051   3.090  14.597  0.2966  2.6071 -1.0507
  800MPD2     C11835   2.825   4.370  14.341 -0.4378 -0.4266  0.1101
  800MPD2    C111836   2.946   4.321  14.301 -0.3833  0.2276  0.2641
  800MPD2    C211837   2.956   4.256  14.181 -0.1593  0.3737  0.1617
  800MPD2    C311838   2.845   4.243  14.108  0.8402 -0.9836 -0.1050
  800MPD2    C411839   2.721   4.276  14.152  0.1737 -0.7626  0.2120
  800MPD2    C511840   2.707   4.330  14.275  0.2207  0.2798 -0.1624
  800MPD2     H11841   3.052   4.215  14.150  0.0290  0.1464  1.0405
  800MPD2    H111842   2.631   4.252  14.097  0.6238  1.9444 -1.7117
  800MPD2    H211843   2.813   4.430  14.430 -0.1566  0.7260 -0.6303
  800MPD2    H311844   2.612   4.363  14.316  0.8379 -0.6192  1.9918
  800MPD2     N11845   2.869   4.178  13.980 -0.2455 -0.3415 -0.4787
  800MPD2    H511846   2.966   4.153  13.963 -0.4548 -0.9794 -0.7291
  800MPD2    N111847   3.056   4.362  14.378 -0.0220  0.0874  0.0853
  800MPD2    H711848   3.043   4.432  14.449  1.3010  1.0781 -0.6607
  801MPD2     C11849   3.291   0.215  14.138 -0.1700 -1.0195  0.4180
  801MPD2    C111850   3.220   0.170  14.248  0.1977 -0.1551 -0.3125
  801MPD2    C211851   3.102   0.238  14.289  0.0393  0.3407 -0.0953
  801MPD2    C311852   3.049   0.342  14.216  0.3011 -0.4248  0.2306
  801MPD2    C411853   3.113   0.374  14.097  0.0994  0.4430  0.6124
  801MPD2    C511854   3.227   0.309  14.062 -0.1161  0.2605  0.3665
  801MPD2     H11855   3.050   0.203  14.377 -1.7746 -0.7441 -1.5822
  801MPD2    H111856   3.064   0.445  14.031 -2.3842 -0.5198  1.4103
  801MPD2    H211857   3.387   0.178  14.103  0.3149 -0.0600  0.7474
  801MPD2    H311858   3.272   0.346  13.970  0.3991 -0.0703  0.4862
  801MPD2     N11859   2.926   0.398  14.248  0.1606  0.3884  0.5400
  801MPD2    H511860   2.899   0.477  14.191  0.7551  2.0468  2.5604
  801MPD2    N111861   3.267   0.064  14.330 -0.7546  0.9268 -0.0139
  801MPD2    H711862   3.194   0.023  14.388  0.2165  0.6096  0.9857
  802MPD2     C11863   3.239   1.225   0.329  0.3380 -0.0782 -0.6592
  802MPD2    C111864   3.148   1.136   0.277  0.1205 -0.3052  0.6710
  802MPD2    C211865   3.180   1.046   0.173 -0.3917  0.5356 -0.5357
  802MPD2    C311866   3.307   1.047   0.129  0.1177  0.6232  0.0834
  802MPD2    C411867   3.400   1.131   0.186  0.2387 -0.4234 -1.2438
  802MPD2    C511868   3.367   1.220   0.285  0.5543 -0.1278 -0.3857
  802MPD2     H11869   3.106   0.979   0.130  0.3283 -0.5372 -0.0985
  802MPD2    H111870   3.505   1.138   0.160  1.3230 -3.1616  2.4364
  802MPD2    H211871   3.210   1.283   0.416 -0.1507 -0.8786 -0.2869
  802MPD2    H311872   3.444   1.285   0.327  1.6156 -2.0570  0.6590
  802MPD2     N11873   3.341   0.977   0.013 -0.1113 -0.0771 -0.8084
  802MPD2    H511874   3.277   0.908  17.713 -0.7417  0.5238 -0.8377
  802MPD2    N111875   3.012   1.148   0.310  0.6123  0.6622 -0.2464
  802MPD2    H711876   2.948   1.090   0.258 -0.2127  1.8328 -0.5470
  803MPD2     C11877   3.459   3.982  12.085  0.4354  0.1230 -0.2561
  803MPD2    C111878   3.570   3.963  12.164 -0.0326 -0.1606 -0.2152
  803MPD2    C211879   3.582   3.844  12.238  0.0902 -0.0505 -0.6945
  803MPD2    C311880   3.490   3.744  12.215  0.6128 -1.0037  0.1172
  803MPD2    C411881   3.381   3.771  12.140  0.0246  0.0490  0.4202
  803MPD2    C511882   3.365   3.883  12.072  0.2234  1.0901 -0.3850
  803MPD2     H11883   3.671   3.824  12.296 -0.7869 -0.5337  0.4758
  803MPD2    H111884   3.315   3.689  12.112  1.5956 -1.3999  0.9691
  803MPD2    H211885   3.450   4.077  12.033 -1.2261 -1.3120 -2.5749
  803MPD2    H311886   3.273   3.905  12.019  0.9704 -0.2299 -2.2301
  803MPD2     N11887   3.491   3.620  12.280  0.4764 -0.4385  0.4615
  803MPD2    H511888   3.408   3.562  12.277  1.5643 -1.9539 -0.2050
  803MPD2    N111889   3.677   4.054  12.183 -0.1815 -0.6243  0.3694
  803MPD2    H711890   3.742   4.030  12.258  0.1064 -0.6695  0.1049
  804MPD2     C11891   4.228   0.651  16.583  0.1737  0.4158  0.3342
  804MPD2    C111892   4.167   0.677  16.709 -0.3163  0.5567  0.4887
  804MPD2    C211893   4.173   0.804  16.766 -0.6771 -0.2221  0.1124
  804MPD2    C311894   4.240   0.907  16.696 -0.2253 -0.5240 -0.5885
  804MPD2    C411895   4.300   0.882  16.573 -0.3977  0.0130 -0.5048
  804MPD2    C511896   4.290   0.756  16.515 -0.0745 -0.1010  0.5190
  804MPD2     H11897   4.128   0.821  16.863  0.5595  0.9452  0.4729
  804MPD2    H111898   4.356   0.953  16.513 -0.1985 -0.1630 -0.5298
  804MPD2    H211899   4.202   0.568  16.519  0.5187 -0.8618  1.8661
  804MPD2    H311900   4.330   0.742  16.415  1.2545 -1.8730  1.2922
  804MPD2     N11901   4.252   1.027  16.767 -0.0740  0.3778  0.3476
  804MPD2    H511902   4.207   1.046  16.856  1.7550  0.8781  1.1717
  804MPD2    N111903   4.090   0.582  16.777  0.7255  0.1812  0.0005
  804MPD2    H711904   4.051   0.610  16.867  1.5889 -0.0541  0.4522
  805MPD2     C11905   2.988   3.707  15.111 -0.1221  0.0382 -1.1588
  805MPD2    C111906   2.963   3.612  15.206  0.4333  0.2277 -0.4309
  805MPD2    C211907   3.020   3.631  15.327 -0.3575  0.3043 -0.5518
  805MPD2    C311908   3.096   3.737  15.364 -0.1115  0.2266  0.1866
  805MPD2    C411909   3.125   3.825  15.265  0.2791  0.2835 -0.0185
  805MPD2    C511910   3.074   3.809  15.142  0.0864 -0.4599 -0.2259
  805MPD2     H11911   3.026   3.541  15.386 -1.4636  0.0147 -0.8866
  805MPD2    H111912   3.193   3.906  15.289 -0.2298  0.4756  0.7851
  805MPD2    H211913   2.966   3.689  15.006  1.1284 -1.7329 -1.1137
  805MPD2    H311914   3.109   3.877  15.065 -3.1137  2.8831  1.3063
  805MPD2     N11915   3.148   3.741  15.496  0.0294  0.2167 -0.0242
  805MPD2    H511916   3.132   3.660  15.555 -0.6984  0.5869  0.2729
  805MPD2    N111917   2.893   3.493  15.177  0.0101 -0.1186 -0.2124
  805MPD2    H711918   2.887   3.431  15.257  1.5639 -0.1326 -0.1031
  806MPD2     C11919   3.397   2.676  17.679 -0.5466 -0.0376  0.2847
  806MPD2    C111920   3.397   2.803  17.729  0.2462  0.4698  0.3905
  806MPD2    C211921   3.434   2.907  17.649 -1.0823  0.2718  0.3736
  806MPD2    C311922   3.478   2.887  17.520  0.0423 -0.1427 -0.2982
  806MPD2    C411923   3.490   2.757  17.472 -0.1327  1.5014 -0.5665
  806MPD2    C511924   3.441   2.651  17.551 -0.1688 -0.3208  0.5101
  806MPD2     H11925   3.432   3.009  17.687 -0.4305  0.6423 -0.5677
  806MPD2    H111926   3.523   2.735  17.371  2.0203 -1.6232  0.8360
  806MPD2    H211927   3.383   2.589   0.003  0.2742 -0.7722 -0.5623
  806MPD2    H311928   3.448   2.551  17.509 -1.9270 -0.0185 -0.5071
  806MPD2     N11929   3.501   2.995  17.432  0.1306 -0.7667 -0.7325
  806MPD2    H511930   3.509   3.085  17.478 -0.2272 -0.5460 -1.1008
  806MPD2    N111931   3.360   2.813   0.127 -0.0230  0.0193 -0.3850
  806MPD2    H711932   3.333   2.722   0.163  1.3323  0.2330  1.2314
  807MPD2     C11933   2.758   3.040   0.599 -1.1181  0.3478  0.0108
  807MPD2    C111934   2.828   2.921   0.606  0.2321  0.7486  0.7006
  807MPD2    C211935   2.757   2.809   0.624  0.1944 -0.6697  0.1709
  807MPD2    C311936   2.622   2.808   0.649  0.3070 -0.2668 -0.1559
  807MPD2    C411937   2.561   2.924   0.637 -0.8472  0.0928  0.0414
  807MPD2    C511938   2.625   3.045   0.616 -0.1317  0.0403 -0.0580
  807MPD2     H11939   2.799   2.709   0.614  1.3773 -0.3880  2.1824
  807MPD2    H111940   2.453   2.930   0.637 -0.9489 -1.9042  0.6053
  807MPD2    H211941   2.813   3.131   0.577  1.1145 -0.8649  0.6371
  807MPD2    H311942   2.566   3.136   0.616 -1.7314 -0.9791 -2.7050
  807MPD2     N11943   2.555   2.687   0.655 -0.4068 -0.7174  0.6415
  807MPD2    H511944   2.605   2.598   0.654 -0.0743 -0.5196 -0.2587
  807MPD2    N111945   2.965   2.910   0.567  0.6530  0.0563  0.0045
  807MPD2    H711946   3.013   2.824   0.592 -0.4498 -0.6977 -0.4739
  808MPD2     C11947   3.841   0.286  10.258  1.1532 -0.5045  0.2012
  808MPD2    C111948   3.740   0.347  10.332 -0.0433  0.3589  0.2519
  808MPD2    C211949   3.747   0.481  10.368  0.3050  0.0525  0.4960
  808MPD2    C311950   3.858   0.555  10.323 -0.2363  0.6665 -0.6846
  808MPD2    C411951   3.947   0.491  10.233 -0.0933 -0.4614  0.2537
  808MPD2    C511952   3.934   0.360  10.188 -0.1455  0.0803  0.1463
  808MPD2     H11953   3.668   0.536  10.417  1.3669  0.6924  1.4804
  808MPD2    H111954   4.028   0.553  10.196  2.2564 -3.2202  0.7240
  808MPD2    H211955   3.833   0.179  10.245 -0.1279 -0.3236 -0.4532
  808MPD2    H311956   4.004   0.310  10.121  0.9949 -0.1052  1.4739
  808MPD2     N11957   3.873   0.698  10.349  0.0578  0.6961 -0.3550
  808MPD2    H511958   3.946   0.747  10.298  1.5745 -1.2134 -0.0096
  808MPD2    N111959   3.625   0.288  10.373 -0.0442 -0.2292 -0.4095
  808MPD2    H711960   3.562   0.340  10.433 -2.1091 -3.2993  0.0972
  809MPD2     C11961   3.859   1.598   9.892 -0.6162 -0.1588 -0.1910
  809MPD2    C111962   3.903   1.472   9.865  0.3327 -0.2372  0.4753
  809MPD2    C211963   3.898   1.373   9.960 -0.2205 -0.7266 -0.4535
  809MPD2    C311964   3.853   1.401  10.090  0.4477 -0.2931  0.5380
  809MPD2    C411965   3.816   1.529  10.126 -0.1333  0.6581  0.3793
  809MPD2    C511966   3.813   1.626  10.025 -0.3077 -0.2609 -0.7340
  809MPD2     H11967   3.927   1.272   9.935  3.3924  0.1089  0.2813
  809MPD2    H111968   3.776   1.548  10.225  1.2680  0.2711  1.0185
  809MPD2    H211969   3.860   1.674   9.815  1.8781  1.9236  1.9033
  809MPD2    H311970   3.766   1.719  10.056 -1.4309 -0.8115 -0.7927
  809MPD2     N11971   3.830   1.297  10.189 -0.3978 -0.2546  0.3293
  809MPD2    H511972   3.805   1.327  10.283 -0.5917 -1.2139  0.5828
  809MPD2    N111973   3.936   1.432   9.731 -0.7243 -0.2223 -0.7637
  809MPD2    H711974   3.980   1.342   9.720  1.2867  0.8676 -1.7312
  810MPD2     C11975   3.006   0.229  10.934  0.4739 -0.6245  0.0314
  810MPD2    C111976   2.928   0.236  10.824  0.6796  0.0973  0.5270
  810MPD2    C211977   2.870   0.353  10.785 -0.6510 -0.0573 -0.4423
  810MPD2    C311978   2.887   0.461  10.862 -0.1716  0.6087 -0.0115
  810MPD2    C411979   2.957   0.455  10.985  0.3605  0.1173 -1.1514
  810MPD2    C511980   3.016   0.339  11.018 -0.5881 -0.9835 -0.4555
  810MPD2     H11981   2.806   0.356  10.698  0.7654 -0.2702 -1.4996
  810MPD2    H111982   2.963   0.541  11.051  1.1971  0.0652 -1.1658
  810MPD2    H211983   3.063   0.140  10.957  1.0613 -0.2260  0.1170
  810MPD2    H311984   3.080   0.326  11.104 -2.2644 -1.3680  0.7428
  810MPD2     N11985   2.848   0.590  10.817 -0.2987  0.0193 -0.5799
  810MPD2    H511986   2.856   0.670  10.880  2.7745 -0.8672  0.1322
  810MPD2    N111987   2.916   0.126  10.738  0.2651 -0.6061 -0.7250
  810MPD2    H711988   2.863   0.134  10.652  1.0339 -0.7747 -1.2107
  811MPD2     C11989   2.643   0.047  10.027 -0.5327 -0.6307 -0.1264
  811MPD2    C111990   2.691   0.113  10.136  0.4126  0.2972  0.4587
  811MPD2    C211991   2.715   0.254  10.129 -0.2371 -0.9096  0.5332
  811MPD2    C311992   2.677   0.324  10.015  0.4385  0.2804 -0.2906
  811MPD2    C411993   2.621   0.254   9.907 -0.4160 -0.0146  0.5949
  811MPD2    C511994   2.608   0.115   9.907 -0.0966 -0.1628 -0.2473
  811MPD2     H11995   2.751   0.308  10.216 -1.7500  1.4531 -0.3178
  811MPD2    H111996   2.589   0.300   9.814 -0.0361  0.5562  0.7489
  811MPD2    H211997   2.624   4.675  10.026  1.2614 -0.9551  0.4897
  811MPD2    H311998   2.592   0.065   9.813  0.4767 -1.7952  0.5247
  811MPD2     N11999   2.689   0.464  10.015  0.2270 -0.2933  0.2836
  811MPD2    H512000   2.736   0.514  10.090  0.6845  1.1108 -0.9171
  811MPD2    N112001   2.726   0.028  10.245  0.9700 -0.2354 -0.1752
  811MPD2    H712002   2.723   4.663  10.227  1.7905 -0.3985  0.6119
  812MPD2     C12003   0.916   4.028  11.992 -0.1795 -0.3810  0.5419
  812MPD2    C112004   1.040   4.070  11.951 -0.3339 -0.1262 -0.6877
  812MPD2    C212005   1.146   4.037  12.028 -0.1639  0.0359  0.4171
  812MPD2    C312006   1.131   3.954  12.138 -0.7423  0.5388  0.7558
  812MPD2    C412007   1.011   3.895  12.170  0.0919 -0.1851 -0.1939
  812MPD2    C512008   0.905   3.935  12.093  0.5788  0.2138 -0.1123
  812MPD2     H12009   1.245   4.078  12.009  0.0557 -0.9216 -0.5172
  812MPD2    H112010   0.989   3.834  12.257  2.6342 -0.5489  0.1718
  812MPD2    H212011   0.829   4.065  11.941  0.0917  1.4118  1.3887
  812MPD2    H312012   0.805   3.909  12.127 -0.1350  0.3521 -2.0820
  812MPD2     N12013   1.246   3.941  12.221 -0.5685  0.5820  0.1262
  812MPD2    H512014   1.336   3.972  12.186 -0.9128  1.8083  0.3422
  812MPD2    N112015   1.041   4.155  11.840 -0.2600  0.9684 -0.0215
  812MPD2    H712016   0.953   4.168  11.791 -1.1268 -3.8581  0.2605
  813MPD2     C12017   0.200   1.136  12.653 -0.3998  0.1413  0.1070
  813MPD2    C112018   0.293   1.050  12.701  0.1956 -0.5931 -0.5073
  813MPD2    C212019   0.290   1.023  12.837 -0.1429 -0.2623  0.0492
  813MPD2    C312020   0.184   1.068  12.914 -0.0650  0.2458 -0.4720
  813MPD2    C412021   0.084   1.148  12.860 -0.6043 -0.2400 -0.4921
  813MPD2    C512022   0.099   1.192  12.730 -0.3569  0.2580  0.5429
  813MPD2     H12023   0.368   0.963  12.882 -0.0454  0.1267  0.3938
  813MPD2    H112024   0.008   1.194  12.922 -2.0880 -0.1231 -2.4057
  813MPD2    H212025   0.189   1.169  12.550 -3.4873  0.8662  0.6677
  813MPD2    H312026   0.026   1.263  12.691 -0.0160  0.2610 -0.0894
  813MPD2     N12027   0.187   1.036  13.053 -0.0949 -0.6050 -0.3778
  813MPD2    H512028   0.263   0.981  13.092 -0.5800 -0.9800  0.0334
  813MPD2    N112029   0.392   1.009  12.610 -0.7688 -0.1636  0.1412
  813MPD2    H712030   0.377   1.042  12.515 -1.1935  0.8643  0.5554
  814MPD2     C12031   1.680   2.402  12.556  0.0185  0.0518  0.9319
  814MPD2    C112032   1.583   2.484  12.503  0.1169 -0.1253  0.1146
  814MPD2    C212033   1.591   2.622  12.526 -0.2681  0.2136  0.2937
  814MPD2    C312034   1.684   2.677  12.606 -0.0846  0.7666 -0.1068
  814MPD2    C412035   1.776   2.592  12.667 -0.1384  0.0177  0.1758
  814MPD2    C512036   1.784   2.461  12.632 -0.4486 -0.4525  0.4276
  814MPD2     H12037   1.515   2.683  12.479 -1.9497 -1.7202  0.5083
  814MPD2    H112038   1.845   2.632  12.741  0.1077 -2.6939  1.4008
  814MPD2    H212039   1.684   2.294  12.545  0.3615  0.1866 -0.2402
  814MPD2    H312040   1.859   2.403  12.684  2.0380  1.5600 -0.9421
  814MPD2     N12041   1.690   2.813  12.650 -0.7115  0.0456  0.3428
  814MPD2    H512042   1.761   2.845  12.715 -0.8515 -0.7697  0.8932
  814MPD2    N112043   1.501   2.441  12.395 -0.5524 -0.0691  0.5259
  814MPD2    H712044   1.462   2.516  12.338  1.2170  0.5685  0.1527
  815MPD2     C12045   1.878   0.732  11.847 -0.1477  0.8023 -0.5301
  815MPD2    C112046   1.830   0.757  11.714 -0.3868 -0.2571  0.4426
  815MPD2    C212047   1.703   0.714  11.676 -0.8333 -0.0928 -0.1418
  815MPD2    C312048   1.620   0.656  11.767  0.6504  0.7014  0.6862
  815MPD2    C412049   1.674   0.626  11.894 -0.2572  0.2740 -1.0026
  815MPD2    C512050   1.799   0.664  11.930 -0.1363 -0.2292 -0.8509
  815MPD2     H12051   1.675   0.719  11.571 -0.2844 -2.1264 -0.3748
  815MPD2    H112052   1.611   0.575  11.965  0.0737  0.4493 -0.5844
  815MPD2    H212053   1.977   0.765  11.874 -0.5125  1.8748 -0.5318
  815MPD2    H312054   1.836   0.631  12.026 -1.8076 -2.7735 -1.0723
  815MPD2     N12055   1.486   0.629  11.729  0.1771  0.0439  0.3808
  815MPD2    H512056   1.466   0.647  11.631  0.2869  1.5718  0.6408
  815MPD2    N112057   1.928   0.813  11.628 -0.0018  0.0065  0.0362
  815MPD2    H712058   2.019   0.835  11.667  0.7772  0.2419 -1.9546
  816MPD2     C12059   2.003   4.305  16.833  0.0634  0.4994 -0.2763
  816MPD2    C112060   2.094   4.380  16.913 -0.2497 -0.1275 -0.6807
  816MPD2    C212061   2.218   4.325  16.940 -0.3236  0.1261  0.5575
  816MPD2    C312062   2.260   4.204  16.881  0.2593 -0.3647 -0.2244
  816MPD2    C412063   2.168   4.130  16.811  0.6043 -0.1724 -0.2159
  816MPD2    C512064   2.042   4.178  16.786 -0.5207  0.2198 -0.1816
  816MPD2     H12065   2.287   4.382  17.001 -1.8254  1.2144  1.2288
  816MPD2    H112066   2.189   4.038  16.759 -0.3423 -0.0019 -0.9034
  816MPD2    H212067   1.910   4.348  16.800 -1.1194 -2.1622 -0.4395
  816MPD2    H312068   1.966   4.120  16.735 -0.5507 -0.1381  0.2693
  816MPD2     N12069   2.399   4.176  16.885 -0.0977 -0.7443  0.5989
  816MPD2    H512070   2.461   4.247  16.924  0.9930  0.2750 -2.9878
  816MPD2    N112071   2.057   4.507  16.966  0.4093 -0.0428  0.0138
  816MPD2    H712072   1.972   4.555  16.936  1.8607  3.9496  2.3516
  817MPD2     C12073   1.335   2.592   9.656  0.6081 -0.6211 -0.3769
  817MPD2    C112074   1.280   2.520   9.551  0.0988 -0.7226 -0.0135
  817MPD2    C212075   1.167   2.566   9.483  0.1042  0.6658  0.7075
  817MPD2    C312076   1.111   2.686   9.514 -0.2694 -0.1753 -0.2666
  817MPD2    C412077   1.157   2.758   9.628  0.2718  0.1165  0.5392
  817MPD2    C512078   1.272   2.710   9.688 -0.0251  0.2183  0.5464
  817MPD2     H12079   1.116   2.509   9.406  2.7693 -1.9591  0.8642
  817MPD2    H112080   1.120   2.858   9.652  1.8467  0.8004  0.1153
  817MPD2    H212081   1.422   2.562   9.714  0.0039 -0.0113  0.8376
  817MPD2    H312082   1.306   2.764   9.776 -2.7178  0.1226  1.6707
  817MPD2     N12083   1.009   2.737   9.433  0.1210  0.1631 -0.2572
  817MPD2    H512084   0.976   2.685   9.352  0.1238 -0.8618  0.3870
  817MPD2    N112085   1.342   2.404   9.498 -0.1012  0.0495 -0.3383
  817MPD2    H712086   1.318   2.368   9.407 -1.2811  1.4913 -0.5915
  818MPD2     C12087   0.221   2.553   9.821  0.3379  0.6026 -0.6474
  818MPD2    C112088   0.265   2.462   9.919  0.0823  0.3922  0.0222
  818MPD2    C212089   0.369   2.375   9.888  0.1389 -0.3816  0.0498
  818MPD2    C312090   0.425   2.373   9.762 -0.2786 -0.2236 -0.5071
  818MPD2    C412091   0.388   2.468   9.675 -0.8267 -0.0421 -0.6052
  818MPD2    C512092   0.286   2.555   9.701 -0.9035  0.2301 -0.6096
  818MPD2     H12093   0.399   2.295   9.955 -0.2443  0.0012  0.6710
  818MPD2    H112094   0.420   2.469   9.572  0.3801  0.5276 -0.2294
  818MPD2    H212095   0.143   2.625   9.841 -0.1887  0.1652 -1.1380
  818MPD2    H312096   0.257   2.620   9.619 -2.2916  1.0545  0.5356
  818MPD2     N12097   0.518   2.276   9.713 -0.0460  0.1024  0.7488
  818MPD2    H512098   0.523   2.261   9.613  0.7425 -3.4530  1.3222
  818MPD2    N112099   0.203   2.456  10.051  0.3791  0.2303  0.0695
  818MPD2    H712100   0.246   2.394  10.120  0.7802 -0.2496 -0.6160
  819MPD2     C12101   3.571   3.188  15.530 -0.0667 -0.4279  0.2490
  819MPD2    C112102   3.646   3.073  15.526  0.1875 -1.1291 -0.1471
  819MPD2    C212103   3.764   3.067  15.606 -0.1382 -0.1668 -0.8796
  819MPD2    C312104   3.787   3.170  15.691 -0.0303 -0.2606  0.0040
  819MPD2    C412105   3.713   3.286  15.701 -0.1983 -0.0116 -0.1938
  819MPD2    C512106   3.606   3.290  15.620 -0.4536  0.1683  0.8807
  819MPD2     H12107   3.840   2.990  15.604 -0.6029 -0.6596  0.4167
  819MPD2    H112108   3.731   3.366  15.771  0.5817 -1.7647  1.6204
  819MPD2    H212109   3.476   3.189  15.478  0.1056  2.5954  0.0232
  819MPD2    H312110   3.539   3.376  15.627 -1.3528 -0.4970  0.3617
  819MPD2     N12111   3.898   3.146  15.770 -0.4949  0.2935 -0.2452
  819MPD2    H512112   3.944   3.059  15.744  0.3029  1.1806 -1.7969
  819MPD2    N112113   3.609   2.976  15.428  0.0294 -0.2380  0.5989
  819MPD2    H712114   3.516   2.975  15.388  0.4673  0.4874 -0.4543
  820MPD2     C12115   2.763   2.639  15.210 -0.2784 -0.8350  0.3397
  820MPD2    C112116   2.824   2.764  15.185  0.2560 -0.3203 -0.0912
  820MPD2    C212117   2.967   2.756  15.177  0.0122 -0.2940  1.2955
  820MPD2    C312118   3.037   2.636  15.193  0.1683 -0.1692 -0.0125
  820MPD2    C412119   2.964   2.518  15.213  0.1308  0.3360 -0.5855
  820MPD2    C512120   2.827   2.522  15.234 -0.4752 -0.0272 -1.2488
  820MPD2     H12121   3.024   2.848  15.170 -1.1686  0.4144  0.9605
  820MPD2    H112122   3.017   2.424  15.215  1.8251  1.2551 -2.1772
  820MPD2    H212123   2.656   2.642  15.231 -0.0485 -2.4373  1.6826
  820MPD2    H312124   2.770   2.431  15.250 -1.2450  0.5727 -0.5916
  820MPD2     N12125   3.175   2.622  15.197  0.4204 -0.2870 -0.0301
  820MPD2    H512126   3.209   2.527  15.209  2.2133  0.1934 -1.2985
  820MPD2    N112127   2.752   2.889  15.174  0.0638  0.1800 -0.1434
  820MPD2    H712128   2.653   2.871  15.162  0.0106  1.6943 -1.9206
  821MPD2     C12129   3.024   4.483  13.257 -0.2475  0.5618  0.0197
  821MPD2    C112130   3.111   4.438  13.352 -0.2380  0.2961 -0.3575
  821MPD2    C212131   3.245   4.465  13.342  0.1254 -0.5100  0.1786
  821MPD2    C312132   3.293   4.540  13.242  0.1395  0.8512 -0.8508
  821MPD2    C412133   3.205   4.604  13.157  0.0275  0.5107  0.4388
  821MPD2    C512134   3.071   4.570  13.168 -0.1616 -0.1324  0.4067
  821MPD2     H12135   3.311   4.422  13.417  0.2599 -0.2337  0.2180
  821MPD2    H112136   3.227   4.684  13.088 -0.0172  1.4235  1.4808
  821MPD2    H212137   2.916   4.475  13.263 -0.3363  1.6715 -0.1300
  821MPD2    H312138   3.002   4.614  13.096  1.6784  0.1538 -1.1717
  821MPD2     N12139   3.432   4.582  13.244  0.1279  0.0230 -0.1257
  821MPD2    H512140   3.466   4.644  13.170 -0.4529  1.0057  0.4229
  821MPD2    N112141   3.083   4.351  13.457  0.8021 -0.4656  0.3865
  821MPD2    H712142   3.151   4.319  13.525  2.3307 -3.4849 -2.5692
  822MPD2     C12143   0.050   4.288  15.679  0.2024  0.5664 -0.1403
  822MPD2    C112144   0.027   4.295  15.813  0.2642  0.0618 -0.0452
  822MPD2    C212145   4.678   4.392  15.865  0.4362  0.2005 -0.4045
  822MPD2    C312146   4.625   4.485  15.781 -0.2405  1.2350  0.1030
  822MPD2    C412147   4.638   4.464  15.647  0.2497  0.2596 -0.3448
  822MPD2    C512148   4.722   4.375  15.595 -0.1387  0.0907 -0.0066
  822MPD2     H12149   4.656   4.402  15.971  0.9329 -1.4555 -0.1360
  822MPD2    H112150   4.582   4.528  15.580  2.5789  1.3669 -1.2594
  822MPD2    H212151   0.119   4.222  15.627  0.1152 -0.0393  0.5304
  822MPD2    H312152   0.007   4.383  15.488  0.3021 -0.5199  0.0325
  822MPD2     N12153   4.572   4.598  15.840 -0.5218 -0.2451 -0.2427
  822MPD2    H512154   4.587   4.600  15.941  1.2543  2.2731 -0.5441
  822MPD2    N112155   0.100   4.216  15.904  0.3604  0.2847 -0.2137
  822MPD2    H712156   0.086   4.247  16.000 -0.6090 -0.8295  0.0056
  823MPD2     C12157   4.364   0.296  16.527 -0.2155  0.5301 -0.2989
  823MPD2    C112158   4.388   0.184  16.459  0.5182  0.3002  0.1549
  823MPD2    C212159   4.426   0.073  16.527 -0.1185 -0.1624  0.2078
  823MPD2    C312160   4.448   0.074  16.662 -0.3781 -0.2005 -0.2098
  823MPD2    C412161   4.408   0.184  16.732  0.1606  0.2605 -0.0469
  823MPD2    C512162   4.359   0.293  16.665 -0.4394  0.5661  0.0645
  823MPD2     H12163   4.449   4.718  16.471 -0.7005 -1.7063  2.4467
  823MPD2    H112164   4.419   0.196  16.839 -0.0614  0.3244 -0.0325
  823MPD2    H212165   4.326   0.387  16.483 -0.4280  1.0648  0.9856
  823MPD2    H312166   4.336   0.380  16.726  0.1588  0.5169  0.3658
  823MPD2     N12167   4.497   4.708  16.741  0.2294 -0.1063 -0.1745
  823MPD2    H512168   4.511   4.729  16.840  0.4273  0.4290 -0.3138
  823MPD2    N112169   4.370   0.197  16.320  0.8076  0.2936  0.5760
  823MPD2    H712170   4.353   0.290  16.282 -1.9724 -1.2257 -1.9242
  824MPD2     C12171   0.478   3.478  16.106 -0.0003 -0.6089 -0.8849
  824MPD2    C112172   0.393   3.533  16.012 -0.1556 -0.1096 -0.5212
  824MPD2    C212173   0.374   3.464  15.895 -0.3261  0.3336 -0.1662
  824MPD2    C312174   0.436   3.343  15.866  0.3860 -0.0592  0.3589
  824MPD2    C412175   0.517   3.287  15.961  0.3415 -0.5703 -0.4943
  824MPD2    C512176   0.541   3.355  16.079  0.1424  0.0951  0.5630
  824MPD2     H12177   0.303   3.505  15.824  1.3585  2.4515 -0.6254
  824MPD2    H112178   0.553   3.186  15.943 -0.6793 -1.0373  0.0385
  824MPD2    H212179   0.510   3.527  16.197 -2.1092  0.6770 -0.8422
  824MPD2    H312180   0.613   3.320  16.153  0.3586  1.6179  1.0716
  824MPD2     N12181   0.413   3.286  15.741 -0.3209 -0.5180 -0.5772
  824MPD2    H512182   0.340   3.322  15.681 -1.5354 -0.1349  1.1347
  824MPD2    N112183   0.345   3.665  16.030  0.1323 -0.5881  0.1024
  824MPD2    H712184   0.321   3.717  15.946 -2.1259  0.7121  1.5719
  825MPD2     C12185   0.867   3.390  15.071 -0.7615 -0.3669  0.3918
  825MPD2    C112186   0.748   3.433  15.131  0.5175 -0.2246 -0.3646
  825MPD2    C212187   0.719   3.567  15.122  0.1520 -0.2061  0.8634
  825MPD2    C312188   0.792   3.654  15.038  0.2414  0.0481 -0.6173
  825MPD2    C412189   0.906   3.609  14.983  0.2687 -0.3470  0.1269
  825MPD2    C512190   0.941   3.482  15.000  0.7112 -0.1858 -0.2401
  825MPD2     H12191   0.636   3.608  15.177 -0.6161  0.8421 -1.0673
  825MPD2    H112192   0.966   3.677  14.924 -1.4997  0.6340 -0.5586
  825MPD2    H212193   0.900   3.287  15.079  3.1693  0.8345 -0.4429
  825MPD2    H312194   1.032   3.453  14.949 -0.3781 -1.2188 -1.5796
  825MPD2     N12195   0.760   3.784  15.014 -0.4409 -0.5943 -0.9142
  825MPD2    H512196   0.826   3.834  14.956  1.5178 -1.3194  0.6787
  825MPD2    N112197   0.667   3.336  15.191 -0.1757 -0.4930 -0.2806
  825MPD2    H712198   0.704   3.242  15.197 -0.3565 -0.5277  0.3254
  826MPD2     C12199   4.670   3.230  13.639  0.5004  0.2393  1.0718
  826MPD2    C112200   4.720   3.347  13.587  0.2254  0.1733 -0.1763
  826MPD2    C212201   4.675   3.468  13.634 -0.0070 -0.4562  0.4964
  826MPD2    C312202   4.565   3.476  13.718 -0.4565  0.1299 -0.5409
  826MPD2    C412203   4.521   3.363  13.777 -0.2648  0.1659 -0.3218
  826MPD2    C512204   4.576   3.245  13.732  0.4197 -0.1875  0.5039
  826MPD2     H12205   4.728   3.557  13.600 -0.7101 -0.4059 -0.4667
  826MPD2    H112206   4.440   3.360  13.848  1.1908  0.5671  1.3488
  826MPD2    H212207   4.708   3.131  13.617 -0.1042  0.1355  0.5095
  826MPD2    H312208   4.530   3.154  13.769 -0.8831  0.3805  0.2781
  826MPD2     N12209   4.509   3.598  13.755  0.3727 -0.1210  0.4091
  826MPD2    H512210   4.435   3.587  13.823  0.2330  1.7221  0.5551
  826MPD2    N112211   0.098   3.328  13.499 -0.1444 -0.2631 -0.1927
  826MPD2    H712212   0.118   3.230  13.481  0.1957  0.0159 -1.3420
  827MPD2     C12213   1.075   1.220   9.824 -0.0125  0.1788 -0.6736
  827MPD2    C112214   1.102   1.084   9.830  0.4124  0.5989  0.2794
  827MPD2    C212215   1.011   0.993   9.776  0.2380 -0.6464 -0.2286
  827MPD2    C312216   0.894   1.027   9.723  0.1120 -0.0187 -0.6266
  827MPD2    C412217   0.865   1.162   9.718  0.4310  0.4771  0.0838
  827MPD2    C512218   0.952   1.256   9.770  0.4096  0.1619 -0.1393
  827MPD2     H12219   1.043   0.889   9.768  1.4790 -0.3234  0.4048
  827MPD2    H112220   0.777   1.203   9.670 -1.2786 -0.1287  2.6567
  827MPD2    H212221   1.133   1.299   9.870 -2.3120  1.3279  0.2369
  827MPD2    H312222   0.932   1.363   9.767  1.8276  0.3679 -2.0144
  827MPD2     N12223   0.821   0.920   9.657 -0.2253  0.0617  0.6948
  827MPD2    H512224   0.838   0.822   9.674  4.3856  0.6896 -0.5490
  827MPD2    N112225   1.230   1.050   9.884  0.0762 -0.2268  0.0033
  827MPD2    H712226   1.284   1.129   9.916  1.8606 -0.8865 -1.4041
  828MPD2     C12227   3.816   4.604  13.002  0.0622 -0.3915 -0.2336
  828MPD2    C112228   3.807   4.652  12.873 -0.0353  1.2800  0.1104
  828MPD2    C212229   3.913   4.637  12.786 -0.0823 -0.3074 -0.3186
  828MPD2    C312230   4.024   4.576  12.832 -0.8675 -1.1568  0.0090
  828MPD2    C412231   4.024   4.533  12.962  0.2725 -0.0444 -0.2456
  828MPD2    C512232   3.918   4.541  13.041  0.0994  0.3409  0.3005
  828MPD2     H12233   3.907   4.682  12.688 -0.6812 -0.9174 -0.5576
  828MPD2    H112234   4.108   4.490  13.013  0.9311  2.0541  0.4426
  828MPD2    H212235   3.741   4.630  13.076 -0.4772  0.5088 -1.0952
  828MPD2    H312236   3.927   4.520  13.147 -1.5063  0.0689  0.3864
  828MPD2     N12237   4.144   4.573  12.757 -0.3330  0.4554 -0.7267
  828MPD2    H512238   4.226   4.533  12.801 -1.0831 -0.3761 -0.0804
  828MPD2    N112239   3.691   4.724  12.830 -0.4390  0.0914 -0.3131
  828MPD2    H712240   3.697   0.021  12.734 -0.6390 -0.4434 -0.5039
  829MPD2     C12241   3.545   0.414  12.195  0.2132 -0.0355 -0.1857
  829MPD2    C112242   3.431   0.416  12.271 -0.0747  0.0854 -0.3029
  829MPD2    C212243   3.436   0.412  12.405 -0.1759  0.1834  0.4329
  829MPD2    C312244   3.560   0.404  12.465 -0.1944  0.0372 -0.7232
  829MPD2    C412245   3.673   0.394  12.390  0.8264  0.1039 -0.2498
  829MPD2    C512246   3.669   0.401  12.253  0.3864 -0.1255  0.1572
  829MPD2     H12247   3.347   0.435  12.463  1.3998  2.3528  1.9788
  829MPD2    H112248   3.770   0.381  12.437  0.1857 -1.9173  0.5073
  829MPD2    H212249   3.537   0.417  12.087  3.5417 -0.0676 -0.4392
  829MPD2    H312250   3.761   0.405  12.197 -0.2357  0.4656 -0.8230
  829MPD2     N12251   3.574   0.384  12.602  0.8230  0.3329 -0.1784
  829MPD2    H512252   3.658   0.347  12.645  0.8943 -0.4135 -0.9520
  829MPD2    N112253   3.314   0.424  12.206 -0.3134 -0.0684  0.4936
  829MPD2    H712254   3.309   0.449  12.108 -0.4174  1.3632  0.8644
  830MPD2     C12255   4.546   2.629  15.861 -0.1296 -0.1020  0.4552
  830MPD2    C112256   4.470   2.730  15.805 -0.1395  0.0033  0.3466
  830MPD2    C212257   4.456   2.724  15.666  0.3551  0.0355  1.2540
  830MPD2    C312258   4.529   2.632  15.591 -0.2954 -0.1942  0.2562
  830MPD2    C412259   4.603   2.538  15.660 -0.8361 -0.2890  0.8224
  830MPD2    C512260   4.607   2.533  15.791 -0.4180  0.1667 -0.8924
  830MPD2     H12261   4.406   2.801  15.610  0.3362 -0.7465  0.1998
  830MPD2    H112262   4.658   2.464  15.603  1.5844  2.5342 -0.5221
  830MPD2    H212263   4.559   2.643  15.968  1.5241 -1.9431  0.4920
  830MPD2    H312264   4.663   2.453  15.838 -2.0549  0.4150  1.4948
  830MPD2     N12265   4.528   2.619  15.450 -0.4126  0.4499  0.1486
  830MPD2    H512266   4.580   2.551  15.395  1.1890  0.2022  1.9661
  830MPD2    N112267   4.401   2.821  15.891  0.2755 -0.1051  0.0375
  830MPD2    H712268   4.395   2.799  15.990  0.5987 -1.6582 -0.3030
  831MPD2     C12269   0.148   0.050  16.123 -0.1406  0.1227  0.0631
  831MPD2    C112270   0.177   4.660  16.082  0.0225  0.7075 -0.2173
  831MPD2    C212271   0.101   4.551  16.132  0.4268  0.3940 -0.5060
  831MPD2    C312272   4.730   4.574  16.223  0.4835  0.5584 -0.7631
  831MPD2    C412273   4.708   4.706  16.261 -0.3546 -0.2773  0.6274
  831MPD2    C512274   0.053   0.077  16.220  0.4135 -0.1221  0.1648
  831MPD2     H12275   0.125   4.450  16.102 -0.3948 -0.8022  2.7972
  831MPD2    H112276   4.641   4.729  16.343  0.2707  0.3636  0.9642
  831MPD2    H212277   0.204   0.135  16.086  0.8525 -0.7563 -0.4481
  831MPD2    H312278   0.037   0.175  16.263 -2.3216 -0.1717 -0.7321
  831MPD2     N12279   4.649   4.473  16.272 -0.8407 -0.0073 -0.3398
  831MPD2    H512280   4.565   4.495  16.324 -0.2221 -0.0835  0.6899
  831MPD2    N112281   0.274   4.645  15.977 -1.0438  0.1933 -0.3901
  831MPD2    H712282   0.299   4.725  15.919 -0.0860 -0.3092 -0.6593
  832MPD2     C12283   2.963   0.684  16.951  0.6989 -0.4120 -0.5633
  832MPD2    C112284   2.955   0.799  16.879  0.1089  0.2190 -0.5697
  832MPD2    C212285   2.845   0.817  16.792 -0.1467 -0.1423 -0.3709
  832MPD2    C312286   2.756   0.720  16.781 -1.1115 -0.7346 -0.4365
  832MPD2    C412287   2.755   0.605  16.857 -0.8909  0.4139 -0.2965
  832MPD2    C512288   2.869   0.590  16.932  0.0065  0.0616 -0.6836
  832MPD2     H12289   2.835   0.913  16.743  0.2298  0.8389  1.4705
  832MPD2    H112290   2.674   0.534  16.868 -1.3411  0.8682 -0.6383
  832MPD2    H212291   3.045   0.657  17.017 -1.7637 -1.6223  1.9975
  832MPD2    H312292   2.873   0.497  16.986  0.0669  0.3931 -0.1143
  832MPD2     N12293   2.635   0.731  16.705 -0.2734 -0.0835 -0.2160
  832MPD2    H512294   2.588   0.646  16.675 -0.4697 -0.5760  1.4693
  832MPD2    N112295   3.051   0.906  16.906  0.3572 -0.5133 -0.0148
  832MPD2    H712296   3.105   0.903  16.992  0.2575 -2.1087 -0.0079
  833MPD2     C12297   4.228   3.132  12.295 -0.6398 -0.6759  0.2640
  833MPD2    C112298   4.306   3.236  12.257 -0.4386  0.2548 -0.0435
  833MPD2    C212299   4.442   3.214  12.243  1.0955  0.6707  0.0481
  833MPD2    C312300   4.498   3.089  12.268 -0.5667  0.6805  0.2372
  833MPD2    C412301   4.412   2.988  12.294  0.6974  0.1887  0.5350
  833MPD2    C512302   4.283   3.008  12.321 -0.0953 -0.1083 -0.0201
  833MPD2     H12303   4.507   3.296  12.214  0.3736  1.1229 -0.2904
  833MPD2    H112304   4.445   2.885  12.304 -1.0429 -0.4424 -0.2298
  833MPD2    H212305   4.122   3.143  12.314 -0.8297 -0.5384 -0.8765
  833MPD2    H312306   4.239   2.916  12.358 -1.3194  1.7309  3.0943
  833MPD2     N12307   4.639   3.066  12.248 -0.6822 -0.5047  0.4868
  833MPD2    H512308   4.661   2.967  12.255 -3.4850 -1.2908 -1.9844
  833MPD2    N112309   4.232   3.350  12.236 -0.1963  0.2861  0.5543
  833MPD2    H712310   4.132   3.350  12.253  0.0235 -1.7678  1.8359
  834MPD2     C12311   4.608   2.328  11.813  0.1983 -0.1951 -0.1635
  834MPD2    C112312   4.557   2.422  11.727  0.1635 -0.5721 -0.1417
  834MPD2    C212313   4.590   2.555  11.754 -0.1460 -0.0219 -0.1155
  834MPD2    C312314   4.677   2.583  11.856  0.3257 -0.5657  0.2814
  834MPD2    C412315   4.733   2.480  11.936  0.2352 -0.3401 -0.9977
  834MPD2    C512316   4.687   2.354  11.919 -0.2191  0.0949 -0.4838
  834MPD2     H12317   4.547   2.641  11.704 -1.3016 -0.9671 -0.7349
  834MPD2    H112318   0.063   2.494  12.022 -0.9978 -0.1929 -0.0938
  834MPD2    H212319   4.574   2.228  11.789 -0.1860 -0.2583  0.6322
  834MPD2    H312320   4.709   2.269  11.983  0.9568 -0.2008 -1.2805
  834MPD2     N12321   4.703   2.728  11.874 -0.6147 -0.0478  0.3218
  834MPD2    H512322   4.660   2.796  11.813 -2.1595 -1.7714 -0.5113
  834MPD2    N112323   4.457   2.396  11.625 -0.0451  0.3506  0.0352
  834MPD2    H712324   4.429   2.299  11.613  0.6472  0.0702  0.6744
  835MPD2     C12325   0.237   0.839  11.237  0.1521  0.5161 -0.0924
  835MPD2    C112326   0.106   0.841  11.281  0.6460 -0.2735 -0.2988
  835MPD2    C212327   0.088   0.816  11.416 -0.2684  0.1705  0.2219
  835MPD2    C312328   0.186   0.806  11.512  0.2945  0.1730 -0.1800
  835MPD2    C412329   0.313   0.807  11.468 -0.3958 -0.2910  0.4928
  835MPD2    C512330   0.340   0.832  11.333  0.0328  0.2310  0.0786
  835MPD2     H12331   4.717   0.817  11.440 -1.0694 -0.9389 -3.2123
  835MPD2    H112332   0.395   0.792  11.537 -0.3864 -2.0679  0.0916
  835MPD2    H212333   0.258   0.856  11.132 -0.5715 -3.3014 -0.8460
  835MPD2    H312334   0.442   0.846  11.298 -0.2179  1.0474 -0.3264
  835MPD2     N12335   0.154   0.796  11.649  0.1647 -0.1845 -0.2085
  835MPD2    H512336   0.228   0.812  11.716 -1.0880  0.4121  1.0318
  835MPD2    N112337   4.731   0.848  11.200  0.5660  0.6149 -0.2417
  835MPD2    H712338   4.639   0.846  11.242  0.3600 -0.1271 -0.7182
  836MPD2     C12339   4.352   1.017  12.099  0.5162  0.0089 -0.0961
  836MPD2    C112340   4.380   0.899  12.158  0.2372 -0.3806  0.8289
  836MPD2    C212341   4.281   0.835  12.240 -0.5494 -0.2956 -0.2705
  836MPD2    C312342   4.156   0.897  12.258 -1.0575  0.4442 -0.0554
  836MPD2    C412343   4.139   1.023  12.214  0.0284 -0.2361 -1.1409
  836MPD2    C512344   4.231   1.080  12.126 -0.0798 -0.4373  0.8455
  836MPD2     H12345   4.311   0.735  12.271  1.1835 -0.1033 -1.3125
  836MPD2    H112346   4.044   1.067  12.243  0.3847  0.5237 -1.1131
  836MPD2    H212347   4.419   1.063  12.028 -2.3530 -0.3958 -3.0864
  836MPD2    H312348   4.205   1.169  12.070  1.1733  0.5641  1.8698
  836MPD2     N12349   4.050   0.840  12.329 -0.0388  0.6046 -0.0348
  836MPD2    H512350   3.971   0.892  12.365  0.9992  2.2778 -0.1497
  836MPD2    N112351   4.508   0.849  12.125 -0.3974  0.1168 -0.1618
  836MPD2    H712352   4.566   0.903  12.061  2.7086 -1.7509  1.0662
  837MPD2     C12353   3.037   1.181  10.133  0.5559  0.2524 -0.2716
  837MPD2    C112354   2.902   1.181  10.139  0.8730 -0.1565 -0.2921
  837MPD2    C212355   2.846   1.307  10.153  0.0303  0.4533  0.4916
  837MPD2    C312356   2.915   1.431  10.160  0.1731  0.9225  0.0533
  837MPD2    C412357   3.050   1.426  10.146 -0.8342  0.0548 -0.3769
  837MPD2    C512358   3.111   1.300  10.150 -0.0238  0.6700  1.0941
  837MPD2     H12359   2.738   1.315  10.161  0.0377  1.7810 -0.7185
  837MPD2    H112360   3.126   1.504  10.146 -0.9666  0.1823  1.4897
  837MPD2    H212361   3.080   1.082  10.120  0.8834  0.3741 -0.1191
  837MPD2    H312362   3.218   1.285  10.143 -0.2776 -0.1779 -0.8186
  837MPD2     N12363   2.834   1.553  10.148  0.0345 -0.4897 -0.2353
  837MPD2    H512364   2.739   1.522  10.132 -0.0414  0.8560 -2.3461
  837MPD2    N112365   2.818   1.072  10.118 -0.7777 -0.6326 -0.0727
  837MPD2    H712366   2.717   1.081  10.129 -0.7687  0.7526 -1.0832
  838MPD2     C12367   1.508   3.701  12.146  0.2018  0.3972  0.1935
  838MPD2    C112368   1.382   3.673  12.095 -0.2572  0.7327 -0.6247
  838MPD2    C212369   1.310   3.581  12.159  0.0696  0.6287  0.7724
  838MPD2    C312370   1.355   3.518  12.273  0.7176 -0.8050  0.6249
  838MPD2    C412371   1.475   3.551  12.327  0.0941  0.4885 -0.0041
  838MPD2    C512372   1.550   3.644  12.259  0.7268  0.0678 -0.5958
  838MPD2     H12373   1.217   3.546  12.117  1.9591 -2.0154 -1.2460
  838MPD2    H112374   1.513   3.493  12.410  1.1026  1.5555  0.2731
  838MPD2    H212375   1.575   3.765  12.090 -2.1418  0.2666 -2.7930
  838MPD2    H312376   1.644   3.678  12.302  0.1492 -2.1313  2.4198
  838MPD2     N12377   1.265   3.425  12.331 -0.1343 -0.0187 -0.5198
  838MPD2    H512378   1.183   3.412  12.273 -0.8509 -2.0206  0.9343
  838MPD2    N112379   1.326   3.714  11.974  0.0394 -0.5114 -0.1328
  838MPD2    H712380   1.238   3.676  11.938  1.7498 -3.2821 -1.4453
  839MPD2     C12381   1.292   3.077  12.068  0.1205  0.0268  0.0199
  839MPD2    C112382   1.247   3.062  11.935  0.5034 -0.5710  0.2030
  839MPD2    C212383   1.263   3.169  11.841 -1.1836  0.1278 -0.2102
  839MPD2    C312384   1.324   3.286  11.883  0.0696 -0.3446  0.4463
  839MPD2    C412385   1.367   3.300  12.010 -0.3399 -0.6884 -0.5425
  839MPD2    C512386   1.347   3.201  12.103  0.3620  0.2454  0.0114
  839MPD2     H12387   1.240   3.164  11.735 -0.0320 -0.1946 -0.4481
  839MPD2    H112388   1.411   3.385  12.060 -1.5906 -0.4836  0.2169
  839MPD2    H212389   1.290   2.999  12.143  2.6240  1.6303  1.7607
  839MPD2    H312390   1.375   3.210  12.208 -0.8177  1.2364  0.2498
  839MPD2     N12391   1.355   3.391  11.794  0.2390  0.2392  0.2737
  839MPD2    H512392   1.393   3.470  11.844 -1.7034  1.5109 -0.2447
  839MPD2    N112393   1.191   2.945  11.884  0.7819  0.1885  0.0543
  839MPD2    H712394   1.171   2.945  11.785  1.7623 -0.3093 -0.1456
  840MPD2     C12395   1.684   1.468   9.993 -0.1905  0.8321 -0.3550
  840MPD2    C112396   1.697   1.364  10.088  0.0523 -0.9280 -0.6195
  840MPD2    C212397   1.763   1.401  10.210  1.0810 -0.0277 -0.2594
  840MPD2    C312398   1.821   1.523  10.239 -0.1420  0.3012  0.0917
  840MPD2    C412399   1.803   1.623  10.143 -0.1970 -0.1842  0.0813
  840MPD2    C512400   1.742   1.591  10.024 -0.4635 -0.0851 -0.0194
  840MPD2     H12401   1.765   1.324  10.285 -1.1234 -0.4491 -0.6168
  840MPD2    H112402   1.828   1.728  10.151 -1.4732  0.2409 -1.6258
  840MPD2    H212403   1.626   1.452   9.903  0.6155  2.4624 -1.1582
  840MPD2    H312404   1.723   1.673   9.956  0.2852 -0.2235 -0.4016
  840MPD2     N12405   1.882   1.560  10.362 -0.0343 -0.9682 -0.2757
  840MPD2    H512406   1.928   1.650  10.361 -2.9506  0.5633  3.5141
  840MPD2    N112407   1.635   1.234  10.060 -0.2709  0.0538 -0.0901
  840MPD2    H712408   1.591   1.223   9.969 -3.5937  2.3273  1.2657
  841MPD2     C12409   1.217   0.587  14.717 -0.4655 -0.2305  0.4052
  841MPD2    C112410   1.318   0.485  14.733  0.2409  0.4105  0.4128
  841MPD2    C212411   1.448   0.516  14.697  0.3330 -0.0167 -0.2186
  841MPD2    C312412   1.485   0.644  14.663  0.4299 -0.4284  0.2760
  841MPD2    C412413   1.390   0.740  14.639 -0.1703  0.6017 -0.2912
  841MPD2    C512414   1.256   0.710  14.668  0.2245  0.5776 -0.9188
  841MPD2     H12415   1.521   0.436  14.700 -0.0964 -0.3836  0.5079
  841MPD2    H112416   1.414   0.845  14.622  0.0399  0.4028 -1.2064
  841MPD2    H212417   1.111   0.576  14.734 -0.8457  2.9289  0.0296
  841MPD2    H312418   1.174   0.781  14.666 -0.3203  0.0476  1.6248
  841MPD2     N12419   1.625   0.665  14.647 -0.1781  0.4826  0.1117
  841MPD2    H512420   1.683   0.584  14.668 -2.1396 -0.4796  1.7384
  841MPD2    N112421   1.290   0.357  14.772 -0.6408 -0.5636 -0.4548
  841MPD2    H712422   1.360   0.285  14.757  0.2406  0.0156  0.8597
  842MPD2     C12423   1.633   0.690  16.187  0.0146  0.4293 -0.5350
  842MPD2    C112424   1.692   0.802  16.248  0.2543  0.7535  0.4540
  842MPD2    C212425   1.754   0.787  16.370  0.1501 -0.3142 -0.7966
  842MPD2    C312426   1.765   0.660  16.419  0.1427  0.0853  0.0031
  842MPD2    C412427   1.700   0.554  16.360 -0.3146 -0.3621 -0.3274
  842MPD2    C512428   1.627   0.574  16.249 -0.8748  0.3390  0.6492
  842MPD2     H12429   1.806   0.869  16.419  0.0924 -0.8291  0.1262
  842MPD2    H112430   1.709   0.457  16.408  0.3263  0.5249  1.3326
  842MPD2    H212431   1.567   0.702  16.102 -0.2703 -1.0208 -0.5167
  842MPD2    H312432   1.564   0.496  16.208 -0.3863  0.6065 -0.6038
  842MPD2     N12433   1.850   0.638  16.531 -0.0105  0.2005 -0.0251
  842MPD2    H512434   1.854   0.546  16.573 -0.6956  0.0473 -0.2908
  842MPD2    N112435   1.672   0.930  16.190  0.3598 -0.2993  0.1496
  842MPD2    H712436   1.606   0.940  16.114  1.4354  0.5381 -0.6766
  843MPD2     C12437   0.124   2.092   0.263 -0.7889  0.3226 -0.1958
  843MPD2    C112438   0.253   2.114   0.234 -0.2968 -0.6381  0.2064
  843MPD2    C212439   0.301   2.245   0.198 -0.2031  0.4667  0.3083
  843MPD2    C312440   0.214   2.357   0.203 -0.5796  0.1540 -0.1086
  843MPD2    C412441   0.085   2.326   0.232  0.2695  0.0499 -0.4424
  843MPD2    C512442   0.033   2.196   0.261 -0.4055  0.2635 -0.7998
  843MPD2     H12443   0.402   2.243   0.159 -0.3821 -0.4357 -0.1068
  843MPD2    H112444   0.013   2.406   0.232  0.9177  0.6355 -0.3720
  843MPD2    H212445   0.086   1.992   0.279  0.9992 -0.4814 -0.9703
  843MPD2    H312446   4.662   2.180   0.280 -0.2770 -0.3421 -0.5940
  843MPD2     N12447   0.242   2.483   0.174  0.0704  0.2160 -0.4205
  843MPD2    H512448   0.158   2.536   0.155 -0.5473  0.2443  2.4907
  843MPD2    N112449   0.342   2.003   0.236 -0.5809 -0.0885  0.1249
  843MPD2    H712450   0.306   1.913   0.266 -2.3825  0.9032  0.8657
  844MPD2     C12451   2.379   0.193  16.499 -0.2336  1.0316 -0.4422
  844MPD2    C112452   2.423   0.227  16.370  0.2357 -0.8490 -0.5316
  844MPD2    C212453   2.525   0.323  16.357 -1.0027 -0.0865  0.4043
  844MPD2    C312454   2.590   0.358  16.473  0.5530  0.2584 -0.4389
  844MPD2    C412455   2.545   0.319  16.598  0.8409  0.4702  0.3357
  844MPD2    C512456   2.437   0.238  16.616 -0.0642 -0.1473  0.5277
  844MPD2     H12457   2.553   0.354  16.257 -2.2818 -0.6057 -0.1117
  844MPD2    H112458   2.597   0.341  16.691 -0.1374 -1.2301  1.2982
  844MPD2    H212459   2.302   0.117  16.507 -0.5661  1.0493 -3.3435
  844MPD2    H312460   2.397   0.197  16.708  0.2375  0.5853  0.9832
  844MPD2     N12461   2.712   0.429  16.457 -0.3854 -0.2770  0.1946
  844MPD2    H512462   2.722   0.479  16.369 -2.5750 -2.1789 -1.1130
  844MPD2    N112463   2.365   0.169  16.252 -0.8371 -0.4101 -0.2282
  844MPD2    H712464   2.413   0.197  16.167  0.7352  0.1505  0.8465
  845MPD2     C12465   2.727   1.379  16.437 -0.5843  0.3061  0.9235
  845MPD2    C112466   2.765   1.330  16.564  0.7866 -0.4937 -0.3426
  845MPD2    C212467   2.819   1.204  16.570 -0.1079 -0.5561 -0.0652
  845MPD2    C312468   2.839   1.127  16.455  0.1758  0.0206  0.1257
  845MPD2    C412469   2.804   1.179  16.332 -0.0944  0.6567 -0.6985
  845MPD2    C512470   2.761   1.308  16.326 -0.2741  0.0248  0.0493
  845MPD2     H12471   2.835   1.163  16.668  1.7027  0.4585  0.0613
  845MPD2    H112472   2.826   1.125  16.240  1.7105 -0.8939  0.6182
  845MPD2    H212473   2.712   1.486  16.444 -1.9628  0.2824 -1.9671
  845MPD2    H312474   2.744   1.356  16.230  4.5374  1.5026 -0.0330
  845MPD2     N12475   2.894   0.998  16.471  0.0134 -0.7012  0.2118
  845MPD2    H512476   2.940   0.980  16.559  0.2425 -0.4217  0.1504
  845MPD2    N112477   2.742   1.411  16.670 -0.0150 -0.3667  0.4967
  845MPD2    H712478   2.680   1.487  16.645  0.0857 -1.3094 -2.6732
  846MPD2     C12479   4.617   1.802  13.881 -0.0131  0.3198 -0.3982
  846MPD2    C112480   4.501   1.876  13.846 -0.2360  0.2429 -0.3138
  846MPD2    C212481   4.386   1.872  13.929 -0.1313 -0.0998 -0.3952
  846MPD2    C312482   4.382   1.785  14.036 -0.3010 -0.2904  0.7562
  846MPD2    C412483   4.496   1.709  14.062  0.0313  0.0834  0.1115
  846MPD2    C512484   4.608   1.715  13.988  0.4603 -0.5082 -0.4463
  846MPD2     H12485   4.303   1.941  13.921  1.3837  1.9749  1.7823
  846MPD2    H112486   4.495   1.635  14.141 -0.6139  0.2098  0.2204
  846MPD2    H212487   4.706   1.794  13.819  2.1097 -1.9340  2.9594
  846MPD2    H312488   4.697   1.658  14.015 -0.7925 -1.9426  0.6370
  846MPD2     N12489   4.271   1.790  14.123  0.0515  0.0719  0.2128
  846MPD2    H512490   4.193   1.848  14.095 -1.4783 -0.4203  3.5557
  846MPD2    N112491   4.505   1.954  13.723 -0.0196 -1.1702 -0.0655
  846MPD2    H712492   4.421   2.005  13.695  0.8599  0.3383  0.0380
  847MPD2     C12493   4.083   2.203  14.536 -0.6137  0.5703 -0.2836
  847MPD2    C112494   4.161   2.308  14.515 -0.0030 -0.5911 -0.0718
  847MPD2    C212495   4.288   2.316  14.565  0.1543 -0.1548 -0.0627
  847MPD2    C312496   4.340   2.211  14.637 -0.1809 -0.2988 -0.0948
  847MPD2    C412497   4.257   2.101  14.654  0.8606 -0.4568  0.4831
  847MPD2    C512498   4.125   2.096  14.611 -0.5774  0.3854 -0.1460
  847MPD2     H12499   4.348   2.404  14.545 -0.9709  0.0267 -2.5944
  847MPD2    H112500   4.292   2.019  14.715 -0.5139 -1.8313 -0.5883
  847MPD2    H212501   3.980   2.201  14.502 -0.3392 -1.7608 -1.0014
  847MPD2    H312502   4.068   2.009  14.644  1.6486 -0.3111  1.8256
  847MPD2     N12503   4.478   2.234  14.674  0.2915 -0.0506  0.1483
  847MPD2    H512504   4.508   2.331  14.671 -0.9111  0.2075 -2.9962
  847MPD2    N112505   4.131   2.420  14.439  0.4012  0.6144 -0.0927
  847MPD2    H712506   4.205   2.487  14.420 -0.4199  1.7594  0.7537
  848MPD2     C12507   2.488   1.027  15.961 -0.0384 -0.4242 -0.4813
  848MPD2    C112508   2.475   1.089  16.084 -0.3031 -0.7366 -0.0498
  848MPD2    C212509   2.507   1.222  16.098  0.5771  0.5432 -0.0863
  848MPD2    C312510   2.554   1.294  15.983  0.0485  0.4007 -0.6328
  848MPD2    C412511   2.560   1.226  15.865  0.1374 -0.0440 -1.0373
  848MPD2    C512512   2.526   1.094  15.852 -0.3265  0.0637 -0.1363
  848MPD2     H12513   2.515   1.261  16.199 -0.0929 -1.7525  0.8420
  848MPD2    H112514   2.596   1.271  15.773  0.4380  2.7257  0.4322
  848MPD2    H212515   2.452   0.928  15.935  0.1072 -0.3877 -0.8177
  848MPD2    H312516   2.528   1.050  15.753 -0.4688  0.2826 -0.2374
  848MPD2     N12517   2.579   1.436  15.986 -0.6456  0.3830 -0.4982
  848MPD2    H512518   2.616   1.469  15.898 -2.0195  1.2385 -0.7479
  848MPD2    N112519   2.424   1.014  16.196  0.2867 -0.1060  0.4691
  848MPD2    H712520   2.401   1.077  16.272 -2.2910 -1.2235  0.6042
  849MPD2     C12521   0.964   1.015  13.965  0.8616 -0.8182  0.3418
  849MPD2    C112522   1.098   1.044  13.919 -0.1020  0.4121  0.5274
  849MPD2    C212523   1.203   0.979  13.985 -0.4609  0.4069 -0.4126
  849MPD2    C312524   1.174   0.911  14.103 -0.6311  0.6190 -0.1155
  849MPD2    C412525   1.048   0.886  14.150  1.1518  0.2609  0.0765
  849MPD2    C512526   0.942   0.941  14.078 -0.3412  0.2916  0.0186
  849MPD2     H12527   1.303   0.989  13.945  0.7778 -0.2344  2.5749
  849MPD2    H112528   1.022   0.837  14.243 -3.0221  0.3109 -1.0739
  849MPD2    H212529   0.878   1.063  13.919  2.3540 -1.6467 -3.3213
  849MPD2    H312530   0.838   0.930  14.106 -0.3409  0.3084  0.0261
  849MPD2     N12531   1.285   0.847  14.166  0.1127  0.7498 -0.7038
  849MPD2    H512532   1.374   0.849  14.119 -0.9691  2.6879 -2.6823
  849MPD2    N112533   1.109   1.107  13.797 -0.5135  0.6861 -0.7009
  849MPD2    H712534   1.024   1.133  13.747  0.6204  1.8089 -2.0402
  850MPD2     C12535   4.197   3.232  14.873  0.4918 -0.2997  0.8980
  850MPD2    C112536   4.191   3.307  14.985  0.1465 -0.3048 -0.3950
  850MPD2    C212537   4.308   3.350  15.044  0.0433 -0.0939  0.1531
  850MPD2    C312538   4.433   3.322  14.984  0.0891 -0.2882  0.5124
  850MPD2    C412539   4.438   3.247  14.869 -0.2996  0.4161 -0.5645
  850MPD2    C512540   4.323   3.192  14.826 -0.0753 -0.0227  0.0655
  850MPD2     H12541   4.299   3.399  15.141 -0.9364  0.0815 -0.0256
  850MPD2    H112542   4.529   3.221  14.817  0.6328  0.4193  1.0588
  850MPD2    H212543   4.112   3.187  14.823  0.4420 -0.0394  0.7483
  850MPD2    H312544   4.333   3.122  14.744  1.4517  0.3161 -0.0540
  850MPD2     N12545   4.559   3.376  15.022  0.0403 -0.4744 -0.2977
  850MPD2    H512546   4.633   3.332  14.969  0.5306  0.2092 -0.1820
  850MPD2    N112547   4.063   3.316  15.042  0.2629  0.6367 -0.6974
  850MPD2    H712548   3.983   3.264  15.007  1.1787 -1.7942  0.8235
  851MPD2     C12549   4.415   3.336  15.503 -0.1389  0.2825  0.1757
  851MPD2    C112550   4.318   3.248  15.467 -0.6563 -0.3685 -0.0630
  851MPD2    C212551   4.338   3.145  15.376  0.1000 -0.2061  0.8886
  851MPD2    C312552   4.461   3.135  15.316  0.1627 -1.1204  0.0129
  851MPD2    C412553   4.566   3.214  15.368  0.1985  0.0322  0.1388
  851MPD2    C512554   4.544   3.314  15.464  0.2423 -0.5659  0.7476
  851MPD2     H12555   4.257   3.085  15.338  0.5564 -0.2774  0.0259
  851MPD2    H112556   4.667   3.195  15.336  0.2059 -0.2319  0.3277
  851MPD2    H212557   4.383   3.419  15.564 -0.5071  1.3347 -1.4351
  851MPD2    H312558   4.622   3.379  15.500  1.0666 -0.9672 -0.3320
  851MPD2     N12559   4.474   3.032  15.221  0.2592  0.0798 -0.3292
  851MPD2    H512560   4.393   2.972  15.210 -0.9303  0.9327  3.8540
  851MPD2    N112561   4.189   3.292  15.506  0.4755  0.4922 -0.1558
  851MPD2    H712562   4.180   3.387  15.540  3.0504  1.0235 -0.9458
  852MPD2     C12563   2.468   2.841  10.298  0.2365  0.0500  0.1673
  852MPD2    C112564   2.578   2.832  10.381 -0.4991  0.0203  0.3209
  852MPD2    C212565   2.680   2.928  10.366  0.0516 -1.2857 -0.2550
  852MPD2    C312566   2.677   3.029  10.270  0.1608 -0.4853  0.7137
  852MPD2    C412567   2.575   3.031  10.179  0.6193 -0.2542 -0.2552
  852MPD2    C512568   2.472   2.940  10.201  0.8686  0.2182  0.1301
  852MPD2     H12569   2.765   2.921  10.433  0.9132 -0.9710 -1.3188
  852MPD2    H112570   2.564   3.102  10.097  3.8155 -0.3449 -0.7688
  852MPD2    H212571   2.382   2.776  10.303  1.0779 -1.1027 -0.5825
  852MPD2    H312572   2.386   2.941  10.135  2.2710  4.3041 -1.6443
  852MPD2     N12573   2.792   3.105  10.269 -0.7547  0.1230 -0.0779
  852MPD2    H512574   2.855   3.094  10.348 -0.9326 -1.8590 -0.2117
  852MPD2    N112575   2.596   2.739  10.480  0.3275  0.1138 -0.2836
  852MPD2    H712576   2.693   2.747  10.509  0.0898 -0.4598  0.6817
  853MPD2     C12577   0.585   1.277  12.181  0.1649 -0.2868 -0.3513
  853MPD2    C112578   0.565   1.415  12.163  0.4246 -0.0498  0.2557
  853MPD2    C212579   0.602   1.470  12.046 -0.1949 -0.0675 -0.7160
  853MPD2    C312580   0.646   1.400  11.933 -0.1901 -0.4977 -0.0450
  853MPD2    C412581   0.658   1.264  11.946 -0.2049  0.4604 -0.1885
  853MPD2    C512582   0.625   1.203  12.069 -0.1020 -0.7861 -0.0178
  853MPD2     H12583   0.588   1.577  12.039  0.6822  0.1823  1.6108
  853MPD2    H112584   0.691   1.213  11.856  2.5230  0.6721  0.6958
  853MPD2    H212585   0.590   1.233  12.280 -2.5294 -0.1866 -0.1570
  853MPD2    H312586   0.652   1.099  12.088 -2.3470 -1.4034 -0.2050
  853MPD2     N12587   0.680   1.464  11.817  1.0279  0.1096 -0.2497
  853MPD2    H512588   0.721   1.409  11.743  1.6080 -0.2154  0.3076
  853MPD2    N112589   0.505   1.497  12.263  0.0795 -0.1111  0.0521
  853MPD2    H712590   0.502   1.599  12.267  0.7352 -0.1023  0.2572
  854MPD2     C12591   2.113   1.842  13.098  0.0266 -0.4505  0.0608
  854MPD2    C112592   2.237   1.861  13.038 -0.3476 -0.2308 -1.0095
  854MPD2    C212593   2.337   1.773  13.082 -0.4448  0.3839  0.6032
  854MPD2    C312594   2.318   1.664  13.168 -0.4113 -0.1242  0.4456
  854MPD2    C412595   2.196   1.641  13.219 -0.0834  0.0284 -0.3891
  854MPD2    C512596   2.090   1.731  13.184 -0.5086 -0.0232  0.5499
  854MPD2     H12597   2.442   1.785  13.060 -1.1839  3.1466 -1.3668
  854MPD2    H112598   2.172   1.552  13.275 -1.7124 -0.8133 -2.4292
  854MPD2    H212599   2.032   1.911  13.078  0.8263  1.0734  2.1015
  854MPD2    H312600   1.987   1.725  13.217 -0.3760  1.0055  1.1787
  854MPD2     N12601   2.419   1.566  13.205  0.1783 -0.3732  0.4607
  854MPD2    H512602   2.390   1.474  13.236 -0.4854  0.1590  1.4116
  854MPD2    N112603   2.258   1.967  12.950  0.1681  0.1950  1.0414
  854MPD2    H712604   2.174   2.006  12.909  1.3133  0.3411 -1.1642
  855MPD2     C12605   2.239   0.899  13.667  0.0713  0.3707 -0.4855
  855MPD2    C112606   2.378   0.907  13.692  0.1255  1.2472 -1.0701
  855MPD2    C212607   2.456   0.994  13.622  0.5513 -0.1415  0.2489
  855MPD2    C312608   2.403   1.088  13.542 -0.0876 -1.0939  0.6951
  855MPD2    C412609   2.263   1.099  13.531 -0.9990 -1.0199  1.2308
  855MPD2    C512610   2.187   0.993  13.583  0.2526  0.3791  0.8811
  855MPD2     H12611   2.564   0.983  13.628  0.6205  0.5220  0.1957
  855MPD2    H112612   2.212   1.173  13.470  0.8604  0.2967  1.2793
  855MPD2    H212613   2.176   0.824  13.713  1.9995 -1.3158 -0.5866
  855MPD2    H312614   2.081   0.986  13.561  0.1392  1.5270  1.0958
  855MPD2     N12615   2.481   1.175  13.466 -0.1152 -0.5171  0.5057
  855MPD2    H512616   2.428   1.234  13.401 -4.1356 -2.0570  2.3661
  855MPD2    N112617   2.452   0.810  13.764  0.2309 -0.5288 -0.4939
  855MPD2    H712618   2.553   0.804  13.752  0.4138 -0.1636  0.8862
  856MPD2     C12619   1.047   2.133  13.759  0.1685  0.2605  0.2300
  856MPD2    C112620   0.987   2.209  13.853  0.7155  0.3035  0.0713
  856MPD2    C212621   0.925   2.331  13.818 -0.0170 -0.3781  0.8744
  856MPD2    C312622   0.915   2.368  13.683 -0.4611  0.1912 -0.0757
  856MPD2    C412623   0.970   2.287  13.588 -0.0333  0.2866  0.6360
  856MPD2    C512624   1.039   2.175  13.629 -0.0709  0.4181  0.0216
  856MPD2     H12625   0.890   2.392  13.901 -0.4364 -0.2365  0.5874
  856MPD2    H112626   0.965   2.309  13.482  1.5747 -2.0402  0.0706
  856MPD2    H212627   1.099   2.038  13.769 -1.8792 -0.7927  1.0890
  856MPD2    H312628   1.087   2.119  13.550 -0.5958 -1.7879  1.2663
  856MPD2     N12629   0.856   2.490  13.635  0.2632  0.3531 -0.2585
  856MPD2    H512630   0.850   2.491  13.534  0.0640 -2.7595 -0.2753
  856MPD2    N112631   0.988   2.177  13.988 -0.5269 -0.4077 -0.1747
  856MPD2    H712632   0.934   2.243  14.044 -0.0606 -0.9365  0.8943
  857MPD2     C12633   2.032   0.226  12.416  0.3843  0.0701 -0.1029
  857MPD2    C112634   1.942   0.151  12.485 -0.1621  0.8571  0.0767
  857MPD2    C212635   1.890   0.199  12.608 -0.1177  0.2988  0.0680
  857MPD2    C312636   1.900   0.334  12.632  0.0251 -0.0376 -0.4344
  857MPD2    C412637   1.973   0.414  12.553 -0.7242  0.0370 -0.8671
  857MPD2    C512638   2.045   0.357  12.451  0.5845 -0.4430 -0.6300
  857MPD2     H12639   1.814   0.141  12.659  1.8842 -1.9463  0.4391
  857MPD2    H112640   1.998   0.515  12.582 -0.6695  0.2747 -1.7461
  857MPD2    H212641   2.092   0.182  12.337  1.5147 -2.7143  2.2936
  857MPD2    H312642   2.112   0.412  12.386 -0.0751  0.2555 -0.7114
  857MPD2     N12643   1.822   0.381  12.742 -1.0421 -0.0032  0.6099
  857MPD2    H512644   1.768   0.312  12.793  2.1849 -2.4180  0.7799
  857MPD2    N112645   1.920   0.018  12.439 -0.7623  0.6804  1.0053
  857MPD2    H712646   1.955   4.732  12.346 -0.5865 -2.4603  1.7670
  858MPD2     C12647   3.131   3.026  16.860  0.2451  0.3448 -0.3819
  858MPD2    C112648   3.050   3.116  16.796  0.3788 -0.7500  0.6626
  858MPD2    C212649   3.029   3.239  16.858  0.6147 -0.2047 -0.4920
  858MPD2    C312650   3.075   3.269  16.985 -0.3874  0.1078  0.9162
  858MPD2    C412651   3.143   3.166  17.052 -0.1747  0.3826 -0.0803
  858MPD2    C512652   3.166   3.047  16.992  0.0910  0.3683  0.7651
  858MPD2     H12653   2.977   3.314  16.799 -0.7927 -0.6681  0.1769
  858MPD2    H112654   3.178   3.180  17.154 -1.5588 -2.6661  0.8247
  858MPD2    H212655   3.140   2.925  16.822 -1.0061  0.0312  0.1374
  858MPD2    H312656   3.223   2.973  17.047 -1.0021 -0.2891  1.0048
  858MPD2     N12657   3.056   3.394  17.050  0.2108  0.5949 -0.0836
  858MPD2    H512658   3.094   3.400  17.144  1.4265  0.9413 -0.5930
  858MPD2    N112659   2.990   3.080  16.671  0.1603  0.2006 -0.7095
  858MPD2    H712660   2.995   2.982  16.645 -1.4729  0.1484 -0.8290
  859MPD2     C12661   1.262   0.637  15.092  0.5365 -0.2647 -0.2183
  859MPD2    C112662   1.403   0.640  15.091 -0.0463 -0.6535 -0.1226
  859MPD2    C212663   1.464   0.514  15.123  0.2828  0.0370  0.6941
  859MPD2    C312664   1.388   0.409  15.161 -0.2699  0.5482 -0.3665
  859MPD2    C412665   1.253   0.420  15.177  0.4114 -0.4587 -0.3008
  859MPD2    C512666   1.190   0.530  15.136  0.3480 -0.3426 -0.6620
  859MPD2     H12667   1.572   0.510  15.112  0.3444  1.1117  0.9674
  859MPD2    H112668   1.187   0.343  15.216  0.0073 -0.3993 -0.8580
  859MPD2    H212669   1.206   0.721  15.054 -2.6377 -2.6422 -0.8070
  859MPD2    H312670   1.083   0.541  15.149  0.1545 -0.8255 -1.8640
  859MPD2     N12671   1.446   0.285  15.194  0.3625  0.3248  0.0639
  859MPD2    H512672   1.390   0.218  15.246  0.0628  0.6296  0.1333
  859MPD2    N112673   1.465   0.761  15.047 -0.4452  0.3194  0.1186
  859MPD2    H712674   1.414   0.836  15.000  1.0037  1.5670  0.5457
  860MPD2     C12675   3.578   1.771  11.611  0.0328  0.5207  0.8625
  860MPD2    C112676   3.592   1.822  11.733  0.8450  0.2692 -0.3056
  860MPD2    C212677   3.487   1.817  11.818 -0.3854 -0.1954  0.6876
  860MPD2    C312678   3.372   1.738  11.800 -0.0731  0.1893  0.5083
  860MPD2    C412679   3.370   1.663  11.684  0.0541 -0.5962  0.5731
  860MPD2    C512680   3.473   1.678  11.598  0.0248  0.1048 -0.6396
  860MPD2     H12681   3.495   1.858  11.917 -2.9634  2.0289 -0.0231
  860MPD2    H112682   3.290   1.593  11.663 -0.6259 -0.5922  3.2213
  860MPD2    H212683   3.653   1.769  11.533  0.1806  1.6292  0.9806
  860MPD2    H312684   3.471   1.623  11.505  3.0364 -3.0932  1.1931
  860MPD2     N12685   3.272   1.738  11.908  0.4488  0.2941 -0.7395
  860MPD2    H512686   3.273   1.818  11.971  3.0381 -0.4955  0.2308
  860MPD2    N112687   3.721   1.866  11.783 -0.2922 -0.5413 -0.3249
  860MPD2    H712688   3.716   1.911  11.874  1.6335  0.7330 -0.8489
  861MPD2     C12689   2.560   0.016  10.751 -0.0231  0.1488  0.9081
  861MPD2    C112690   2.544   0.128  10.834  0.1618 -0.3424 -0.6698
  861MPD2    C212691   2.442   0.221  10.796 -0.6212  0.1414 -0.1553
  861MPD2    C312692   2.371   0.204  10.676 -0.7092 -0.0687 -0.3048
  861MPD2    C412693   2.391   0.094  10.604  0.4641 -0.2883  0.2504
  861MPD2    C512694   2.477   0.001  10.641  0.2647 -0.6430 -0.3305
  861MPD2     H12695   2.432   0.310  10.858  0.5029  0.4848 -0.4591
  861MPD2    H112696   2.347   0.081  10.506  0.7619 -0.7468  0.1736
  861MPD2    H212697   2.639   4.677  10.763 -0.2850  0.0217  1.8342
  861MPD2    H312698   2.491   4.654  10.571  0.9663  1.2820 -2.4222
  861MPD2     N12699   2.288   0.308  10.614  0.4194 -0.4966 -0.2787
  861MPD2    H512700   2.279   0.288  10.515  0.6648  0.1999 -0.4456
  861MPD2    N112701   2.609   0.151  10.959  0.2670 -0.5444  0.1895
  861MPD2    H712702   2.581   0.234  11.009  1.5631 -0.0360  0.0816
  862MPD2     C12703   1.858   0.317  10.167  0.4452  0.3859 -0.4095
  862MPD2    C112704   1.960   0.311  10.260  0.0145 -0.2527 -0.4567
  862MPD2    C212705   1.968   0.198  10.336  0.4486 -0.3343  0.5263
  862MPD2    C312706   1.876   0.100  10.335  0.0342 -0.0963  0.0906
  862MPD2    C412707   1.772   0.099  10.239 -0.0976 -0.7193  0.4349
  862MPD2    C512708   1.775   0.202  10.159 -0.6883 -0.0167 -0.0721
  862MPD2     H12709   2.046   0.199  10.412  0.5882 -0.8610  0.3892
  862MPD2    H112710   1.692   0.026  10.238 -1.3827  0.6831  0.4581
  862MPD2    H212711   1.835   0.409  10.114  1.7982  0.2505 -1.2436
  862MPD2    H312712   1.690   0.209  10.092  0.7040  1.0971 -1.7268
  862MPD2     N12713   1.878   4.727  10.425 -0.7334 -0.0289  0.1981
  862MPD2    H512714   1.810   4.652  10.419  1.4424 -1.8332 -1.6364
  862MPD2    N112715   2.043   0.411  10.301  0.3711 -0.6181  0.0380
  862MPD2    H712716   2.109   0.377  10.370  1.7672  1.2530 -0.3987
  863MPD2     C12717   1.149   2.951  16.540 -0.1188  0.2993  0.2456
  863MPD2    C112718   1.120   2.821  16.501  0.6498  0.7838 -0.3442
  863MPD2    C212719   1.194   2.713  16.556  0.2013 -0.9331  0.1733
  863MPD2    C312720   1.292   2.736  16.654 -0.1363 -0.5159  0.2077
  863MPD2    C412721   1.311   2.864  16.700 -0.4517  0.2258 -0.4222
  863MPD2    C512722   1.246   2.968  16.637  0.4811 -0.0805 -0.3623
  863MPD2     H12723   1.182   2.609  16.527 -0.5086 -0.2819 -1.8693
  863MPD2    H112724   1.375   2.887  16.785 -0.6253  1.6857 -0.6809
  863MPD2    H212725   1.094   3.042  16.518 -0.6729  0.3026  1.6412
  863MPD2    H312726   1.254   3.068  16.678 -0.6146  0.1818 -0.8075
  863MPD2     N12727   1.359   2.628  16.719  0.4618  0.0743 -0.3220
  863MPD2    H512728   1.427   2.649  16.791 -0.1281  2.2424 -0.4202
  863MPD2    N112729   1.018   2.795  16.405 -0.4601  0.2809 -0.4690
  863MPD2    H712730   0.979   2.884  16.375  0.2656  0.1441 -1.8004
  864MPD2     C12731   1.996   3.364  17.054 -0.3778 -0.1936 -0.4823
  864MPD2    C112732   1.940   3.252  17.000  0.6879  0.2373  0.7987
  864MPD2    C212733   2.018   3.140  16.972  0.3993  0.4907  0.3032
  864MPD2    C312734   2.155   3.147  16.994  0.4931 -0.8720  0.5001
  864MPD2    C412735   2.211   3.264  17.043  0.1574 -0.5720 -0.5018
  864MPD2    C512736   2.124   3.371  17.070 -0.0310  1.4434  0.2333
  864MPD2     H12737   1.968   3.055  16.927  1.4830 -1.2902  2.4904
  864MPD2    H112738   2.316   3.275  17.071 -0.5616  4.3164  0.3295
  864MPD2    H212739   1.943   3.458  17.071  1.2150  1.1072 -2.6688
  864MPD2    H312740   2.167   3.465  17.104 -0.0645  1.4197  0.3392
  864MPD2     N12741   2.235   3.040  16.971  0.5453 -0.7604  0.4646
  864MPD2    H512742   2.334   3.060  16.977  0.6235 -0.7276 -0.8319
  864MPD2    N112743   1.799   3.242  16.970  0.2481 -0.2067  0.0095
  864MPD2    H712744   1.747   3.327  16.988  0.0781 -0.0290 -1.3106
  865MPD2     C12745   2.362   3.228  16.231  0.3322 -0.1665 -0.3401
  865MPD2    C112746   2.307   3.101  16.253  0.5583  0.8936 -0.4547
  865MPD2    C212747   2.343   3.030  16.368 -0.7631 -0.0587  0.5327
  865MPD2    C312748   2.430   3.081  16.462  0.2577  0.1912  0.2661
  865MPD2    C412749   2.479   3.209  16.439  0.3635  0.9569  0.6026
  865MPD2    C512750   2.446   3.280  16.328  0.0062  0.0478  0.7326
  865MPD2     H12751   2.305   2.930  16.384 -2.7889  0.5302 -0.5925
  865MPD2    H112752   2.564   3.237  16.499  1.0312 -1.4433  0.7518
  865MPD2    H212753   2.329   3.283  16.143 -0.7572  1.7870  1.3051
  865MPD2    H312754   2.502   3.372  16.327 -2.0813  1.3198 -0.2994
  865MPD2     N12755   2.470   3.006  16.573 -0.3254  0.6483 -0.7812
  865MPD2    H512756   2.524   3.050  16.646 -1.3996  3.6025 -1.7907
  865MPD2    N112757   2.225   3.049  16.145  0.0799 -0.1989 -0.1323
  865MPD2    H712758   2.203   3.101  16.061 -1.1780  1.6990  1.4021
  866MPD2     C12759   2.993   0.737  11.408 -1.2025  0.0879 -0.6727
  866MPD2    C112760   3.012   0.751  11.274  0.2073 -0.4548 -0.0654
  866MPD2    C212761   2.904   0.780  11.189  0.3439  0.2935 -0.6256
  866MPD2    C312762   2.778   0.795  11.250 -0.5883  0.2326  0.2555
  866MPD2    C412763   2.761   0.789  11.383 -0.0035  0.6628  0.0410
  866MPD2    C512764   2.868   0.760  11.466 -0.2668 -0.3895 -0.3355
  866MPD2     H12765   2.910   0.798  11.082  0.3994 -1.2283 -0.8777
  866MPD2    H112766   2.667   0.810  11.433  0.2946  0.5831  0.6357
  866MPD2    H212767   3.077   0.717  11.473 -0.7321  1.0304 -0.9869
  866MPD2    H312768   2.858   0.753  11.573  1.5282 -0.9715 -0.2141
  866MPD2     N12769   2.666   0.812  11.171  0.2504  0.3649 -0.1683
  866MPD2    H512770   2.580   0.819  11.225  0.8795 -0.9494  0.9906
  866MPD2    N112771   3.135   0.719  11.215 -0.8611 -0.3455  0.7862
  866MPD2    H712772   3.208   0.698  11.283  1.5151  3.4002 -0.6360
  867MPD2     C12773   1.294   4.291  16.630 -0.8970  0.0729  0.1208
  867MPD2    C112774   1.292   4.182  16.712 -1.0005  0.4371 -0.4180
  867MPD2    C212775   1.338   4.196  16.846  0.1679 -0.4649 -0.0589
  867MPD2    C312776   1.381   4.318  16.898  0.0592  0.6160 -0.3454
  867MPD2    C412777   1.399   4.419  16.805  0.2228  0.8379  0.9413
  867MPD2    C512778   1.350   4.404  16.678 -0.7635  0.1688  0.0821
  867MPD2     H12779   1.329   4.108  16.909  1.2436 -1.3382 -1.1287
  867MPD2    H112780   1.456   4.509  16.827  0.5732  1.0510 -0.8390
  867MPD2    H212781   1.267   4.282  16.526 -3.0954 -1.0018  0.7634
  867MPD2    H312782   1.375   4.484  16.610 -0.3819  0.5243  0.6390
  867MPD2     N12783   1.414   4.346  17.034 -0.1243 -0.0758  0.3840
  867MPD2    H512784   1.448   4.441  17.046 -0.6331  0.2650 -0.8386
  867MPD2    N112785   1.243   4.066  16.656  0.1920 -0.2008  0.2509
  867MPD2    H712786   1.240   4.076  16.555 -2.8561 -0.0305  0.3587
  868MPD2     C12787   1.979   3.283  13.145 -0.0950  0.0292  0.0144
  868MPD2    C112788   2.033   3.196  13.237 -0.3305  0.3163  0.3138
  868MPD2    C212789   1.970   3.189  13.362 -0.1831 -0.1235 -0.1276
  868MPD2    C312790   1.860   3.269  13.395 -0.4195  0.0037 -0.1571
  868MPD2    C412791   1.811   3.348  13.291  0.5884  0.0900 -0.2086
  868MPD2    C512792   1.877   3.367  13.169  0.1431  0.2777  0.4743
  868MPD2     H12793   2.026   3.133  13.436 -0.3074 -0.0328  0.0337
  868MPD2    H112794   1.724   3.413  13.301  0.9089  0.6770 -1.2855
  868MPD2    H212795   2.026   3.284  13.047 -2.9722 -0.1186 -1.3649
  868MPD2    H312796   1.850   3.448  13.101 -3.8834 -0.5674  1.0774
  868MPD2     N12797   1.797   3.262  13.521  0.0477 -0.3072  0.6625
  868MPD2    H512798   1.839   3.207  13.595  0.8593 -2.2634 -1.2619
  868MPD2    N112799   2.157   3.134  13.200 -0.4167  0.0038  0.4908
  868MPD2    H712800   2.190   3.149  13.105  2.6898 -0.1277  1.5502
  869MPD2     C12801   4.042   1.231   1.041  0.4756  0.3261  0.6857
  869MPD2    C112802   4.170   1.186   1.029  0.0542 -0.4599  0.2571
  869MPD2    C212803   4.226   1.176   0.902  0.2988  0.4820 -0.4769
  869MPD2    C312804   4.138   1.200   0.791  0.7218 -0.9212 -0.2674
  869MPD2    C412805   4.007   1.236   0.811  0.1951  0.9196 -0.5607
  869MPD2    C512806   3.963   1.255   0.936  0.2484 -0.1077 -0.9124
  869MPD2     H12807   4.334   1.175   0.889  0.3302 -1.9044 -0.0561
  869MPD2    H112808   3.939   1.256   0.729  0.5059 -0.5160 -1.1636
  869MPD2    H212809   4.001   1.252   1.139 -0.5570  1.8768 -0.0894
  869MPD2    H312810   3.862   1.291   0.954  0.6948 -0.0592  1.5034
  869MPD2     N12811   4.185   1.225   0.663  0.2739 -0.5074 -0.9664
  869MPD2    H512812   4.108   1.244   0.600 -1.2092 -1.4164  0.5777
  869MPD2    N112813   4.240   1.162   1.151 -0.6096 -0.0860 -0.3045
  869MPD2    H712814   4.189   1.174   1.238 -0.5025  0.6883 -0.3445
  870MPD2     C12815   3.269   0.580   1.624  0.8089  0.5496 -0.4221
  870MPD2    C112816   3.309   0.485   1.536 -0.9284 -0.3072  0.1759
  870MPD2    C212817   3.288   0.503   1.399 -0.2757 -0.1481  0.1012
  870MPD2    C312818   3.252   0.632   1.355  0.4550  0.8331 -0.2857
  870MPD2    C412819   3.222   0.721   1.449 -0.1881  0.3587 -0.1356
  870MPD2    C512820   3.217   0.696   1.586  0.2980  0.2664  0.3288
  870MPD2     H12821   3.309   0.425   1.327 -0.9161 -1.3558  1.2159
  870MPD2    H112822   3.184   0.817   1.416  2.9696  1.5753 -0.2733
  870MPD2    H212823   3.263   0.554   1.729 -1.1939 -1.9223 -1.1438
  870MPD2    H312824   3.168   0.766   1.652 -1.7950 -0.9288  0.0599
  870MPD2     N12825   3.245   0.653   1.216  0.4283  0.3007 -0.1581
  870MPD2    H512826   3.259   0.571   1.157 -1.1666 -0.4078  0.4323
  870MPD2    N112827   3.369   0.366   1.588 -0.0067 -0.3999  0.2928
  870MPD2    H712828   3.386   0.371   1.688 -1.5949 -0.7004  0.5769
  871MPD2     C12829   0.006   4.037  16.405 -0.3528  0.3312 -0.0670
  871MPD2    C112830   4.690   4.017  16.532  0.6616  0.3599  0.2540
  871MPD2    C212831   4.631   3.897  16.570 -0.2979  0.0724  0.3257
  871MPD2    C312832   4.637   3.789  16.484 -0.1121  1.1042 -0.3594
  871MPD2    C412833   4.716   3.805  16.367  0.6234 -0.1067 -0.0174
  871MPD2    C512834   0.028   3.926  16.320  0.0712  0.0799 -0.6974
  871MPD2     H12835   4.575   3.876  16.660  1.4801 -2.4243  0.8667
  871MPD2    H112836   4.734   3.717  16.306 -1.2985  0.9360 -2.0687
  871MPD2    H212837   0.058   4.128  16.379 -2.3525  0.9207 -2.0221
  871MPD2    H312838   0.088   3.937  16.230  2.9092  0.5277  1.2312
  871MPD2     N12839   4.568   3.668  16.519 -0.4537 -0.0499  0.6450
  871MPD2    H512840   4.529   3.665  16.613  0.2387 -1.4660  0.8973
  871MPD2    N112841   4.697   4.131  16.620 -0.0200 -0.1556  0.3398
  871MPD2    H712842   4.729   4.216  16.575 -0.5920 -0.8892 -1.4680
  872MPD2     C12843   0.164   1.358  13.920 -0.5854  0.9005  0.5493
  872MPD2    C112844   0.108   1.437  13.826 -0.1852 -0.1190 -0.3416
  872MPD2    C212845   4.712   1.450  13.810  0.3019  0.3839 -0.4600
  872MPD2    C312846   4.623   1.385  13.892  0.4408 -0.4142  0.4355
  872MPD2    C412847   4.675   1.316  14.002  0.0292  0.0264  0.4196
  872MPD2    C512848   0.077   1.299  14.010 -0.1279 -0.2224 -0.0558
  872MPD2     H12849   4.677   1.527  13.741 -0.2994  0.9325  0.4581
  872MPD2    H112850   4.611   1.278  14.081  0.0208  0.3596  0.5728
  872MPD2    H212851   0.271   1.341  13.923 -0.8450 -1.0231 -1.5334
  872MPD2    H312852   0.131   1.235  14.079 -0.5480 -2.5410 -1.8836
  872MPD2     N12853   4.488   1.410  13.900  0.8403 -0.0713  0.3401
  872MPD2    H512854   4.449   1.368  13.984  0.7610  0.2323  0.4548
  872MPD2    N112855   0.191   1.530  13.749  0.2710  0.1087  0.3525
  872MPD2    H712856   0.149   1.591  13.679  0.2146 -0.7741 -0.3846
  873MPD2     C12857   2.064   0.736   1.177  0.0446  0.5000 -0.2299
  873MPD2    C112858   2.043   0.798   1.056  0.9609 -1.0249  0.3840
  873MPD2    C212859   1.943   0.754   0.974 -0.1751 -0.1564 -0.0278
  873MPD2    C312860   1.852   0.657   1.021  0.1422 -0.9178  0.4862
  873MPD2    C412861   1.870   0.609   1.150  0.2975  0.4975  0.7204
  873MPD2    C512862   1.983   0.638   1.220 -0.0750  0.5314  0.1041
  873MPD2     H12863   1.923   0.803   0.880 -0.6120  1.7063  1.0337
  873MPD2    H112864   1.810   0.523   1.178 -1.0455  1.3719  0.5288
  873MPD2    H212865   2.149   0.764   1.239 -0.3731  0.3202  0.4250
  873MPD2    H312866   2.004   0.582   1.310  2.1089  1.0286 -0.1028
  873MPD2     N12867   1.739   0.616   0.953 -0.1749 -0.3295 -0.1253
  873MPD2    H512868   1.670   0.562   1.004 -0.9821 -0.1352 -1.0305
  873MPD2    N112869   2.136   0.899   1.026  0.7361  0.3154  0.2966
  873MPD2    H712870   2.209   0.921   1.092  2.5711  1.7741 -2.2023
  874MPD2     C12871   1.924   1.562  15.647  0.2244  0.0138 -0.4966
  874MPD2    C112872   1.938   1.548  15.779 -0.1565 -0.6160 -0.8561
  874MPD2    C212873   2.038   1.622  15.841 -0.3398  0.1646 -0.4037
  874MPD2    C312874   2.130   1.698  15.771 -0.1190  0.0735 -0.1784
  874MPD2    C412875   2.104   1.718  15.640  0.5282  0.2670  0.5397
  874MPD2    C512876   1.999   1.650  15.579  0.4544  0.4154 -1.2615
  874MPD2     H12877   2.043   1.617  15.949 -1.1758 -2.4014 -0.4809
  874MPD2    H112878   2.180   1.763  15.579 -1.5230  0.0428 -2.1940
  874MPD2    H212879   1.848   1.509  15.590 -0.0948  1.7611 -1.7141
  874MPD2    H312880   1.999   1.644  15.471  0.9603 -2.2631 -1.0993
  874MPD2     N12881   2.245   1.740  15.839  0.5145  0.1829 -0.3829
  874MPD2    H512882   2.239   1.722  15.939  1.0103 -0.9287 -0.5501
  874MPD2    N112883   1.845   1.464  15.855 -0.6536 -0.5040 -0.3111
  874MPD2    H712884   1.771   1.411  15.809 -4.1812  1.8234  2.6093
  875MPD2     C12885   2.525   0.095  14.427 -0.5742 -0.2418 -0.3372
  875MPD2    C112886   2.437   0.054  14.525 -0.3613  0.4196 -0.9505
  875MPD2    C212887   2.483   0.018  14.651 -0.3018 -0.3257 -0.1265
  875MPD2    C312888   2.620   0.023  14.677  0.1708  0.4875 -0.4688
  875MPD2    C412889   2.705   0.066  14.581 -0.3263  1.1498 -0.0649
  875MPD2    C512890   2.656   0.102  14.456 -0.3299 -0.6842 -0.0905
  875MPD2     H12891   2.418   4.717  14.729 -0.5462 -0.5769 -0.4437
  875MPD2    H112892   2.805   0.099  14.608  0.1631 -1.2020  1.0263
  875MPD2    H212893   2.493   0.112  14.325 -0.6722 -0.4375 -0.3400
  875MPD2    H312894   2.719   0.150  14.382  2.6671 -3.9587  0.3550
  875MPD2     N12895   2.669   0.007  14.808 -0.1244 -0.6687  0.6661
  875MPD2    H512896   2.767   0.026  14.827 -0.3648 -0.6854  1.8914
  875MPD2    N112897   2.300   0.057  14.492  0.6361  0.3240  0.3674
  875MPD2    H712898   2.290   0.083  14.394 -1.6402 -1.6351  0.0666
  876MPD2     C12899   2.050   0.996  15.920  0.6298 -0.6178 -0.3208
  876MPD2    C112900   1.981   0.966  15.809  0.4794  0.3863  0.7369
  876MPD2    C212901   1.919   0.840  15.795 -0.8145  0.0954  0.0661
  876MPD2    C312902   1.921   0.752  15.899  0.2279 -0.1560 -0.9101
  876MPD2    C412903   1.978   0.788  16.023  0.4948  0.0778 -0.0215
  876MPD2    C512904   2.031   0.913  16.034 -0.2536 -0.6515 -0.1426
  876MPD2     H12905   1.866   0.805  15.707  0.1880 -0.2160 -0.4181
  876MPD2    H112906   1.966   0.727  16.112  1.2412 -1.0524 -0.7015
  876MPD2    H212907   2.106   1.088  15.925  0.2364 -0.3661 -0.5868
  876MPD2    H312908   2.077   0.950  16.125  0.2009 -2.1095  0.2291
  876MPD2     N12909   1.864   0.628  15.878 -0.7166 -0.2419 -0.6990
  876MPD2    H512910   1.805   0.609  15.798 -0.2745 -0.5284 -0.9617
  876MPD2    N112911   1.975   1.070  15.714 -0.0181  0.4297 -0.1576
  876MPD2    H712912   2.024   1.158  15.729  0.0393  0.5798 -1.1946
  877MPD2     C12913   1.514   1.388  15.043  0.0614  0.7675 -0.4692
  877MPD2    C112914   1.645   1.434  15.052  0.4924 -0.0657 -0.7728
  877MPD2    C212915   1.700   1.497  14.942  0.8509  0.4053 -0.8807
  877MPD2    C312916   1.629   1.516  14.825 -0.5272 -0.1541  0.1255
  877MPD2    C412917   1.495   1.488  14.830  0.3482  0.0528 -0.1158
  877MPD2    C512918   1.446   1.408  14.928  0.3950  0.1394  0.6922
  877MPD2     H12919   1.808   1.512  14.948  0.7352  0.5956  0.8046
  877MPD2    H112920   1.428   1.516  14.750 -1.2285 -1.0399  0.8168
  877MPD2    H212921   1.466   1.331  15.123 -0.3493  1.1655 -0.4306
  877MPD2    H312922   1.343   1.376  14.922  0.3222  0.6690 -0.7839
  877MPD2     N12923   1.683   1.558  14.698  0.7536  0.0369 -0.0983
  877MPD2    H512924   1.622   1.543  14.618  1.3154 -1.4780 -0.2350
  877MPD2    N112925   1.728   1.394  15.159 -0.5514 -0.0981 -0.1341
  877MPD2    H712926   1.825   1.420  15.147 -0.1322 -1.2601  0.7087
  878MPD2     C12927   0.683   0.822  13.035  0.1020 -0.2844  0.6938
  878MPD2    C112928   0.798   0.866  12.974  0.8123 -0.1804 -0.2619
  878MPD2    C212929   0.906   0.910  13.056 -1.0099  0.1671  0.0192
  878MPD2    C312930   0.894   0.901  13.193 -0.1953 -0.8726 -0.2545
  878MPD2    C412931   0.776   0.887  13.253 -0.3182 -1.2201  0.3946
  878MPD2    C512932   0.674   0.851  13.166 -0.6427  0.3906 -0.4899
  878MPD2     H12933   1.006   0.931  13.020 -0.8226  0.2492  0.5942
  878MPD2    H112934   0.753   0.874  13.358 -0.9519  2.5203  0.6993
  878MPD2    H212935   0.598   0.795  12.973  0.8052 -0.4971 -0.1753
  878MPD2    H312936   0.578   0.817  13.204 -0.9753  0.9764 -0.8066
  878MPD2     N12937   1.009   0.924  13.268 -0.4697 -0.1778  0.1236
  878MPD2    H512938   1.100   0.933  13.224 -1.1733  2.2848 -0.8055
  878MPD2    N112939   0.799   0.874  12.833  0.0919  0.1981  0.1016
  878MPD2    H712940   0.712   0.850  12.787 -0.5870 -4.1126  3.5304
  879MPD2     C12941   1.879   2.436  16.774 -0.0036 -0.3312 -0.0476
  879MPD2    C112942   1.906   2.319  16.842  0.2075  0.6170 -0.5379
  879MPD2    C212943   1.877   2.202  16.774 -0.4718 -0.2803  0.6937
  879MPD2    C312944   1.833   2.203  16.641 -0.0221  1.2038 -0.2400
  879MPD2    C412945   1.800   2.320  16.581 -0.4095 -0.1156 -0.1884
  879MPD2    C512946   1.830   2.439  16.644 -1.1733  0.1162  0.0918
  879MPD2     H12947   1.896   2.109  16.827  0.5011  0.0578  0.9474
  879MPD2    H112948   1.752   2.329  16.484 -0.0509 -3.3189 -0.6731
  879MPD2    H212949   1.904   2.533  16.816 -0.5823 -0.0697 -0.3121
  879MPD2    H312950   1.812   2.535  16.598 -0.3719  1.1986  2.0735
  879MPD2     N12951   1.817   2.080  16.573 -0.1356  0.7215  0.2054
  879MPD2    H512952   1.781   2.098  16.480 -1.9716  0.9156  0.9457
  879MPD2    N112953   1.951   2.329  16.977  0.2928  0.1110 -0.4208
  879MPD2    H712954   1.989   2.418  17.006 -0.0383  0.6245 -1.5446
  880MPD2     C12955   3.634   4.336  17.647  0.4492  0.2248 -0.2969
  880MPD2    C112956   3.695   4.410   0.012  0.3210  0.1368 -0.4390
  880MPD2    C212957   3.771   4.340   0.103 -0.3729  0.2488 -0.4512
  880MPD2    C312958   3.787   4.207   0.099  0.8346 -0.0878  0.8246
  880MPD2    C412959   3.721   4.133   0.006  0.5998  0.4483 -0.1380
  880MPD2    C512960   3.654   4.201  17.648  0.6780  0.3034 -0.0034
  880MPD2     H12961   3.812   4.388   0.191  2.3765  1.0152 -2.1660
  880MPD2    H112962   3.720   4.024   0.007  0.2604  0.4487 -0.8970
  880MPD2    H212963   3.570   4.386  17.575  0.1839  2.9508  1.8816
  880MPD2    H312964   3.617   4.144  17.564 -0.3486 -0.5643  1.0404
  880MPD2     N12965   3.862   4.145   0.204  0.7823  0.1352  0.1108
  880MPD2    H512966   3.931   4.208   0.243 -0.1794  0.6500  1.0005
  880MPD2    N112967   3.681   4.556   0.012 -0.4676 -0.0377 -0.7433
  880MPD2    H712968   3.641   4.606  17.671 -1.6683  1.6340  0.9358
  881MPD2     C12969   3.805   0.673  17.316  0.2996 -0.8305  0.4535
  881MPD2    C112970   3.763   0.553  17.285  0.2329 -0.6448  0.2197
  881MPD2    C212971   3.731   0.473  17.393  0.3400 -0.6769 -0.0051
  881MPD2    C312972   3.707   0.527  17.511 -0.5879  0.3634  0.0214
  881MPD2    C412973   3.720   0.660  17.536  0.6435  0.4139 -0.3204
  881MPD2    C512974   3.781   0.732  17.437  0.1611 -0.2771  0.1576
  881MPD2     H12975   3.728   0.365  17.380  0.0784 -0.3470 -2.8178
  881MPD2    H112976   3.709   0.703  17.635 -0.0556  0.7795 -0.5551
  881MPD2    H212977   3.857   0.735  17.243  0.1597 -0.6021  0.5507
  881MPD2    H312978   3.821   0.830  17.459  0.2817 -0.4322  0.6304
  881MPD2     N12979   3.681   0.448  17.628  1.2848  0.0289  0.1172
  881MPD2    H512980   3.662   0.498  17.714 -0.2959  0.7707 -0.6631
  881MPD2    N112981   3.809   0.501  17.160 -0.9150 -0.1839  0.2800
  881MPD2    H712982   3.874   0.559  17.109 -0.2512 -1.9997 -0.9175
  882MPD2     C12983   1.630   1.492  13.887 -0.1881  0.0094  0.6820
  882MPD2    C112984   1.591   1.539  14.008 -0.7441  0.5749  0.2898
  882MPD2    C212985   1.452   1.542  14.034 -0.0550 -0.3494  0.2907
  882MPD2    C312986   1.356   1.507  13.944 -0.2166 -0.0198  0.5359
  882MPD2    C412987   1.399   1.457  13.822  0.6337 -0.1629  0.2557
  882MPD2    C512988   1.540   1.445  13.801 -0.5945 -0.5789  0.0040
  882MPD2     H12989   1.420   1.561  14.136  0.9999 -0.4316  0.6342
  882MPD2    H112990   1.329   1.413  13.752 -0.3034  2.2524 -0.3483
  882MPD2    H212991   1.736   1.484  13.868 -0.2597  1.2087 -0.2212
  882MPD2    H312992   1.571   1.406  13.705 -0.1257 -1.9013  0.7013
  882MPD2     N12993   1.220   1.504  13.965 -0.4905  0.0607  0.4665
  882MPD2    H512994   1.162   1.462  13.894  1.3107  0.8002 -1.4327
  882MPD2    N112995   1.687   1.580  14.099 -0.0382 -0.6397 -0.0194
  882MPD2    H712996   1.784   1.557  14.080  0.3958  0.4982  0.7732
  883MPD2     C12997   3.994   1.567  16.290  0.0300 -0.1935 -1.0626
  883MPD2    C112998   3.982   1.655  16.185  0.5390 -0.2105  0.6653
  883MPD2    C212999   3.983   1.786  16.216  0.0267 -0.7123 -0.2678
  883MPD2    C313000   3.960   1.829  16.347 -0.0390 -0.2717  0.1998
  883MPD2    C413001   3.950   1.738  16.451 -0.0940 -0.4349 -0.0705
  883MPD2    C513002   3.974   1.606  16.420 -0.3156 -0.0503  0.4589
  883MPD2     H13003   3.979   1.853  16.131  1.2178 -1.6520 -1.0743
  883MPD2    H113004   3.960   1.764  16.556  1.6017  0.4511 -0.4578
  883MPD2    H213005   4.010   1.463  16.267 -0.1103 -0.7696  1.4072
  883MPD2    H313006   3.972   1.536  16.503  0.0543  0.1036  0.5949
  883MPD2     N13007   3.977   1.971  16.361 -0.5423 -0.0501 -0.3871
  883MPD2    H513008   4.000   2.026  16.279  1.1181  0.9075  0.7174
  883MPD2    N113009   4.001   1.626  16.049  0.0825  0.1523  0.0601
  883MPD2    H713010   4.007   1.702  15.983 -1.4592 -2.2093 -2.8202
  884MPD2     C13011   0.996   2.026  15.134 -0.1478  0.2684 -0.1909
  884MPD2    C113012   0.901   2.030  15.034 -0.2827  0.1530  0.1476
  884MPD2    C213013   0.771   2.051  15.070  0.3294 -1.0348  0.1161
  884MPD2    C313014   0.735   2.069  15.193 -0.0183  0.6163  0.3609
  884MPD2    C413015   0.829   2.065  15.292  0.1642  0.1565 -0.7222
  884MPD2    C513016   0.958   2.044  15.260 -0.1854 -0.7576  0.7211
  884MPD2     H13017   0.701   2.067  14.989 -0.1261  3.4375  1.4223
  884MPD2    H113018   0.803   2.074  15.397  0.7247  1.0040 -0.6562
  884MPD2    H213019   1.101   2.007  15.113  0.3490  1.2889  1.4101
  884MPD2    H313020   1.034   2.045  15.337  0.1543 -0.8773  0.3832
  884MPD2     N13021   0.598   2.093  15.214 -0.1288 -0.0014 -0.1961
  884MPD2    H513022   0.538   2.111  15.134 -1.3858 -1.1848  0.4862
  884MPD2    N113023   0.944   2.013  14.900  0.6593  0.2458  0.0753
  884MPD2    H713024   0.877   2.029  14.825  1.9374  0.8395 -0.9669
  885MPD2     C13025   3.918   3.097   0.291  0.1721  0.0819 -0.3851
  885MPD2    C113026   4.036   3.025   0.272  0.1790  0.2328 -0.6245
  885MPD2    C213027   4.080   3.008   0.139 -0.0937  0.0854 -1.1135
  885MPD2    C313028   3.998   3.050   0.032 -0.1877 -0.1024  0.1724
  885MPD2    C413029   3.871   3.105   0.050 -0.7065 -0.3407 -0.0518
  885MPD2    C513030   3.840   3.137   0.182  0.7917 -0.3902 -0.2166
  885MPD2     H13031   4.168   2.946   0.125  1.4596  2.2164 -0.8776
  885MPD2    H113032   3.796   3.132  17.715 -0.8491  0.7003  0.4644
  885MPD2    H213033   3.883   3.132   0.388  0.0260 -0.6009 -0.1897
  885MPD2    H313034   3.744   3.184   0.197  1.9176  1.4981  1.1620
  885MPD2     N13035   4.042   3.018  17.645 -0.5448  0.5005  0.2431
  885MPD2    H513036   4.124   2.961  17.631 -1.3746 -0.1886 -1.8261
  885MPD2    N113037   4.101   2.965   0.383 -0.7731 -0.0949  0.3602
  885MPD2    H713038   4.041   2.961   0.465  1.2162 -1.9380  1.7331
  886MPD2     C13039   0.722   0.428  15.148 -0.6901  0.1392  1.4920
  886MPD2    C113040   0.776   0.531  15.223  0.5429 -0.8656 -0.8264
  886MPD2    C213041   0.734   0.663  15.194 -0.0902 -0.4471 -0.1053
  886MPD2    C313042   0.653   0.689  15.086  1.0376 -0.2777  0.1187
  886MPD2    C413043   0.610   0.587  15.008 -0.4806 -0.2230 -0.3071
  886MPD2    C513044   0.645   0.456  15.036  0.3286  0.1225  0.2939
  886MPD2     H13045   0.788   0.742  15.244 -1.0061 -0.3225  0.6870
  886MPD2    H113046   0.545   0.604  14.922  0.6168 -0.0507 -1.1086
  886MPD2    H213047   0.762   0.327  15.146 -2.3515 -0.4919 -1.0318
  886MPD2    H313048   0.620   0.379  14.964 -3.2346  1.0142  0.5849
  886MPD2     N13049   0.621   0.826  15.057  0.5550 -0.5129  0.3508
  886MPD2    H513050   0.648   0.900  15.120 -1.0587 -1.7745  2.5367
  886MPD2    N113051   0.878   0.516  15.325  0.6673 -0.2022  0.1263
  886MPD2    H713052   0.912   0.601  15.370  0.3069 -0.5126  0.9863
  887MPD2     C13053   1.445   0.809  15.730  0.4745  0.3808  0.3011
  887MPD2    C113054   1.321   0.846  15.694  0.1139 -0.2356 -0.0934
  887MPD2    C213055   1.308   0.983  15.660 -0.2114  0.6445 -0.2869
  887MPD2    C313056   1.415   1.068  15.667 -0.0476  0.3983  1.0240
  887MPD2    C413057   1.534   1.026  15.724 -0.5917 -0.6825  0.5905
  887MPD2    C513058   1.545   0.899  15.755  0.1036 -0.1840 -0.0258
  887MPD2     H13059   1.211   1.017  15.626 -0.3902 -0.4872 -0.9129
  887MPD2    H113060   1.626   1.082  15.739 -1.1187  0.5288 -0.7416
  887MPD2    H213061   1.467   0.707  15.760 -0.1638 -0.0377 -0.6566
  887MPD2    H313062   1.643   0.866  15.785 -0.7360 -2.1713  0.5467
  887MPD2     N13063   1.386   1.200  15.631 -0.1938  0.0828 -0.2232
  887MPD2    H513064   1.290   1.222  15.606  0.0666  2.3044  0.7683
  887MPD2    N113065   1.213   0.755  15.669 -0.3948 -0.4316  0.1004
  887MPD2    H713066   1.127   0.798  15.635 -0.0858  0.6213  0.6444
  888MPD2     C13067   2.981   0.858  14.720  0.1746  0.0663  1.0485
  888MPD2    C113068   2.978   0.929  14.841 -0.4992 -0.4910 -0.2515
  888MPD2    C213069   3.006   1.064  14.847 -0.3633 -0.2282 -0.0397
  888MPD2    C313070   3.013   1.142  14.735 -0.1038  0.3010 -0.1081
  888MPD2    C413071   3.031   1.072  14.616  0.3566 -0.1359 -0.3254
  888MPD2    C513072   3.014   0.935  14.609  0.8176 -0.3844  0.3684
  888MPD2     H13073   3.000   1.115  14.942 -2.9512 -0.0446 -0.3197
  888MPD2    H113074   3.069   1.127  14.530 -1.0324 -0.3720 -1.0965
  888MPD2    H213075   2.955   0.753  14.711 -1.8142  0.5140  1.5735
  888MPD2    H313076   3.033   0.885  14.514 -4.2958 -0.4749 -0.5847
  888MPD2     N13077   3.015   1.281  14.749  0.0842 -0.0210  0.7261
  888MPD2    H513078   3.020   1.313  14.845 -0.1548 -0.2236  0.8070
  888MPD2    N113079   2.959   0.857  14.960  0.3333  0.1854 -0.5090
  888MPD2    H713080   2.970   0.912  15.044 -1.8077 -0.6248  0.3078
  889MPD2     C13081   1.335   1.008  13.108 -0.1368  0.9327 -0.0561
  889MPD2    C113082   1.467   1.014  13.151 -0.1938  0.5508  0.8469
  889MPD2    C213083   1.513   1.126  13.210 -0.1250  0.1012  0.0165
  889MPD2    C313084   1.437   1.244  13.227  0.8386  0.5947 -0.0965
  889MPD2    C413085   1.306   1.241  13.182 -0.6928 -0.2736  0.0063
  889MPD2    C513086   1.254   1.122  13.131 -0.1385 -0.3964 -0.2184
  889MPD2     H13087   1.618   1.126  13.236 -0.1851  1.7569  0.2547
  889MPD2    H113088   1.235   1.322  13.188 -0.1136  0.1198  1.5546
  889MPD2    H213089   1.291   0.915  13.074 -0.1081  1.5237 -1.7062
  889MPD2    H313090   1.154   1.129  13.091 -0.6982  0.1076  1.2619
  889MPD2     N13091   1.507   1.351  13.291 -0.3445  0.5775 -0.1831
  889MPD2    H513092   1.603   1.326  13.312 -1.6697 -1.5162  3.4137
  889MPD2    N113093   1.559   0.915  13.110  0.2554  0.3183 -0.1998
  889MPD2    H713094   1.655   0.915  13.144  0.0371 -1.4774  0.3956
  890MPD2     C13095   1.674   2.283  14.405  0.6280 -0.1329  0.3658
  890MPD2    C113096   1.760   2.353  14.488 -0.4235  0.1245 -0.4229
  890MPD2    C213097   1.840   2.272  14.566 -0.5087 -0.5004  0.0312
  890MPD2    C313098   1.850   2.131  14.548  0.5019  0.0095  0.7667
  890MPD2    C413099   1.775   2.073  14.451 -0.1640 -0.3273  0.2103
  890MPD2    C513100   1.676   2.147  14.390  0.4170 -0.2574  0.3370
  890MPD2     H13101   1.909   2.316  14.636 -1.0105  0.2223  0.0696
  890MPD2    H113102   1.775   1.967  14.428 -2.0096 -0.0599 -0.9980
  890MPD2    H213103   1.607   2.349  14.352 -0.8854 -0.8436  1.4133
  890MPD2    H313104   1.615   2.095  14.317 -0.9187  1.5641  0.1607
  890MPD2     N13105   1.943   2.051  14.624 -0.3019  0.7400  0.2561
  890MPD2    H513106   1.976   2.093  14.710  0.3375  0.5508  0.0972
  890MPD2    N113107   1.751   2.488  14.491 -0.1070  0.4654 -0.3691
  890MPD2    H713108   1.671   2.529  14.444  0.0282  1.0991 -0.0557
  891MPD2     C13109   0.298   1.314  16.150 -0.5926  0.9028  0.6922
  891MPD2    C113110   0.222   1.352  16.259 -0.1811  0.7861  0.2916
  891MPD2    C213111   0.292   1.368  16.380 -0.2975  0.1777 -0.0408
  891MPD2    C313112   0.426   1.358  16.393 -0.1318  0.0291  0.0327
  891MPD2    C413113   0.503   1.328  16.279 -0.7492  0.2446 -0.6021
  891MPD2    C513114   0.436   1.314  16.158  0.0142 -0.4936  0.3168
  891MPD2     H13115   0.233   1.395  16.467 -2.6147  0.8079 -1.7826
  891MPD2    H113116   0.611   1.322  16.271 -0.6957  0.8299 -0.3540
  891MPD2    H213117   0.245   1.281  16.062 -2.0220 -0.8930  2.2175
  891MPD2    H313118   0.482   1.286  16.064  0.0707  1.6906 -0.2983
  891MPD2     N13119   0.485   1.380  16.520  0.5472  0.0185 -0.2212
  891MPD2    H513120   0.430   1.404  16.602 -0.1417  2.1696 -1.2887
  891MPD2    N113121   0.084   1.367  16.232  0.6619 -0.6057  0.3860
  891MPD2    H713122   0.063   1.353  16.134 -0.6795  5.7647 -0.2302
  892MPD2     C13123   0.914   1.497  14.908  0.3842 -0.2587 -0.3227
  892MPD2    C113124   0.804   1.495  14.825 -0.2944 -0.1564 -0.1918
  892MPD2    C213125   0.814   1.506  14.691  0.7966 -0.3565  0.3657
  892MPD2    C313126   0.939   1.512  14.631 -0.0657 -1.3128  0.5250
  892MPD2    C413127   1.051   1.506  14.715  0.3846 -0.4888 -0.0038
  892MPD2    C513128   1.037   1.507  14.849  0.2414 -0.1474  0.2292
  892MPD2     H13129   0.725   1.509  14.629  2.1292  0.9173 -1.4855
  892MPD2    H113130   1.150   1.495  14.673  1.4938 -0.1554  2.5198
  892MPD2    H213131   0.912   1.505  15.016 -1.1972  0.3219 -0.3994
  892MPD2    H313132   1.127   1.519  14.908  0.9616 -2.8738 -0.3317
  892MPD2     N13133   0.950   1.492  14.495 -0.3987  0.9817  0.8966
  892MPD2    H513134   1.039   1.506  14.449 -0.3355  0.9268  1.0029
  892MPD2    N113135   0.667   1.482  14.868 -0.0931  0.2349  0.4910
  892MPD2    H713136   0.590   1.503  14.806 -1.2671  1.5527  2.3648
  893MPD2     C13137   3.562   1.161   0.975 -0.0716  0.1034 -0.7822
  893MPD2    C113138   3.591   1.026   0.968 -1.1248 -1.0802  0.0749
  893MPD2    C213139   3.646   0.981   0.848  0.3400  0.3297 -0.3558
  893MPD2    C313140   3.646   1.055   0.730  0.5684  0.2301 -0.0090
  893MPD2    C413141   3.607   1.190   0.740  0.3340  0.0620 -0.2824
  893MPD2    C513142   3.561   1.232   0.857 -0.4043  0.3254  0.1976
  893MPD2     H13143   3.667   0.875   0.843  1.7794  0.6872 -1.8430
  893MPD2    H113144   3.626   1.259   0.659 -1.4073  1.2779  0.3572
  893MPD2    H213145   3.506   1.197   1.061 -1.6231 -1.7904 -1.0082
  893MPD2    H313146   3.543   1.339   0.870  0.4253  0.4395  0.3707
  893MPD2     N13147   3.688   1.016   0.596 -0.0097 -0.1734 -1.3036
  893MPD2    H513148   3.676   1.089   0.527 -4.1744 -1.2742 -1.7179
  893MPD2    N113149   3.577   0.960   1.090  0.0193 -0.5919  0.2146
  893MPD2    H713150   3.533   1.015   1.163  0.6957  1.1201 -0.6848
  894MPD2     C13151   0.785   2.525   1.134  0.4583 -0.1947  0.5017
  894MPD2    C113152   0.725   2.573   1.247 -0.7509 -0.1376 -0.1902
  894MPD2    C213153   0.750   2.702   1.296  0.3895 -0.0896  0.0536
  894MPD2    C313154   0.819   2.795   1.218  0.0059  0.1347 -0.1468
  894MPD2    C413155   0.876   2.745   1.103  0.5025  0.1216  0.5180
  894MPD2    C513156   0.870   2.611   1.068  0.1849  0.9675  0.0897
  894MPD2     H13157   0.705   2.747   1.384  0.9165  0.6372 -0.0525
  894MPD2    H113158   0.939   2.807   1.040  0.8926 -0.9263 -0.1269
  894MPD2    H213159   0.766   2.426   1.096 -1.1578  1.0464 -1.9189
  894MPD2    H313160   0.935   2.582   0.987 -1.7400 -0.9525 -0.7614
  894MPD2     N13161   0.814   2.934   1.253  0.1270  0.3901 -0.6508
  894MPD2    H513162   0.776   2.963   1.343  1.8684  0.1415  0.1677
  894MPD2    N113163   0.627   2.499   1.321  0.5996 -0.2369  0.2176
  894MPD2    H713164   0.580   2.547   1.398  1.4114  0.0524  0.5351
  895MPD2     C13165   4.531   1.087  13.719  0.5404  0.5177 -0.5662
  895MPD2    C113166   4.484   0.963  13.740  0.2252 -0.1860  0.5187
  895MPD2    C213167   4.564   0.860  13.703  0.6773 -0.2058  0.2433
  895MPD2    C313168   4.679   0.872  13.638 -0.0564  0.4610  0.0500
  895MPD2    C413169   4.729   0.997  13.619 -0.3048 -0.2047  0.0648
  895MPD2    C513170   4.655   1.100  13.668  0.3146  0.8405  0.2573
  895MPD2     H13171   4.508   0.767  13.705  1.2242 -0.5863 -3.2176
  895MPD2    H113172   0.081   1.018  13.558 -0.5828  2.3265  0.5479
  895MPD2    H213173   4.478   1.181  13.729 -1.5972 -0.6110 -1.2594
  895MPD2    H313174   4.686   1.202  13.645  1.7169 -0.4732 -3.6248
  895MPD2     N13175   0.027   0.771  13.585 -0.1011  0.5552  0.2132
  895MPD2    H513176   0.118   0.800  13.551 -0.7718  1.0351 -1.1514
  895MPD2    N113177   4.352   0.946  13.771 -0.3103 -0.3319 -0.4577
  895MPD2    H713178   4.308   0.855  13.758  0.4527 -0.8334  0.4384
  896MPD2     C13179   2.973   3.897   1.413  0.1833  0.0043  0.0063
  896MPD2    C113180   2.927   3.892   1.284 -0.9440 -0.0628 -0.4184
  896MPD2    C213181   2.822   3.805   1.257 -0.5156  0.4727 -0.2482
  896MPD2    C313182   2.753   3.735   1.355 -0.1899 -0.5842  0.5606
  896MPD2    C413183   2.807   3.732   1.476 -0.5475 -0.0356 -0.5123
  896MPD2    C513184   2.913   3.813   1.507 -0.3113 -0.1271 -0.5031
  896MPD2     H13185   2.792   3.807   1.153  0.3168 -3.1706 -0.5261
  896MPD2    H113186   2.763   3.677   1.559  2.1387 -0.2957  0.7491
  896MPD2    H213187   3.041   3.975   1.446 -0.5993  1.3018 -1.4447
  896MPD2    H313188   2.956   3.814   1.607 -0.3312 -0.5974 -0.4932
  896MPD2     N13189   2.632   3.667   1.312 -0.3769 -0.2017 -0.1394
  896MPD2    H513190   2.587   3.692   1.225  1.1586  1.6843 -0.3682
  896MPD2    N113191   2.999   3.961   1.187  0.6334  0.7764  0.1515
  896MPD2    H713192   3.081   4.011   1.220 -1.0871  1.9150  2.7116
  897MPD2     C13193   3.448   1.017  11.037 -0.6797 -0.0303  0.2320
  897MPD2    C113194   3.343   1.030  10.952 -0.9399 -0.1438  0.2129
  897MPD2    C213195   3.216   1.041  11.007 -0.0366  0.7999  0.2978
  897MPD2    C313196   3.196   1.041  11.143 -0.7423  0.2947 -0.4074
  897MPD2    C413197   3.301   1.022  11.225 -0.3587  0.1456  0.8168
  897MPD2    C513198   3.430   1.012  11.173  0.4300 -0.0194  0.7676
  897MPD2     H13199   3.135   1.077  10.944 -1.2053 -2.0304  0.1879
  897MPD2    H113200   3.293   1.015  11.333  1.0787 -0.3024  0.9016
  897MPD2    H213201   3.548   1.025  10.996 -0.7664  2.0409  0.4162
  897MPD2    H313202   3.511   0.993  11.242  0.8168  4.5745  1.5894
  897MPD2     N13203   3.063   1.079  11.191  0.5958 -0.2469  0.2493
  897MPD2    H513204   2.994   1.091  11.118  1.3158  1.8244 -0.0836
  897MPD2    N113205   3.371   1.049  10.818 -0.8027  0.1733  0.1786
  897MPD2    H713206   3.465   1.069  10.786 -0.6246  0.3655  0.8273
  898MPD2     C13207   0.952   1.580  17.449  0.2248 -0.1809  0.6368
  898MPD2    C113208   0.967   1.544  17.312  0.2709  0.3869  0.3628
  898MPD2    C213209   0.935   1.642  17.215  0.2891  0.2638  0.2796
  898MPD2    C313210   0.899   1.770  17.257 -0.8072  0.1473 -0.0905
  898MPD2    C413211   0.901   1.808  17.391 -0.4617 -0.7897  0.1159
  898MPD2    C513212   0.915   1.705  17.477  0.1950 -0.7018 -0.4067
  898MPD2     H13213   0.928   1.611  17.111 -1.4214  1.2420  0.1042
  898MPD2    H113214   0.879   1.908  17.427 -0.1450 -1.3830  1.9721
  898MPD2    H213215   0.969   1.511  17.530 -1.6717 -0.9127  0.3949
  898MPD2    H313216   0.897   1.720  17.583 -0.3206 -0.7102 -0.4911
  898MPD2     N13217   0.856   1.862  17.162  0.6610  0.5378 -0.0847
  898MPD2    H513218   0.844   1.823  17.069 -0.3752 -2.3995  1.2772
  898MPD2    N113219   1.007   1.420  17.270 -0.3661  0.3793 -0.0995
  898MPD2    H713220   1.006   1.405  17.170 -0.0279 -1.2972  0.1423
  899MPD2     C13221   1.470   1.816  16.708 -1.0066  0.1592  0.4306
  899MPD2    C113222   1.504   1.881  16.818  0.0092  0.6506  0.9899
  899MPD2    C213223   1.505   1.820  16.939 -0.1120 -0.1819  0.0061
  899MPD2    C313224   1.466   1.690  16.950  0.6372  0.0686 -0.3050
  899MPD2    C413225   1.432   1.620  16.836 -0.1170  0.3398 -0.0095
  899MPD2    C513226   1.437   1.684  16.719  0.0861  0.0264  0.2177
  899MPD2     H13227   1.546   1.874  17.024 -1.0920 -1.0643  1.0393
  899MPD2    H113228   1.409   1.514  16.840 -1.7599  0.6831 -0.0564
  899MPD2    H213229   1.480   1.849  16.605 -0.5977  0.3104  0.5184
  899MPD2    H313230   1.417   1.635  16.624  1.0185 -2.2681  1.1878
  899MPD2     N13231   1.450   1.620  17.073 -0.0782  0.0055  0.1691
  899MPD2    H513232   1.448   1.519  17.069  2.5650 -0.0719  1.0021
  899MPD2    N113233   1.512   2.024  16.804 -0.4772 -0.2044 -0.3329
  899MPD2    H713234   1.497   2.063  16.711 -1.0728  0.1999 -0.0739
  900MPD2     C13235   0.577   3.793  12.377 -0.0454 -0.8029  0.3687
  900MPD2    C113236   0.469   3.704  12.394  0.4016 -0.5220 -1.3075
  900MPD2    C213237   0.345   3.758  12.433  0.0110 -0.0762  0.1642
  900MPD2    C313238   0.332   3.897  12.464 -0.5486  0.3834  0.5006
  900MPD2    C413239   0.444   3.978  12.470  0.4545 -0.0942 -0.2733
  900MPD2    C513240   0.557   3.929  12.409  0.6190 -0.3396 -0.2529
  900MPD2     H13241   0.261   3.692  12.453 -2.2651  2.2807 -1.6567
  900MPD2    H113242   0.440   4.081  12.504  1.3440  0.3976 -1.6740
  900MPD2    H213243   0.668   3.759  12.331 -0.1432  1.3096 -1.4008
  900MPD2    H313244   0.639   3.999  12.397 -0.4007  0.7516 -0.9604
  900MPD2     N13245   0.206   3.959  12.494  0.0749  0.0595 -0.6237
  900MPD2    H513246   0.203   4.054  12.528 -0.7979  0.1084 -0.8242
  900MPD2    N113247   0.498   3.570  12.369  0.3460  0.1626 -0.2313
  900MPD2    H713248   0.595   3.542  12.358 -0.7094 -2.5496 -2.8582
  901MPD2     C13249   0.280   2.481  12.499 -0.0800 -0.1275 -0.7185
  901MPD2    C113250   0.419   2.498  12.465  0.7402  0.2740  0.0825
  901MPD2    C213251   0.484   2.621  12.451  0.1104 -0.2862 -0.4333
  901MPD2    C313252   0.414   2.742  12.456  0.6495 -0.4927 -0.1835
  901MPD2    C413253   0.278   2.728  12.489 -0.1417 -0.1852 -0.2443
  901MPD2    C513254   0.215   2.602  12.501 -0.0255 -0.1677  0.9120
  901MPD2     H13255   0.588   2.629  12.422  0.3858 -0.6886  0.4544
  901MPD2    H113256   0.208   2.811  12.486  1.7718  1.5266  2.3674
  901MPD2    H213257   0.221   2.392  12.512  0.9855 -0.6619  0.4580
  901MPD2    H313258   0.107   2.600  12.511 -0.0399 -1.2103  0.5175
  901MPD2     N13259   0.474   2.871  12.433  0.2428 -0.1263 -0.6815
  901MPD2    H513260   0.574   2.885  12.430  0.1816  0.5827  0.4433
  901MPD2    N113261   0.481   2.374  12.437  0.4383 -0.1413 -0.1468
  901MPD2    H713262   0.430   2.290  12.461 -0.4404  0.3464 -0.3018
  902MPD2     C13263   4.282   1.557  12.239  0.3776  0.0836  0.1273
  902MPD2    C113264   4.401   1.622  12.242  0.3821  0.3067  0.0958
  902MPD2    C213265   4.526   1.558  12.250 -0.5563 -0.0942  0.1146
  902MPD2    C313266   4.528   1.422  12.227 -1.0261  0.0058  0.6167
  902MPD2    C413267   4.412   1.357  12.205 -0.3489  0.0074 -0.2070
  902MPD2    C513268   4.291   1.423  12.211  0.6732 -0.1145 -0.0878
  902MPD2     H13269   4.618   1.614  12.237  0.6616 -1.8526  1.1346
  902MPD2    H113270   4.408   1.250  12.191  0.3586  0.1470 -1.4617
  902MPD2    H213271   4.186   1.607  12.250  0.1552 -0.3166 -0.0051
  902MPD2    H313272   4.204   1.361  12.193  1.1483 -0.1973 -2.0167
  902MPD2     N13273   4.637   1.352  12.181  0.1988 -0.3103  0.4238
  902MPD2    H513274   4.620   1.269  12.125  0.4806 -0.0238 -0.0806
  902MPD2    N113275   4.398   1.767  12.247 -0.3416 -0.6674 -0.0024
  902MPD2    H713276   4.305   1.807  12.250 -0.5349 -1.2446  1.5643
  903MPD2     C13277   0.080   1.768  11.719  0.3626  0.6214 -0.5338
  903MPD2    C113278   4.734   1.659  11.764 -0.5008 -0.7836  0.0012
  903MPD2    C213279   4.602   1.683  11.799  0.1109 -0.0449  0.0726
  903MPD2    C313280   4.540   1.804  11.766  0.6539 -0.3629 -0.2856
  903MPD2    C413281   4.614   1.907  11.708  0.1934 -0.2583  0.5995
  903MPD2    C513282   0.019   1.886  11.687 -0.0458  0.4225  0.0334
  903MPD2     H13283   4.552   1.611  11.864 -0.4915 -0.0226 -0.3677
  903MPD2    H113284   4.574   2.006  11.689  1.8817  0.6282  1.6549
  903MPD2    H213285   0.187   1.758  11.712  0.3955  0.2002  0.4940
  903MPD2    H313286   0.082   1.963  11.644  0.4563 -0.1637 -0.2929
  903MPD2     N13287   4.400   1.816  11.786  0.0055 -0.2542 -0.3546
  903MPD2    H513288   4.359   1.731  11.823  1.0918 -0.0950  1.2235
  903MPD2    N113289   0.060   1.532  11.801 -0.9213  0.2091  0.6042
  903MPD2    H713290   4.729   1.465  11.839 -2.3460  1.9718  1.2498
  904MPD2     C13291   4.120   0.468  13.818 -0.4773 -0.5074 -0.2921
  904MPD2    C113292   4.128   0.375  13.922  0.1409 -0.1728 -0.7481
  904MPD2    C213293   4.250   0.363  13.987 -0.0034  0.0219 -0.1983
  904MPD2    C313294   4.364   0.435  13.951 -0.2820  0.1770 -0.2578
  904MPD2    C413295   4.348   0.542  13.862  0.2898 -0.4557 -0.2024
  904MPD2    C513296   4.231   0.553  13.792  0.0586  0.5885 -0.2096
  904MPD2     H13297   4.255   0.303  14.078  0.0738 -0.1610 -0.3220
  904MPD2    H113298   4.416   0.620  13.829  0.0651  0.0439  0.5030
  904MPD2    H213299   4.026   0.484  13.766 -1.4160 -0.5898  1.3769
  904MPD2    H313300   4.224   0.632  13.717  0.4518  1.6978  0.9221
  904MPD2     N13301   4.490   0.407  14.010  0.3724 -0.3391  0.0055
  904MPD2    H513302   4.499   0.325  14.069  1.3581  1.8201  2.9108
  904MPD2    N113303   4.013   0.310  13.972 -0.4285  0.1282 -0.6027
  904MPD2    H713304   4.029   0.236  14.039  1.5329  0.6764 -0.4618
  905MPD2     C13305   3.807   0.512  13.403  0.1066  0.8322  0.6488
  905MPD2    C113306   3.878   0.575  13.502  0.1901 -0.3805  0.3661
  905MPD2    C213307   4.014   0.597  13.473 -0.3058 -1.0174 -0.0313
  905MPD2    C313308   4.073   0.544  13.364  0.3826  0.0660  0.5092
  905MPD2    C413309   4.002   0.471  13.270  0.1592 -0.4782  0.1191
  905MPD2    C513310   3.865   0.456  13.295 -0.8918  0.0146 -0.4782
  905MPD2     H13311   4.064   0.657  13.548  0.3022 -1.7373  0.1359
  905MPD2    H113312   4.041   0.434  13.176 -1.0401 -0.5389 -0.3574
  905MPD2    H213313   3.699   0.504  13.406  0.2726 -2.8256 -2.5907
  905MPD2    H313314   3.794   0.421  13.221 -0.5549  0.6716 -1.1178
  905MPD2     N13315   4.214   0.538  13.353  0.0697 -0.4662  0.2978
  905MPD2    H513316   4.258   0.474  13.288 -1.1527  0.6090 -1.5569
  905MPD2    N113317   3.804   0.615  13.615 -0.2971  0.4437  0.4189
  905MPD2    H713318   3.706   0.592  13.622 -0.1960 -0.5338 -1.3053
  906MPD2     C13319   1.735   1.372  11.189  0.3664  0.4515  0.0155
  906MPD2    C113320   1.755   1.309  11.067 -0.1059 -0.2182  0.8040
  906MPD2    C213321   1.737   1.179  11.055 -0.3777 -0.4915  0.1472
  906MPD2    C313322   1.709   1.103  11.164  0.2081 -0.0096 -0.0679
  906MPD2    C413323   1.694   1.166  11.292 -0.8675  0.4874  0.5962
  906MPD2    C513324   1.711   1.301  11.307 -0.0147 -0.0462 -0.5394
  906MPD2     H13325   1.730   1.134  10.957 -3.7690 -0.7262  0.5240
  906MPD2    H113326   1.668   1.110  11.381 -0.3427  0.2573  0.6018
  906MPD2    H213327   1.738   1.480  11.197 -1.6355  0.7309 -3.2611
  906MPD2    H313328   1.698   1.346  11.404 -0.6836  1.7716 -1.4724
  906MPD2     N13329   1.687   0.963  11.158 -0.3308 -0.6169 -0.3585
  906MPD2    H513330   1.680   0.916  11.248  1.8290  0.3899  0.3435
  906MPD2    N113331   1.795   1.384  10.950 -0.4479 -0.1441 -0.7102
  906MPD2    H713332   1.774   1.341  10.860 -0.0986 -0.3527 -0.6887
  907MPD2     C13333   0.986   4.381  15.309  0.1748 -0.3649  0.2376
  907MPD2    C113334   1.023   4.252  15.272 -0.2414  0.4751 -0.5344
  907MPD2    C213335   1.103   4.181  15.357  0.3467 -0.0553  0.0791
  907MPD2    C313336   1.156   4.223  15.478 -0.3003  0.1112  0.4495
  907MPD2    C413337   1.127   4.353  15.506 -0.3630  0.0500  0.4976
  907MPD2    C513338   1.041   4.425  15.422 -0.7831  0.2637  0.9744
  907MPD2     H13339   1.137   4.088  15.311  1.3479  0.1979  0.3128
  907MPD2    H113340   1.158   4.394  15.601  0.3245  0.3041  0.1570
  907MPD2    H213341   0.922   4.452  15.257 -0.8190 -1.2913  0.1998
  907MPD2    H313342   1.007   4.520  15.462 -0.4262  0.6815  0.2743
  907MPD2     N13343   1.238   4.144  15.564  0.0919  0.0662 -0.5948
  907MPD2    H513344   1.261   4.057  15.518 -1.4204  0.0014 -1.2510
  907MPD2    N113345   0.968   4.187  15.165  0.4966 -0.3401  0.3294
  907MPD2    H713346   0.984   4.087  15.157 -0.6348 -0.4519 -0.6002
  908MPD2     C13347   3.702   0.706   9.976  0.3236  0.0148  0.3643
  908MPD2    C113348   3.607   0.636  10.048 -0.5567  0.2610  0.6965
  908MPD2    C213349   3.520   0.698  10.141  0.4089  0.8738  0.8111
  908MPD2    C313350   3.517   0.834  10.147  0.0543 -1.1420  0.5664
  908MPD2    C413351   3.608   0.909  10.069 -0.0345  0.1710 -0.3207
  908MPD2    C513352   3.701   0.836   9.995  0.0394  0.2399 -0.1724
  908MPD2     H13353   3.468   0.638  10.215  0.8775  1.7979  1.8987
  908MPD2    H113354   3.616   1.017  10.074 -0.9464  0.1849  0.7579
  908MPD2    H213355   3.772   0.657   9.911 -1.2118 -0.4116 -0.9633
  908MPD2    H313356   3.775   0.897   9.943 -0.0219 -0.7015 -1.3554
  908MPD2     N13357   3.438   0.905  10.241  0.7593  0.7815 -0.2266
  908MPD2    H513358   3.399   0.855  10.320  0.7624  0.6032 -0.3386
  908MPD2    N113359   3.597   0.499  10.025  0.0871 -0.2934  0.3362
  908MPD2    H713360   3.668   0.464   9.961 -1.3612 -0.7764 -1.0080
  909MPD2     C13361   3.302   3.496  11.524 -0.0451 -0.6236 -0.1081
  909MPD2    C113362   3.337   3.625  11.519 -0.0862  0.1382 -0.0050
  909MPD2    C213363   3.288   3.710  11.609  1.0259 -1.2066  0.5356
  909MPD2    C313364   3.196   3.678  11.698  0.1822 -0.3052  0.5498
  909MPD2    C413365   3.149   3.555  11.692 -0.1140  0.3644  0.5314
  909MPD2    C513366   3.195   3.455  11.605 -0.4854 -0.5427 -0.1853
  909MPD2     H13367   3.319   3.813  11.608 -2.4386 -0.1610 -0.1174
  909MPD2    H113368   3.063   3.530  11.753 -0.8622 -0.7500 -0.9659
  909MPD2    H213369   3.356   3.418  11.471 -0.9397 -0.3311 -1.4572
  909MPD2    H313370   3.167   3.351  11.612 -0.0264 -0.6526 -0.0161
  909MPD2     N13371   3.141   3.773  11.793 -0.5642  0.1187 -0.1274
  909MPD2    H513372   3.169   3.868  11.771 -0.5018  0.1069 -0.1004
  909MPD2    N113373   3.437   3.660  11.426 -0.5555 -0.2399 -0.4084
  909MPD2    H713374   3.469   3.757  11.427  3.0635 -1.4495 -0.1798
  910MPD2     C13375   0.753   4.702  15.599 -0.4975 -0.3052 -0.3609
  910MPD2    C113376   0.724   4.571  15.568 -0.1418  0.2661 -0.4754
  910MPD2    C213377   0.680   4.541  15.439 -0.6330 -0.7763 -0.0423
  910MPD2    C313378   0.660   4.648  15.345  0.3168 -0.6246 -0.2483
  910MPD2    C413379   0.683   0.041  15.385  0.4111 -0.4611  0.3213
  910MPD2    C513380   0.726   0.069  15.510 -0.4686  0.6072  0.6763
  910MPD2     H13381   0.661   4.438  15.413 -0.1379 -0.6631 -0.8422
  910MPD2    H113382   0.654   0.118  15.315 -2.1187  0.1141  2.0063
  910MPD2    H213383   0.797   0.005  15.690 -1.7259 -0.1592  0.1672
  910MPD2    H313384   0.734   0.173  15.538 -1.7763  1.5678 -2.4849
  910MPD2     N13385   0.600   4.625  15.218  0.5407  0.0149 -0.5685
  910MPD2    H513386   0.593   4.700  15.149 -0.7436 -2.1843 -2.8372
  910MPD2    N113387   0.764   4.476  15.661 -0.7036 -0.1871 -0.1424
  910MPD2    H713388   0.785   4.382  15.627  1.4419  1.0387 -2.1791
  911MPD2     C13389   3.293   0.407  16.391  0.5364 -0.2084 -0.8890
  911MPD2    C113390   3.340   0.528  16.349 -0.1221 -0.9610 -0.5696
  911MPD2    C213391   3.250   0.605  16.270  0.4279  0.0156 -0.1187
  911MPD2    C313392   3.124   0.557  16.237  0.0269 -0.2056 -0.8461
  911MPD2    C413393   3.086   0.435  16.283 -0.4626  0.1028 -0.8284
  911MPD2    C513394   3.171   0.360  16.355  0.1333  0.5540  0.1068
  911MPD2     H13395   3.287   0.695  16.222 -1.4811  0.1329 -1.3618
  911MPD2    H113396   2.994   0.389  16.249 -0.0713  0.1865 -1.9927
  911MPD2    H213397   3.356   0.344  16.452  0.7748  2.0451  1.2199
  911MPD2    H313398   3.147   0.256  16.375  0.9677  0.0022 -1.7461
  911MPD2     N13399   3.028   0.623  16.154  0.3579  0.4608 -0.5023
  911MPD2    H513400   2.938   0.576  16.160  0.5538  0.3836  1.5150
  911MPD2    N113401   3.473   0.560  16.382  0.5648 -0.4573  0.1016
  911MPD2    H713402   3.531   0.494  16.433 -1.9874 -2.0820  0.9158
  912MPD2     C13403   2.359   0.682  15.693  0.0482  0.6067  0.0956
  912MPD2    C113404   2.473   0.610  15.726 -0.2802 -0.2722  0.4577
  912MPD2    C213405   2.462   0.474  15.762  0.4416 -0.5715  0.2047
  912MPD2    C313406   2.341   0.414  15.763 -0.2589 -1.2879 -1.5047
  912MPD2    C413407   2.228   0.486  15.729 -0.0176  0.3171  0.3103
  912MPD2    C513408   2.235   0.623  15.697  0.3660  0.3418  0.5912
  912MPD2     H13409   2.550   0.423  15.798  0.8258 -0.7007 -0.8989
  912MPD2    H113410   2.128   0.444  15.736 -0.5719  1.9056  1.8009
  912MPD2    H213411   2.365   0.790  15.684  0.8039  0.4859 -0.8673
  912MPD2    H313412   2.147   0.680  15.671 -0.4052 -0.3482  1.6866
  912MPD2     N13413   2.326   0.281  15.809  0.4674  0.3173 -0.2548
  912MPD2    H513414   2.230   0.248  15.800  0.7800 -0.5599 -0.3603
  912MPD2    N113415   2.595   0.684  15.746 -0.9302  0.9867  0.2770
  912MPD2    H713416   2.576   0.783  15.750  1.2666  1.3839  0.8501
  913MPD2     C13417   2.439   2.485  11.030 -0.0735 -0.3006 -0.0215
  913MPD2    C113418   2.542   2.565  11.068 -0.1975 -0.0379 -0.1836
  913MPD2    C213419   2.552   2.685  11.007 -0.4278 -0.0862 -0.0868
  913MPD2    C313420   2.468   2.719  10.911 -0.2524 -0.2377 -0.4692
  913MPD2    C413421   2.360   2.643  10.873  0.1076 -0.2836  0.1233
  913MPD2    C513422   2.350   2.518  10.935  0.4743  0.6892  0.0594
  913MPD2     H13423   2.622   2.765  11.033 -2.7513  1.2259  2.1482
  913MPD2    H113424   2.291   2.675  10.796  0.9289  1.0356 -0.0422
  913MPD2    H213425   2.438   2.384  11.070  0.4569 -0.7476 -1.1300
  913MPD2    H313426   2.264   2.459  10.904  0.9163  0.1384 -0.1206
  913MPD2     N13427   2.468   2.840  10.839 -0.9421  0.0045  0.6198
  913MPD2    H513428   2.391   2.847  10.773 -0.3596 -1.5137 -0.2339
  913MPD2    N113429   2.627   2.521  11.174 -0.9351 -0.2589 -0.2130
  913MPD2    H713430   2.606   2.431  11.217 -0.8350 -0.3604 -0.3753
  914MPD2     C13431   1.239   2.604  12.524 -0.7470  0.0283  0.0294
  914MPD2    C113432   1.178   2.637  12.403 -0.7276 -0.8375 -0.6245
  914MPD2    C213433   1.118   2.539  12.330 -0.2523 -0.4421 -0.0883
  914MPD2    C313434   1.101   2.415  12.392  0.8031  0.3140 -0.5082
  914MPD2    C413435   1.159   2.382  12.511  0.1536  0.6916  0.4588
  914MPD2    C513436   1.235   2.477  12.569  0.1125 -0.0067 -0.5929
  914MPD2     H13437   1.057   2.559  12.243  0.6262  0.3022 -0.5311
  914MPD2    H113438   1.161   2.282  12.553  0.3677  0.4763 -0.0651
  914MPD2    H213439   1.296   2.678  12.580 -0.1110  0.1471 -0.7652
  914MPD2    H313440   1.287   2.458  12.662  0.3462 -0.1537 -0.7524
  914MPD2     N13441   1.011   2.324  12.330 -0.3302  0.5327  0.1789
  914MPD2    H513442   0.956   2.368  12.257 -0.6970  1.3005  0.9180
  914MPD2    N113443   1.172   2.774  12.359  0.5918  0.7323  0.0803
  914MPD2    H713444   1.148   2.791  12.262  0.6005 -2.8748 -0.5362
  915MPD2     C13445   4.115   2.646  15.772  0.6300 -0.1966  1.1952
  915MPD2    C113446   4.000   2.651  15.694  0.2144 -0.7554 -0.1269
  915MPD2    C213447   3.889   2.715  15.747  0.1697  0.3299  0.2320
  915MPD2    C313448   3.893   2.771  15.870  0.2428  0.3687  0.4170
  915MPD2    C413449   4.003   2.750  15.954 -0.3374  0.1040 -0.0285
  915MPD2    C513450   4.115   2.689  15.905 -0.3188 -0.3945  0.3101
  915MPD2     H13451   3.795   2.709  15.694  0.5046  2.8738 -0.6546
  915MPD2    H113452   3.990   2.771  16.059  1.4605 -0.2679  0.2679
  915MPD2    H213453   4.215   2.612  15.749  0.9261  2.4194 -1.3642
  915MPD2    H313454   4.187   2.657  15.980 -0.6138 -1.2671  0.2283
  915MPD2     N13455   3.774   2.832  15.920  0.0503  0.5047 -0.4737
  915MPD2    H513456   3.686   2.818  15.872 -0.2077  1.3635 -0.2659
  915MPD2    N113457   3.994   2.604  15.563  0.3492  0.7743  0.0467
  915MPD2    H713458   3.921   2.645  15.505 -0.0617  1.2636  0.9091
  916MPD2     C13459   2.154   0.237  15.462 -0.2135 -0.3269 -0.0299
  916MPD2    C113460   2.118   0.158  15.566 -0.5655 -0.6576 -0.4251
  916MPD2    C213461   2.199   0.048  15.604  0.2201 -0.0436  0.2332
  916MPD2    C313462   2.308   0.017  15.526  0.2334  0.0248 -0.1578
  916MPD2    C413463   2.339   0.093  15.418 -0.1728  0.3995 -0.3569
  916MPD2    C513464   2.264   0.206  15.385 -0.2027  0.5105  0.2438
  916MPD2     H13465   2.171   4.723  15.690 -1.7294  2.8762  1.6293
  916MPD2    H113466   2.426   0.063  15.360  0.3244  1.2305 -0.0493
  916MPD2    H213467   2.102   0.331  15.445 -0.5502 -0.7673 -1.4588
  916MPD2    H313468   2.301   0.270  15.305  0.4790  0.1065  0.2274
  916MPD2     N13469   2.381   4.631  15.558  0.2730  0.3489  0.9713
  916MPD2    H513470   2.335   4.563  15.617 -1.7552 -0.2704 -1.2996
  916MPD2    N113471   2.004   0.193  15.642  0.4301  0.0578 -0.0087
  916MPD2    H713472   1.940   0.251  15.588 -2.3423 -1.1144  2.0248
  917MPD2     C13473   1.846   3.514  11.374  0.4124 -0.1441  0.0275
  917MPD2    C113474   1.861   3.551  11.508  0.3446  0.7320  0.5284
  917MPD2    C213475   1.952   3.646  11.532  0.2463  0.4065  0.7498
  917MPD2    C313476   2.028   3.711  11.438  0.4471 -0.2900 -0.3677
  917MPD2    C413477   2.028   3.665  11.313  0.7787  0.2271 -0.0044
  917MPD2    C513478   1.939   3.568  11.281 -0.4403  0.1891 -0.2607
  917MPD2     H13479   1.950   3.676  11.637  2.8357 -1.5081  1.3321
  917MPD2    H113480   2.090   3.699  11.231  0.4754  1.4704  0.2843
  917MPD2    H213481   1.772   3.443  11.340 -1.9645  2.1971  0.3269
  917MPD2    H313482   1.940   3.530  11.180 -2.9404 -0.8659  0.1181
  917MPD2     N13483   2.113   3.826  11.465  0.0369  0.3431 -0.0338
  917MPD2    H513484   2.165   3.872  11.391  0.4088 -0.1365 -0.0687
  917MPD2    N113485   1.814   3.479  11.618  0.1633  0.2322  0.0891
  917MPD2    H713486   1.849   3.511  11.708  2.0860  0.5553 -0.8003
  918MPD2     C13487   2.033   3.671  12.391 -0.6458 -0.5189 -0.4007
  918MPD2    C113488   2.108   3.640  12.278 -0.4569 -0.2568 -0.5537
  918MPD2    C213489   2.044   3.563  12.184  0.4682 -0.0600 -0.4868
  918MPD2    C313490   1.921   3.506  12.204  0.4210 -0.6844 -0.3594
  918MPD2    C413491   1.854   3.532  12.327  0.3095  0.2067  0.4784
  918MPD2    C513492   1.909   3.619  12.412  0.1790  0.3405  0.1081
  918MPD2     H13493   2.105   3.522  12.105 -0.7817 -2.7571 -0.0339
  918MPD2    H113494   1.765   3.472  12.342  0.9039 -0.2676  2.0110
  918MPD2    H213495   2.073   3.725  12.476 -0.1852 -0.8256 -0.4227
  918MPD2    H313496   1.868   3.638  12.511  1.8672 -0.8757  1.0301
  918MPD2     N13497   1.869   3.423  12.093 -0.0671  1.0102  1.1062
  918MPD2    H513498   1.917   3.412  12.004 -0.6206 -0.2774  0.9700
  918MPD2    N113499   2.247   3.681  12.268  0.2030 -0.1480  0.2036
  918MPD2    H713500   2.300   3.652  12.187 -2.8633 -0.9593 -1.4907
  919MPD2     C13501   2.689   2.764  11.976  0.7968 -0.6335 -0.2544
  919MPD2    C113502   2.662   2.643  11.913 -0.6544  0.8845 -0.0616
  919MPD2    C213503   2.615   2.644  11.784 -0.4080  0.7298 -0.0875
  919MPD2    C313504   2.602   2.768  11.720  1.0338 -0.2910  1.3488
  919MPD2    C413505   2.639   2.888  11.783  0.4163  0.4777  0.2886
  919MPD2    C513506   2.673   2.881  11.911  0.9467 -0.2161 -0.1159
  919MPD2     H13507   2.580   2.554  11.736  0.9022 -0.5591  1.3505
  919MPD2    H113508   2.635   2.984  11.732 -2.0677 -0.5366 -1.3933
  919MPD2    H213509   2.719   2.765  12.080 -1.2221  0.5682  0.3166
  919MPD2    H313510   2.686   2.974  11.964  0.0655 -0.2146  0.1044
  919MPD2     N13511   2.547   2.776  11.586 -0.4446 -0.3908  0.1348
  919MPD2    H513512   2.534   2.873  11.560  3.0081  0.8734  3.1104
  919MPD2    N113513   2.672   2.525  11.986  0.4538 -0.0769 -0.2414
  919MPD2    H713514   2.717   2.536  12.076 -1.5939 -2.1806  1.0181
  920MPD2     C13515   2.296   3.343  10.818 -0.6461  0.9199 -0.2357
  920MPD2    C113516   2.181   3.264  10.832  0.0216  1.1416 -0.4041
  920MPD2    C213517   2.177   3.175  10.938  0.3215 -0.0029  0.2026
  920MPD2    C313518   2.287   3.157  11.022 -0.0491  0.3593 -0.3072
  920MPD2    C413519   2.395   3.241  11.009  0.7506  0.5536 -0.9699
  920MPD2    C513520   2.398   3.335  10.910 -0.0692 -0.2266 -0.4985
  920MPD2     H13521   2.088   3.115  10.953  0.2309  0.7624  2.7080
  920MPD2    H113522   2.492   3.230  11.057 -0.2518  0.0974  0.9343
  920MPD2    H213523   2.311   3.419  10.743 -0.7965  2.3202  1.1515
  920MPD2    H313524   2.478   3.408  10.914  1.5411 -1.9562 -1.0144
  920MPD2     N13525   2.289   3.038  11.101  0.1594 -0.1061  0.2160
  920MPD2    H513526   2.202   2.986  11.106  0.2247 -0.0705  1.7845
  920MPD2    N113527   2.064   3.265  10.749  0.3493  0.3192 -0.0744
  920MPD2    H713528   1.982   3.214  10.776  1.4761 -0.5160  1.7222
  921MPD2     C13529   4.063   1.346  16.656 -0.1747  0.2951  0.6072
  921MPD2    C113530   4.116   1.284  16.549  0.5408 -0.1332  0.2177
  921MPD2    C213531   4.066   1.162  16.502 -0.0343 -0.6765  0.1663
  921MPD2    C313532   3.962   1.096  16.574 -0.4163 -0.2844  0.9148
  921MPD2    C413533   3.916   1.163  16.689  0.5115  0.3121 -0.4070
  921MPD2    C513534   3.968   1.282  16.730 -0.6831  0.1029  0.0742
  921MPD2     H13535   4.108   1.117  16.413 -1.8657 -1.0377 -0.5232
  921MPD2    H113536   3.834   1.117  16.744 -0.1918 -2.1395 -3.5061
  921MPD2    H213537   4.093   1.446  16.687  1.5565  0.5642 -1.9702
  921MPD2    H313538   3.934   1.329  16.822 -1.8501 -2.0407  0.7461
  921MPD2     N13539   3.904   0.976  16.535 -0.0254 -0.2019  0.0869
  921MPD2    H513540   3.840   0.935  16.601  2.2971 -2.1416  1.1317
  921MPD2    N113541   4.220   1.355  16.481 -0.5146 -0.5138  0.0647
  921MPD2    H713542   4.246   1.444  16.521 -0.1212  0.2820 -1.9391
  922MPD2     C13543   0.300   3.773  17.620 -0.1038 -0.0366 -0.1766
  922MPD2    C113544   0.225   3.886  17.594 -0.1548 -0.0664  0.9630
  922MPD2    C213545   0.085   3.880  17.607  0.0204 -0.6587  0.1813
  922MPD2    C313546   0.020   3.764  17.648  0.1599  0.1578  0.0133
  922MPD2    C413547   0.098   3.648  17.679  0.0082  0.1613  0.5030
  922MPD2    C513548   0.236   3.660  17.662 -0.7662 -0.1464 -0.2926
  922MPD2     H13549   0.020   3.955  17.565  0.0215 -0.8979 -0.2480
  922MPD2    H113550   0.051   3.555  17.711  0.0854 -0.6893 -1.8221
  922MPD2    H213551   0.407   3.778  17.602  0.0364  1.9852  1.1923
  922MPD2    H313552   0.299   3.579  17.699  2.1663  2.8741  1.2662
  922MPD2     N13553   4.614   3.762  17.645 -0.4407  0.0961  0.0693
  922MPD2    H513554   4.565   3.850  17.629  0.6372  0.6742 -0.0287
  922MPD2    N113555   0.283   4.006  17.544 -0.1591 -0.3905 -0.5211
  922MPD2    H713556   0.216   4.079  17.522  0.8089  0.8059  0.4969
  923MPD2     C13557   0.716   1.884   8.634  0.5031 -0.7699  0.2478
  923MPD2    C113558   0.726   1.953   8.751 -0.0717  0.0495  0.3954
  923MPD2    C213559   0.835   1.921   8.829  0.6414 -0.5849 -0.0834
  923MPD2    C313560   0.927   1.824   8.794 -0.1092 -0.2403  0.0524
  923MPD2    C413561   0.912   1.756   8.679  0.2371  0.7370 -0.2610
  923MPD2    C513562   0.808   1.794   8.597 -0.3815  0.3311 -0.0391
  923MPD2     H13563   0.840   1.975   8.923 -0.6385 -0.4528 -0.0904
  923MPD2    H113564   0.982   1.678   8.649 -1.0640  0.7755 -3.4353
  923MPD2    H213565   0.636   1.901   8.562  0.4640  1.4531  0.8039
  923MPD2    H313566   0.792   1.748   8.500  1.5030 -0.9093  0.2363
  923MPD2     N13567   1.034   1.785   8.871  0.1002 -0.1857 -0.4847
  923MPD2    H513568   1.089   1.708   8.836  2.1220  1.0839 -0.1047
  923MPD2    N113569   0.632   2.057   8.788  0.5701 -0.5196 -0.1580
  923MPD2    H713570   0.574   2.097   8.716  1.4008  0.2898 -0.3780
  924MPD2     C13571   1.928   3.496  15.762 -0.0657  0.3006  0.5094
  924MPD2    C113572   1.787   3.509  15.756  0.1242  0.4316 -0.3037
  924MPD2    C213573   1.728   3.629  15.727  0.6679  0.3160 -0.0603
  924MPD2    C313574   1.810   3.741  15.695  0.1698 -0.9260  0.4378
  924MPD2    C413575   1.946   3.727  15.703  0.6043  0.1739  0.0880
  924MPD2    C513576   2.001   3.606  15.728  0.3166  0.0036 -0.6835
  924MPD2     H13577   1.620   3.628  15.730  0.6852  1.2820  0.8346
  924MPD2    H113578   2.007   3.813  15.680  2.5266 -0.4202  2.9634
  924MPD2    H213579   1.976   3.405  15.795 -0.2496 -0.4144 -1.1937
  924MPD2    H313580   2.106   3.600  15.703  0.7220  1.5863  0.6657
  924MPD2     N13581   1.764   3.873  15.670 -0.1550 -0.0740  0.5416
  924MPD2    H513582   1.836   3.943  15.686  1.9308 -2.1391  0.2677
  924MPD2    N113583   1.697   3.406  15.795 -0.4375  0.2353  0.5956
  924MPD2    H713584   1.601   3.433  15.781 -0.1559  1.6901  1.4515
  925MPD2     C13585   3.928   1.371  14.384 -0.0578  0.6877  0.7414
  925MPD2    C113586   4.058   1.349  14.341  0.3819 -0.3519 -0.4829
  925MPD2    C213587   4.151   1.305  14.434  0.3689 -0.6280  0.2333
  925MPD2    C313588   4.114   1.289  14.563  0.4887  0.0344  0.7836
  925MPD2    C413589   3.988   1.319  14.606  0.9693 -0.7344 -0.6581
  925MPD2    C513590   3.893   1.363  14.514 -0.2864 -0.0400  0.0742
  925MPD2     H13591   4.253   1.280  14.407  0.7789  0.6772  0.5995
  925MPD2    H113592   3.965   1.318  14.712  0.9411  1.1378 -0.6517
  925MPD2    H213593   3.851   1.409  14.319 -2.3439 -3.0618  1.2919
  925MPD2    H313594   3.792   1.396  14.534 -0.0628  1.1075 -0.7416
  925MPD2     N13595   4.200   1.236  14.657  0.0429 -0.3649  0.6861
  925MPD2    H513596   4.158   1.236  14.750 -0.6529 -1.6690  0.3727
  925MPD2    N113597   4.107   1.378  14.210  0.3135  0.4669 -0.3781
  925MPD2    H713598   4.206   1.370  14.193  0.3438  0.2501 -0.0873
  926MPD2     C13599   3.204   0.081  13.460 -0.2433 -0.1100 -0.1401
  926MPD2    C113600   3.099   0.124  13.385  0.6010 -0.1358 -0.5078
  926MPD2    C213601   3.114   0.227  13.301 -0.1512 -0.3541 -0.1693
  926MPD2    C313602   3.234   0.284  13.276  0.2298  0.7585 -0.6183
  926MPD2    C413603   3.342   0.224  13.337  0.0884  0.4439  0.7702
  926MPD2    C513604   3.328   0.128  13.434 -0.2290 -0.0199  0.6561
  926MPD2     H13605   3.026   0.283  13.269  0.4060 -0.6854 -2.3089
  926MPD2    H113606   3.444   0.244  13.306 -0.6661 -0.8658 -2.5396
  926MPD2    H213607   3.206   4.725  13.520  1.7503 -0.8855 -1.3728
  926MPD2    H313608   3.417   0.083  13.477  0.4526 -0.6477 -1.4418
  926MPD2     N13609   3.257   0.401  13.195  0.3074  0.4079 -0.1670
  926MPD2    H513610   3.350   0.443  13.195  0.0945  0.8937 -1.0072
  926MPD2    N113611   2.971   0.070  13.400 -0.4095  0.4885  0.2169
  926MPD2    H713612   2.903   0.089  13.326  1.6714 -1.7809 -2.3069
  927MPD2     C13613   2.958   1.869  17.191  0.2977 -0.2022  0.0339
  927MPD2    C113614   2.944   2.004  17.194  0.2538 -0.1257  0.5001
  927MPD2    C213615   2.967   2.080  17.080 -0.2873  0.4198  0.5918
  927MPD2    C313616   2.994   2.022  16.962 -0.5514 -0.5488 -0.3358
  927MPD2    C413617   3.004   1.882  16.964  0.3427 -0.6504  0.4988
  927MPD2    C513618   2.985   1.809  17.078 -0.2353 -0.0421 -0.5102
  927MPD2     H13619   2.963   2.189  17.086 -0.2447  0.4857 -0.5119
  927MPD2    H113620   3.041   1.835  16.874  0.5561  0.6730 -0.1049
  927MPD2    H213621   2.943   1.807  17.278 -0.1675  1.6119  1.2489
  927MPD2    H313622   3.005   1.703  17.073 -1.2493 -0.2091 -1.1196
  927MPD2     N13623   2.991   2.098  16.847 -0.6079 -0.4195 -0.4420
  927MPD2    H513624   2.973   2.196  16.865  2.6288  0.0660  0.1578
  927MPD2    N113625   2.916   2.060  17.318  0.6733 -0.0750  0.0425
  927MPD2    H713626   2.876   2.000  17.390  0.3661 -0.1221 -0.1661
  928MPD2     C13627   0.851   0.626   0.592 -0.4223 -0.4527  0.0175
  928MPD2    C113628   0.911   0.755   0.586 -0.3310 -0.1240  0.4297
  928MPD2    C213629   1.037   0.756   0.531  0.4059 -0.6496 -0.0134
  928MPD2    C313630   1.100   0.648   0.468 -0.8590 -0.5622 -0.2769
  928MPD2    C413631   1.030   0.534   0.472 -0.3054 -1.0163 -0.3804
  928MPD2    C513632   0.908   0.522   0.528 -0.3180  0.0670 -0.1014
  928MPD2     H13633   1.097   0.845   0.545  1.2586 -1.1151 -0.7617
  928MPD2    H113634   1.075   0.446   0.428 -0.3250 -0.7237 -0.9867
  928MPD2    H213635   0.753   0.611   0.636  0.5341  1.1243  2.6642
  928MPD2    H313636   0.857   0.426   0.529 -1.5745  0.7104 -3.4072
  928MPD2     N13637   1.216   0.654   0.385 -1.3254 -0.6505 -0.1583
  928MPD2    H513638   1.228   0.581   0.316 -1.0357  0.3948 -1.2059
  928MPD2    N113639   0.852   0.858   0.662 -0.5918  0.3692 -0.2991
  928MPD2    H713640   0.772   0.832   0.718  0.9530 -3.1361  0.2581
  929MPD2     C13641   1.216   1.716  10.159 -0.0890  1.0723 -0.1598
  929MPD2    C113642   1.133   1.626  10.090  0.3792 -0.2144 -0.1951
  929MPD2    C213643   1.051   1.671   9.984  0.4624  0.1237 -0.2719
  929MPD2    C313644   1.058   1.804   9.955  0.3917  0.2343 -0.7338
  929MPD2    C413645   1.139   1.892  10.022 -1.0066 -0.2500  0.8120
  929MPD2    C513646   1.224   1.846  10.119  0.2472  0.5785  0.3290
  929MPD2     H13647   0.997   1.601   9.922 -0.3669 -0.9295  1.6507
  929MPD2    H113648   1.131   2.000  10.014  0.0711 -0.1002  1.7885
  929MPD2    H213649   1.290   1.679  10.229  1.6665  1.3529 -1.8351
  929MPD2    H313650   1.291   1.920  10.160  0.9224  0.6952 -0.9789
  929MPD2     N13651   0.974   1.874   9.861  0.0153 -0.0866  0.3878
  929MPD2    H513652   0.981   1.974   9.847 -1.8458 -0.4175 -2.7402
  929MPD2    N113653   1.115   1.495  10.147 -0.2623 -0.0190 -0.2306
  929MPD2    H713654   1.185   1.466  10.215  0.8294  0.5763 -1.1112
  930MPD2     C13655   2.454   2.759  14.372 -0.3325 -0.4123 -0.0024
  930MPD2    C113656   2.587   2.798  14.341 -0.3067 -0.5554  0.0206
  930MPD2    C213657   2.646   2.738  14.228 -0.0072  0.4779 -0.3945
  930MPD2    C313658   2.578   2.648  14.149 -0.2673  0.2565 -0.0169
  930MPD2    C413659   2.450   2.614  14.188  0.3384  0.3356 -0.6746
  930MPD2    C513660   2.387   2.666  14.296  0.8238  0.2120  0.3360
  930MPD2     H13661   2.742   2.766  14.187 -0.4183 -0.9243 -2.2713
  930MPD2    H113662   2.391   2.553  14.120  1.6993 -1.3597 -0.3328
  930MPD2    H213663   2.417   2.814  14.458 -0.0602 -2.1577  1.2048
  930MPD2    H313664   2.284   2.642  14.321  1.0474  1.3608  2.4238
  930MPD2     N13665   2.615   2.595  14.022  0.9293 -0.0022  0.3889
  930MPD2    H513666   2.555   2.538  13.963  2.1149 -0.4854 -0.3578
  930MPD2    N113667   2.640   2.905  14.419 -0.0090  0.5248 -0.0863
  930MPD2    H713668   2.571   2.951  14.478 -1.7153  0.5028 -2.0612
  931MPD2     C13669   2.804   1.648  17.730  0.6346  0.0965  0.6839
  931MPD2    C113670   2.848   1.759   0.064  0.1862  0.3088  0.1390
  931MPD2    C213671   2.939   1.749   0.166  0.8617  0.5197  0.2377
  931MPD2    C313672   2.971   1.620   0.209  0.1475 -0.4678 -0.3013
  931MPD2    C413673   2.921   1.506   0.143  0.1304 -0.0047 -0.2656
  931MPD2    C513674   2.841   1.520   0.036  0.0483  0.3570 -0.1206
  931MPD2     H13675   2.956   1.836   0.229  0.8589  1.2400 -0.7582
  931MPD2    H113676   2.927   1.401   0.170  0.4107  0.0612 -0.0736
  931MPD2    H213677   2.731   1.655  17.651  0.5144 -2.6562  0.5568
  931MPD2    H313678   2.806   1.434  17.718  0.7109 -0.5238  0.8215
  931MPD2     N13679   3.054   1.597   0.324  0.2359 -0.2616  0.3336
  931MPD2    H513680   3.046   1.500   0.354  0.2057 -0.4336 -0.2200
  931MPD2    N113681   2.818   1.887   0.004 -0.1805 -0.0952  0.0825
  931MPD2    H713682   2.782   1.885  17.648  1.4267  1.6019 -0.5787
  932MPD2     C13683   4.036   1.844  11.346 -0.4436 -0.2853  0.4281
  932MPD2    C113684   4.152   1.883  11.284 -0.2609  0.0240  0.2028
  932MPD2    C213685   4.219   1.791  11.211  0.9740  0.3739 -0.5093
  932MPD2    C313686   4.169   1.663  11.196  0.4736 -0.3779 -0.6819
  932MPD2    C413687   4.056   1.619  11.258  0.2105 -0.5510 -1.1207
  932MPD2    C513688   3.996   1.715  11.337 -0.1072 -0.5914 -0.4507
  932MPD2     H13689   4.309   1.832  11.167  1.9472 -0.1744  1.0125
  932MPD2    H113690   4.014   1.519  11.258 -1.0075 -0.0362 -1.5386
  932MPD2    H213691   3.978   1.914  11.406 -2.3398 -0.4580 -1.2145
  932MPD2    H313692   3.909   1.691  11.397 -0.2515 -0.4761 -0.6115
  932MPD2     N13693   4.239   1.564  11.122 -0.0441  0.1759  0.1494
  932MPD2    H513694   4.206   1.468  11.129  2.1399 -0.6095 -0.2958
  932MPD2    N113695   4.204   2.010  11.309 -0.3662  0.1208 -0.0717
  932MPD2    H713696   4.291   2.031  11.260 -0.2757  1.0011  0.4722
  933MPD2     C13697   0.307   1.512   0.898  0.0525  0.7149  0.6166
  933MPD2    C113698   0.432   1.515   0.836  0.1064  0.0822  0.3539
  933MPD2    C213699   0.457   1.625   0.753 -0.1518 -0.0094 -0.3738
  933MPD2    C313700   0.370   1.726   0.733 -0.6225  0.2267  0.4499
  933MPD2    C413701   0.249   1.723   0.799  0.1651  0.1196 -0.1744
  933MPD2    C513702   0.211   1.609   0.875 -0.0724 -0.9507 -0.3061
  933MPD2     H13703   0.550   1.627   0.698 -0.7130 -0.3501 -1.3232
  933MPD2    H113704   0.173   1.800   0.789  0.1704  0.3619  1.6560
  933MPD2    H213705   0.276   1.431   0.963  0.8448  0.0210  0.1237
  933MPD2    H313706   0.113   1.599   0.919 -0.0626 -0.7800 -0.2463
  933MPD2     N13707   0.420   1.836   0.657 -0.3239  0.2296  0.4159
  933MPD2    H513708   0.512   1.822   0.615 -0.6159  1.3496 -0.5891
  933MPD2    N113709   0.528   1.416   0.861 -0.8820 -0.8356 -0.8513
  933MPD2    H713710   0.501   1.360   0.942  0.0790 -0.5335 -0.3289
  934MPD2     C13711   2.614   2.740   1.433 -0.0437 -0.3021  0.0061
  934MPD2    C113712   2.538   2.849   1.385 -0.2524  0.6738  0.6306
  934MPD2    C213713   2.402   2.833   1.371  0.1999 -0.1329 -0.0706
  934MPD2    C313714   2.335   2.713   1.400  0.5658  0.5069  0.5067
  934MPD2    C413715   2.416   2.603   1.441 -0.0865  0.3307 -1.0166
  934MPD2    C513716   2.549   2.620   1.460 -0.8372 -0.0458 -0.1140
  934MPD2     H13717   2.339   2.913   1.334 -1.9239 -1.0488  1.5422
  934MPD2    H113718   2.369   2.513   1.481 -2.4533  2.5996  1.2936
  934MPD2    H213719   2.722   2.746   1.432 -0.1124  0.6956 -0.9373
  934MPD2    H313720   2.613   2.541   1.497 -0.5575 -0.1370 -0.8004
  934MPD2     N13721   2.195   2.692   1.399 -0.1692 -0.2581 -0.1726
  934MPD2    H513722   2.157   2.600   1.419 -0.2135 -0.1599  0.1980
  934MPD2    N113723   2.589   2.977   1.347  0.2057  0.2727  0.5442
  934MPD2    H713724   2.524   3.042   1.303  0.0429  1.2707  2.2305
  935MPD2     C13725   1.931   2.026   0.995  0.1100 -0.2242  0.0976
  935MPD2    C113726   1.837   2.119   0.966 -0.2865  0.4117 -1.0331
  935MPD2    C213727   1.811   2.227   1.049 -0.0336 -0.4977 -0.5705
  935MPD2    C313728   1.897   2.253   1.155  0.5409 -0.1429  0.3976
  935MPD2    C413729   1.997   2.164   1.184 -0.0173  0.2945  0.0557
  935MPD2    C513730   2.007   2.048   1.110 -0.1261 -0.8101  0.1700
  935MPD2     H13731   1.724   2.286   1.023 -0.7133 -0.6004  1.4660
  935MPD2    H113732   2.060   2.186   1.270 -1.6600 -1.4925  1.6977
  935MPD2    H213733   1.940   1.933   0.941 -2.1502 -0.2360 -0.2461
  935MPD2    H313734   2.086   1.978   1.135 -0.1911 -0.8381  0.2961
  935MPD2     N13735   1.883   2.370   1.234  0.2530  0.4366 -0.6366
  935MPD2    H513736   1.956   2.381   1.304 -0.0745 -0.3047 -0.1821
  935MPD2    N113737   1.747   2.096   0.860  0.7847 -0.2007  0.2499
  935MPD2    H713738   1.679   2.171   0.855  0.1249 -0.6197  2.7919
  936MPD2     C13739   4.728   0.115  12.524  0.5211 -0.3859  0.3245
  936MPD2    C113740   0.079   0.039  12.597 -0.1281 -0.5268  0.0280
  936MPD2    C213741   0.217   0.060  12.570  0.2042 -0.5349  0.3177
  936MPD2    C313742   0.261   0.159  12.488 -0.2783  0.2286 -0.3474
  936MPD2    C413743   0.168   0.239  12.423 -0.2877  0.5346  0.2432
  936MPD2    C513744   0.035   0.214  12.437 -0.8857 -0.2521  0.0862
  936MPD2     H13745   0.291   0.015  12.635  0.3004  1.3407  1.4830
  936MPD2    H113746   0.197   0.328  12.368 -2.4879  1.1732  0.1173
  936MPD2    H213747   4.621   0.110  12.542  0.3914  3.3699  0.5638
  936MPD2    H313748   4.698   0.285  12.397  0.2120  2.8141  3.5286
  936MPD2     N13749   0.401   0.173  12.472  0.2238  0.1280 -0.2035
  936MPD2    H513750   0.430   0.268  12.451 -0.8835  1.1079  2.5859
  936MPD2    N113751   0.048   4.686  12.699  0.3839  0.5281  0.7339
  936MPD2    H713752   0.124   4.644  12.752  1.8497 -0.7168 -2.3239
  937MPD2     C13753   2.823   1.696  11.834 -0.2044 -0.1547 -0.1772
  937MPD2    C113754   2.877   1.819  11.860  0.1932 -0.1959  0.4430
  937MPD2    C213755   2.977   1.852  11.772 -0.1740 -0.7152  0.3750
  937MPD2    C313756   3.010   1.775  11.663  0.3122 -0.5517 -0.4185
  937MPD2    C413757   2.953   1.652  11.645  0.5477 -0.6401 -0.3761
  937MPD2    C513758   2.858   1.618  11.731  0.3802 -0.2697  0.2380
  937MPD2     H13759   3.029   1.947  11.777 -0.7990 -0.2547 -1.9008
  937MPD2    H113760   2.971   1.589  11.558 -2.5202 -0.7094 -0.9632
  937MPD2    H213761   2.737   1.664  11.891 -0.7612 -1.7111 -1.8731
  937MPD2    H313762   2.804   1.524  11.725  1.3838 -0.6976 -2.0369
  937MPD2     N13763   3.095   1.829  11.567 -0.0793 -0.1127  0.0406
  937MPD2    H513764   3.124   1.924  11.589 -1.3165  0.0071  1.1580
  937MPD2    N113765   2.817   1.919  11.936 -0.3949  0.8221  0.5700
  937MPD2    H713766   2.867   2.007  11.931 -0.5267  0.9203  0.9594
  938MPD2     C13767   1.317   2.473   0.624 -0.3561 -0.1691 -0.1267
  938MPD2    C113768   1.250   2.515   0.744 -0.3534 -0.1766  0.1239
  938MPD2    C213769   1.136   2.443   0.776 -0.3031  0.2857  0.2589
  938MPD2    C313770   1.099   2.327   0.710 -0.2664  0.7465 -0.3974
  938MPD2    C413771   1.158   2.299   0.592 -0.1721  0.5606 -0.3321
  938MPD2    C513772   1.267   2.377   0.542 -0.1588 -0.0122  0.2272
  938MPD2     H13773   1.077   2.472   0.862 -2.4726 -1.9653 -0.4920
  938MPD2    H113774   1.118   2.215   0.537  1.3450 -0.1200 -0.3882
  938MPD2    H213775   1.409   2.524   0.597  1.2698 -1.5669  2.8292
  938MPD2    H313776   1.325   2.343   0.457  0.3931  1.2753  0.0878
  938MPD2     N13777   0.992   2.247   0.749 -0.3222 -0.0038 -0.0711
  938MPD2    H513778   0.992   2.150   0.717 -1.8548 -0.3638  1.0023
  938MPD2    N113779   1.300   2.617   0.836 -0.5084 -0.3433 -0.4542
  938MPD2    H713780   1.258   2.619   0.928  0.7154  2.5829  0.0455
  939MPD2     C13781   2.871   4.352   1.113  0.0554 -0.9621  0.5745
  939MPD2    C113782   2.809   4.269   1.024  0.1824  0.3887 -0.0763
  939MPD2    C213783   2.841   4.275   0.893 -0.4171  0.4048  1.1413
  939MPD2    C313784   2.937   4.361   0.842 -0.2447  0.1166 -0.4812
  939MPD2    C413785   3.010   4.436   0.928 -0.0372 -0.3439  0.5961
  939MPD2    C513786   2.969   4.436   1.063  0.4733  0.0772 -0.4438
  939MPD2     H13787   2.787   4.211   0.825  0.9015 -0.2386  0.7008
  939MPD2    H113788   3.098   4.493   0.901 -0.8777  1.3677  1.4596
  939MPD2    H213789   2.836   4.365   1.215 -1.2785 -0.3791  0.0352
  939MPD2    H313790   3.006   4.506   1.137 -0.9186  0.4617 -0.0963
  939MPD2     N13791   2.957   4.354   0.700 -0.1633 -0.0485 -0.0751
  939MPD2    H513792   2.883   4.306   0.649 -0.7968 -0.9291  1.6991
  939MPD2    N113793   2.704   4.191   1.082 -0.1223 -0.0636 -0.4380
  939MPD2    H713794   2.708   4.184   1.184 -0.6263  0.2561 -0.3947
  940MPD2     C13795   0.870   0.215  13.319 -0.9902 -0.0767 -0.4583
  940MPD2    C113796   0.923   0.093  13.358 -0.3291  0.5362 -0.5447
  940MPD2    C213797   1.010   0.027  13.276 -0.1641 -0.3675 -0.3488
  940MPD2    C313798   1.042   0.072  13.151  1.6765  0.2636 -0.2130
  940MPD2    C413799   1.000   0.198  13.114 -0.5051  0.2780  0.1050
  940MPD2    C513800   0.919   0.270  13.201 -0.1429 -0.1261 -0.0670
  940MPD2     H13801   1.047   4.665  13.310  1.2857  0.5761  0.7739
  940MPD2    H113802   1.027   0.231  13.015  1.5190 -3.4969 -0.6104
  940MPD2    H213803   0.796   0.270  13.376 -2.3542 -0.5399 -1.7905
  940MPD2    H313804   0.873   0.359  13.158 -1.8234 -0.5763  0.7733
  940MPD2     N13805   1.121   4.735  13.050  0.4606  0.0932  0.0386
  940MPD2    H513806   1.134   0.040  12.958  0.2505  1.3483  0.5478
  940MPD2    N113807   0.893   0.033  13.478 -0.6875  0.2940 -0.1197
  940MPD2    H713808   0.955   4.692  13.506  0.5272  2.2538  2.5279
  941MPD2     C13809   0.198   4.512   9.468 -0.5085 -0.6497 -0.2160
  941MPD2    C113810   0.267   4.481   9.584 -0.5124  0.1559 -0.0081
  941MPD2    C213811   0.203   4.396   9.674  0.0489  0.0897 -0.0290
  941MPD2    C313812   0.076   4.362   9.665  0.2064 -0.1489  0.2595
  941MPD2    C413813   0.010   4.404   9.552  0.7478 -0.8316  0.3211
  941MPD2    C513814   0.066   4.476   9.450 -0.4938 -0.4665  0.4691
  941MPD2     H13815   0.262   4.375   9.762 -1.8255  0.1784  1.2680
  941MPD2    H113816   4.640   4.384   9.535  0.4893 -1.4910  2.7380
  941MPD2    H213817   0.248   4.568   9.391  1.6397 -0.6740  1.1632
  941MPD2    H313818   0.011   4.501   9.361  0.8052 -0.6165 -0.3832
  941MPD2     N13819   0.002   4.293   9.760  0.1136 -0.5027  0.4719
  941MPD2    H513820   4.636   4.295   9.746 -0.2114  1.0099  3.0563
  941MPD2    N113821   0.403   4.519   9.607  0.7418 -0.0991  0.4428
  941MPD2    H713822   0.444   4.493   9.696  0.8229 -1.7625 -0.0694
  942MPD2     C13823   0.067   2.253   8.707  0.9321 -0.2309  0.1751
  942MPD2    C113824   0.067   2.218   8.839  0.3291 -0.0807 -0.2004
  942MPD2    C213825   0.143   2.116   8.880  0.8194 -0.0410  0.1400
  942MPD2    C313826   0.223   2.048   8.789  0.1615 -0.5759  0.3063
  942MPD2    C413827   0.223   2.086   8.655  0.3952 -0.2022 -0.7598
  942MPD2    C513828   0.135   2.185   8.612  0.1854 -0.4680 -0.3296
  942MPD2     H13829   0.144   2.079   8.982 -2.5041 -1.3113 -0.2900
  942MPD2    H113830   0.282   2.031   8.583  0.4225  0.0186 -0.9039
  942MPD2    H213831   0.002   2.327   8.660  1.6564 -0.5212 -1.2871
  942MPD2    H313832   0.129   2.195   8.504  0.0324 -0.0579 -0.2818
  942MPD2     N13833   0.313   1.949   8.837  0.3150  0.1318  0.3762
  942MPD2    H513834   0.360   1.906   8.758  0.8344  0.2278  0.6284
  942MPD2    N113835   0.012   2.306   8.934 -0.1332  0.1127 -0.2682
  942MPD2    H713836   0.014   2.270   9.029  1.0039  0.8987  0.0147
  943MPD2     C13837   3.532   4.329  10.164 -0.6076  0.3155 -0.2586
  943MPD2    C113838   3.495   4.261  10.274 -0.8194  0.1213 -0.8167
  943MPD2    C213839   3.541   4.308  10.394  0.4353  0.0309  0.6694
  943MPD2    C313840   3.609   4.429  10.405  0.1264 -0.6765 -0.6848
  943MPD2    C413841   3.645   4.492  10.291  0.1956 -0.3574  0.1528
  943MPD2    C513842   3.609   4.436  10.172  0.1196 -0.2330 -0.0035
  943MPD2     H13843   3.502   4.256  10.481  0.8666 -2.2283 -0.4919
  943MPD2    H113844   3.703   4.583  10.276  1.2994 -0.7755  1.8773
  943MPD2    H213845   3.496   4.298  10.066  0.3842  0.5843 -0.7149
  943MPD2    H313846   3.644   4.493  10.087  1.5064 -0.9695  0.0686
  943MPD2     N13847   3.653   4.488  10.525  0.4666  0.0681 -0.1781
  943MPD2    H513848   3.727   4.557  10.515 -1.1221  2.0334  1.4600
  943MPD2    N113849   3.422   4.144  10.251  0.4838 -0.5232  0.2166
  943MPD2    H713850   3.407   4.126  10.153  0.2703 -1.3080  0.3971
  944MPD2     C13851   3.602   3.781  10.930  0.0326  0.4099 -0.4498
  944MPD2    C113852   3.597   3.898  10.999 -0.3036 -0.1169 -0.4149
  944MPD2    C213853   3.490   3.922  11.080 -0.4038  0.2366 -0.2318
  944MPD2    C313854   3.394   3.830  11.095  0.5929  0.2710 -0.8609
  944MPD2    C413855   3.401   3.710  11.022  0.6375 -0.1357 -0.8592
  944MPD2    C513856   3.507   3.688  10.944 -0.7931 -0.0319 -0.6590
  944MPD2     H13857   3.478   4.016  11.133 -0.9588  0.6487 -1.0819
  944MPD2    H113858   3.325   3.633  11.022 -0.6386  1.0993 -0.0845
  944MPD2    H213859   3.689   3.756  10.870 -0.6193 -0.6456 -0.9562
  944MPD2    H313860   3.515   3.590  10.898 -0.4487 -1.1092  1.6655
  944MPD2     N13861   3.304   3.855  11.199 -0.1394 -0.3858 -0.3753
  944MPD2    H513862   3.327   3.933  11.260 -2.5652  0.8969 -1.0735
  944MPD2    N113863   3.693   4.001  10.963  0.2811 -0.0743  0.7932
  944MPD2    H713864   3.770   3.974  10.904  0.8740  0.1365  1.4765
    1TMC1    C113865   1.916   3.800  14.614  0.7969 -0.5060 -0.3437
    1TMC1    C213866   1.929   3.689  14.688 -0.4661 -0.9127  0.1917
    1TMC1    C313867   1.885   3.576  14.638  0.3825 -0.2601 -0.8137
    1TMC1    C413868   1.856   3.809  14.490  0.3659 -0.5242 -0.7265
    1TMC1    C513869   1.827   3.686  14.441  0.0631  0.1564  0.5846
    1TMC1    C613870   1.822   3.566  14.516 -0.3018  0.2899 -0.3440
    1TMC1     C13871   1.941   3.926  14.686 -0.5648  0.1097  0.2318
    1TMC1     O13872   2.016   3.923  14.781  0.0055 -0.3665  0.4614
    1TMC1     H13873   1.967   3.689  14.790  0.4935 -1.1051 -0.1676
    1TMC1    H113874   1.881   3.884  14.416 -2.3135  1.2215  0.1461
    1TMC1    H213875   1.791   3.475  14.468  1.0303 -0.7578  0.7633
    1TMC1    C713876   1.818   3.663  14.294  0.2014  0.4521 -0.1602
    1TMC1    C813877   1.855   3.475  14.740 -0.2446  0.9364 -0.3116
    1TMC1    O113878   1.765   3.570  14.229  0.2653  0.0927  0.2931
    1TMC1    O213879   1.817   3.490  14.857  0.3040 -0.6756  0.0293
    1TMC1    O313880   1.941   3.708  14.263  0.0793  0.0416  0.0171
    1TMC1    H313881   1.997   3.746  14.334 -0.3397  1.1765 -0.2562
    1TMC1    O513882   1.877   3.353  14.679 -0.2808 -0.3456  0.3432
    1TMC1    H513883   1.933   3.360  14.598 -1.3526  1.1076 -0.2602
    2MPD2     C13884   1.825   4.416  14.778 -0.3740  0.0081 -0.1111
    2MPD2    C113885   1.763   4.379  14.658  0.2264 -0.3280 -0.3338
    2MPD2    C213886   1.785   4.252  14.613 -0.3201 -0.6333 -0.2402
    2MPD2    C313887   1.856   4.160  14.683 -0.2370  0.1905  0.1018
    2MPD2    C413888   1.914   4.193  14.802 -0.3890 -0.1751 -0.0473
    2MPD2    C513889   1.895   4.321  14.849 -0.5722  0.3259 -1.0775
    2MPD2     H13890   1.737   4.219  14.521 -0.7609 -0.7038  0.0136
    2MPD2    H113891   1.977   4.129  14.865  1.8513 -0.0388 -2.1569
    2MPD2    H213892   1.803   4.511  14.826  0.2750  0.4608 -0.7208
    2MPD2    H313893   1.943   4.349  14.943  1.2110  0.1604 -1.9316
    2MPD2     N13894   1.873   4.032  14.626  0.6390 -0.3420 -0.2600
    2MPD2    H513895   1.819   4.007  14.544 -0.5678 -0.3011  0.5187
    2MPD2    N113896   1.674   4.475  14.600  0.1306 -0.2227  0.7938
    2MPD2    H713897   1.677   4.557  14.660 -0.5045  1.1100 -1.0123
    3TMC2    C113898   1.529   4.587  14.441 -1.5131  1.1409  0.1629
    3TMC2    C213899   1.548   4.709  14.508  0.4568  0.2290  0.4289
    3TMC2    C313900   1.519   0.087  14.441 -0.0497 -0.3885 -0.0064
    3TMC2    C413901   1.504   4.583  14.312  0.4944  0.6816  0.0999
    3TMC2    C513902   1.475   4.703  14.251 -0.2082  0.0771 -0.0033
    3TMC2    C613903   1.475   0.092  14.313 -0.2616  0.1756  0.5822
    3TMC2     C13904   1.588   4.462  14.491 -0.1702  0.1503  0.2925
    3TMC2     O13905   1.561   4.362  14.433 -0.5136 -0.3485 -0.1363
    3TMC2     H13906   1.568   4.712  14.614  0.3428  2.4719  0.3861
    3TMC2    H113907   1.483   4.489  14.261  0.2322  1.5847 -1.4486
    3TMC2    H213908   1.468   0.180  14.249  1.2200 -0.8343 -0.9838
    3TMC2    C713909   1.427   4.682  14.112  0.3167 -0.4454 -0.0022
    3TMC2    C813910   1.549   0.218  14.500  0.6083 -0.8855  0.9345
    3TMC2    O113911   1.450   4.578  14.053  0.2228 -0.1031 -0.6754
    3TMC2    O213912   1.662   0.256  14.528  0.4366  0.6651 -0.1119
    3TMC2    O513913   1.442   0.284  14.468 -0.0954 -0.2139 -0.9504
    3TMC2    H513914   1.364   0.233  14.438  1.1847 -2.6132 -0.2088
    4TMC2    C113915   0.699   0.441  13.671 -0.2878 -0.3741 -0.4042
    4TMC2    C213916   0.739   0.511  13.563  0.1677 -0.4565 -0.0182
    4TMC2    C313917   0.868   0.550  13.556 -0.5722  0.6963  0.1866
    4TMC2    C413918   0.793   0.404  13.762 -0.3765  0.0664  0.1552
    4TMC2    C513919   0.928   0.427  13.737  0.8504  0.1383 -0.0458
    4TMC2    C613920   0.968   0.493  13.627  0.0314  0.2628  0.0741
    4TMC2     C13921   0.575   0.363  13.680  0.2782  0.3452 -0.1577
    4TMC2     O13922   0.559   0.289  13.778  0.4870  0.5627 -0.1896
    4TMC2     H13923   0.670   0.566  13.500  0.8358  1.0806  0.5893
    4TMC2    H113924   0.765   0.333  13.839 -2.6877  0.9528  0.1412
    4TMC2    H213925   1.074   0.512  13.617 -0.4678  2.9399  0.0626
    4TMC2    C713926   1.013   0.334  13.804  0.1326 -0.5514  0.6635
    4TMC2    C813927   0.907   0.605  13.430 -0.2216  0.0416  0.2508
    4TMC2    O113928   0.999   0.330  13.926  0.7099 -0.2612 -0.1335
    4TMC2    O213929   0.853   0.573  13.323 -0.3980  0.6744  0.1498
    4TMC2    O513930   1.028   0.660  13.455 -0.2929 -0.5025 -0.0008
    4TMC2    H513931   1.050   0.691  13.545  0.3632 -0.5055 -0.1563
    5MPD2     C13932   0.113   0.251  13.528  0.2649 -0.9859 -1.2842
    5MPD2    C113933   0.162   0.322  13.428 -0.0853  0.1475 -0.1305
    5MPD2    C213934   0.289   0.373  13.450 -0.0469 -0.3049  0.1560
    5MPD2    C313935   0.361   0.340  13.561 -0.1789 -0.7101 -0.7725
    5MPD2    C413936   0.299   0.270  13.662 -0.1421 -0.1263  0.0046
    5MPD2    C513937   0.180   0.224  13.645 -0.0979 -0.4407 -0.3874
    5MPD2     H13938   0.325   0.445  13.378  0.4699 -0.6323  0.0898
    5MPD2    H113939   0.356   0.229  13.744 -1.4266 -0.8595  0.5320
    5MPD2    H213940   0.011   0.214  13.526 -0.2607  0.3090  0.9169
    5MPD2    H313941   0.125   0.164  13.718 -0.6711 -0.4526 -0.8314
    5MPD2     N13942   0.494   0.385  13.572 -0.3764  0.0164 -0.2396
    5MPD2    H513943   0.526   0.434  13.488  1.0654 -0.6762 -0.0926
    5MPD2    N113944   0.078   0.338  13.308 -0.6389 -0.8046  0.1013
    5MPD2    H713945   4.726   0.285  13.300 -1.0127 -0.5353  2.4096
    6MPD1     C13946   4.703   1.773  12.832  0.8090 -0.7387  0.3952
    6MPD1    C113947   4.672   1.660  12.904  0.3890 -0.1987 -0.1463
    6MPD1    C213948   4.615   1.552  12.834 -0.1406 -0.3514 -0.3007
    6MPD1    C313949   4.604   1.556  12.694  0.4984  0.0218  0.3391
    6MPD1    C413950   4.649   1.667  12.630 -0.2925  0.2984 -0.1655
    6MPD1    C513951   4.695   1.773  12.698 -0.8807 -0.1721  0.5383
    6MPD1     H13952   4.575   1.465  12.885 -0.2747 -0.3942 -0.4785
    6MPD1    H113953   4.645   1.681  12.522 -0.3823  0.6868 -0.1126
    6MPD1    H213954   0.007   1.862  12.881  2.0812 -1.2160  0.2589
    6MPD1    H313955   4.725   1.851  12.629  0.7481  1.1205  2.7060
    6MPD1     N13956   4.558   1.447  12.617  0.0594 -0.8068 -0.0342
    6MPD1    H513957   4.582   1.445  12.518 -0.0133  1.4651 -0.0786
    6MPD1    N113958   4.674   1.661  13.047  0.1105 -0.6736  0.1588
    6MPD1    H613959   0.019   1.717  13.077 -0.1331 -0.2073 -0.0679
    6MPD1    H713960   4.689   1.574  13.099  1.3498 -0.6840 -0.2102
    7MPD2     C13961   4.120   0.792  12.796  0.0924  0.2734  0.0647
    7MPD2    C113962   4.251   0.784  12.745 -0.2140 -0.2043 -0.0808
    7MPD2    C213963   4.331   0.678  12.783  0.7985  0.4106  0.1114
    7MPD2    C313964   4.293   0.602  12.889  0.5671  0.2279 -0.2509
    7MPD2    C413965   4.166   0.609  12.952 -0.2804 -0.4124  0.0635
    7MPD2    C513966   4.078   0.702  12.898  0.2401 -0.2956  0.3739
    7MPD2     H13967   4.432   0.664  12.745  2.3852  0.5518  4.2993
    7MPD2    H113968   4.137   0.545  13.034  0.7724  0.4275  1.0817
    7MPD2    H213969   4.051   0.870  12.762 -0.6191  0.1437  1.2093
    7MPD2    H313970   3.977   0.711  12.936 -0.2229  2.1749 -1.3918
    7MPD2     N13971   4.394   0.510  12.921 -0.1946 -0.0223  0.3572
    7MPD2    H513972   4.467   0.505  12.850  0.2768 -1.5188  0.9381
    7MPD2    N113973   4.302   0.864  12.639  0.0051 -0.2995  0.0160
    7MPD2    H713974   4.399   0.846  12.616 -0.0262  1.7677 -1.7672
    8TMC3    C113975   4.535   0.368  13.021  0.2387  0.0766 -0.3233
    8TMC3    C213976   4.617   0.396  13.127  0.0269 -0.5843  0.1258
    8TMC3    C313977   0.012   0.399  13.095  0.3890  0.4846  0.6990
    8TMC3    C413978   4.579   0.340  12.896  0.6870 -0.2688 -0.2127
    8TMC3    C513979   4.700   0.379  12.866  0.2560 -0.1036  0.6379
    8TMC3    C613980   0.054   0.403  12.968 -0.0051  0.4358  0.1518
    8TMC3     C13981   4.408   0.435  13.034 -0.1166  0.5364 -0.2386
    8TMC3     O13982   4.343   0.439  13.138 -0.2593  0.3710  0.3085
    8TMC3     H13983   4.567   0.420  13.220  0.5892  0.3357  0.1925
    8TMC3    H113984   4.514   0.312  12.814  0.5226  0.4296 -0.3226
    8TMC3    H213985   0.155   0.434  12.944 -0.4688  1.7813 -0.0431
    8TMC3    C713986   4.705   0.464  12.750 -0.0889  0.5112  0.2978
    8TMC3    C813987   0.120   0.395  13.195 -0.2275 -0.1890  0.4067
    8TMC3    O113988   4.597   0.477  12.691  0.1182 -0.2630  0.0788
    8TMC3    O213989   0.222   0.453  13.166 -0.0745  0.5318 -0.4012
    9TMC3    C113990   4.456   1.255  12.537 -0.2879  0.2910 -0.5480
    9TMC3    C213991   4.572   1.196  12.488  0.0243 -0.0024 -0.4259
    9TMC3    C313992   4.563   1.065  12.447 -0.4028 -0.5758 -0.3049
    9TMC3    C413993   4.348   1.182  12.559  0.1620 -0.3432  0.3403
    9TMC3    C513994   4.345   1.055  12.516  0.0500 -0.4583  0.8622
    9TMC3    C613995   4.458   0.986  12.475 -0.3642  0.0613 -0.7523
    9TMC3     C13996   4.472   1.348  12.650 -0.3782  0.2832 -0.3598
    9TMC3     O13997   4.415   1.319  12.751  0.6156  0.3160 -0.4966
    9TMC3     H13998   4.659   1.251  12.454  0.9131 -0.0963  1.7009
    9TMC3    H113999   4.261   1.230  12.602  0.8589 -0.5907  2.0052
    9TMC3    H214000   4.456   0.884  12.438  1.1980 -0.0887 -0.3927
    9TMC3    C714001   4.242   0.977  12.593 -0.0810  0.1520  0.3479
    9TMC3    C814002   4.689   1.011  12.412 -0.2047 -0.1004  0.9706
    9TMC3    O114003   4.128   1.019  12.609  0.4693 -0.2353 -0.2204
    9TMC3    O214004   0.037   1.078  12.349 -0.2573  0.1418 -0.0695
   10MPD2     C14005   0.235   0.586  12.521  0.5042 -0.4875 -0.1564
   10MPD2    C114006   0.120   0.582  12.596 -0.0907 -0.2650  0.2654
   10MPD2    C214007   0.041   0.689  12.570  0.0341  0.7056  0.0507
   10MPD2    C314008   0.066   0.787  12.470 -0.3917  0.3154  0.6959
   10MPD2    C414009   0.185   0.792  12.414  0.6314  0.2474 -0.5085
   10MPD2    C514010   0.266   0.685  12.431 -0.0182  0.2723 -0.7739
   10MPD2     H14011   4.683   0.707  12.624  0.4870 -0.1451  1.1197
   10MPD2    H114012   0.210   0.873  12.348  1.8952 -0.1973 -0.5661
   10MPD2    H214013   0.313   0.516  12.548 -0.0648 -1.2813 -0.5796
   10MPD2    H314014   0.363   0.690  12.383  1.3377 -1.3792  1.8138
   10MPD2     N14015   4.705   0.889  12.470  0.2723  0.5277  0.2186
   10MPD2    H514016   4.634   0.863  12.537  0.3464  2.0950  0.9136
   10MPD2    N114017   0.089   0.478  12.690  0.5528 -0.1063 -0.0731
   10MPD2    H714018   0.159   0.406  12.708 -1.5596 -1.9255  0.9308
   11MPD2     C14019   1.368   4.712  13.826  1.4055 -0.2590 -0.2049
   11MPD2    C114020   1.319   0.055  13.929  0.0407 -0.3777  0.2176
   11MPD2    C214021   1.239   0.164  13.897 -0.0260  0.2575  0.4121
   11MPD2    C314022   1.200   0.191  13.767  0.3786 -0.1370  0.3221
   11MPD2    C414023   1.252   0.112  13.664  0.3143  0.2845 -0.0921
   11MPD2    C514024   1.331   0.004  13.699  1.0179  0.2868 -0.1036
   11MPD2     H14025   1.198   0.223  13.979 -2.1093 -1.4875  0.6239
   11MPD2    H114026   1.234   0.131  13.559  1.7375  0.8998 -0.2190
   11MPD2    H214027   1.447   4.640  13.846 -3.7975 -5.5151  1.4803
   11MPD2    H314028   1.380   4.677  13.625  0.6857 -0.5500  0.3768
   11MPD2     N14029   1.107   0.284  13.723  0.0315  0.0226 -0.6626
   11MPD2    H514030   1.102   0.292  13.622 -1.1537 -0.0162 -0.6046
   11MPD2    N114031   1.359   0.053  14.062 -0.2528  0.1787 -0.1799
   11MPD2    H714032   1.325   0.127  14.122  2.5950 -0.1323  1.8109
    1MPD1     C14033   3.682   1.599  16.898 -0.9193  0.2058  0.5081
    1MPD1    C114034   3.802   1.542  16.947 -0.4897 -0.1744  0.1730
    1MPD1    C214035   3.924   1.597  16.908 -0.1918  0.1659  0.5347
    1MPD1    C314036   3.921   1.726  16.852 -0.4314  0.0786  0.0579
    1MPD1    C414037   3.803   1.788  16.827  0.1791 -0.0841  0.0779
    1MPD1    C514038   3.686   1.721  16.834 -0.0068  0.0512 -0.1620
    1MPD1     H14039   4.009   1.534  16.931 -0.1003 -0.4161 -1.4260
    1MPD1    H114040   3.812   1.888  16.787  0.4220  0.9199  2.6735
    1MPD1    H214041   3.588   1.548  16.915 -0.7419 -0.4004 -0.3445
    1MPD1    H314042   3.593   1.766  16.799 -1.4267 -0.5365  2.8502
    1MPD1     N14043   4.031   1.791  16.792 -0.3389  0.2262  0.2603
    1MPD1    H514044   4.012   1.873  16.735  1.4333  2.0031  2.1985
    1MPD1    N114045   3.803   1.416  17.009 -0.1317  0.1007  0.4637
    1MPD1    H614046   3.727   1.407  17.076 -1.9544 -1.0457 -1.7683
    1MPD1    H714047   3.890   1.407  17.061  0.0021  0.3481  0.2793
    2MPD1     C14048   4.650   2.289  17.261 -0.5915 -0.2067  0.6808
    2MPD1    C114049   4.513   2.296  17.224 -0.7181  0.2321 -0.7998
    2MPD1    C214050   4.467   2.214  17.126  0.0919  0.3483  0.5792
    2MPD1    C314051   4.554   2.129  17.054 -0.4441  0.1070 -0.0524
    2MPD1    C414052   4.684   2.124  17.087 -0.3848 -0.0104  0.3256
    2MPD1    C514053   4.733   2.203  17.189 -0.6249  0.0029  0.9348
    2MPD1     H14054   4.362   2.223  17.102  0.2012 -0.5667 -0.2462
    2MPD1    H114055   0.024   2.060  17.041  0.3853 -0.4817  2.2280
    2MPD1    H214056   4.698   2.334  17.347 -0.0874 -1.1182  0.8702
    2MPD1    H314057   0.103   2.193  17.214  0.0951  0.9008 -1.6311
    2MPD1     N14058   4.493   2.060  16.945 -0.0350 -0.6481 -0.6229
    2MPD1    H514059   4.395   2.075  16.923  0.0363 -0.0970 -0.5715
    2MPD1    N114060   4.418   2.351  17.317  0.6734  0.1443  0.9666
    2MPD1    H614061   4.324   2.353  17.277  0.6725  0.8711  1.0048
    2MPD1    H714062   4.437   2.444  17.354  2.6430  0.4522 -0.8015
    3TMC3    C114063   4.470   1.927  16.759  0.0811  0.0595  0.4224
    3TMC3    C214064   4.494   1.906  16.626  0.3275 -0.0094  0.2500
    3TMC3    C314065   4.393   1.864  16.545 -0.0778  0.1505  0.9531
    3TMC3    C414066   4.350   1.888  16.815  0.5137  0.0732 -0.3150
    3TMC3    C514067   4.251   1.841  16.732  0.0197 -0.8729  0.4226
    3TMC3    C614068   4.270   1.824  16.596 -0.4603  0.9347 -0.1908
    3TMC3     C14069   4.566   1.997  16.843  0.4102  0.6498  0.2121
    3TMC3     O14070   4.683   1.991  16.814 -0.5526  0.1315  0.1141
    3TMC3     H14071   4.581   1.950  16.579 -0.8318  2.1736  0.1521
    3TMC3    H114072   4.337   1.873  16.921  0.2568  0.9361 -0.2301
    3TMC3    H214073   4.198   1.777  16.529 -1.5376  0.1186  1.5480
    3TMC3    C714074   4.158   1.759  16.813 -0.2036 -0.2790 -0.1663
    3TMC3    C814075   4.417   1.841  16.404 -1.1731 -0.5442  0.4835
    3TMC3    O114076   4.214   1.674  16.877  0.8339  0.4821  0.3632
    3TMC3    O214077   4.339   1.903  16.330 -0.3920  0.1054  0.5352
    4MPD1     C14078   0.004   1.761  16.012  0.1183  0.2069  0.3670
    4MPD1    C114079   0.069   1.716  16.125 -0.5896 -0.0684 -0.1400
    4MPD1    C214080   4.731   1.726  16.245 -0.1301  0.0462 -0.0844
    4MPD1    C314081   4.601   1.776  16.256 -0.2779 -0.7694 -0.5794
    4MPD1    C414082   4.547   1.834  16.136  0.0755  0.2628 -0.9788
    4MPD1    C514083   4.617   1.824  16.016 -0.9425  0.4413 -0.2728
    4MPD1     H14084   0.049   1.688  16.332  0.7362  0.5429 -0.3972
    4MPD1    H114085   4.450   1.882  16.132  0.0055  0.1039 -1.2066
    4MPD1    H214086   0.053   1.752  15.916 -0.0390 -1.2406  0.4264
    4MPD1    H314087   4.578   1.860  15.922  1.3304  1.7258 -0.7116
    4MPD1     N14088   4.538   1.784  16.381 -0.5124  0.4216  0.2959
    4MPD1    H514089   4.590   1.763  16.465  0.9216  1.4699 -0.3283
    4MPD1    N114090   0.199   1.657  16.122  0.2624 -0.1616  0.1890
    4MPD1    H614091   0.274   1.691  16.182  2.6164 -2.8223 -1.2273
    4MPD1    H714092   0.237   1.648  16.028  0.9588 -1.7895  0.6343
    1TCq1    O114093   4.519   2.220  11.177  0.6128 -0.3634 -0.3968
    1TCq1    C114094   4.508   2.107  11.107 -0.1100  0.0132  0.6198
    1TCq1    O214095   4.405   2.040  11.105  0.1822  0.4437 -0.0702
    1TCq1    C214096   4.614   2.087  11.009  0.0511  0.1900 -0.2758
    1TCq1    C314097   4.662   1.957  10.985 -0.2016  0.7789  0.2440
    1TCq1    C414098   0.024   1.945  10.889  0.2465 -0.4912 -0.4437
    1TCq1    C514099   0.090   2.056  10.833  0.1621  0.3399 -0.2805
    1TCq1    C614100   0.036   2.178  10.857 -1.0474  0.0618 -0.3672
    1TCq1    C714101   4.667   2.194  10.941 -0.0424  0.7675 -0.0043
    1TCq1    C814102   0.093   2.297  10.792  0.4764  0.2145  0.2228
    1TCq1    O414103   0.044   2.406  10.822  0.5690 -0.6437  0.5568
    1TCq1    C914104   0.103   1.824  10.900  0.5146  0.4131 -0.1709
    1TCq1    O514105   0.051   1.730  10.964 -0.4203 -0.1091 -0.3322
    1TCq1    O614106   0.228   1.838  10.879 -0.0487  0.0515 -0.0114
    1TCq1    H114107   4.607   2.264  11.168  0.9571 -1.1876 -1.1243
    1TCq1    H214108   4.643   1.877  11.056 -2.0804 -0.0635 -1.2021
    1TCq1    H314109   0.175   2.036  10.769  0.0431 -0.3616 -0.2158
    1TCq1    H414110   4.606   2.283  10.948 -0.0560  0.8263 -0.8764
    2MPD1     C14111   0.337   2.522  10.391 -0.4812  0.5483 -0.9209
    2MPD1    C114112   0.352   2.387  10.387 -0.2503 -0.2973  0.0900
    2MPD1    C214113   0.301   2.298  10.486 -0.7246 -0.4387 -0.0452
    2MPD1    C314114   0.242   2.353  10.600  0.1573 -0.5733  0.0901
    2MPD1    C414115   0.230   2.489  10.608 -0.1460 -0.0732  0.1196
    2MPD1    C514116   0.269   2.569  10.500  0.8271  1.1277  0.0824
    2MPD1     H14117   0.302   2.191  10.468  1.4602 -0.4228  0.0148
    2MPD1    H114118   0.165   2.534  10.682  1.4092  0.2789  1.2729
    2MPD1    H214119   0.367   2.589  10.312  1.4226  0.3955 -0.3213
    2MPD1    H314120   0.239   2.674  10.499 -0.5971  0.7330  0.9183
    2MPD1     N14121   0.183   2.264  10.691  0.3994 -0.0242 -0.0600
    2MPD1    H514122   0.206   2.166  10.678 -2.5506 -0.6780 -0.3813
    2MPD1    N114123   0.392   2.335  10.262 -0.5636  0.1215  0.1978
    2MPD1    H614124   0.448   2.252  10.279 -0.9237 -0.5411 -1.8031
    2MPD1    H714125   0.442   2.405  10.208  0.5346  0.7743  2.0837
    1TMC1    C114126   3.177   1.976   0.712 -0.2464  0.8946  1.4855
    1TMC1    C214127   3.155   2.070   0.610  0.0664  0.0640 -0.6439
    1TMC1    C314128   3.053   2.155   0.629 -0.2195  0.5658 -0.3184
    1TMC1    C414129   3.103   1.975   0.830 -0.5572 -0.0289  0.2202
    1TMC1    C514130   3.008   2.076   0.846  0.5902 -1.0150 -0.0584
    1TMC1    C614131   2.972   2.153   0.738 -0.6916 -0.6789  0.3957
    1TMC1     C14132   3.310   1.913   0.719  0.0481  0.6932  0.0068
    1TMC1     O14133   3.389   1.939   0.633  0.1021  0.3805  0.5319
    1TMC1     H14134   3.224   2.080   0.527  0.3214 -2.2674 -0.7268
    1TMC1    H114135   3.100   1.894   0.901 -1.8330 -0.7997 -0.7218
    1TMC1    H214136   2.901   2.235   0.736  3.0827  2.5919 -0.1952
    1TMC1    C714137   2.903   2.061   0.947 -0.2390 -0.1967 -0.2360
    1TMC1    C814138   3.044   2.280   0.546 -0.0696  0.9945 -0.4101
    1TMC1    O114139   2.797   2.119   0.933  0.1321  0.4458 -0.3055
    1TMC1    O214140   2.935   2.333   0.528 -0.0114  0.4255 -0.4094
    1TMC1    O314141   2.958   2.023   1.059 -0.8135  0.9130 -0.2963
    1TMC1    H314142   3.052   1.996   1.056 -0.6290  1.5295 -0.1442
    1TMC1    O514143   3.161   2.340   0.573 -0.0424 -0.5575 -0.1238
    1TMC1    H514144   3.231   2.284   0.613  0.5033  0.2789  0.1148
    2MPD1     C14145   3.695   1.636   0.914  0.1227  0.5296  0.3062
    2MPD1    C114146   3.597   1.641   1.010  0.8777 -0.0884  0.4109
    2MPD1    C214147   3.478   1.717   0.985  0.2304  0.8699  0.1945
    2MPD1    C314148   3.469   1.793   0.874 -0.4293  0.5518 -0.0306
    2MPD1    C414149   3.573   1.800   0.786  0.1284 -0.5391 -0.4131
    2MPD1    C514150   3.679   1.721   0.807  0.0724 -0.8135  0.6674
    2MPD1     H14151   3.394   1.704   1.053  1.8382  0.4371  2.1026
    2MPD1    H114152   3.579   1.870   0.703 -1.4152 -0.2405 -0.2621
    2MPD1    H214153   3.781   1.572   0.926 -0.8029 -0.7846  0.0365
    2MPD1    H314154   3.764   1.724   0.741 -1.7613  0.4812 -1.6609
    2MPD1     N14155   3.350   1.864   0.846 -0.1521  1.4823  0.6387
    2MPD1    H514156   3.287   1.869   0.926 -2.4321  0.4483 -1.0728
    2MPD1    N114157   3.614   1.553   1.119 -0.3465  0.1273 -0.2628
    2MPD1    H614158   3.709   1.524   1.143 -1.0996 -1.0476  1.3174
    2MPD1    H714159   3.561   1.589   1.198  0.9641  0.9013  0.2801
    1MPD1     C14160   1.280   1.956  11.559 -0.4892  0.0553 -0.0155
    1MPD1    C114161   1.378   2.049  11.576 -0.2638 -0.0141  0.2891
    1MPD1    C214162   1.439   2.050  11.699 -0.3381 -0.1029  0.1962
    1MPD1    C314163   1.417   1.950  11.795  0.1578 -0.3744  0.3419
    1MPD1    C414164   1.331   1.850  11.772  0.5944  0.1901 -1.1014
    1MPD1    C514165   1.251   1.865  11.660 -0.1559  0.2980 -0.5778
    1MPD1     H14166   1.497   2.137  11.727 -0.2288 -0.3300  0.6882
    1MPD1    H114167   1.296   1.782  11.849 -0.2991  0.8055 -0.9703
    1MPD1    H214168   1.210   1.956  11.476  1.3065  1.5996 -1.5233
    1MPD1    H314169   1.173   1.792  11.642  1.9040 -1.9000 -0.5783
    1MPD1     N14170   1.501   1.946  11.908 -0.7107  0.6042  0.0972
    1MPD1    H514171   1.566   2.024  11.915 -0.0710  0.1453 -0.8734
    1MPD1    N114172   1.390   2.164  11.491 -0.4153  0.1042 -0.7734
    1MPD1    H614173   1.363   2.150  11.394 -2.9721 -3.4949  0.4707
    1MPD1    H714174   1.480   2.210  11.490 -0.3008 -0.0880  0.1233
    2MPD1     C14175   1.782   3.037  11.422  0.2745  0.4068  0.2810
    2MPD1    C114176   1.671   3.029  11.339 -0.6424  0.5671  0.0832
    2MPD1    C214177   1.633   2.898  11.291  0.1526 -0.1582  0.7674
    2MPD1    C314178   1.698   2.781  11.340 -0.6151  0.5919  0.2128
    2MPD1    C414179   1.803   2.795  11.428 -0.6355  0.0935 -0.5114
    2MPD1    C514180   1.837   2.921  11.470  0.9502 -0.3589 -0.1395
    2MPD1     H14181   1.549   2.892  11.222  0.7070 -1.0264  0.1664
    2MPD1    H114182   1.849   2.712  11.480  0.2912 -0.4823 -2.2234
    2MPD1    H214183   1.828   3.130  11.455 -0.0598  1.1090 -1.2283
    2MPD1    H314184   1.913   2.933  11.546 -0.0238  2.4836  0.3683
    2MPD1     N14185   1.666   2.655  11.294  0.2511  0.3782 -0.6773
    2MPD1    H514186   1.732   2.587  11.331 -0.7332 -0.3168 -0.2036
    2MPD1    N114187   1.625   3.147  11.269 -0.6215 -0.3247 -0.5833
    2MPD1    H614188   1.533   3.131  11.228 -1.4071  0.1296  1.0272
    2MPD1    H714189   1.615   3.224  11.334  1.4418  1.1831 -2.0484
    3MPD1     C14190   1.675   2.320  10.399 -0.8274  0.4078 -0.3340
    3MPD1    C114191   1.572   2.402  10.436  1.1015  0.6977  0.6534
    3MPD1    C214192   1.518   2.373  10.564  0.0932 -0.3688  0.5854
    3MPD1    C314193   1.557   2.260  10.642 -0.1838  0.1642  0.1174
    3MPD1    C414194   1.653   2.179  10.588 -0.3371 -0.3893 -0.8041
    3MPD1    C514195   1.710   2.208  10.468 -0.3044 -0.9673 -0.9162
    3MPD1     H14196   1.449   2.447  10.601  0.1579 -0.7744  1.5258
    3MPD1    H114197   1.701   2.102  10.647  0.1094  0.0382 -0.6103
    3MPD1    H214198   1.735   2.353  10.315 -1.3239 -1.0694 -1.2621
    3MPD1    H314199   1.801   2.159  10.437  1.4822  0.5978  1.8651
    3MPD1     N14200   1.530   2.242  10.784  0.1037  0.3603 -0.1711
    3MPD1    H514201   1.576   2.165  10.831  0.0969  0.3346 -0.2072
    3MPD1    N114202   1.538   2.521  10.372  0.6083 -0.2784  0.1411
    3MPD1    H614203   1.472   2.579  10.423 -1.4055 -1.9848 -0.5116
    3MPD1    H714204   1.516   2.511  10.273 -2.9835  0.7443  0.8523
    4MPD2     C14205   2.015   2.302  11.988 -0.0447 -0.3683  0.0640
    4MPD2    C114206   2.035   2.169  12.030  0.7944 -0.6247  0.5299
    4MPD2    C214207   2.145   2.097  11.985 -0.7606 -0.1315 -0.7983
    4MPD2    C314208   2.234   2.157  11.900 -0.4621 -0.1677  0.1097
    4MPD2    C414209   2.227   2.290  11.869  0.3177 -0.3648  0.1690
    4MPD2    C514210   2.119   2.359  11.911  0.4950 -0.4931 -0.0568
    4MPD2     H14211   2.143   1.990  12.003 -2.6750 -0.1458 -1.0549
    4MPD2    H114212   2.305   2.339  11.812  0.9415 -1.9362 -0.3348
    4MPD2    H214213   1.933   2.365  12.019  1.0371  0.7442  0.6921
    4MPD2    H314214   2.109   2.463  11.882 -0.7668 -0.6821 -0.2890
    4MPD2     N14215   2.325   2.083  11.818  0.4079  0.1473  0.8696
    4MPD2    H514216   2.383   2.132  11.750  0.0568  1.3151  1.4172
    4MPD2    N114217   1.940   2.100  12.114  0.3282 -0.3553  0.2398
    4MPD2    H714218   1.959   2.000  12.123 -0.3757 -0.6121 -1.1286
    5TMC3    C114219   1.747   2.045  12.221 -0.6060 -0.5554 -0.2462
    5TMC3    C214220   1.640   2.013  12.145  0.0247  0.5215  0.0924
    5TMC3    C314221   1.604   1.881  12.110 -0.6584 -0.5284  0.4322
    5TMC3    C414222   1.816   1.942  12.270 -0.2575 -0.1279 -0.3559
    5TMC3    C514223   1.794   1.815  12.223 -0.0429  0.3256 -0.2666
    5TMC3    C614224   1.685   1.778  12.146 -0.1424  0.1693  1.1208
    5TMC3     C14225   1.825   2.152  12.158 -0.6486 -0.6771 -0.2036
    5TMC3     O14226   1.771   2.264  12.145  0.2610  0.0229 -0.1137
    5TMC3     H14227   1.594   2.092  12.087 -1.2356 -0.7389 -0.6140
    5TMC3    H114228   1.903   1.962  12.332 -1.1026  4.0250 -0.5085
    5TMC3    H214229   1.666   1.676  12.114  3.1222  0.2771 -1.1709
    5TMC3    C714230   1.913   1.750  12.175 -0.1503 -0.3933 -0.9863
    5TMC3    C814231   1.508   1.843  11.999 -0.2418  0.7837 -0.3762
    5TMC3    O114232   2.013   1.821  12.164 -0.2157 -0.4397  0.2079
    5TMC3    O214233   1.462   1.730  12.005 -0.2676 -0.5685 -0.0122
    6TMC3    C114234   1.565   2.480  11.171 -0.2570  0.1591 -1.6691
    6TMC3    C214235   1.472   2.440  11.071 -0.0805 -1.6714  0.6781
    6TMC3    C314236   1.493   2.324  11.007  0.0455 -0.2700  0.0577
    6TMC3    C414237   1.668   2.399  11.208 -0.4299 -0.1605 -0.3916
    6TMC3    C514238   1.685   2.279  11.147  0.4980  0.1338  0.1913
    6TMC3    C614239   1.601   2.245  11.041  0.5917  0.4224  0.1718
    6TMC3     C14240   1.565   2.615  11.213  0.1227  0.7159 -0.0501
    6TMC3     O14241   1.462   2.674  11.170  0.6498 -0.0677 -0.1023
    6TMC3     H14242   1.393   2.509  11.043  1.0836 -1.0121 -0.9938
    6TMC3    H114243   1.733   2.427  11.290  0.5831 -1.0428 -0.8925
    6TMC3    H214244   1.607   2.148  10.994  2.3329  1.0517 -0.8880
    6TMC3    C714245   1.805   2.201  11.170 -0.3563 -0.2929 -0.4124
    6TMC3    C814246   1.468   2.336  10.861 -0.2332  0.3004  0.3434
    6TMC3    O114247   1.880   2.240  11.264 -0.0627  0.3335  0.3439
    6TMC3    O214248   1.410   2.437  10.826 -0.5565  0.2027  0.3284
    7MPD2     C14249   2.110   1.404  11.851 -0.1568  0.5603  0.0443
    7MPD2    C114250   2.137   1.542  11.868 -0.2288 -0.2344  0.6655
    7MPD2    C214251   2.073   1.617  11.960 -0.4011  0.4943 -0.8745
    7MPD2    C314252   1.977   1.552  12.042 -0.0448 -0.5012 -0.7520
    7MPD2    C414253   1.939   1.421  12.012  0.3243 -0.4884 -0.1684
    7MPD2    C514254   2.018   1.347  11.934  0.0018 -0.5507  0.0013
    7MPD2     H14255   2.091   1.724  11.968  4.6745 -0.3507 -0.8665
    7MPD2    H114256   1.864   1.372  12.073  0.7722  0.3487  1.0599
    7MPD2    H214257   2.164   1.344  11.778 -2.4484  0.5171 -1.6196
    7MPD2    H314258   2.001   1.241  11.916 -1.8191 -0.2572  0.0042
    7MPD2     N14259   1.898   1.622  12.136  0.7366  0.2954  0.0031
    7MPD2    H514260   1.813   1.580  12.171  0.3943  1.2613  0.3502
    7MPD2    N114261   2.239   1.613  11.795  0.3337 -0.0996 -0.5644
    7MPD2    H714262   2.255   1.706  11.833 -2.6715  0.7292 -1.3273
    8TMC3    C114263   2.376   1.685  11.622 -0.0779 -0.1012 -0.2504
    8TMC3    C214264   2.324   1.733  11.509  0.1546  0.2054  0.2035
    8TMC3    C314265   2.310   1.867  11.505 -0.2954 -0.3499  0.0932
    8TMC3    C414266   2.431   1.765  11.723  0.3834  0.3831 -0.2516
    8TMC3    C514267   2.411   1.901  11.711  0.5631  0.1414 -0.0777
    8TMC3    C614268   2.353   1.949  11.602 -0.1608 -0.2519  0.1684
    8TMC3     C14269   2.300   1.574  11.679 -0.3683 -0.0958  1.3872
    8TMC3     O14270   2.284   1.468  11.617  0.1553 -0.5069 -0.4855
    8TMC3     H14271   2.262   1.675  11.442  0.1900  0.4599 -0.0490
    8TMC3    H114272   2.465   1.717  11.814  1.0281 -2.3862 -1.9591
    8TMC3    H214273   2.353   2.055  11.578  0.5855 -0.4227 -0.5988
    8TMC3    C714274   2.347   1.949  11.828  0.0344 -0.3372 -1.0608
    8TMC3    C814275   2.222   1.924  11.409  0.7251 -0.4438  0.0038
    8TMC3    O114276   2.306   1.869  11.910 -0.4936 -0.0120 -0.2617
    8TMC3    O214277   2.134   1.989  11.462  0.4293 -0.5376  0.4633
    9MPD2     C14278   2.166   1.857  11.064 -0.0443  0.4771  0.1350
    9MPD2    C114279   2.130   1.907  11.182 -0.0690 -0.8537  0.4309
    9MPD2    C214280   2.026   1.995  11.200 -0.9836  0.2857  0.2939
    9MPD2    C314281   1.947   2.013  11.090  0.4735  0.8808  0.1119
    9MPD2    C414282   1.993   1.960  10.968  0.2670 -0.0481 -0.1524
    9MPD2    C514283   2.103   1.888  10.947 -0.4502  0.8695  0.2183
    9MPD2     H14284   2.003   2.038  11.297 -2.5571 -0.6732  0.3474
    9MPD2    H114285   1.947   1.995  10.876  0.0367 -0.6094 -0.2515
    9MPD2    H214286   2.251   1.790  11.060 -0.2498  0.3674 -2.2817
    9MPD2    H314287   2.125   1.845  10.850  1.1988  0.3758  0.8169
    9MPD2     N14288   1.843   2.109  11.077  0.1487  0.3820 -0.0957
    9MPD2    H514289   1.784   2.101  10.995  0.3578 -0.3099 -0.1790
    9MPD2    N114290   2.224   1.874  11.283  0.2218 -0.0141 -0.2060
    9MPD2    H714291   2.297   1.810  11.254  0.0762 -1.6086  2.8207
    1MPD1     C14292   3.059   0.763  17.429  1.1007  0.0306  0.1161
    1MPD1    C114293   2.976   0.795  17.321 -0.0830  0.4227 -0.7634
    1MPD1    C214294   2.881   0.705  17.275 -0.2248  0.0464  0.3693
    1MPD1    C314295   2.872   0.582  17.344  0.6681  0.1435 -0.3726
    1MPD1    C414296   2.955   0.557  17.445 -0.0661 -0.1980  0.6480
    1MPD1    C514297   3.048   0.644  17.486 -0.2025  0.4677 -0.3263
    1MPD1     H14298   2.818   0.728  17.189  0.3157  1.4881  0.3658
    1MPD1    H114299   2.949   0.465  17.503 -0.9309 -0.8101 -0.4312
    1MPD1    H214300   3.128   0.839  17.465 -0.3839  1.4544 -0.0184
    1MPD1    H314301   3.112   0.612  17.568  0.8480 -0.4074 -1.4849
    1MPD1     N14302   2.780   0.479  17.301 -0.0197  0.2640  0.8586
    1MPD1    H514303   2.792   0.381  17.326  1.5675  0.5828  1.2998
    1MPD1    N114304   3.011   0.910  17.245  0.3051  0.6496  0.3483
    1MPD1    H614305   3.046   0.984  17.305  0.5753  2.4305 -2.0108
    1MPD1    H714306   2.932   0.946  17.193  1.8577  0.8454 -1.8706
    2TMC2    C114307   2.522   0.204  17.064  0.3818 -0.3787  0.3036
    2TMC2    C214308   2.539   0.109  17.156 -0.2669  0.0476 -0.2413
    2TMC2    C314309   2.583   0.139  17.281  0.5032  0.7359 -0.6471
    2TMC2    C414310   2.543   0.332  17.099  0.2937  0.0931 -0.3681
    2TMC2    C514311   2.595   0.367  17.221 -0.2984  0.2979  0.1457
    2TMC2    C614312   2.609   0.267  17.315 -0.1577 -0.1109  0.4661
    2TMC2     C14313   2.428   0.161  16.953 -0.5751 -0.3427 -0.1369
    2TMC2     O14314   2.336   0.236  16.923 -0.0579  0.4192  0.3301
    2TMC2     H14315   2.536   0.004  17.130 -1.4320 -0.6646  2.6959
    2TMC2    H114316   2.537   0.403  17.017  0.0942 -0.5139 -0.8755
    2TMC2    H214317   2.650   0.288  17.414  2.3662  1.3996 -0.9043
    2TMC2    C714318   2.673   0.494  17.226  0.6985  0.0495 -0.4294
    2TMC2    C814319   2.627   0.033  17.374  0.7917  0.0858  0.2694
    2TMC2    O114320   2.627   0.589  17.166 -0.4818 -0.1530  0.2377
    2TMC2    O214321   2.655   0.070  17.485  0.2052  0.2992  0.2244
    2TMC2    O514322   2.691   4.670  17.304  0.0855  0.3897 -0.5436
    2TMC2    H514323   2.686   4.657  17.207  0.3658  0.5445 -0.5775
    3MPD1     C14324   2.300   4.525  16.622 -0.2923 -0.2202  0.2798
    3MPD1    C114325   2.227   4.643  16.654  0.1231  0.3450  0.8314
    3MPD1    C214326   2.275   4.714  16.764 -0.2084 -0.0690 -0.0800
    3MPD1    C314327   2.404   4.690  16.815 -0.7598 -0.3094 -0.6554
    3MPD1    C414328   2.478   4.578  16.770 -0.2777 -0.1664 -0.7547
    3MPD1    C514329   2.415   4.495  16.685  0.5719  0.4932  0.0708
    3MPD1     H14330   2.209   0.056  16.800 -0.0397 -0.5946  1.3612
    3MPD1    H114331   2.575   4.550  16.809 -0.2935  0.2359 -0.4260
    3MPD1    H214332   2.256   4.447  16.561  0.8220  0.1080 -0.9457
    3MPD1    H314333   2.467   4.401  16.668 -0.9298 -0.6393  1.7854
    3MPD1     N14334   2.466   0.038  16.910 -0.1907 -0.4476 -0.0643
    3MPD1    H514335   2.556   4.733  16.938 -0.0116 -0.8691 -1.2032
    3MPD1    N114336   2.095   4.657  16.618  0.1060  0.3811  0.1326
    3MPD1    H614337   2.091   4.626  16.521  0.5655 -1.7604  0.8132
    3MPD1    H714338   2.067   0.020  16.619  0.6356  0.5289  0.6068
    1TMC1    C114339   4.405   3.763  12.965 -0.3711 -0.6316 -0.5982
    1TMC1    C214340   4.426   3.627  12.987  0.1791 -0.0490  0.1957
    1TMC1    C314341   4.330   3.531  12.952  0.0963 -0.7966  0.4308
    1TMC1    C414342   4.283   3.791  12.910 -0.5138 -0.0487  0.3477
    1TMC1    C514343   4.198   3.697  12.859 -0.1741 -0.0312  0.1008
    1TMC1    C614344   4.215   3.563  12.883 -0.1081 -0.0603 -0.5142
    1TMC1     C14345   4.469   3.863  13.044  0.3269 -0.1980 -0.6027
    1TMC1     O14346   4.431   3.979  13.029  0.3826 -0.3935 -0.2556
    1TMC1     H14347   4.508   3.595  13.050 -0.1911  2.4271  1.9228
    1TMC1    H114348   4.258   3.896  12.911  2.0357  0.5554  1.3153
    1TMC1    H214349   4.147   3.486  12.847 -0.8060  1.0627 -1.6148
    1TMC1    C714350   4.086   3.734  12.776 -0.0342 -0.6453 -0.3132
    1TMC1    C814351   4.349   3.389  12.966  0.3511  0.0306  0.7917
    1TMC1    O114352   3.999   3.651  12.761  0.0876 -0.0369 -0.1992
    1TMC1    O214353   4.447   3.326  12.937 -0.0435  0.2605  0.1451
    1TMC1    O314354   4.068   3.866  12.783  0.0451  0.6592 -0.6851
    1TMC1    H314355   4.147   3.915  12.753  2.0678 -1.5646  0.9918
    1TMC1    O514356   4.279   3.365  13.077 -0.0858  0.0970  0.1899
    1TMC1    H514357   4.208   3.432  13.091  0.0672  0.3857 -0.4272
    2MPD2     C14358   4.660   4.032  13.195 -0.0557 -0.0101  0.1030
    2MPD2    C114359   4.641   3.896  13.220 -0.2039 -0.6919  0.8535
    2MPD2    C214360   4.718   3.828  13.316  0.3325 -0.2973 -0.2380
    2MPD2    C314361   0.069   3.899  13.397  0.4696 -0.2075  0.0560
    2MPD2    C414362   0.078   4.037  13.374 -0.2918  0.1358 -0.7521
    2MPD2    C514363   0.010   4.101  13.276  0.4421 -0.0225  0.6958
    2MPD2     H14364   4.704   3.723  13.337 -0.8091 -0.0650  0.1772
    2MPD2    H114365   0.144   4.102  13.431  0.1114 -0.5461 -0.4361
    2MPD2    H214366   4.611   4.088  13.116  0.6777 -0.5078 -0.7039
    2MPD2    H314367   0.032   4.207  13.262  0.7151  0.1046  2.0603
    2MPD2     N14368   0.143   3.829  13.493 -0.3007 -0.1799 -0.4609
    2MPD2    H514369   0.136   3.729  13.505 -1.2697 -0.3832 -2.8502
    2MPD2    N114370   4.554   3.813  13.136  0.0362 -0.0170  0.7906
    2MPD2    H714371   4.548   3.714  13.160  0.7227 -0.6822 -1.7598
    3TCq1    O114372   0.226   3.460  13.980 -0.0745 -0.1630  0.0146
    3TCq1    C114373   0.149   3.549  13.915 -0.0253  0.6461 -0.2012
    3TCq1    O214374   0.026   3.566  13.937  0.3251  0.7083  0.5621
    3TCq1    C214375   0.229   3.598  13.804  0.1938 -0.3651 -0.5524
    3TCq1    C314376   0.337   3.527  13.758 -0.0992 -0.6772 -0.1187
    3TCq1    C414377   0.412   3.577  13.659  0.0906  0.2864  0.2888
    3TCq1    C514378   0.386   3.709  13.625  0.0426  0.2575 -0.7126
    3TCq1    C614379   0.284   3.779  13.671  1.3581 -1.0424  0.2092
    3TCq1    C714380   0.198   3.721  13.760  0.4051  0.0536  0.2211
    3TCq1    C814381   0.241   3.877  13.581 -0.0034 -0.2422  0.0167
    3TCq1    O414382   0.292   3.988  13.579  1.0405 -0.0233 -0.3633
    3TCq1    C914383   0.520   3.513  13.601 -0.2665 -0.4133 -0.5440
    3TCq1    O514384   0.568   3.571  13.499 -0.3556 -0.0770 -0.0137
    3TCq1    O614385   0.542   3.394  13.636  0.4521  0.1631  0.5741
    3TCq1    H114386   0.319   3.481  13.958 -0.8450  1.0456 -2.1551
    3TCq1    H214387   0.353   3.422  13.779 -2.2000 -0.9748 -0.0456
    3TCq1    H314388   0.450   3.754  13.550 -0.3073  0.2370 -1.0206
    3TCq1    H414389   0.113   3.775  13.800 -0.4577 -0.0761 -1.4257
    1MPD2     C14390   4.315   4.458  15.167 -0.5330  1.1892  0.1937
    1MPD2    C114391   4.280   4.329  15.147 -0.2972 -0.5350  0.3111
    1MPD2    C214392   4.375   4.233  15.129  0.0300  0.2218 -0.1008
    1MPD2    C314393   4.510   4.268  15.130 -0.1589 -0.2981  0.8204
    1MPD2    C414394   4.544   4.397  15.156 -0.0363  0.4740 -0.2227
    1MPD2    C514395   4.447   4.491  15.182  0.2954  0.1249 -0.3175
    1MPD2     H14396   4.348   4.131  15.107  0.9221 -0.1192  0.3748
    1MPD2    H114397   4.646   4.430  15.168  0.5135 -0.5462 -1.9709
    1MPD2    H214398   4.238   4.530  15.193 -0.6471  1.7083 -1.6176
    1MPD2    H314399   4.486   4.589  15.204  1.1703 -0.6910  1.8345
    1MPD2     N14400   4.609   4.170  15.118 -0.1128  0.4644 -0.9862
    1MPD2    H514401   4.707   4.192  15.102  0.1542 -0.5036 -0.6285
    1MPD2    N114402   4.146   4.287  15.148  0.0210 -0.2764  0.4025
    1MPD2    H714403   4.141   4.186  15.158 -2.3769 -0.2777 -0.9744
    2TMC3    C114404   3.931   4.279  15.110  1.0907 -0.6534  0.2937
    2TMC3    C214405   3.929   4.156  15.167 -0.5535  0.6062  0.1215
    2TMC3    C314406   3.819   4.073  15.142 -0.0538 -0.7750  0.7639
    2TMC3    C414407   3.827   4.330  15.040  0.2168  0.3617  0.2181
    2TMC3    C514408   3.714   4.248  15.029 -0.4057  0.3162  0.2362
    2TMC3    C614409   3.714   4.119  15.073  0.2891 -0.2725  0.5262
    2TMC3     C14410   4.036   4.365  15.133  0.3963 -0.2820  0.5313
    2TMC3     O14411   4.027   4.484  15.116 -0.7152  0.3833  0.0635
    2TMC3     H14412   3.998   4.122  15.243 -1.1843 -1.1722 -0.0951
    2TMC3    H114413   3.834   4.437  15.026  1.7477  0.3742  1.0957
    2TMC3    H214414   3.627   4.056  15.061  1.5076 -1.8268 -0.1344
    2TMC3    C714415   3.611   4.278  14.935 -0.2300 -0.4399 -0.5115
    2TMC3    C814416   3.846   3.939  15.097  0.2115 -0.4335  1.0242
    2TMC3    O114417   3.515   4.205  14.915 -0.4011  0.0131 -0.0483
    2TMC3    O214418   3.763   3.871  15.038  0.0077 -0.1397 -0.6324
    3TCq1    O114419   3.463   0.545  14.258  0.2794  0.0718 -0.2765
    3TCq1    C114420   3.533   0.587  14.367  0.8341 -0.0671  0.2455
    3TCq1    O214421   3.567   0.700  14.396  0.0509 -0.5086 -0.1094
    3TCq1    C214422   3.601   0.460  14.412  0.3495 -0.0518  0.5003
    3TCq1    C314423   3.737   0.472  14.442  0.6050 -0.3178 -0.4482
    3TCq1    C414424   3.789   0.384  14.529 -0.0191  0.2668  0.6150
    3TCq1    C514425   3.710   0.292  14.591 -0.6588 -0.3390  0.4131
    3TCq1    C614426   3.576   0.278  14.549 -0.0497  0.5901 -0.4808
    3TCq1    C714427   3.517   0.357  14.456 -0.6406 -0.3327 -0.4272
    3TCq1    C814428   3.497   0.175  14.605  0.5377  0.5206 -1.0312
    3TCq1    O414429   3.375   0.190  14.595  0.5392  0.2607 -0.8275
    3TCq1    C914430   3.923   0.409  14.591 -0.7393 -0.8991 -1.1003
    3TCq1    O514431   3.961   0.325  14.679  0.0963  0.1114 -0.2264
    3TCq1    O614432   3.994   0.501  14.535  0.3313  0.3586 -0.0304
    3TCq1    H114433   3.506   0.460  14.234 -1.2744 -0.6121 -0.6428
    3TCq1    H214434   3.803   0.542  14.392  0.0316  0.0113 -0.7521
    3TCq1    H314435   3.747   0.232  14.674 -0.6218  1.3901  1.6350
    3TCq1    H414436   3.410   0.362  14.439 -0.6710 -0.5788 -0.2965
    4MPD2     C14437   3.364   4.655  14.691 -0.3177 -0.1034 -0.1325
    4MPD2    C114438   3.506   4.675  14.690 -0.6723  0.2506  0.3993
    4MPD2    C214439   3.592   4.579  14.747  0.2688 -0.2046  0.4059
    4MPD2    C314440   3.538   4.472  14.807 -0.5148  0.5777 -0.2807
    4MPD2    C414441   3.402   4.448  14.806 -1.0987  0.1637  0.3158
    4MPD2    C514442   3.320   4.539  14.747  0.2269  0.1749  0.4951
    4MPD2     H14443   3.698   4.594  14.728  0.2178  0.8490  0.9587
    4MPD2    H114444   3.360   4.365  14.860 -1.7246  0.7443  0.7184
    4MPD2    H214445   3.292   4.729  14.657  0.4950  0.1773 -1.2149
    4MPD2    H314446   3.215   4.513  14.751 -0.1270  1.4545 -0.2139
    4MPD2     N14447   3.633   4.398  14.877 -0.1120  0.0188 -1.2207
    4MPD2    H514448   3.720   4.447  14.893  0.5377 -1.2175 -0.9755
    4MPD2    N114449   3.568   0.057  14.638  0.8830  0.5105  0.0637
    4MPD2    H714450   3.667   0.052  14.618  0.8808  0.0706  0.1747
    5TMC2    C114451   4.629   3.746  14.953 -0.3778 -0.0165 -0.2502
    5TMC2    C214452   4.729   3.771  14.860  0.0198 -0.9614 -0.0487
    5TMC2    C314453   0.063   3.889  14.874  0.0809 -0.4273 -0.2469
    5TMC2    C414454   4.626   3.816  15.074  0.1823 -1.0932  0.2112
    5TMC2    C514455   4.695   3.936  15.089  0.8214  0.3689  0.3856
    5TMC2    C614456   0.044   3.969  14.988 -0.1062  0.4602 -0.0738
    5TMC2     C14457   4.497   3.708  14.903  0.0252  0.0983 -0.0477
    5TMC2     O14458   4.494   3.656  14.790  0.2470 -0.0837 -0.2340
    5TMC2     H14459   0.005   3.714  14.768  2.3873 -0.0202 -0.3251
    5TMC2    H114460   4.569   3.772  15.155 -0.6137  1.2767  0.9328
    5TMC2    H214461   0.088   4.068  14.995  2.2602 -0.6371  0.5934
    5TMC2    C714462   4.587   4.038  15.127 -0.0476  0.1240  0.2747
    5TMC2    C814463   0.171   3.915  14.780 -0.5074 -0.4068 -0.5784
    5TMC2    O114464   4.486   3.979  15.158 -0.3048 -0.0254  0.4173
    5TMC2    O214465   0.169   3.875  14.668  0.5688 -0.2873  0.6622
    5TMC2    O514466   0.261   3.990  14.846 -0.4289  0.3145 -0.4170
    5TMC2    H514467   0.254   3.988  14.944  2.0067  0.8837 -0.2263
    6MPD2     C14468   3.998   3.733  14.953 -0.6462 -0.4168 -0.1888
    6MPD2    C114469   4.056   3.826  15.033 -0.3331  0.4512 -0.0417
    6MPD2    C214470   4.190   3.827  15.047  0.0970 -0.7260 -0.4424
    6MPD2    C314471   4.264   3.738  14.967  1.1006 -0.2782 -0.1037
    6MPD2    C414472   4.208   3.652  14.882  0.6305  0.4253  1.0518
    6MPD2    C514473   4.067   3.652  14.874  0.7717 -0.1717 -0.0338
    6MPD2     H14474   4.241   3.903  15.105  0.4115 -1.6293  0.4715
    6MPD2    H114475   4.259   3.572  14.829 -1.7238 -0.0618 -0.5302
    6MPD2    H214476   3.890   3.721  14.946 -0.3036 -3.2761 -0.4592
    6MPD2    H314477   4.029   3.563  14.824  2.0569 -0.4222 -0.5867
    6MPD2     N14478   4.396   3.762  14.979 -0.4508  0.3668 -0.3796
    6MPD2    H514479   4.426   3.825  15.053  1.4418  0.6487 -1.3791
    6MPD2    N114480   3.978   3.913  15.114 -0.1279 -0.0670  0.3711
    6MPD2    H714481   4.026   3.968  15.185 -0.4465  1.0950 -0.3206
  945NH3     N114482   1.379   4.517  11.924 -0.1893 -0.1480 -0.4150
  945NH3     H214483   1.381   4.488  11.827  3.8107 -1.6144  0.0848
  945NH3     H314484   1.406   4.431  11.970 -2.6390 -0.7915 -0.1486
  945NH3     H414485   1.283   4.531  11.953 -0.0852 -0.2306 -0.0259
  946SOD     NA14486   0.158   3.478  14.595 -0.0954  0.2231 -0.4026
  947SOD     NA14487   3.830   2.239  10.619 -0.0653 -0.1344 -0.5565
  948SOD     NA14488   4.256   4.619   9.316 -0.4186 -0.2499  0.3062
  949SOD     NA14489   0.712   1.535   9.965 -0.1009 -0.0928 -0.2644
  950SOD     NA14490   4.371   3.644  14.601  0.2458 -0.0420 -0.1308
  951SOD     NA14491   3.320   2.771  13.181 -0.5163 -0.2229 -0.1723
  952SOD     NA14492   3.679   4.442  16.291  0.4082 -0.2242 -0.1870
  953SOD     NA14493   0.408   2.374  17.535  0.1043 -0.3129  0.6708
  954SOL     OW14494   2.015   2.404   4.319 -0.3781 -0.6239 -0.2103
  954SOL    HW114495   2.064   2.326   4.343  1.2987  0.6286  0.4514
  954SOL    HW214496   1.938   2.363   4.280  1.3696 -1.0291 -3.2621
  955SOL     OW14497   1.741   1.104  13.706 -0.5033  0.3773  0.6212
  955SOL    HW114498   1.658   1.057  13.706  0.2765 -0.9906 -0.2598
  955SOL    HW214499   1.796   1.050  13.762  1.3588  1.1049 -0.4900
  956SOL     OW14500   2.502   0.864   7.367 -0.3585 -0.0186  0.2565
  956SOL    HW114501   2.487   0.949   7.407  0.9316 -0.1233  0.9470
  956SOL    HW214502   2.449   0.858   7.287 -0.7239  0.4548  0.4652
  957SOL     OW14503   0.162   4.510   9.062 -0.7642  0.5941  0.0495
  957SOL    HW114504   0.193   4.578   9.002  1.7456 -0.6443 -0.0856
  957SOL    HW214505   0.247   4.491   9.103 -1.7292  0.4332  1.9654
  958SOL     OW14506   4.672   2.440   4.968 -0.2245 -0.2318 -1.1009
  958SOL    HW114507   0.004   2.430   5.036 -1.1953 -3.0310 -0.5647
  958SOL    HW214508   4.616   2.365   4.990 -0.2914 -0.2060 -1.1849
  959SOL     OW14509   2.382   1.533   7.311  0.8273 -0.3200 -0.0044
  959SOL    HW114510   2.310   1.479   7.343  2.0827 -1.1342  1.4592
  959SOL    HW214511   2.388   1.590   7.388  2.2977  2.6476 -2.3127
  960SOL     OW14512   3.871   3.357  14.653 -0.2983  0.1590  0.0836
  960SOL    HW114513   3.879   3.345  14.748  0.4681  1.7884  0.2352
  960SOL    HW214514   3.938   3.292  14.630 -0.0595  0.9260 -1.4158
  961SOL     OW14515   2.020   0.291   8.905  0.1116  0.3609 -0.2201
  961SOL    HW114516   1.949   0.246   8.860  2.6198 -2.3051 -1.4773
  961SOL    HW214517   2.065   0.303   8.821  0.9873 -0.2238  0.1584
  962SOL     OW14518   3.033   4.729   6.302  0.6562  0.8653 -0.1010
  962SOL    HW114519   3.024   4.716   6.208 -1.9489 -0.6316  0.3502
  962SOL    HW214520   2.942   4.706   6.320  1.1280 -0.3395  0.7728
  963SOL     OW14521   3.765   2.136   2.599 -0.4394 -0.5191  0.5926
  963SOL    HW114522   3.843   2.085   2.574 -0.2242 -0.0466  0.2970
  963SOL    HW214523   3.723   2.133   2.513 -0.9151  0.5431  0.7907
  964SOL     OW14524   0.986   1.292  11.395 -0.0116 -0.1837  0.2670
  964SOL    HW114525   0.988   1.200  11.369 -1.1592 -0.2104  0.2491
  964SOL    HW214526   1.080   1.309  11.394  0.0882 -0.8445 -1.4322
  965SOL     OW14527   0.611   3.884  15.986 -0.1088  0.0735  0.1141
  965SOL    HW114528   0.604   3.796  15.949 -1.2956  0.6391 -1.0297
  965SOL    HW214529   0.567   3.936  15.918 -2.1518  0.2233  1.5515
  966SOL     OW14530   0.635   1.902   6.109 -0.6286 -0.1925  0.3020
  966SOL    HW114531   0.590   1.866   6.033  1.1763  3.3272 -2.4488
  966SOL    HW214532   0.606   1.993   6.107  1.7148  0.5784  0.4849
  967SOL     OW14533   1.825   2.719   7.307 -0.1886 -0.1469  0.4987
  967SOL    HW114534   1.879   2.744   7.232  0.1524 -0.0345  0.7779
  967SOL    HW214535   1.758   2.661   7.273 -0.1573 -0.7289  1.4285
  968SOL     OW14536   3.332   0.606   4.857 -0.3463  0.5567  0.5060
  968SOL    HW114537   3.267   0.672   4.832 -0.1165  0.2852 -0.7942
  968SOL    HW214538   3.284   0.568   4.931  1.0205 -1.5244  0.3072
  969SOL     OW14539   0.552   2.170   6.363  0.1427  0.0040 -0.3235
  969SOL    HW114540   0.645   2.162   6.339  0.2327 -3.4777  1.1792
  969SOL    HW214541   0.522   2.247   6.314 -0.7499 -1.2866 -1.7926
  970SOL     OW14542   0.401   1.096   7.134  0.4555  0.3804 -0.8737
  970SOL    HW114543   0.440   1.087   7.047  0.9457 -1.3716 -0.4692
  970SOL    HW214544   0.414   1.191   7.136  1.3404  0.1844  2.1650
  971SOL     OW14545   1.674   3.338   8.957 -0.5576 -0.0863  0.1218
  971SOL    HW114546   1.649   3.260   8.907  0.2650 -0.4999  0.3420
  971SOL    HW214547   1.694   3.400   8.887 -1.0432 -0.3661 -0.2636
  972SOL     OW14548   2.145   3.490   0.256  0.0294 -0.7704 -0.6647
  972SOL    HW114549   2.183   3.422   0.312 -1.0397 -0.0445  0.9594
  972SOL    HW214550   2.148   3.571   0.308 -1.5027 -1.1348 -0.0094
  973SOL     OW14551   2.107   2.893   4.645 -0.0169  0.5965  0.1570
  973SOL    HW114552   2.138   2.873   4.734 -2.4962 -1.6517  0.5324
  973SOL    HW214553   2.100   2.803   4.613 -1.3189  0.8852 -0.3793
  974SOL     OW14554   1.934   4.082  13.524  0.0601 -1.0390 -0.6299
  974SOL    HW114555   1.954   4.159  13.577  0.7901 -1.4092 -0.3698
  974SOL    HW214556   1.920   4.129  13.442  0.3024  0.1454  0.0169
  975SOL     OW14557   3.796   4.213   3.119  0.3933 -0.1014 -0.3590
  975SOL    HW114558   3.730   4.146   3.140 -0.1832  1.0292  1.4258
  975SOL    HW214559   3.744   4.273   3.066  0.7071  1.3578  1.0025
  976SOL     OW14560   1.830   0.393  12.126  0.0200  0.1097  0.3399
  976SOL    HW114561   1.925   0.405  12.118  0.0590 -1.9787 -2.2589
  976SOL    HW214562   1.813   0.469  12.181  0.4726 -1.7789  3.1116
  977SOL     OW14563   0.908   0.539   8.426 -0.1856  0.5563 -0.3650
  977SOL    HW114564   0.948   0.453   8.433  1.0745  0.9892 -2.0769
  977SOL    HW214565   0.838   0.520   8.363 -1.0886 -0.1846  0.8689
  978SOL     OW14566   3.060   3.884   6.814 -0.2705  0.3986  0.4810
  978SOL    HW114567   3.011   3.803   6.799 -0.1563  0.5435 -0.6549
  978SOL    HW214568   3.151   3.861   6.833 -0.2716  1.0251  1.2407
  979SOL     OW14569   1.120   3.962   7.075  0.3701 -0.5557 -0.1674
  979SOL    HW114570   1.204   3.917   7.084 -0.6619 -2.2390  1.0497
  979SOL    HW214571   1.109   3.980   7.168 -3.0085 -1.2125 -0.4451
  980SOL     OW14572   1.428   4.131   2.179  0.0330 -0.4255  0.2881
  980SOL    HW114573   1.502   4.180   2.143  0.5207 -0.7528  0.8457
  980SOL    HW214574   1.420   4.060   2.116 -0.0142  0.9550 -1.2672
  981SOL     OW14575   2.788   0.785  12.838  0.1466 -0.7190 -0.2772
  981SOL    HW114576   2.820   0.703  12.876  0.5212 -0.1339  0.6706
  981SOL    HW214577   2.876   0.820  12.822  0.1153 -1.0905 -1.2544
  982SOL     OW14578   3.249   2.590   7.654 -0.0467 -0.2842 -0.2739
  982SOL    HW114579   3.290   2.504   7.649  2.6407  1.0264 -0.8628
  982SOL    HW214580   3.157   2.563   7.654  0.4273 -1.9070 -3.0085
  983SOL     OW14581   0.913   1.953   3.932  0.4465 -0.4093  0.0863
  983SOL    HW114582   0.945   1.876   3.884 -0.0833 -0.0560 -0.8305
  983SOL    HW214583   0.928   2.010   3.857 -0.6957  1.0828  0.9972
  984SOL     OW14584   3.922   1.887   2.934 -0.1186 -0.1866  0.2613
  984SOL    HW114585   3.963   1.907   3.018 -3.0914 -0.3230  1.7465
  984SOL    HW214586   3.844   1.839   2.963 -0.2217  1.4465  2.6600
  985SOL     OW14587   1.001   4.403   3.912 -0.3383 -0.2497  0.5880
  985SOL    HW114588   1.007   4.495   3.939 -1.0901  0.4113 -1.4847
  985SOL    HW214589   0.974   4.415   3.821  3.0934 -1.6805 -0.6265
  986SOL     OW14590   1.534   1.596  12.772 -0.1301 -0.1713  0.0779
  986SOL    HW114591   1.476   1.554  12.836 -1.5681  0.5587 -0.7257
  986SOL    HW214592   1.522   1.691  12.776  1.3512  0.0094  0.2081
  987SOL     OW14593   1.995   0.358   8.365  0.2391  0.1049 -0.1088
  987SOL    HW114594   2.074   0.305   8.359 -0.5786 -1.1248 -0.0489
  987SOL    HW214595   2.040   0.439   8.340 -0.7624  0.2761 -1.3786
  988SOL     OW14596   3.658   1.301  14.959  0.2627 -0.2898  0.0061
  988SOL    HW114597   3.600   1.339  14.893 -0.6211  0.4681  1.2226
  988SOL    HW214598   3.598   1.295  15.033  0.3812  0.4894  0.1610
  989SOL     OW14599   4.216   0.844   0.047 -0.3381  0.0673  0.4290
  989SOL    HW114600   4.188   0.789   0.120 -1.7039 -1.1401 -1.0007
  989SOL    HW214601   4.254   0.918   0.094 -1.0490 -0.0634  1.2207
  990SOL     OW14602   2.970   2.998   4.707 -0.1714 -0.1468 -0.1676
  990SOL    HW114603   3.031   2.986   4.779 -1.1917 -2.4205  0.2944
  990SOL    HW214604   2.888   3.027   4.747 -0.8202 -1.5823 -0.4768
  991SOL     OW14605   2.263   4.420   9.551 -0.2139  0.4265 -0.2507
  991SOL    HW114606   2.190   4.387   9.499  1.6377  0.2172 -2.7538
  991SOL    HW214607   2.269   4.508   9.515  1.5121  0.9775  1.4013
  992SOL     OW14608   1.191   3.390  16.382  0.3471  0.3330  0.2780
  992SOL    HW114609   1.263   3.333  16.410 -0.5242 -0.8019  0.1962
  992SOL    HW214610   1.111   3.341  16.400  0.2521 -0.7154 -3.1238
  993SOL     OW14611   0.000   3.279   3.257  0.9971  0.7752 -0.3093
  993SOL    HW114612   0.080   3.296   3.207  1.0441  1.1381 -0.1062
  993SOL    HW214613   4.734   3.188   3.288  1.0579  1.5418  1.9145
  994SOL     OW14614   2.733   3.467   5.007  0.2759  0.7852 -0.8088
  994SOL    HW114615   2.770   3.543   5.052 -0.0047 -0.1753  1.0037
  994SOL    HW214616   2.740   3.404   5.078 -1.1894  0.1706 -1.2184
  995SOL     OW14617   2.296   4.243  12.409  0.2913 -0.4577 -0.4871
  995SOL    HW114618   2.239   4.279  12.342  0.1439 -0.2313 -0.2409
  995SOL    HW214619   2.253   4.157  12.411 -1.3246  0.3415 -0.8218
  996SOL     OW14620   3.277   0.072  16.044 -0.0918 -0.0540 -0.2848
  996SOL    HW114621   3.315   0.151  16.081  0.8226  0.1816 -1.7270
  996SOL    HW214622   3.347   0.035  15.990 -0.7784 -0.6162 -0.7990
  997SOL     OW14623   0.676   4.189   5.504  0.5341  0.0789 -0.2998
  997SOL    HW114624   0.589   4.148   5.499  0.3101  0.6313 -0.8659
  997SOL    HW214625   0.710   4.208   5.417  1.8512 -1.7237 -0.1620
  998SOL     OW14626   0.739   1.055   6.954 -0.2190  0.7300  0.2792
  998SOL    HW114627   0.705   0.990   6.893  1.0887  0.6475 -0.3735
  998SOL    HW214628   0.796   1.108   6.898  0.6297 -0.0195  0.4176
  999SOL     OW14629   4.617   4.090   6.133 -0.2945  0.0510 -0.2031
  999SOL    HW114630   4.524   4.086   6.158 -0.3144 -0.3806 -0.3540
  999SOL    HW214631   4.614   4.114   6.041 -0.7887  0.8595  0.0144
 1000SOL     OW14632   4.320   2.053   2.288  0.2128 -0.0610 -0.0227
 1000SOL    HW114633   4.235   2.059   2.244  0.0144  2.9031  0.7681
 1000SOL    HW214634   4.299   1.995   2.362 -0.0147 -2.4510 -1.9312
 1001SOL     OW14635   0.498   2.476   5.658  0.5859  0.3431  0.6305
 1001SOL    HW114636   0.451   2.431   5.588  1.2868  0.9397 -0.2095
 1001SOL    HW214637   0.481   2.417   5.732 -0.8705 -1.2453 -0.9656
 1002SOL     OW14638   1.236   0.426   6.667 -0.1507  0.1209  0.1622
 1002SOL    HW114639   1.213   0.505   6.618 -3.2758 -0.6546  0.3878
 1002SOL    HW214640   1.286   0.468   6.738 -0.6378 -0.0716  0.6163
 1003SOL     OW14641   0.324   3.027   3.740 -0.2259  0.0467  0.3489
 1003SOL    HW114642   0.382   3.101   3.754 -0.7565  0.2719  1.3057
 1003SOL    HW214643   0.376   2.961   3.693  2.1990 -0.7812  4.2478
 1004SOL     OW14644   4.401   2.911   1.585 -0.4916 -0.1595 -0.3407
 1004SOL    HW114645   4.472   2.881   1.529 -1.0146 -0.9385 -0.5859
 1004SOL    HW214646   4.352   2.830   1.596  0.4820 -0.8664 -1.2419
 1005SOL     OW14647   4.322   3.292   6.900  0.1110 -0.6353 -0.0008
 1005SOL    HW114648   4.385   3.228   6.867 -0.4877 -1.7571  1.0468
 1005SOL    HW214649   4.243   3.261   6.855 -0.3394  3.3827 -2.0908
 1006SOL     OW14650   2.849   2.211   4.105  0.2925  0.1381 -0.0911
 1006SOL    HW114651   2.842   2.129   4.154 -0.8321 -0.9474 -2.0488
 1006SOL    HW214652   2.867   2.271   4.177 -1.0399 -0.6475  0.9038
 1007SOL     OW14653   2.672   3.722  16.865  0.2930  0.5073  0.8432
 1007SOL    HW114654   2.577   3.715  16.870  0.3402 -0.9873 -0.2387
 1007SOL    HW214655   2.691   3.777  16.941 -1.5250  0.6545  1.1729
 1008SOL     OW14656   0.073   1.049  14.308  0.8199  0.1588 -0.1162
 1008SOL    HW114657   0.087   1.004  14.391 -0.5731 -0.1024 -0.0245
 1008SOL    HW214658   0.162   1.052  14.274  0.6643 -0.8427 -0.6098
 1009SOL     OW14659   1.393   2.938   6.006 -0.0890 -0.4790 -0.2916
 1009SOL    HW114660   1.319   2.891   5.968 -2.8187  2.4763  1.3259
 1009SOL    HW214661   1.359   3.022   6.038  1.6260 -1.1302  3.1505
 1010SOL     OW14662   1.397   4.338   5.882 -0.5004  0.0106  0.0389
 1010SOL    HW114663   1.326   4.386   5.840  0.3078  0.0008 -1.3505
 1010SOL    HW214664   1.410   4.399   5.954 -1.5481  0.1231  0.1349
 1011SOL     OW14665   0.875   2.291   8.891 -0.3373  0.3500  0.5624
 1011SOL    HW114666   0.926   2.210   8.887  2.2837  1.9515  1.4917
 1011SOL    HW214667   0.882   2.317   8.982  0.9883 -0.2605  0.6343
 1012SOL     OW14668   3.450   0.242   7.992 -0.1095 -0.7500 -0.0981
 1012SOL    HW114669   3.536   0.206   8.012  0.4247  1.0182  0.8095
 1012SOL    HW214670   3.468   0.336   7.998 -0.5736 -0.5691 -1.5922
 1013SOL     OW14671   2.329   2.912   2.969  0.3624 -0.1787  0.4456
 1013SOL    HW114672   2.424   2.910   2.979  0.4106  3.0786  0.6972
 1013SOL    HW214673   2.308   2.929   3.061  0.0021  2.4479 -0.1305
 1014SOL     OW14674   2.701   3.856   6.838 -0.1665  0.2839  0.5646
 1014SOL    HW114675   2.763   3.808   6.893  1.1974  1.1468 -0.1928
 1014SOL    HW214676   2.722   3.814   6.754 -2.7342  1.0744 -0.4731
 1015SOL     OW14677   4.052   1.927   6.951 -0.4420 -0.3832 -0.4096
 1015SOL    HW114678   4.015   2.010   6.919  1.3403 -0.3026 -2.2496
 1015SOL    HW214679   4.061   1.876   6.871  1.1406  1.8035 -1.6339
 1016SOL     OW14680   3.151   2.598   9.412  0.2087  0.2296 -0.6563
 1016SOL    HW114681   3.079   2.587   9.349  1.3836 -0.3308 -1.9080
 1016SOL    HW214682   3.097   2.619   9.488 -0.5893  1.8317 -1.6767
 1017SOL     OW14683   0.453   4.411   8.444  0.1666  0.0533 -0.2049
 1017SOL    HW114684   0.405   4.360   8.380  0.2433 -1.4253  0.9096
 1017SOL    HW214685   0.396   4.486   8.458  2.4543  2.3002 -2.9726
 1018SOL     OW14686   2.410   3.142   6.033 -0.0306 -0.1432  0.1144
 1018SOL    HW114687   2.438   3.065   6.083  1.4830 -1.1771 -2.3241
 1018SOL    HW214688   2.453   3.217   6.073 -0.1903  0.3645 -0.6650
 1019SOL     OW14689   3.528   1.018  15.234  0.6404  0.6147 -0.6020
 1019SOL    HW114690   3.591   0.955  15.199  1.0370  1.7711 -1.9412
 1019SOL    HW214691   3.464   0.949  15.255  1.8045 -0.3858 -0.3090
 1020SOL     OW14692   4.056   1.257   4.918 -0.0794 -0.5036  0.0228
 1020SOL    HW114693   4.072   1.203   4.840  0.3913 -0.6210  0.2014
 1020SOL    HW214694   4.125   1.223   4.975  0.7501  0.2081 -0.5583
 1021SOL     OW14695   0.239   0.425  15.838 -0.7524 -0.2864 -1.0084
 1021SOL    HW114696   0.276   0.362  15.900  0.9242  0.8326 -0.8600
 1021SOL    HW214697   0.284   0.505  15.863 -0.6044 -1.0473  1.1406
 1022SOL     OW14698   2.715   0.350   7.926 -0.0760  0.0269  0.1210
 1022SOL    HW114699   2.760   0.278   7.880  0.4377  0.0045  0.6689
 1022SOL    HW214700   2.664   0.391   7.856  0.8217  0.7025 -0.1389
 1023SOL     OW14701   1.187   0.881  12.507 -0.7810  0.0632  0.0828
 1023SOL    HW114702   1.239   0.826  12.565  1.6134 -0.3894 -2.4856
 1023SOL    HW214703   1.141   0.814  12.456 -0.6581 -1.3621  1.8643
 1024SOL     OW14704   1.174   4.589  17.149 -0.7367 -0.4702 -0.2185
 1024SOL    HW114705   1.139   4.669  17.187 -2.6158 -1.1317 -0.5589
 1024SOL    HW214706   1.170   4.520  17.215  1.2101 -0.3013  0.0929
 1025SOL     OW14707   1.817   2.509  16.265  0.4325 -0.0763  0.0883
 1025SOL    HW114708   1.858   2.585  16.305  1.0898 -1.0458  1.2601
 1025SOL    HW214709   1.724   2.533  16.258  0.1900 -1.2213 -0.6555
 1026SOL     OW14710   1.678   1.042   2.913  0.1692  0.2194 -0.0320
 1026SOL    HW114711   1.762   1.065   2.953 -0.3811  0.5958  0.9102
 1026SOL    HW214712   1.629   1.020   2.992  2.1541 -1.8759  0.6269
 1027SOL     OW14713   0.281   4.214   5.321 -0.4867  0.3703  0.4348
 1027SOL    HW114714   0.258   4.300   5.358  0.7109  0.6891  0.4442
 1027SOL    HW214715   0.357   4.186   5.371 -0.6536  0.3221  0.6591
 1028SOL     OW14716   3.726   4.202   7.056  0.4215 -0.3149  0.4194
 1028SOL    HW114717   3.743   4.296   7.062  1.1162 -0.4404  0.3399
 1028SOL    HW214718   3.654   4.206   7.120 -0.5174  1.0331 -0.7027
 1029SOL     OW14719   2.558   3.209   3.066 -0.4656  0.1845  0.3322
 1029SOL    HW114720   2.485   3.154   3.092 -0.4914  0.1551  0.2001
 1029SOL    HW214721   2.624   3.190   3.132  1.1903  1.6184 -0.8964
 1030SOL     OW14722   2.772   0.741   6.023  0.1147  0.1723  0.1131
 1030SOL    HW114723   2.726   0.737   5.939 -0.0205  1.2670  0.1428
 1030SOL    HW214724   2.731   0.680   6.084  0.8828 -1.6696 -1.2034
 1031SOL     OW14725   4.345   0.073  17.707 -0.2647 -0.2222  0.4332
 1031SOL    HW114726   4.365   0.151   0.021 -1.8928  1.0959 -0.9126
 1031SOL    HW214727   4.358   0.083  17.613  1.1375  1.6548  0.8156
 1032SOL     OW14728   3.201   3.287   6.377  0.0145 -0.0123 -0.5293
 1032SOL    HW114729   3.214   3.335   6.296 -2.4543  0.7306 -0.5055
 1032SOL    HW214730   3.106   3.291   6.388  0.0198 -2.1845  0.4757
 1033SOL     OW14731   1.765   0.106   6.426 -0.0675 -0.0518 -0.0007
 1033SOL    HW114732   1.784   0.193   6.460 -1.5582 -1.4454  4.3510
 1033SOL    HW214733   1.828   0.094   6.354  0.4339  1.5962  0.1839
 1034SOL     OW14734   0.548   0.042  17.487 -1.0862  0.0542  0.2343
 1034SOL    HW114735   0.560   0.136  17.477 -0.2769 -0.1667 -0.7999
 1034SOL    HW214736   0.633   0.005  17.461 -0.3155  1.5809  0.6060
 1035SOL     OW14737   4.428   0.261   9.312  0.5092 -0.2569  0.2441
 1035SOL    HW114738   4.455   0.264   9.404  0.9477 -1.6164  0.1541
 1035SOL    HW214739   4.349   0.209   9.325  0.6454 -0.2400  1.1538
 1036SOL     OW14740   3.564   4.252  16.207  0.2561  0.4968  0.2915
 1036SOL    HW114741   3.556   4.205  16.124  1.7034  1.8392 -0.6355
 1036SOL    HW214742   3.479   4.236  16.247  0.6246 -2.7660 -0.2676
 1037SOL     OW14743   3.910   3.111   8.691  0.4661 -0.3045  0.3504
 1037SOL    HW114744   3.938   3.023   8.718  0.6542 -0.4136 -0.2069
 1037SOL    HW214745   3.929   3.164   8.769 -1.8830  0.8358  0.1275
 1038SOL     OW14746   2.032   3.355   9.278 -0.1456 -0.0139  0.1819
 1038SOL    HW114747   2.043   3.360   9.373 -1.0647  0.7255  0.2515
 1038SOL    HW214748   1.937   3.369   9.277 -0.3150 -1.0485  1.2870
 1039SOL     OW14749   2.327   4.420   0.052 -0.0488  0.3795  0.1360
 1039SOL    HW114750   2.292   4.509   0.049 -0.2060  0.3313  0.4543
 1039SOL    HW214751   2.370   4.416  17.705 -1.9371 -0.5516 -0.7830
 1040SOL     OW14752   3.230   1.670   6.561 -0.1628  0.1958 -0.1607
 1040SOL    HW114753   3.196   1.739   6.505  0.8504  0.5681 -0.3148
 1040SOL    HW214754   3.184   1.685   6.643  0.1449 -1.4072  0.3186
 1041SOL     OW14755   0.511   4.611   5.738  0.0202 -0.1464  0.2054
 1041SOL    HW114756   0.489   4.619   5.645  1.8873 -1.8786 -0.3704
 1041SOL    HW214757   0.565   4.532   5.738  0.2040 -0.0298  0.9966
 1042SOL     OW14758   1.394   2.047   6.463 -0.3696  0.2902 -0.0861
 1042SOL    HW114759   1.433   2.032   6.377  0.1716  1.8146 -0.1100
 1042SOL    HW214760   1.314   1.993   6.467  0.1923 -0.6318 -1.2381
 1043SOL     OW14761   4.626   1.043   1.907  0.1238 -0.3663 -0.3536
 1043SOL    HW114762   4.561   1.064   1.841 -1.4443 -0.0351  1.2851
 1043SOL    HW214763   4.600   0.967   1.959  0.1038  0.8847  1.4749
 1044SOL     OW14764   4.626   4.029   4.773  0.9207  0.1054  0.0778
 1044SOL    HW114765   4.611   3.938   4.746 -1.0604  0.6896 -0.8211
 1044SOL    HW214766   4.678   4.060   4.699 -0.9984  1.4092 -0.7146
 1045SOL     OW14767   4.232   0.178   2.927 -0.1467 -0.1863 -0.3569
 1045SOL    HW114768   4.188   0.094   2.939  1.2014 -0.8576 -0.2092
 1045SOL    HW214769   4.234   0.186   2.831  0.8088  0.2207 -0.2995
 1046SOL     OW14770   1.261   1.613   6.222 -0.5157  0.1760 -0.4403
 1046SOL    HW114771   1.297   1.527   6.199 -1.2360 -0.2421  0.0207
 1046SOL    HW214772   1.223   1.649   6.142 -1.1169  0.3523 -0.0700
 1047SOL     OW14773   4.259   1.151   4.232 -0.0302 -0.0749 -0.1458
 1047SOL    HW114774   4.353   1.141   4.217  0.0327  0.2194  0.0349
 1047SOL    HW214775   4.236   1.186   4.146  0.0416 -0.8983 -0.4991
 1048SOL     OW14776   3.277   1.400   6.475 -0.1897  0.2961 -0.0446
 1048SOL    HW114777   3.334   1.446   6.413 -0.6483 -0.6125 -1.1287
 1048SOL    HW214778   3.235   1.471   6.524 -1.3983 -1.3442  1.3047
 1049SOL     OW14779   2.008   4.199   2.843  0.5779  0.0362 -0.1190
 1049SOL    HW114780   1.993   4.173   2.752  1.3209 -0.3126 -0.1398
 1049SOL    HW214781   1.930   4.155   2.878  0.1133  1.1039  0.1751
 1050SOL     OW14782   2.124   0.209   1.821 -0.3184 -0.1705  0.2595
 1050SOL    HW114783   2.040   0.253   1.837  0.3750  1.0254  0.6679
 1050SOL    HW214784   2.100   0.163   1.741 -1.1283 -0.7541  0.8418
 1051SOL     OW14785   3.108   1.159   9.138  0.8313  0.0444  0.3185
 1051SOL    HW114786   3.166   1.202   9.201  0.3073  1.4731 -0.1781
 1051SOL    HW214787   3.108   1.222   9.067 -1.5118  0.9847  1.1481
 1052SOL     OW14788   2.172   3.275   5.942 -0.3342 -0.0884 -0.1989
 1052SOL    HW114789   2.235   3.203   5.953  0.9351  0.9613 -0.5697
 1052SOL    HW214790   2.105   3.261   6.008 -0.4459 -2.2733 -0.7793
 1053SOL     OW14791   2.572   1.677   4.401 -0.1477  0.0914 -0.2417
 1053SOL    HW114792   2.578   1.583   4.388  1.4238  0.3359 -1.2919
 1053SOL    HW214793   2.611   1.679   4.489 -1.7357  0.1064  0.4585
 1054SOL     OW14794   0.008   0.400   8.422  0.3274  0.1006 -0.1924
 1054SOL    HW114795   4.690   0.449   8.360 -0.1049  1.1438  1.0051
 1054SOL    HW214796   4.735   0.448   8.504  2.9600 -2.2346  1.4528
 1055SOL     OW14797   1.933   4.237  17.630 -0.6049  0.0617  0.0249
 1055SOL    HW114798   1.855   4.192  17.599 -1.3284  1.7665 -0.6668
 1055SOL    HW214799   1.896   4.298  17.694 -3.3906 -0.1613 -1.3679
 1056SOL     OW14800   3.998   1.553   3.888 -0.8558 -0.0221  0.0395
 1056SOL    HW114801   3.938   1.624   3.867  0.4531  0.8432 -0.8335
 1056SOL    HW214802   4.025   1.579   3.976  2.0363  0.0225 -0.8514
 1057SOL     OW14803   2.066   4.723   4.754  0.0058  0.0229  0.3831
 1057SOL    HW114804   2.036   0.035   4.832 -1.1569 -1.7598  0.9989
 1057SOL    HW214805   2.138   4.670   4.788 -0.2865 -0.4065  0.3239
 1058SOL     OW14806   3.117   4.023   8.680  0.1104 -0.5070  0.5322
 1058SOL    HW114807   3.053   3.952   8.688 -0.6039  0.3570  2.7011
 1058SOL    HW214808   3.193   3.968   8.664  0.9377  0.0693  2.4915
 1059SOL     OW14809   0.182   1.979  14.226  0.0518 -0.4233  0.2947
 1059SOL    HW114810   0.261   1.957  14.276  0.8655  0.4730 -0.6062
 1059SOL    HW214811   0.172   1.898  14.177  0.7499  0.7713 -1.8470
 1060SOL     OW14812   3.506   2.247  17.485 -0.0259 -0.3581  0.0502
 1060SOL    HW114813   3.558   2.302  17.544  1.3878 -0.7552 -0.8069
 1060SOL    HW214814   3.423   2.272  17.525  2.1089  2.0776  2.9238
 1061SOL     OW14815   3.517   0.877   5.278  0.2332 -0.2210 -0.0373
 1061SOL    HW114816   3.605   0.866   5.315  0.2593 -0.0851 -0.0592
 1061SOL    HW214817   3.496   0.785   5.261  2.7379 -0.8451  0.1712
 1062SOL     OW14818   2.977   1.156   2.959  0.4494 -0.2148 -0.2505
 1062SOL    HW114819   2.980   1.104   3.039  1.5849  0.4915  0.1548
 1062SOL    HW214820   2.990   1.243   2.996  4.0458 -1.3940  1.2429
 1063SOL     OW14821   1.012   1.312   0.059  0.2273 -0.0175 -0.7276
 1063SOL    HW114822   1.054   1.314  17.711  1.4533 -0.0440 -0.1438
 1063SOL    HW214823   1.074   1.262   0.113 -0.9270  0.2148  0.8043
 1064SOL     OW14824   4.457   3.304   3.294  0.4673  0.2408  0.3225
 1064SOL    HW114825   4.438   3.398   3.294 -1.1299 -0.0959  1.5919
 1064SOL    HW214826   4.552   3.291   3.289  0.5902  0.9535  0.8547
 1065SOL     OW14827   1.044   2.670   7.497 -0.2327 -0.0475  0.3750
 1065SOL    HW114828   1.092   2.621   7.431 -1.5478 -0.4239 -0.3187
 1065SOL    HW214829   0.986   2.599   7.526 -1.3967  0.6500 -0.2008
 1066SOL     OW14830   0.132   3.986   1.739  0.2230 -0.2646 -0.3423
 1066SOL    HW114831   0.224   3.983   1.712  1.0851 -1.6548  2.8311
 1066SOL    HW214832   0.091   3.942   1.665  2.9408  0.0437 -2.0441
 1067SOL     OW14833   4.177   1.150   3.404 -0.1537 -0.0441 -0.8354
 1067SOL    HW114834   4.182   1.059   3.432  2.8098  0.3460 -0.1333
 1067SOL    HW214835   4.150   1.142   3.312 -1.3747 -0.5766 -0.4254
 1068SOL     OW14836   0.911   3.009  13.049  0.6058 -0.1992  0.2253
 1068SOL    HW114837   0.867   2.956  13.114 -2.8650  0.4727 -1.5390
 1068SOL    HW214838   0.968   2.939  13.017 -0.5398 -1.8521  1.8521
 1069SOL     OW14839   3.642   1.615   8.138  0.7836  0.5355  0.4703
 1069SOL    HW114840   3.728   1.649   8.164  2.6460 -1.1579 -3.5663
 1069SOL    HW214841   3.608   1.588   8.224  0.5055  0.4390  0.3292
 1070SOL     OW14842   3.918   1.954   0.674  0.2098  0.6594 -0.0907
 1070SOL    HW114843   3.891   2.019   0.739 -0.4030 -1.6232  1.9290
 1070SOL    HW214844   3.843   1.950   0.616  0.2550 -0.5893 -0.0660
 1071SOL     OW14845   1.652   3.966   0.616  0.4568 -0.2968  0.0986
 1071SOL    HW114846   1.691   3.888   0.654  1.0250 -0.3321 -0.5500
 1071SOL    HW214847   1.715   3.977   0.544  0.8357 -1.3362  0.2775
 1072SOL     OW14848   1.081   2.137   3.105 -0.0182  0.2220  0.6473
 1072SOL    HW114849   1.150   2.134   3.172 -0.0598  0.1226  0.6851
 1072SOL    HW214850   1.090   2.231   3.087 -1.2108  0.7105  2.6261
 1073SOL     OW14851   0.586   4.073   3.554  0.1199  0.1569  0.3812
 1073SOL    HW114852   0.542   4.133   3.614 -1.0728 -0.9040  0.5569
 1073SOL    HW214853   0.581   4.116   3.469 -2.1799 -1.0378 -0.0759
 1074SOL     OW14854   4.699   3.366   3.497  0.2751 -0.3655 -0.4559
 1074SOL    HW114855   0.038   3.426   3.496  0.3178 -0.3945  1.1626
 1074SOL    HW214856   4.693   3.350   3.403  4.0383 -1.4561 -0.5148
 1075SOL     OW14857   3.478   1.644   7.554  0.1175  0.1059 -0.6586
 1075SOL    HW114858   3.545   1.678   7.614  0.7001 -0.0330 -1.2277
 1075SOL    HW214859   3.521   1.650   7.469  1.4060  3.5919  0.2221
 1076SOL     OW14860   3.554   3.510   2.363  0.2541  0.1384  0.3737
 1076SOL    HW114861   3.473   3.518   2.414  0.6336  1.2009  0.8123
 1076SOL    HW214862   3.512   3.496   2.278  0.9850 -1.4763  0.2929
 1077SOL     OW14863   4.293   4.621  14.453 -0.5420  0.0616 -0.3548
 1077SOL    HW114864   4.291   4.610  14.358 -1.5332 -2.8867 -0.0094
 1077SOL    HW214865   4.351   4.696  14.453  0.4516 -0.6906 -3.4493
 1078SOL     OW14866   4.703   1.191  17.418 -0.8310 -0.2869  0.5570
 1078SOL    HW114867   0.050   1.200  17.467  1.1209  1.2149 -2.9109
 1078SOL    HW214868   4.670   1.274  17.453 -0.5394  0.7380 -1.5674
 1079SOL     OW14869   1.817   3.618   9.624 -0.3813  0.1504  0.3118
 1079SOL    HW114870   1.772   3.699   9.650  1.3181  1.1161  0.2663
 1079SOL    HW214871   1.891   3.620   9.685  0.7878  0.6613 -1.1246
 1080SOL     OW14872   2.394   3.371   8.882  0.3072 -0.0776 -0.3639
 1080SOL    HW114873   2.467   3.309   8.874  0.1518 -0.0983 -1.5569
 1080SOL    HW214874   2.356   3.339   8.963 -1.1531 -1.0292 -1.4382
 1081SOL     OW14875   4.472   3.032   4.692  0.4177 -0.0457 -0.4421
 1081SOL    HW114876   4.466   2.941   4.720 -3.2599 -0.2061 -1.7531
 1081SOL    HW214877   4.514   3.074   4.767 -0.9123 -0.7509  0.6955
 1082SOL     OW14878   4.184   3.047  10.247  0.3801  0.6236  0.3875
 1082SOL    HW114879   4.176   3.108  10.321  0.4818  0.0517  0.8653
 1082SOL    HW214880   4.259   2.992  10.268  0.1680  0.6314  1.1753
 1083SOL     OW14881   0.374   0.210   8.831 -0.1855 -0.2168  0.2994
 1083SOL    HW114882   0.295   0.236   8.879 -0.9552 -0.4021 -0.8515
 1083SOL    HW214883   0.430   0.286   8.842  0.9819 -1.2775  1.7019
 1084SOL     OW14884   1.572   2.617  16.185 -0.0071 -0.3701 -0.4091
 1084SOL    HW114885   1.548   2.710  16.194 -0.3048 -0.5502  0.6497
 1084SOL    HW214886   1.486   2.579  16.203  0.4852 -0.6611  1.3003
 1085SOL     OW14887   0.270   4.194  15.370 -0.5243 -0.5123  0.2571
 1085SOL    HW114888   0.274   4.290  15.366  3.9598 -0.5298  4.5834
 1085SOL    HW214889   0.349   4.167  15.325 -2.1598 -1.5215 -2.0152
 1086SOL     OW14890   0.346   3.506  14.449 -0.2531 -0.3258  0.1450
 1086SOL    HW114891   0.415   3.448  14.418 -1.9206 -1.7967 -0.8365
 1086SOL    HW214892   0.379   3.525  14.537  0.9286 -1.2928 -0.0908
 1087SOL     OW14893   1.995   0.588   7.982 -0.3931  0.3255 -0.2821
 1087SOL    HW114894   1.929   0.528   7.946 -0.3927  0.5433 -0.6473
 1087SOL    HW214895   2.072   0.531   7.986 -1.2566 -0.8160 -0.0653
 1088SOL     OW14896   0.107   0.154   4.051  0.1393 -0.4309  0.1698
 1088SOL    HW114897   0.183   0.126   4.103  2.4813  0.9524 -2.4894
 1088SOL    HW214898   0.040   0.111   4.104  0.4700  1.2769  1.9556
 1089SOL     OW14899   1.158   4.000  16.064  0.5842  0.9134 -0.1073
 1089SOL    HW114900   1.129   3.949  16.140 -2.8590  1.3902 -1.1187
 1089SOL    HW214901   1.252   4.006  16.081  0.7961 -1.9829 -0.1908
 1090SOL     OW14902   0.907   0.760  17.105 -0.7166  0.4473  0.4817
 1090SOL    HW114903   0.869   0.837  17.063  0.9254 -0.3142 -2.4410
 1090SOL    HW214904   0.857   0.695  17.055  0.8076  0.0946 -0.5807
 1091SOL     OW14905   2.464   2.370   9.085  0.2241  0.5475  0.0300
 1091SOL    HW114906   2.422   2.421   9.155  1.0921 -1.2935  1.9005
 1091SOL    HW214907   2.546   2.419   9.074  0.2789 -0.2161 -2.8887
 1092SOL     OW14908   0.767   2.688   1.665 -0.0526 -0.1674 -0.0840
 1092SOL    HW114909   0.794   2.718   1.752  2.0623  0.7655 -1.0640
 1092SOL    HW214910   0.846   2.637   1.646  0.1608 -0.8631  2.6744
 1093SOL     OW14911   3.641   2.537  11.695 -0.4147 -0.0535  0.2989
 1093SOL    HW114912   3.625   2.528  11.789  1.4881 -0.0429  0.6138
 1093SOL    HW214913   3.680   2.624  11.700 -0.9677  0.1601  0.9714
 1094SOL     OW14914   2.337   2.129   2.074  0.0298  0.7389 -0.4892
 1094SOL    HW114915   2.359   2.213   2.113 -2.2947  0.6287  1.0696
 1094SOL    HW214916   2.242   2.124   2.088  0.4656 -0.7048  1.9297
 1095SOL     OW14917   1.318   4.658  13.363  0.1028 -0.1252  0.9412
 1095SOL    HW114918   1.342   4.713  13.288 -0.7143  0.3576  1.0389
 1095SOL    HW214919   1.368   4.577  13.354 -1.8074 -1.2231  0.2990
 1096SOL     OW14920   3.086   1.089   7.066 -0.3698 -0.0534  0.0352
 1096SOL    HW114921   3.155   1.036   7.028 -0.9506 -0.1021 -0.9432
 1096SOL    HW214922   3.113   1.171   7.026 -1.5869  0.4693  0.2731
 1097SOL     OW14923   2.184   4.548   1.741  0.0340  0.5234  0.0141
 1097SOL    HW114924   2.148   4.481   1.800  0.9917  1.3998  1.5992
 1097SOL    HW214925   2.242   4.492   1.690  0.6206  0.1309  1.1067
 1098SOL     OW14926   2.509   1.963  12.458  0.7377 -0.3870  0.3698
 1098SOL    HW114927   2.572   1.962  12.530  0.9670 -2.0988  0.1380
 1098SOL    HW214928   2.494   1.869  12.445 -1.5604  0.2986 -1.9302
 1099SOL     OW14929   2.843   0.400  14.786 -0.3828 -0.2145 -0.2662
 1099SOL    HW114930   2.931   0.401  14.748 -0.6085 -2.0071 -0.7947
 1099SOL    HW214931   2.845   0.485  14.831  1.2777  1.4732 -3.5516
 1100SOL     OW14932   3.574   0.042   5.580 -0.7047  0.1561  0.8753
 1100SOL    HW114933   3.569   4.695   5.628  0.3104  0.5454  1.6281
 1100SOL    HW214934   3.495   0.027   5.529  0.2855 -2.4952  0.1485
 1101SOL     OW14935   3.065   2.674   7.018 -0.0145 -0.0123  0.6027
 1101SOL    HW114936   3.155   2.664   6.987  0.3774  0.5631  1.5521
 1101SOL    HW214937   3.023   2.727   6.950 -1.3207  1.0219  2.2130
 1102SOL     OW14938   1.176   0.841   7.672 -0.1558 -0.3565 -0.6114
 1102SOL    HW114939   1.187   0.809   7.582  0.5236 -2.4291  0.2146
 1102SOL    HW214940   1.221   0.926   7.673  0.5529 -0.6987 -3.2833
 1103SOL     OW14941   4.469   0.142   8.219  0.0630  0.5123 -0.3915
 1103SOL    HW114942   4.440   0.177   8.135 -1.9814 -1.5729 -0.5748
 1103SOL    HW214943   4.550   0.104   8.186  0.4374 -1.1494  2.4476
 1104SOL     OW14944   0.467   1.806   5.486  0.3553 -0.4922  0.1644
 1104SOL    HW114945   0.515   1.760   5.554  1.0065  1.7479  1.2082
 1104SOL    HW214946   0.541   1.846   5.441 -1.0902  0.7140 -1.1497
 1105SOL     OW14947   2.806   1.473   6.272  0.0485  0.2948  0.2686
 1105SOL    HW114948   2.833   1.491   6.182  0.2326 -1.1103  0.0464
 1105SOL    HW214949   2.800   1.560   6.311  1.0466  0.4799  0.0097
 1106SOL     OW14950   3.633   4.097   5.448  0.1190 -0.2993  0.5233
 1106SOL    HW114951   3.726   4.081   5.458 -0.4022 -2.7246  1.4814
 1106SOL    HW214952   3.615   4.117   5.540  0.0938  0.0477  0.4429
 1107SOL     OW14953   1.074   1.408   0.940 -0.1935 -0.4688  0.2664
 1107SOL    HW114954   1.168   1.424   0.945  0.1669 -2.5500  0.1249
 1107SOL    HW214955   1.058   1.391   0.848 -0.9585 -1.5906  0.6080
 1108SOL     OW14956   0.393   3.514   7.236  0.4685 -0.9323 -0.1194
 1108SOL    HW114957   0.346   3.439   7.201  0.7003 -1.1502  0.0341
 1108SOL    HW214958   0.409   3.563   7.156 -0.0138 -1.8527 -0.7751
 1109SOL     OW14959   2.772   2.083   2.418 -0.0738  0.2161  0.0369
 1109SOL    HW114960   2.747   2.143   2.348  1.2639 -0.3130 -0.8876
 1109SOL    HW214961   2.849   2.130   2.449 -0.6346 -1.1549  3.5028
 1110SOL     OW14962   1.650   3.780   2.168 -0.0014  0.5341  0.0736
 1110SOL    HW114963   1.701   3.752   2.092  0.4803 -0.6019  0.8043
 1110SOL    HW214964   1.724   3.791   2.229 -0.0787 -1.3579  0.5179
 1111SOL     OW14965   2.503   1.171  17.131 -0.3163 -0.0638  0.4307
 1111SOL    HW114966   2.507   1.085  17.088 -0.0462  0.3975 -0.4766
 1111SOL    HW214967   2.413   1.197  17.112  0.8113  1.9828 -2.0866
 1112SOL     OW14968   1.189   2.983   8.213 -0.6530 -0.4178 -0.0800
 1112SOL    HW114969   1.210   3.075   8.228 -2.6490  0.0926 -0.4307
 1112SOL    HW214970   1.094   2.989   8.201 -0.8958  0.2449  2.0565
 1113SOL     OW14971   0.692   4.502  14.285 -0.1506  0.4530  0.2808
 1113SOL    HW114972   0.659   4.537  14.202  0.3034 -0.0062 -0.0925
 1113SOL    HW214973   0.738   4.420  14.265 -0.4300  0.3387  0.1105
 1114SOL     OW14974   0.275   1.021   7.568 -0.5497 -0.3096  0.1363
 1114SOL    HW114975   0.267   1.007   7.474 -2.6271 -2.0533  0.5782
 1114SOL    HW214976   0.185   1.039   7.595 -0.7909 -1.0455 -0.1922
 1115SOL     OW14977   4.356   0.565   5.790 -0.0996 -0.3600 -0.2485
 1115SOL    HW114978   4.346   0.506   5.864  1.3409  0.7464  0.8258
 1115SOL    HW214979   4.309   0.525   5.717  0.0535 -1.4644  0.2684
 1116SOL     OW14980   3.236   1.011   4.305  0.0535 -0.3770 -0.5256
 1116SOL    HW114981   3.257   0.923   4.336  1.6052  0.4342  0.6573
 1116SOL    HW214982   3.212   1.000   4.212  1.5458 -3.6011 -0.5191
 1117SOL     OW14983   1.562   3.687  10.600  0.1071 -0.7087 -0.1239
 1117SOL    HW114984   1.549   3.595  10.580 -0.9937 -0.4064 -0.8028
 1117SOL    HW214985   1.655   3.673  10.618  0.2358 -0.0660 -0.2698
 1118SOL     OW14986   2.165   3.335   1.555 -0.1301 -0.1804  0.1784
 1118SOL    HW114987   2.215   3.404   1.599 -0.3954  0.0134  0.1743
 1118SOL    HW214988   2.188   3.255   1.603 -0.9417 -1.6470 -1.8698
 1119SOL     OW14989   4.174   0.730   2.620 -0.0225  0.0025  0.0480
 1119SOL    HW114990   4.120   0.738   2.542 -0.5300 -1.0856  0.2886
 1119SOL    HW214991   4.137   0.802   2.670 -2.5827 -0.2863 -1.4390
 1120SOL     OW14992   0.196   0.172   6.088 -0.7466 -0.5639 -0.5186
 1120SOL    HW114993   0.152   0.161   6.004 -1.2930 -3.0114  0.0731
 1120SOL    HW214994   0.266   0.232   6.063  1.3518 -1.9770  1.9896
 1121SOL     OW14995   1.466   2.769   5.032  0.1699 -0.1040  0.2150
 1121SOL    HW114996   1.491   2.691   5.081  1.4061  0.6012  0.6890
 1121SOL    HW214997   1.468   2.735   4.943  0.0114 -0.1118  0.2133
 1122SOL     OW14998   3.891   0.139   7.248  1.1720  0.3845  0.7326
 1122SOL    HW114999   3.861   0.174   7.332 -2.4730 -0.7508 -0.1081
 1122SOL    HW215000   3.845   0.197   7.188  1.4340 -0.7270 -0.5658
 1123SOL     OW15001   3.023   3.774   7.612 -0.2072 -0.5243 -0.1422
 1123SOL    HW115002   2.952   3.730   7.565 -0.1627 -2.4951  1.6563
 1123SOL    HW215003   3.093   3.712   7.591  0.5324  0.8593 -1.8148
 1124SOL     OW15004   0.854   2.420   5.592  0.1074 -0.3960 -0.3995
 1124SOL    HW115005   0.879   2.399   5.502 -1.6176  0.3987 -1.0517
 1124SOL    HW215006   0.878   2.335   5.629  1.3892 -0.1830 -0.7431
 1125SOL     OW15007   4.019   1.142   9.774  0.0815 -0.1593  0.1548
 1125SOL    HW115008   3.928   1.113   9.775  0.2890 -0.7703  0.7763
 1125SOL    HW215009   4.055   1.067   9.821  1.6072 -0.4887 -1.5409
 1126SOL     OW15010   1.129   1.872   8.285 -0.1369 -0.1331  0.0001
 1126SOL    HW115011   1.089   1.799   8.237 -0.3107 -0.5745  0.8244
 1126SOL    HW215012   1.088   1.938   8.228  0.3426  0.0611 -0.1193
 1127SOL     OW15013   1.866   0.345   6.519  0.0239 -0.2080 -0.7901
 1127SOL    HW115014   1.957   0.356   6.490 -0.6081 -2.0123 -3.5649
 1127SOL    HW215015   1.829   0.430   6.497  0.3869  0.7702  2.3844
 1128SOL     OW15016   2.929   3.820   6.039 -0.0056 -0.3068 -0.0945
 1128SOL    HW115017   2.971   3.906   6.034  0.1617 -0.3536  0.6036
 1128SOL    HW215018   2.916   3.792   5.948  0.3665 -0.7496 -0.0099
 1129SOL     OW15019   2.874   4.381   8.204  0.6835  0.2276 -0.1102
 1129SOL    HW115020   2.949   4.332   8.172 -0.1280 -1.2118  0.2211
 1129SOL    HW215021   2.835   4.312   8.258  0.2052  0.1202 -0.5880
 1130SOL     OW15022   1.753   2.171   5.122 -0.6230  0.4331 -0.1439
 1130SOL    HW115023   1.840   2.145   5.091  0.1530  1.8356  0.8619
 1130SOL    HW215024   1.738   2.089   5.169 -0.0905 -0.0631 -0.8396
 1131SOL     OW15025   1.072   1.006   4.103  0.1186  0.3435 -0.5513
 1131SOL    HW115026   1.117   1.031   4.023  0.0158  1.4627 -0.2545
 1131SOL    HW215027   1.001   0.954   4.066 -0.1117 -0.5498  1.0977
 1132SOL     OW15028   2.046   3.540  17.589  0.0969 -0.4293  0.0667
 1132SOL    HW115029   2.135   3.521  17.619  1.1163  2.5271 -1.0270
 1132SOL    HW215030   2.068   3.600  17.517  0.7985 -0.4550  0.2573
 1133SOL     OW15031   2.470   4.224   9.597  0.1655 -0.5999  0.3326
 1133SOL    HW115032   2.453   4.185   9.682  1.3582  0.8157  1.2037
 1133SOL    HW215033   2.422   4.306   9.602 -2.3448 -2.0311 -0.4270
 1134SOL     OW15034   0.870   0.462  11.192  0.5342 -0.0522 -0.3504
 1134SOL    HW115035   0.899   0.454  11.101  0.2331  2.0435 -0.6259
 1134SOL    HW215036   0.795   0.403  11.194  0.5432  0.0013  1.6631
 1135SOL     OW15037   1.923   0.214   3.906  0.2629  0.1606 -0.5718
 1135SOL    HW115038   2.017   0.209   3.888  0.3915 -0.0242  0.1648
 1135SOL    HW215039   1.925   0.284   3.971  3.6642  0.5822 -1.1300
 1136SOL     OW15040   3.201   3.990   7.305 -0.2286 -0.7684  0.0064
 1136SOL    HW115041   3.132   3.948   7.253 -2.6103  1.3008  1.5278
 1136SOL    HW215042   3.284   3.982   7.257 -1.0946 -1.0174 -1.4469
 1137SOL     OW15043   2.723   0.879   3.162 -0.4232 -0.5734 -0.1016
 1137SOL    HW115044   2.711   0.972   3.183  0.7557 -0.0109 -1.8318
 1137SOL    HW215045   2.719   0.884   3.066 -1.6218  2.1604  0.0849
 1138SOL     OW15046   3.343   0.330   1.895  0.0139  0.3885  0.1782
 1138SOL    HW115047   3.304   0.242   1.895  3.1032 -0.9869  1.5624
 1138SOL    HW215048   3.283   0.391   1.937  0.5674  1.2745 -0.3418
 1139SOL     OW15049   4.521   4.442   7.752 -0.3951 -0.0892  0.2086
 1139SOL    HW115050   4.491   4.353   7.732 -1.7737  0.4032  0.1009
 1139SOL    HW215051   4.446   4.491   7.718 -0.6186 -1.1668 -0.8395
 1140SOL     OW15052   4.485   1.238  13.303  0.0913 -0.2278 -0.2484
 1140SOL    HW115053   4.422   1.261  13.235 -1.8551  1.5754  2.1711
 1140SOL    HW215054   4.569   1.251  13.259 -0.0208 -2.0642 -1.0049
 1141SOL     OW15055   1.618   2.585   8.807 -0.1718  0.3510 -0.5011
 1141SOL    HW115056   1.616   2.494   8.776  1.9409  0.1454 -0.0520
 1141SOL    HW215057   1.525   2.604   8.801 -0.3110 -0.1645  0.0521
 1142SOL     OW15058   3.337   4.073   7.049 -0.3321  0.2355 -0.0207
 1142SOL    HW115059   3.398   4.083   6.976 -1.2312  0.6897 -0.7051
 1142SOL    HW215060   3.300   4.161   7.054 -0.3001  0.3003 -0.8900
 1143SOL     OW15061   1.408   2.447  10.121 -0.4722 -0.0885  0.1120
 1143SOL    HW115062   1.479   2.498  10.081 -0.1426  0.1195  0.9728
 1143SOL    HW215063   1.395   2.381  10.053  1.2799 -1.2229  0.8792
 1144SOL     OW15064   3.299   2.022   2.917 -0.0674  0.5325  0.3735
 1144SOL    HW115065   3.305   2.031   2.822  0.4785  3.4014  0.6774
 1144SOL    HW215066   3.320   1.929   2.925  0.5577  0.6971  0.6550
 1145SOL     OW15067   0.217   1.680   6.692 -0.0316  0.2629 -0.0797
 1145SOL    HW115068   0.192   1.723   6.610 -0.0999  0.4985  0.0654
 1145SOL    HW215069   0.295   1.733   6.704 -1.0894  2.0297 -0.9910
 1146SOL     OW15070   2.737   1.753   2.996  0.4738  0.1179  0.9586
 1146SOL    HW115071   2.828   1.783   3.004  0.5755  0.0080  0.2501
 1146SOL    HW215072   2.755   1.661   2.975 -1.0710  0.2607 -0.9253
 1147SOL     OW15073   3.336   3.341   9.456 -0.3197 -0.2476  0.3308
 1147SOL    HW115074   3.371   3.421   9.495 -1.9739  0.9726 -0.6629
 1147SOL    HW215075   3.397   3.327   9.384  0.2630 -0.9064  0.9548
 1148SOL     OW15076   1.753   3.049   5.667 -0.1154 -0.2526 -0.2896
 1148SOL    HW115077   1.712   3.003   5.740 -0.1529  0.9429  0.4236
 1148SOL    HW215078   1.688   3.028   5.600 -0.1188 -1.4623  0.0960
 1149SOL     OW15079   1.669   2.774   4.089  0.4450 -0.1062 -0.7383
 1149SOL    HW115080   1.662   2.841   4.157 -0.1305 -1.2422  0.3225
 1149SOL    HW215081   1.616   2.814   4.020 -1.7659  1.0692  1.6476
 1150SOL     OW15082   1.902   2.465   3.043  0.2716 -0.3844  0.2970
 1150SOL    HW115083   1.956   2.454   3.121  0.4848 -1.3599  0.0184
 1150SOL    HW215084   1.830   2.520   3.074 -0.7630 -1.0606 -0.8924
 1151SOL     OW15085   0.335   3.303   6.461 -0.3905  0.1390 -0.4111
 1151SOL    HW115086   0.263   3.241   6.475 -0.0082  0.0470  1.1325
 1151SOL    HW215087   0.361   3.298   6.553 -1.8331 -0.5681 -0.0407
 1152SOL     OW15088   1.981   2.393  15.408 -0.1712 -0.0587  0.0868
 1152SOL    HW115089   2.002   2.408  15.316 -0.2660 -2.0477 -0.2566
 1152SOL    HW215090   2.061   2.370  15.456 -0.7043  1.2363  1.6232
 1153SOL     OW15091   4.303   1.813   3.016  0.5136 -0.0112 -0.1968
 1153SOL    HW115092   4.219   1.843   3.050  0.5073  0.3645 -0.5423
 1153SOL    HW215093   4.271   1.753   2.949 -1.9240  0.3502  0.6477
 1154SOL     OW15094   3.522   1.690   1.597 -0.5389 -0.3997 -0.1450
 1154SOL    HW115095   3.454   1.688   1.530 -0.9531  1.6423  0.1995
 1154SOL    HW215096   3.512   1.771   1.648  2.0685 -0.7971  1.0037
 1155SOL     OW15097   0.060   2.881   2.551  0.7527  0.1049  0.0984
 1155SOL    HW115098   4.717   2.878   2.607  0.3515  1.4352 -0.3955
 1155SOL    HW215099   0.021   2.903   2.466 -1.7817 -1.5331  0.8240
 1156SOL     OW15100   3.764   4.520   8.696  0.3013  0.5045 -0.3776
 1156SOL    HW115101   3.672   4.539   8.713 -0.1859 -2.1378  0.0366
 1156SOL    HW215102   3.784   4.582   8.626  1.2557  0.7494  0.1097
 1157SOL     OW15103   1.116   1.134   5.834  0.3190  0.0950 -0.0502
 1157SOL    HW115104   1.108   1.135   5.929  1.1628  0.5121  0.0220
 1157SOL    HW215105   1.201   1.088   5.837  1.8783  3.0774  1.1320
 1158SOL     OW15106   3.991   2.076   5.275 -1.0033 -0.3596 -0.7602
 1158SOL    HW115107   3.904   2.040   5.295  0.0288 -2.2320  0.3405
 1158SOL    HW215108   3.971   2.129   5.197  1.9158  1.6010 -0.1561
 1159SOL     OW15109   0.489   0.514   7.560  0.2452 -0.7257 -0.5437
 1159SOL    HW115110   0.506   0.607   7.575  1.9616 -1.6788  3.4307
 1159SOL    HW215111   0.498   0.515   7.464 -1.3382 -0.5417 -0.6943
 1160SOL     OW15112   0.069   2.888   6.092 -0.5868 -0.2729  0.3869
 1160SOL    HW115113   0.006   2.960   6.086 -0.9538 -0.6323 -0.0465
 1160SOL    HW215114   0.110   2.915   6.174 -1.3683  0.6633  0.4700
 1161SOL     OW15115   3.896   4.577   5.161 -0.9559 -0.2211 -0.2068
 1161SOL    HW115116   3.824   4.566   5.223 -0.2897  1.7607  0.9191
 1161SOL    HW215117   3.891   4.501   5.102 -0.6304 -0.3001 -0.1342
 1162SOL     OW15118   3.337   2.633   2.957  0.1291 -1.0042  0.1165
 1162SOL    HW115119   3.416   2.685   2.941 -0.1192  0.2502  2.8866
 1162SOL    HW215120   3.347   2.636   3.052  1.7063  0.4628 -0.1009
 1163SOL     OW15121   4.264   0.106   7.992  1.0717 -0.1344  0.3870
 1163SOL    HW115122   4.287   0.015   7.977  2.4300 -0.0933  2.2793
 1163SOL    HW215123   4.225   0.126   7.907 -0.6065 -1.6314  0.7885
 1164SOL     OW15124   3.432   0.588   5.193 -0.2015  0.1522 -0.0637
 1164SOL    HW115125   3.400   0.501   5.172  0.0341 -0.1499  0.8338
 1164SOL    HW215126   3.376   0.641   5.136  0.4248 -0.7941 -1.5510
 1165SOL     OW15127   1.735   2.101   3.359 -0.0415  0.0352 -0.0915
 1165SOL    HW115128   1.768   2.041   3.425  2.4728  1.8216  0.2774
 1165SOL    HW215129   1.660   2.051   3.329  0.0852 -0.7335  0.8876
 1166SOL     OW15130   3.279   3.282  13.814  0.1492  0.1605 -0.0037
 1166SOL    HW115131   3.250   3.359  13.764 -1.0306  0.2434  0.8114
 1166SOL    HW215132   3.187   3.264  13.833  0.3625  0.5059  1.3235
 1167SOL     OW15133   2.544   2.875   5.604  0.1472  0.4190  0.5850
 1167SOL    HW115134   2.562   2.897   5.696 -3.3220  1.3125  1.0590
 1167SOL    HW215135   2.601   2.935   5.557  2.0308 -0.9251  1.1482
 1168SOL     OW15136   4.089   0.185   5.955  0.0637 -0.1361 -0.2383
 1168SOL    HW115137   4.087   0.167   5.861 -1.3905 -0.3091 -0.1685
 1168SOL    HW215138   4.014   0.239   5.978 -2.0658 -3.6008  1.0285
 1169SOL     OW15139   3.418   3.559  14.950 -0.3526 -0.7409 -0.3291
 1169SOL    HW115140   3.433   3.650  14.975 -3.1272 -0.6731  1.0764
 1169SOL    HW215141   3.358   3.531  15.019 -0.8807 -1.2097 -0.9849
 1170SOL     OW15142   3.527   2.007   9.945 -0.0833 -0.3823 -0.1347
 1170SOL    HW115143   3.454   1.972   9.996  0.6018 -0.7381  0.5943
 1170SOL    HW215144   3.470   2.061   9.889  0.3896 -0.7868 -1.0141
 1171SOL     OW15145   1.495   4.730   5.058 -1.1971  0.0572 -0.0422
 1171SOL    HW115146   1.566   0.060   5.054  0.6634 -1.8477  1.9114
 1171SOL    HW215147   1.424   0.055   5.079 -2.4024 -2.1332  2.0097
 1172SOL     OW15148   2.568   3.691  16.393  0.1436 -0.6165 -0.0393
 1172SOL    HW115149   2.609   3.604  16.396  0.7703 -0.3894 -1.8110
 1172SOL    HW215150   2.647   3.745  16.396  0.4191 -1.0050 -0.2530
 1173SOL     OW15151   4.238   2.074   3.454  0.1957 -0.1224 -0.6375
 1173SOL    HW115152   4.329   2.099   3.440  0.4892 -1.6106 -1.4359
 1173SOL    HW215153   4.190   2.153   3.429  0.9905 -0.1625 -2.2757
 1174SOL     OW15154   3.356   2.466  11.926 -0.6409  0.2194 -0.6617
 1174SOL    HW115155   3.445   2.484  11.958 -1.5173  0.2746  1.7108
 1174SOL    HW215156   3.382   2.393  11.869 -0.5488 -1.1497  1.1459
 1175SOL     OW15157   4.478   2.418   7.981 -0.2420 -0.4655  0.7864
 1175SOL    HW115158   4.541   2.353   8.012  1.7947  0.6611 -0.9657
 1175SOL    HW215159   4.416   2.366   7.930  0.0773 -1.4913  1.4272
 1176SOL     OW15160   0.753   2.036   4.802 -0.7663  0.1482 -0.1574
 1176SOL    HW115161   0.837   1.995   4.821  0.6136  3.3035  0.5539
 1176SOL    HW215162   0.697   1.971   4.759  1.5683 -0.7390 -1.8708
 1177SOL     OW15163   0.888   3.464  13.131 -0.3446 -0.2244 -0.1312
 1177SOL    HW115164   0.884   3.559  13.133  0.6937 -0.1886  0.1261
 1177SOL    HW215165   0.800   3.441  13.160 -0.9989  1.9174 -0.4264
 1178SOL     OW15166   2.351   4.631  17.369 -0.3706 -0.2899  0.1809
 1178SOL    HW115167   2.360   4.544  17.408 -1.0702  0.2997  1.6559
 1178SOL    HW215168   2.316   4.617  17.281  1.7396 -1.0841 -0.5400
 1179SOL     OW15169   1.123   2.699   6.672  0.3341  0.2721 -0.7457
 1179SOL    HW115170   1.039   2.731   6.638  0.0121 -0.1322 -0.3349
 1179SOL    HW215171   1.150   2.781   6.712  1.8972 -0.2233 -0.8077
 1180SOL     OW15172   0.325   0.520  11.298 -0.1089  0.0874  0.0713
 1180SOL    HW115173   0.402   0.486  11.345  1.4944 -0.1839 -2.7688
 1180SOL    HW215174   0.319   0.613  11.317  1.6460  0.2827 -0.2778
 1181SOL     OW15175   1.235   1.139   1.820 -0.3126 -0.2625 -0.3119
 1181SOL    HW115176   1.302   1.109   1.758  0.5551  0.0842  0.4496
 1181SOL    HW215177   1.263   1.222   1.857  1.9949 -1.3084  0.2834
 1182SOL     OW15178   3.633   3.203   3.553 -0.4938 -0.1354  0.5792
 1182SOL    HW115179   3.669   3.237   3.635 -1.3701  1.9876  0.0751
 1182SOL    HW215180   3.601   3.114   3.570  0.9539 -0.7368  0.1115
 1183SOL     OW15181   0.660   0.467   2.775  0.1887 -0.0905 -0.2836
 1183SOL    HW115182   0.566   0.460   2.758 -0.1451  0.4284  1.3830
 1183SOL    HW215183   0.693   0.462   2.685  0.3891  1.5255 -0.2934
 1184SOL     OW15184   3.674   3.777  14.438 -0.3915 -0.1951  0.2765
 1184SOL    HW115185   3.747   3.826  14.400 -0.1827 -0.4798  0.3155
 1184SOL    HW215186   3.711   3.723  14.507 -0.4733  1.8846  1.9560
 1185SOL     OW15187   1.033   0.042   2.913  0.1604  0.1410  0.3351
 1185SOL    HW115188   0.975   0.090   2.853  0.3373  0.6397  0.5644
 1185SOL    HW215189   1.051   0.103   2.984  1.1941  1.3008 -0.9228
 1186SOL     OW15190   0.805   1.577   0.978 -0.0643 -0.5695  0.8653
 1186SOL    HW115191   0.899   1.569   0.969 -0.3197 -1.6779 -0.8162
 1186SOL    HW215192   0.771   1.639   0.913  0.4276 -1.4553 -0.2450
 1187SOL     OW15193   4.524   4.347   8.095  0.3641 -0.1591  0.2575
 1187SOL    HW115194   4.554   4.324   8.007  0.2672 -0.8369  0.4011
 1187SOL    HW215195   4.589   4.415   8.111 -2.7081  2.6917  0.5880
 1188SOL     OW15196   0.966   2.539   8.344 -0.7191  0.0605  0.0236
 1188SOL    HW115197   0.873   2.516   8.348 -0.1408 -1.9664  1.1865
 1188SOL    HW215198   1.011   2.455   8.354 -1.1228 -0.0777  0.6320
 1189SOL     OW15199   1.619   0.194   6.076  0.3949  0.3031  0.3631
 1189SOL    HW115200   1.545   0.225   6.128  0.8208 -0.0442  1.1767
 1189SOL    HW215201   1.645   0.115   6.123 -1.3502 -1.2065 -1.2609
 1190SOL     OW15202   1.866   1.823   5.651  0.1790  0.2310  0.3364
 1190SOL    HW115203   1.815   1.759   5.602  2.0496 -0.7727 -0.3128
 1190SOL    HW215204   1.950   1.782   5.629 -0.5571 -1.3835  0.5523
 1191SOL     OW15205   3.326   1.311  11.820  0.6049  0.6502 -0.9851
 1191SOL    HW115206   3.282   1.389  11.853 -1.0642  0.4469 -2.7179
 1191SOL    HW215207   3.307   1.242  11.883  0.1932  1.1584 -0.5548
 1192SOL     OW15208   0.634   0.068   7.329  0.2254  0.4771  1.0633
 1192SOL    HW115209   0.724   0.076   7.361  0.0857 -1.0554  1.8353
 1192SOL    HW215210   0.606   4.715   7.356 -1.2431  0.2080 -1.3988
 1193SOL     OW15211   3.921   0.939   4.049 -0.0493 -0.3264  0.7243
 1193SOL    HW115212   3.964   0.873   4.103 -0.9558  0.1717  2.0574
 1193SOL    HW215213   3.830   0.915   4.067  0.0307 -0.5904  0.7794
 1194SOL     OW15214   3.741   2.073  10.475 -0.0987 -0.5961  0.4771
 1194SOL    HW115215   3.766   2.094  10.385  0.9639  1.1799  1.1983
 1194SOL    HW215216   3.804   2.002  10.491 -1.0780 -1.6787 -0.4475
 1195SOL     OW15217   4.198   2.645  10.363 -0.0249 -0.0971  0.0737
 1195SOL    HW115218   4.261   2.717  10.370 -1.0234  0.7963 -0.1737
 1195SOL    HW215219   4.125   2.689  10.405 -1.2513  0.5162 -2.6918
 1196SOL     OW15220   0.539   1.295   3.752  0.4370 -0.8285  0.2192
 1196SOL    HW115221   0.594   1.298   3.674  0.1972  0.0449  0.0846
 1196SOL    HW215222   0.469   1.351   3.719 -1.3301 -2.1195  1.7279
 1197SOL     OW15223   1.166   4.675   2.179  0.5419 -0.3119  0.3248
 1197SOL    HW115224   1.082   4.684   2.134  1.6038 -1.3527 -1.8485
 1197SOL    HW215225   1.217   4.614   2.125  0.9074 -0.1137  0.4441
 1198SOL     OW15226   3.551   0.862   8.193  0.1855  0.2011  0.3042
 1198SOL    HW115227   3.604   0.942   8.193  1.0165 -0.3521  2.5483
 1198SOL    HW215228   3.597   0.802   8.134  1.8483  0.7998  0.9681
 1199SOL     OW15229   0.785   0.077   5.057  0.0805  0.4987  0.3623
 1199SOL    HW115230   0.722   0.118   4.998  0.1247 -0.9252 -0.6768
 1199SOL    HW215231   0.823   0.009   5.002 -1.8082 -1.0950  1.0266
 1200SOL     OW15232   0.407   0.373   9.195 -0.1131  0.5547  0.0471
 1200SOL    HW115233   0.451   0.348   9.113  0.5279 -1.9943  1.1780
 1200SOL    HW215234   0.383   0.284   9.219  0.1520  0.1642 -1.1031
 1201SOL     OW15235   2.315   3.889   0.830 -1.0306  0.5256 -0.2830
 1201SOL    HW115236   2.288   3.841   0.908  0.1957 -1.2195 -0.9600
 1201SOL    HW215237   2.374   3.820   0.801  0.1506  2.1656 -1.7797
 1202SOL     OW15238   1.593   1.956   2.499 -0.8106 -0.0582  1.1040
 1202SOL    HW115239   1.678   1.975   2.539 -0.9791  0.5615  1.1756
 1202SOL    HW215240   1.610   1.932   2.408 -0.2413  0.6842  1.0114
 1203SOL     OW15241   0.961   0.176   0.444  0.3044  0.3654 -0.5506
 1203SOL    HW115242   1.028   0.183   0.377 -1.2222 -0.8025 -2.1824
 1203SOL    HW215243   1.014   0.157   0.521 -2.8726 -0.4523  1.4624
 1204SOL     OW15244   2.974   0.235   3.416 -0.2959 -0.1567  0.3625
 1204SOL    HW115245   2.941   0.224   3.505  0.7514  0.3888  0.8230
 1204SOL    HW215246   2.995   0.329   3.415  0.5436 -0.3371  0.7360
 1205SOL     OW15247   2.973   3.251   6.847  0.1979  0.2069 -0.0068
 1205SOL    HW115248   2.895   3.255   6.901  0.1344 -0.5314 -0.0484
 1205SOL    HW215249   3.000   3.163   6.872 -0.3195 -0.0415 -0.3231
 1206SOL     OW15250   1.945   4.498   7.052 -0.2951  0.2151  0.3409
 1206SOL    HW115251   2.037   4.479   7.035 -0.1510  0.4930  0.7951
 1206SOL    HW215252   1.914   4.408   7.053  0.0143  0.1254  2.8010
 1207SOL     OW15253   1.868   3.018   4.773  0.2911  0.2266 -0.0691
 1207SOL    HW115254   1.873   3.063   4.857  0.6687  0.5527 -0.2640
 1207SOL    HW215255   1.931   3.059   4.714  1.8311 -0.1803  1.3013
 1208SOL     OW15256   2.028   4.344   1.423  0.2053 -0.3237 -0.1261
 1208SOL    HW115257   2.061   4.418   1.373  2.1426  0.6640  2.6177
 1208SOL    HW215258   1.986   4.294   1.353 -0.3232  1.0053 -0.7468
 1209SOL     OW15259   2.033   2.672   3.478  0.0868  0.5768  0.2729
 1209SOL    HW115260   1.975   2.607   3.516  1.6830 -1.8009 -1.3600
 1209SOL    HW215261   2.060   2.723   3.554  3.8602 -1.9872  0.6608
 1210SOL     OW15262   4.209   2.370  10.478  0.5486  0.1341  0.6128
 1210SOL    HW115263   4.215   2.431  10.405  0.5015 -1.6589 -0.9015
 1210SOL    HW215264   4.132   2.316  10.461 -1.4056  4.1934 -3.4184
 1211SOL     OW15265   2.843   1.809   2.430  0.0719 -0.5641 -0.4931
 1211SOL    HW115266   2.808   1.898   2.419 -0.9876 -0.6524  1.9867
 1211SOL    HW215267   2.853   1.803   2.525 -1.4166 -3.0466 -0.4920
 1212SOL     OW15268   3.946   2.115   6.516 -0.2166 -0.4442 -0.2002
 1212SOL    HW115269   3.866   2.064   6.509 -0.2848 -0.4917  0.9863
 1212SOL    HW215270   3.913   2.199   6.547 -0.6862 -0.7402  0.0937
 1213SOL     OW15271   3.554   2.499   8.893  0.0729  0.1879  0.0166
 1213SOL    HW115272   3.566   2.533   8.804 -0.7894  0.8410  0.1504
 1213SOL    HW215273   3.478   2.444   8.874  0.5780 -0.2862 -0.6412
 1214SOL     OW15274   0.255   4.113   4.376  0.2843 -0.3158 -0.5097
 1214SOL    HW115275   0.296   4.136   4.292 -4.0580  0.8035 -2.3023
 1214SOL    HW215276   0.208   4.030   4.370 -0.3111 -0.1214  1.6075
 1215SOL     OW15277   0.428   4.519   1.915 -0.5222  0.2853  0.8131
 1215SOL    HW115278   0.362   4.499   1.848  0.4701  1.2803 -0.4583
 1215SOL    HW215279   0.437   4.614   1.919  1.8666  0.1342 -0.9022
 1216SOL     OW15280   1.552   3.168   2.066  0.2557 -0.0312 -0.1410
 1216SOL    HW115281   1.564   3.149   2.159  2.2412  0.8075 -0.2267
 1216SOL    HW215282   1.457   3.158   2.056  0.2004  0.0547  0.2926
 1217SOL     OW15283   1.535   2.149  17.236  0.4483 -0.2751 -0.5325
 1217SOL    HW115284   1.583   2.105  17.166  0.7167  1.2263 -1.2855
 1217SOL    HW215285   1.581   2.101  17.305  1.6746  2.3317  0.4524
 1218SOL     OW15286   2.311   3.348   8.166 -0.0721 -0.1629  0.1194
 1218SOL    HW115287   2.244   3.400   8.121 -0.2385  0.7689  1.4346
 1218SOL    HW215288   2.385   3.356   8.106 -0.3048 -0.9827 -0.2868
 1219SOL     OW15289   4.260   4.638   4.237 -0.1636  0.5061  0.7659
 1219SOL    HW115290   4.251   4.554   4.191 -1.2123 -0.6543  3.0963
 1219SOL    HW215291   4.354   4.640   4.255 -0.2421  2.7191  0.8443
 1220SOL     OW15292   3.964   0.445   6.593  0.5691 -0.1039 -0.2972
 1220SOL    HW115293   4.019   0.368   6.606 -2.6694 -2.3128  0.3070
 1220SOL    HW215294   3.924   0.419   6.511 -0.1047 -1.5371  0.4821
 1221SOL     OW15295   4.150   4.385   7.710  0.4194  0.3334  0.1222
 1221SOL    HW115296   4.205   4.306   7.703 -2.7495 -1.8798  0.1959
 1221SOL    HW215297   4.214   4.451   7.685  1.2313 -0.3816  0.2882
 1222SOL     OW15298   1.297   0.559  12.648 -0.0521 -0.2057 -0.2798
 1222SOL    HW115299   1.256   0.617  12.713 -1.0133 -0.1734 -0.9137
 1222SOL    HW215300   1.263   0.474  12.676  0.7161 -1.1524 -2.2056
 1223SOL     OW15301   3.705   3.600   7.666 -0.3153  0.3706  0.4477
 1223SOL    HW115302   3.704   3.598   7.762  2.2602 -0.0235  0.4546
 1223SOL    HW215303   3.793   3.623   7.639 -0.0626 -1.2480 -0.1281
 1224SOL     OW15304   0.017   1.594   0.006  0.0397 -0.0356  0.3236
 1224SOL    HW115305   4.725   1.521   0.062  3.1911 -1.4440 -0.0017
 1224SOL    HW215306   0.111   1.580   0.012 -0.1505 -1.2186  0.5776
 1225SOL     OW15307   0.059   0.995  17.205  0.0160 -0.2393  0.3410
 1225SOL    HW115308   0.148   0.988  17.239  0.9201 -1.4165 -2.2296
 1225SOL    HW215309   0.015   1.054  17.266  1.1878  0.6294  0.3542
 1226SOL     OW15310   2.763   0.172  14.153  0.0409  0.1550  0.2819
 1226SOL    HW115311   2.829   0.234  14.121 -1.1781  1.6843  0.7365
 1226SOL    HW215312   2.822   0.102  14.181 -0.0080 -0.4218 -1.0392
 1227SOL     OW15313   1.500   4.196   3.646  0.0534 -0.2902 -0.1503
 1227SOL    HW115314   1.442   4.219   3.718 -0.9306  0.9490 -1.3255
 1227SOL    HW215315   1.583   4.234   3.675  1.4749 -1.4382 -2.6786
 1228SOL     OW15316   3.596   3.310   4.459 -0.4510 -0.0190  0.6866
 1228SOL    HW115317   3.645   3.254   4.399 -1.6181 -0.8914  0.5550
 1228SOL    HW215318   3.505   3.299   4.434 -0.9616  0.5611  2.2912
 1229SOL     OW15319   2.224   4.219  15.814 -0.4486 -0.0930  0.1259
 1229SOL    HW115320   2.207   4.165  15.891 -0.8040 -0.6238 -0.3211
 1229SOL    HW215321   2.319   4.211  15.813 -0.4234  0.2018  0.0613
 1230SOL     OW15322   3.718   3.030   7.715  0.0923 -0.3061  0.5679
 1230SOL    HW115323   3.708   3.063   7.804  1.1728 -1.7080  1.2049
 1230SOL    HW215324   3.805   2.991   7.715  0.5978  0.8126  0.1493
 1231SOL     OW15325   1.317   2.430   8.446  0.3274 -0.1357  0.3068
 1231SOL    HW115326   1.225   2.410   8.431  0.4968 -0.7970  0.1377
 1231SOL    HW215327   1.327   2.514   8.399 -0.5778 -2.0340 -3.3171
 1232SOL     OW15328   0.312   2.130   4.888 -0.2589 -1.0429 -0.1405
 1232SOL    HW115329   0.283   2.152   4.799  0.0042 -2.7840 -0.6477
 1232SOL    HW215330   0.231   2.141   4.939 -0.6120  0.2226 -0.9677
 1233SOL     OW15331   4.413   0.169   2.289  0.2358 -0.2055  0.5484
 1233SOL    HW115332   4.482   0.176   2.355  0.4556 -0.4149  0.3418
 1233SOL    HW215333   4.463   0.205   2.217  2.2489 -0.3598  1.8729
 1234SOL     OW15334   4.644   0.770  17.155  0.1185 -0.0092 -0.1673
 1234SOL    HW115335   4.686   0.856  17.163  0.4182 -0.0563 -1.3596
 1234SOL    HW215336   4.621   0.780  17.063 -0.4523  1.0538  0.0889
 1235SOL     OW15337   2.407   0.543   0.499  0.2315 -0.2898 -0.1941
 1235SOL    HW115338   2.429   0.636   0.499  1.3167 -0.5553  0.9918
 1235SOL    HW215339   2.313   0.548   0.480  0.1273  0.7390  0.6001
 1236SOL     OW15340   2.916   3.714   3.353 -0.3963  0.3411 -0.0445
 1236SOL    HW115341   2.928   3.640   3.413  1.1741 -0.3072 -1.1792
 1236SOL    HW215342   2.882   3.781   3.413 -0.7857  0.2645 -0.1786
 1237SOL     OW15343   3.508   4.136   8.873  0.3108 -0.0540 -0.2227
 1237SOL    HW115344   3.469   4.163   8.790  0.7245 -0.1060 -0.4332
 1237SOL    HW215345   3.471   4.048   8.874  1.2224 -0.4260  1.5962
 1238SOL     OW15346   4.723   1.676  11.204 -0.4365 -0.3423 -0.2995
 1238SOL    HW115347   0.067   1.706  11.249  0.6804 -0.2266 -2.3301
 1238SOL    HW215348   0.010   1.690  11.112 -0.8094 -2.8804 -0.7848
 1239SOL     OW15349   1.695   3.256   4.747 -0.4163  0.2390 -0.2951
 1239SOL    HW115350   1.717   3.272   4.656  1.4902 -3.3706 -0.4906
 1239SOL    HW215351   1.750   3.181   4.770 -0.9925  0.0642  0.5342
 1240SOL     OW15352   0.895   2.805   5.600 -0.5088  0.2109  0.1922
 1240SOL    HW115353   0.947   2.751   5.660  2.3257  1.8572 -0.7977
 1240SOL    HW215354   0.884   2.891   5.639 -0.3826  0.0370  0.6184
 1241SOL     OW15355   3.645   4.235   3.399 -0.4265 -0.0814  0.5821
 1241SOL    HW115356   3.553   4.206   3.398  0.7986 -3.9130 -3.8691
 1241SOL    HW215357   3.675   4.186   3.322  0.6096  1.8459 -0.2154
 1242SOL     OW15358   0.770   3.631   3.677  0.1033 -0.1404 -0.3056
 1242SOL    HW115359   0.709   3.697   3.643  2.4750  1.6689 -1.0278
 1242SOL    HW215360   0.840   3.633   3.612  0.5450  2.6014  0.2729
 1243SOL     OW15361   3.995   2.592  13.422  0.2641  0.1292  0.4202
 1243SOL    HW115362   4.026   2.573  13.511 -0.8088 -0.5442  0.6630
 1243SOL    HW215363   4.030   2.517  13.375 -3.0304  0.0044 -1.8424
 1244SOL     OW15364   2.999   4.125   6.653 -0.9497  0.3868  0.6625
 1244SOL    HW115365   3.034   4.072   6.582  0.1860  2.7272 -0.5191
 1244SOL    HW215366   3.014   4.062   6.723  3.0981 -0.5960 -1.0910
 1245SOL     OW15367   4.525   4.497   6.398 -0.3016  0.0163  0.1791
 1245SOL    HW115368   4.594   4.562   6.388  0.7412 -1.2761 -1.0290
 1245SOL    HW215369   4.447   4.542   6.429 -0.4838  0.1982 -0.5426
 1246SOL     OW15370   0.837   2.803   1.925 -0.3897 -0.1216 -0.2045
 1246SOL    HW115371   0.918   2.754   1.940 -0.5366 -0.1880  0.3992
 1246SOL    HW215372   0.783   2.740   1.972 -1.5541 -0.7872 -2.4878
 1247SOL     OW15373   1.020   0.552  17.589 -0.2657 -0.0492  0.5627
 1247SOL    HW115374   1.041   0.508  17.672 -0.1010  1.3927  1.2896
 1247SOL    HW215375   1.084   0.624  17.582  1.7635 -1.7397  1.5818
 1248SOL     OW15376   3.475   2.533   5.149 -0.3592 -0.8253  0.1754
 1248SOL    HW115377   3.434   2.545   5.235  0.7214  0.5191  0.5090
 1248SOL    HW215378   3.512   2.621   5.138 -0.6721 -0.9499 -1.8083
 1249SOL     OW15379   0.394   2.203   6.992  0.5879  0.2905 -0.7200
 1249SOL    HW115380   0.393   2.204   7.088  0.2760 -0.8994 -0.7211
 1249SOL    HW215381   0.471   2.148   6.978  0.8051  0.5287 -0.4587
 1250SOL     OW15382   2.833   3.412   8.616  0.5394 -0.2602 -0.2202
 1250SOL    HW115383   2.769   3.430   8.685 -0.5195 -1.8504 -0.7968
 1250SOL    HW215384   2.778   3.412   8.537  0.1753 -1.4943  0.0448
 1251SOL     OW15385   2.774   3.098   7.789  0.0507  0.0379  0.1091
 1251SOL    HW115386   2.866   3.074   7.779 -0.5951 -1.4907 -2.0804
 1251SOL    HW215387   2.758   3.136   7.702 -0.3558 -1.7088 -0.5960
 1252SOL     OW15388   2.657   4.435   1.425 -0.6052  0.1560  0.0952
 1252SOL    HW115389   2.561   4.437   1.430 -0.4671 -0.0010  2.8563
 1252SOL    HW215390   2.680   4.518   1.384  1.0773 -0.2875  0.1351
 1253SOL     OW15391   2.184   2.128   8.758  0.1855  0.0103 -0.1087
 1253SOL    HW115392   2.256   2.188   8.778 -1.2147  0.9714  2.0395
 1253SOL    HW215393   2.140   2.172   8.686 -1.3884 -0.3070  0.6732
 1254SOL     OW15394   2.647   1.103   0.586  0.3373 -0.0014  0.0388
 1254SOL    HW115395   2.579   1.045   0.618 -0.2588 -0.1342 -1.4929
 1254SOL    HW215396   2.722   1.044   0.577  1.0804  1.1048 -1.0829
 1255SOL     OW15397   4.322   0.378   5.350 -0.6074  0.0199  0.1417
 1255SOL    HW115398   4.342   0.344   5.262  0.2235  0.2577  0.2352
 1255SOL    HW215399   4.382   0.452   5.342 -0.4705 -0.0109  0.9380
 1256SOL     OW15400   3.100   2.501  14.038 -0.5826 -0.1026 -0.0730
 1256SOL    HW115401   3.039   2.571  14.014 -0.0224  0.4226  0.0431
 1256SOL    HW215402   3.070   2.425  13.989 -1.2203  0.8986 -1.2538
 1257SOL     OW15403   3.973   4.241   3.327 -0.0359 -0.2589 -0.4636
 1257SOL    HW115404   3.895   4.220   3.379  0.9449 -0.1828  1.0462
 1257SOL    HW215405   3.951   4.214   3.238 -0.3331  0.5814 -0.6459
 1258SOL     OW15406   3.801   3.054  14.802 -0.8887  0.7714 -0.3371
 1258SOL    HW115407   3.787   3.007  14.884 -0.9013  0.8630 -0.2878
 1258SOL    HW215408   3.784   3.146  14.821 -1.1723  0.3480  1.4721
 1259SOL     OW15409   0.837   3.359   4.802 -0.0444 -0.0225 -0.0007
 1259SOL    HW115410   0.809   3.316   4.721  1.6923  0.4309 -0.8380
 1259SOL    HW215411   0.882   3.441   4.781 -1.5573  0.6715 -0.5715
 1260SOL     OW15412   4.643   0.209   6.422  0.2358 -0.0338  0.3344
 1260SOL    HW115413   4.551   0.230   6.438  0.3463  0.2740  0.5534
 1260SOL    HW215414   4.676   0.199   6.511 -0.4853  1.3332  0.7489
 1261SOL     OW15415   4.609   0.314  10.499  0.6613  0.7234  0.2711
 1261SOL    HW115416   4.602   0.227  10.461  3.0427 -0.8202  3.4562
 1261SOL    HW215417   4.519   0.347  10.497  0.7713  1.0858  1.8903
 1262SOL     OW15418   1.191   3.827  11.212  0.3004  0.0260  0.3250
 1262SOL    HW115419   1.231   3.747  11.177  2.2415  0.9973  0.3120
 1262SOL    HW215420   1.227   3.898  11.159 -3.4629  1.9603  0.3437
 1263SOL     OW15421   0.574   0.526  13.286  0.4197  0.1431  0.0756
 1263SOL    HW115422   0.546   0.477  13.209  0.4135 -0.3966  0.4177
 1263SOL    HW215423   0.668   0.536  13.269  0.5279  0.5512  0.8937
 1264SOL     OW15424   3.816   2.357  13.499 -0.9956 -0.2097 -0.0781
 1264SOL    HW115425   3.891   2.396  13.544 -2.2896  1.3675  0.6988
 1264SOL    HW215426   3.791   2.290  13.562 -0.5212 -1.7698 -1.5715
 1265SOL     OW15427   2.375   0.877   3.539  0.1467 -0.2301 -0.3118
 1265SOL    HW115428   2.422   0.892   3.621  0.7805 -0.3587 -0.6501
 1265SOL    HW215429   2.443   0.860   3.474  0.7859  0.2258  0.2450
 1266SOL     OW15430   2.002   3.013   7.671  0.4537  0.2802  0.1704
 1266SOL    HW115431   2.028   2.954   7.741 -1.5161 -1.0210 -0.2074
 1266SOL    HW215432   1.927   2.973   7.627  1.4615 -3.5029  1.8924
 1267SOL     OW15433   3.306   4.706  10.819 -0.0152  0.0355  0.3082
 1267SOL    HW115434   3.217   4.712  10.854 -0.2288 -0.1649 -0.2033
 1267SOL    HW215435   3.305   4.628  10.764  0.7997 -0.8140  1.5127
 1268SOL     OW15436   0.455   0.132   2.798 -0.7540  0.4669 -0.2303
 1268SOL    HW115437   0.509   0.063   2.836 -1.5696  1.1847  2.2440
 1268SOL    HW215438   0.420   0.090   2.719 -0.1334  0.3759 -0.4584
 1269SOL     OW15439   0.164   2.997  10.042  0.2323 -0.0830 -0.6017
 1269SOL    HW115440   0.213   2.946  10.107 -2.0295 -0.5404  0.7579
 1269SOL    HW215441   0.235   3.033   9.988  0.8489 -1.1893 -0.5378
 1270SOL     OW15442   0.401   0.175  11.282 -0.1081  0.5854 -0.6106
 1270SOL    HW115443   0.400   0.256  11.333  0.7936 -0.6661  1.3779
 1270SOL    HW215444   0.335   0.187  11.214  0.6023  1.0589 -1.2219
 1271SOL     OW15445   4.692   1.517   2.291 -0.1088 -0.1421  0.1792
 1271SOL    HW115446   4.653   1.502   2.377 -1.0478 -3.1309 -0.7518
 1271SOL    HW215447   0.026   1.450   2.295 -0.6368 -0.5673  2.0980
 1272SOL     OW15448   2.514   3.219  16.816 -0.3043 -0.5803  0.0682
 1272SOL    HW115449   2.593   3.260  16.852 -2.1766  3.0077  0.0456
 1272SOL    HW215450   2.456   3.295  16.812 -0.6121 -0.8316 -0.2080
 1273SOL     OW15451   0.610   4.278   3.736 -0.4599  0.4978  0.5685
 1273SOL    HW115452   0.573   4.358   3.699 -3.0048 -1.1057 -0.3799
 1273SOL    HW215453   0.568   4.287   3.822  1.6015  1.8173  1.4358
 1274SOL     OW15454   3.241   4.665   3.903  0.5179 -0.4044 -0.0304
 1274SOL    HW115455   3.282   4.589   3.945  2.9951  1.8541  1.6185
 1274SOL    HW215456   3.214   4.638   3.815 -0.7656  0.3597  0.1315
 1275SOL     OW15457   2.112   3.401   8.006 -0.3211 -0.3211  0.1183
 1275SOL    HW115458   2.095   3.465   7.936  0.8652  0.8660  0.9154
 1275SOL    HW215459   2.021   3.383   8.031 -0.8146  0.7082 -0.9527
 1276SOL     OW15460   1.500   1.046   7.345 -0.1836  0.0432  0.3330
 1276SOL    HW115461   1.449   1.124   7.364 -1.1681 -1.1775  2.6204
 1276SOL    HW215462   1.545   1.088   7.271  1.5037 -1.5020  0.4834
 1277SOL     OW15463   2.141   2.891  13.624  0.1798  0.3371  0.0838
 1277SOL    HW115464   2.188   2.939  13.692 -0.1836  0.4592  0.2494
 1277SOL    HW215465   2.152   2.937  13.540 -0.4718 -0.7199 -0.5928
 1278SOL     OW15466   4.355   2.642  12.399  0.3953 -0.1440  0.1026
 1278SOL    HW115467   4.426   2.636  12.335  0.1397 -1.8172 -0.0224
 1278SOL    HW215468   4.295   2.569  12.382  0.7126 -0.5513  0.7506
 1279SOL     OW15469   2.231   3.910   4.537 -0.2185  0.1907  0.4370
 1279SOL    HW115470   2.197   3.835   4.489 -2.6432  0.3382  1.8974
 1279SOL    HW215471   2.289   3.868   4.601  0.9737  1.3793  0.1486
 1280SOL     OW15472   4.698   1.381  14.799  0.3099  0.2272  0.1958
 1280SOL    HW115473   0.017   1.455  14.771  0.6877 -0.6443 -1.3816
 1280SOL    HW215474   4.615   1.427  14.812 -0.3752 -0.8041 -0.4682
 1281SOL     OW15475   0.254   0.158   2.001 -0.3215 -0.4291 -0.0540
 1281SOL    HW115476   0.296   0.163   2.086  0.2462 -1.2598 -0.2927
 1281SOL    HW215477   0.203   0.239   2.010  2.6600  1.1054  2.8597
 1282SOL     OW15478   3.194   3.240   1.467  0.4952  0.2968  0.4437
 1282SOL    HW115479   3.233   3.169   1.519  1.2298 -1.1141 -2.0646
 1282SOL    HW215480   3.218   3.205   1.381 -0.4434 -0.4818  0.4992
 1283SOL     OW15481   1.717   0.623   3.666 -0.2506 -0.0909 -0.4809
 1283SOL    HW115482   1.709   0.534   3.632  0.4538  0.3550 -1.8326
 1283SOL    HW215483   1.810   0.639   3.649  0.0139 -1.1203  0.0330
 1284SOL     OW15484   2.933   3.625  12.723  0.2208 -0.2238 -0.4856
 1284SOL    HW115485   2.940   3.530  12.734 -3.0363 -0.4706 -0.3478
 1284SOL    HW215486   2.885   3.633  12.805  1.4085  0.1424  0.1646
 1285SOL     OW15487   3.893   0.449   7.327 -0.5040  0.1808  0.0669
 1285SOL    HW115488   3.916   0.443   7.235 -1.4770  1.5003 -0.2628
 1285SOL    HW215489   3.953   0.516   7.361  1.3037 -1.1323 -0.5170
 1286SOL     OW15490   1.796   1.460   3.378 -0.0608  0.0786 -0.1823
 1286SOL    HW115491   1.781   1.553   3.395 -2.5670  0.3087 -3.4753
 1286SOL    HW215492   1.715   1.422   3.413  0.7596 -2.0680 -0.6348
 1287SOL     OW15493   0.690   4.402   1.318  0.0437 -0.1957 -0.0939
 1287SOL    HW115494   0.638   4.466   1.269  1.0772  1.7374  1.3334
 1287SOL    HW215495   0.633   4.324   1.317  1.3736 -1.1656  0.6927
 1288SOL     OW15496   1.866   3.409   4.992  0.4421  0.1951  0.1677
 1288SOL    HW115497   1.891   3.414   5.084 -2.0832  0.9894  0.7926
 1288SOL    HW215498   1.801   3.479   4.991  1.7293  1.3993  0.0788
 1289SOL     OW15499   3.570   1.402  11.672 -0.4810  0.2719 -0.2325
 1289SOL    HW115500   3.501   1.335  11.678 -0.4920  0.2639 -0.4677
 1289SOL    HW215501   3.517   1.482  11.679 -0.7082  0.1115 -0.0916
 1290SOL     OW15502   2.944   0.775   4.762 -0.5541  0.2409 -0.0485
 1290SOL    HW115503   3.008   0.765   4.691 -0.7202  0.5034 -0.2372
 1290SOL    HW215504   2.915   0.863   4.740  0.6225  0.2540 -1.5423
 1291SOL     OW15505   1.037   1.289   8.808 -0.0967  0.5602  0.6826
 1291SOL    HW115506   1.100   1.218   8.804 -0.5458  0.1506  0.7857
 1291SOL    HW215507   1.069   1.345   8.879  0.7269 -1.2538  1.7607
 1292SOL     OW15508   2.435   1.708   7.503  0.0658  0.2939 -0.0412
 1292SOL    HW115509   2.452   1.678   7.592 -1.0905 -0.7536 -0.1761
 1292SOL    HW215510   2.502   1.777   7.504  1.7562 -1.3727  0.7661
 1293SOL     OW15511   3.008   2.011   4.737 -0.5073  0.1051  0.4014
 1293SOL    HW115512   2.932   2.043   4.687  0.8635 -1.2576 -2.5494
 1293SOL    HW215513   3.060   1.965   4.671  1.2091  1.8861  0.5103
 1294SOL     OW15514   4.619   4.352   0.171  0.5191  0.3955  0.2375
 1294SOL    HW115515   4.554   4.358   0.242  1.4462 -0.8848  1.1707
 1294SOL    HW215516   4.646   4.261   0.172  2.3602  0.9154 -1.7436
 1295SOL     OW15517   3.023   1.254   5.113  0.2303 -0.2786  0.3684
 1295SOL    HW115518   2.956   1.240   5.045  0.4642  0.5469 -0.0360
 1295SOL    HW215519   3.092   1.278   5.051 -0.1740 -2.1412 -0.7957
 1296SOL     OW15520   3.000   0.102   5.837 -0.1545  0.0946  0.0897
 1296SOL    HW115521   2.940   0.072   5.769 -0.0654  1.3879 -0.5454
 1296SOL    HW215522   3.086   0.096   5.796 -0.0557 -2.7321  0.6841
 1297SOL     OW15523   3.481   1.073  11.674  0.2248  0.0686 -0.4796
 1297SOL    HW115524   3.434   1.002  11.630  0.5679 -0.6071  0.2349
 1297SOL    HW215525   3.421   1.143  11.652  0.3158  0.1189 -0.5701
 1298SOL     OW15526   1.054   0.091  17.647 -0.1229 -0.1888  0.0117
 1298SOL    HW115527   1.142   0.080  17.611  0.0386 -1.9195  0.9011
 1298SOL    HW215528   1.013   0.011  17.614 -1.3687  0.1075  0.8424
 1299SOL     OW15529   1.896   0.101   2.913 -0.0682 -0.0317 -0.7894
 1299SOL    HW115530   1.866   0.110   3.003  0.9454 -1.3478 -0.3305
 1299SOL    HW215531   1.900   0.194   2.890 -0.3271  0.4512  1.1070
 1300SOL     OW15532   0.365   3.911   6.730 -0.5466  0.3597  0.1118
 1300SOL    HW115533   0.280   3.884   6.767  0.2155  1.0813  2.4229
 1300SOL    HW215534   0.359   3.870   6.644  2.3152  2.0379 -0.8585
 1301SOL     OW15535   4.588   2.064   8.520  0.0089  0.2554  0.3112
 1301SOL    HW115536   4.642   2.007   8.575 -1.6820  1.7705  3.5246
 1301SOL    HW215537   4.604   2.145   8.568  3.5708 -0.6895  0.7479
 1302SOL     OW15538   4.194   4.522   0.882  0.8576 -0.1357 -0.1015
 1302SOL    HW115539   4.219   4.430   0.870 -0.1483 -0.2121 -1.6498
 1302SOL    HW215540   4.160   4.535   0.793 -0.5892 -0.8709  0.3343
 1303SOL     OW15541   2.217   2.691   9.624  0.2293 -0.2354  0.2584
 1303SOL    HW115542   2.186   2.691   9.534 -0.3391 -1.5497  0.4506
 1303SOL    HW215543   2.135   2.725   9.662  0.3492  2.3947 -1.8316
 1304SOL     OW15544   3.883   2.173   6.131  0.3552 -0.4066  0.3547
 1304SOL    HW115545   3.890   2.078   6.144  0.6779 -0.5234 -0.6762
 1304SOL    HW215546   3.939   2.183   6.054  0.1657 -2.6080 -0.0792
 1305SOL     OW15547   1.522   1.469   4.966  0.5667  0.0766 -0.2484
 1305SOL    HW115548   1.561   1.395   5.014  2.8796  0.2576 -1.8268
 1305SOL    HW215549   1.440   1.487   5.012  2.0227  1.9499  1.5993
 1306SOL     OW15550   0.940   2.172   5.680  0.6146  0.3332 -0.7511
 1306SOL    HW115551   0.933   2.143   5.771 -0.9270 -2.2211 -1.7079
 1306SOL    HW215552   0.857   2.148   5.639  1.6745 -0.8295 -2.2094
 1307SOL     OW15553   0.046   0.096   7.464 -0.0767 -0.5585  0.0445
 1307SOL    HW115554   0.065   0.050   7.546  2.2772 -0.5313 -0.4832
 1307SOL    HW215555   0.094   0.177   7.482 -1.5879 -0.1827  2.3193
 1308SOL     OW15556   0.244   4.555  14.191  0.5655 -0.3006 -0.1262
 1308SOL    HW115557   0.256   4.634  14.244 -1.1307 -0.8378  1.0522
 1308SOL    HW215558   0.331   4.527  14.159  0.5775  0.7771 -1.0664
 1309SOL     OW15559   0.532   2.877   8.109  0.1733  0.4937  0.0975
 1309SOL    HW115560   0.508   2.810   8.044 -1.0037 -0.4608  1.5090
 1309SOL    HW215561   0.451   2.928   8.108  0.2518  0.6026 -1.6076
 1310SOL     OW15562   3.733   1.676   9.265 -0.7368 -0.2836  0.6491
 1310SOL    HW115563   3.711   1.770   9.265  1.5745  0.2447 -1.6072
 1310SOL    HW215564   3.652   1.627   9.278 -1.9571  2.1762  2.2848
 1311SOL     OW15565   1.425   4.120   1.498 -0.4730 -0.3609  0.0195
 1311SOL    HW115566   1.497   4.165   1.543 -1.1792  0.0321  0.7637
 1311SOL    HW215567   1.362   4.105   1.569 -2.2830  0.5316 -1.3870
 1312SOL     OW15568   1.554   0.404  16.815  0.2200  0.0996 -0.4145
 1312SOL    HW115569   1.560   0.495  16.846 -0.9371  0.4006 -1.0921
 1312SOL    HW215570   1.533   0.420  16.723  1.1920  0.2269 -0.6187
 1313SOL     OW15571   2.136   0.165  10.896  0.1319 -0.5597 -0.1266
 1313SOL    HW115572   2.189   0.244  10.907 -2.6928  1.1569  1.1404
 1313SOL    HW215573   2.159   0.140  10.807 -1.3366 -1.9322 -0.1181
 1314SOL     OW15574   2.348   1.939   8.594  0.3031  0.0217  0.3408
 1314SOL    HW115575   2.273   1.962   8.650 -0.0913  2.3749 -1.1879
 1314SOL    HW215576   2.424   1.925   8.651  0.2042 -1.3425  0.1358
 1315SOL     OW15577   2.259   0.355   1.990  0.1190  0.1207 -0.2417
 1315SOL    HW115578   2.198   0.324   2.056  3.7520 -1.3185  2.4540
 1315SOL    HW215579   2.222   0.310   1.914  0.0055 -1.4545  0.7544
 1316SOL     OW15580   1.373   1.969   7.081 -0.3033 -0.0615  0.7075
 1316SOL    HW115581   1.302   1.975   7.017 -0.0412 -2.3724  0.1892
 1316SOL    HW215582   1.343   1.889   7.125  1.7457 -0.2430  1.7726
 1317SOL     OW15583   3.833   3.992   1.673 -0.0090 -0.1026 -0.3264
 1317SOL    HW115584   3.918   3.993   1.718 -1.2602 -0.2748  2.0451
 1317SOL    HW215585   3.852   4.048   1.598 -0.1306  0.6133  0.1763
 1318SOL     OW15586   0.934   4.449  16.387  0.2124 -0.0228 -0.1387
 1318SOL    HW115587   0.964   4.376  16.440 -1.1476 -2.4216 -2.6646
 1318SOL    HW215588   0.879   4.403  16.324 -0.7127 -2.4080  2.4501
 1319SOL     OW15589   1.438   1.099   7.994  0.2252 -0.0315  0.4723
 1319SOL    HW115590   1.432   1.057   7.907 -0.0114 -0.0209  0.4826
 1319SOL    HW215591   1.347   1.124   8.009 -0.0968 -0.5400 -0.6113
 1320SOL     OW15592   1.928   3.392   1.149 -0.3551  0.2108 -0.0196
 1320SOL    HW115593   1.856   3.387   1.212  0.4234 -0.2243  0.8348
 1320SOL    HW215594   1.878   3.369   1.071  0.5309 -1.2305 -0.1627
 1321SOL     OW15595   2.158   3.922  15.010 -0.2165  0.3974 -0.1504
 1321SOL    HW115596   2.113   3.915  14.926 -1.3208 -1.7870  0.6304
 1321SOL    HW215597   2.156   3.829  15.035 -1.1925  0.7597  1.0613
 1322SOL     OW15598   0.811   4.517  12.371  0.1648  0.6552  0.2821
 1322SOL    HW115599   0.827   4.520  12.466  0.9624  1.2155  0.1355
 1322SOL    HW215600   0.772   4.430  12.366  1.7431  0.2040 -3.9425
 1323SOL     OW15601   2.867   4.459   6.929 -0.7111 -0.4279 -0.1277
 1323SOL    HW115602   2.781   4.469   6.969 -1.6083  0.0559 -2.1475
 1323SOL    HW215603   2.860   4.475   6.834  1.6860 -1.9359 -0.5597
 1324SOL     OW15604   1.513   3.431   9.969  0.1489  0.3805 -0.2452
 1324SOL    HW115605   1.521   3.436  10.064 -4.4568  1.5324  0.0883
 1324SOL    HW215606   1.469   3.346   9.958 -1.0969  0.6439  2.5485
 1325SOL     OW15607   2.868   2.213   5.950 -0.7724 -0.3090 -0.2743
 1325SOL    HW115608   2.827   2.127   5.964 -3.2623  1.0398  0.6451
 1325SOL    HW215609   2.834   2.267   6.021 -2.6361  1.1912 -2.2837
 1326SOL     OW15610   2.643   1.044   3.514 -0.2273  0.2502 -0.2690
 1326SOL    HW115611   2.737   1.060   3.528 -0.3760  1.1867 -0.3796
 1326SOL    HW215612   2.621   1.020   3.604  2.2622  0.7255  0.4638
 1327SOL     OW15613   2.860   2.000   7.523  0.0805  0.5006  0.0347
 1327SOL    HW115614   2.858   2.079   7.576  3.8670  1.2523 -0.9305
 1327SOL    HW215615   2.951   1.971   7.529 -0.0586 -0.7816 -3.9256
 1328SOL     OW15616   2.546   1.229   1.962 -0.8320 -0.2077 -0.1942
 1328SOL    HW115617   2.460   1.187   1.960  0.1701 -2.4323  2.4822
 1328SOL    HW215618   2.566   1.220   2.055 -1.3520  1.3397  0.0649
 1329SOL     OW15619   2.281   0.710  14.115 -0.0534  0.1366 -0.4009
 1329SOL    HW115620   2.295   0.624  14.156 -3.3995 -0.0677  0.3135
 1329SOL    HW215621   2.270   0.682  14.024  2.1195 -1.5609 -0.1719
 1330SOL     OW15622   4.087   3.919   3.127 -0.4479  0.2976  0.5800
 1330SOL    HW115623   4.001   3.905   3.087 -0.7611  2.4285  0.4938
 1330SOL    HW215624   4.100   4.007   3.090  0.4146  0.9235  2.4018
 1331SOL     OW15625   4.388   4.022   1.581  0.1240  0.1207  0.0943
 1331SOL    HW115626   4.387   4.091   1.514 -0.2111 -0.4005 -0.4408
 1331SOL    HW215627   4.445   4.068   1.643 -1.3440 -1.2736  2.4739
 1332SOL     OW15628   1.791   2.405   5.373  0.0829 -0.6059  0.2707
 1332SOL    HW115629   1.777   2.327   5.319 -0.3283 -0.3057 -0.0510
 1332SOL    HW215630   1.835   2.462   5.311  1.3317 -1.4259  0.4009
 1333SOL     OW15631   0.513   0.548   7.915 -0.0320 -0.1602  0.2430
 1333SOL    HW115632   0.505   0.582   8.004  0.4872 -0.3163  0.3506
 1333SOL    HW215633   0.427   0.575   7.882  0.9906  2.1185 -0.5385
 1334SOL     OW15634   1.701   2.756   2.159  0.1841  0.1972  0.2575
 1334SOL    HW115635   1.626   2.742   2.217  0.7796  0.4725  1.1056
 1334SOL    HW215636   1.755   2.680   2.180 -2.3890 -2.3167 -2.3706
 1335SOL     OW15637   0.696   3.933  17.629  0.3039 -0.3123  0.3246
 1335SOL    HW115638   0.750   3.854  17.619  1.4187  0.7790 -2.4738
 1335SOL    HW215639   0.623   3.909  17.572 -0.1309 -0.5600  0.9952
 1336SOL     OW15640   3.622   0.500  11.589 -0.3069 -0.2680  0.6028
 1336SOL    HW115641   3.595   0.433  11.527  0.4479  1.1509 -1.2509
 1336SOL    HW215642   3.718   0.499  11.588 -0.3324 -0.9595 -0.9387
 1337SOL     OW15643   1.633   3.262   7.336 -0.2036  0.0339  0.3164
 1337SOL    HW115644   1.664   3.247   7.425  0.7656  1.3095  0.2015
 1337SOL    HW215645   1.546   3.223   7.335  0.1515 -0.7696  0.2724
 1338SOL     OW15646   0.855   0.442  14.247 -0.1337 -0.1714 -0.0018
 1338SOL    HW115647   0.807   0.363  14.224 -0.2943  0.2546 -1.0839
 1338SOL    HW215648   0.786   0.505  14.267 -0.4134 -0.8142  1.0659
 1339SOL     OW15649   1.175   0.544   1.689  0.2899  0.7891 -0.3353
 1339SOL    HW115650   1.226   0.466   1.709  0.6296  2.1080  3.9660
 1339SOL    HW215651   1.236   0.616   1.670  1.1791  0.1013 -0.0780
 1340SOL     OW15652   1.775   1.880   7.765 -0.4225 -0.1673  0.4096
 1340SOL    HW115653   1.747   1.791   7.786  0.2546  0.2843  3.1985
 1340SOL    HW215654   1.745   1.897   7.675 -0.3032 -0.8651  0.2420
 1341SOL     OW15655   4.372   4.317  15.442 -0.3032  0.1067 -0.0187
 1341SOL    HW115656   4.407   4.231  15.465  2.3356  2.3742  4.4604
 1341SOL    HW215657   4.410   4.335  15.356  0.3933  2.8013  0.8578
 1342SOL     OW15658   0.094   1.696  13.500  0.4674  0.0982 -0.0182
 1342SOL    HW115659   0.100   1.629  13.432  0.5389  0.9255 -0.8354
 1342SOL    HW215660   0.001   1.719  13.501 -0.0375 -1.9524 -0.9535
 1343SOL     OW15661   2.773   1.827   9.289 -0.5911  0.3262 -0.1971
 1343SOL    HW115662   2.857   1.845   9.247 -0.8774  0.8679 -0.5485
 1343SOL    HW215663   2.805   1.764   9.354 -0.0813 -1.1612 -1.8973
 1344SOL     OW15664   3.552   3.382  11.004  0.2740 -0.0582 -0.0756
 1344SOL    HW115665   3.517   3.466  11.032 -1.4596 -1.0241  0.6442
 1344SOL    HW215666   3.565   3.342  11.090  1.2266 -1.9818 -1.1057
 1345SOL     OW15667   0.108   0.922   5.456 -0.5433  0.7031 -0.0252
 1345SOL    HW115668   0.190   0.965   5.481  0.4499 -1.5916  0.6675
 1345SOL    HW215669   0.045   0.950   5.522 -1.9470  1.1337 -1.5470
 1346SOL     OW15670   1.335   1.557   0.965 -0.0379  0.1816  0.0326
 1346SOL    HW115671   1.397   1.627   0.982  0.1300 -0.3516  1.5979
 1346SOL    HW215672   1.350   1.532   0.873  0.0896  0.7068 -0.0886
 1347SOL     OW15673   1.330   0.506   3.561 -0.0882 -0.7359 -0.3644
 1347SOL    HW115674   1.257   0.445   3.557  1.1210 -2.2182 -0.0290
 1347SOL    HW215675   1.370   0.485   3.646 -0.3980  0.3913  0.0539
 1348SOL     OW15676   1.659   3.598   6.841  0.4391 -0.1044 -0.5934
 1348SOL    HW115677   1.734   3.549   6.876  1.5376  1.1944 -1.1430
 1348SOL    HW215678   1.627   3.649   6.915  1.7238 -0.8430  0.4892
 1349SOL     OW15679   3.476   4.532  15.113  0.1205  0.5708 -0.3885
 1349SOL    HW115680   3.488   4.626  15.125  1.7009  0.2626  0.3841
 1349SOL    HW215681   3.481   4.523  15.018  0.5684 -0.6210 -0.2402
 1350SOL     OW15682   3.928   1.246   8.492  0.0851 -0.8854  0.5013
 1350SOL    HW115683   3.973   1.305   8.551  0.0065 -1.7324  1.4057
 1350SOL    HW215684   3.880   1.191   8.554 -0.9995  1.3199  1.6173
 1351SOL     OW15685   1.662   0.794   7.419 -0.2475  0.2711  0.5987
 1351SOL    HW115686   1.708   0.784   7.336 -0.8468  1.6931  0.1020
 1351SOL    HW215687   1.623   0.881   7.410  0.5619  0.6213  0.4805
 1352SOL     OW15688   0.679   0.964  11.219 -0.4597  0.4758  0.5927
 1352SOL    HW115689   0.625   0.962  11.140  0.1991 -2.1805  0.2064
 1352SOL    HW215690   0.731   0.885  11.204 -0.4269  0.1671  2.3051
 1353SOL     OW15691   1.813   0.082   3.173  0.8614  0.2434  0.2754
 1353SOL    HW115692   1.766   0.157   3.208  0.6335 -0.3318  1.1886
 1353SOL    HW215693   1.837   0.044   3.257  0.2814  1.8494  1.1463
 1354SOL     OW15694   2.099   1.472   0.192  0.4323 -0.1014  0.2011
 1354SOL    HW115695   2.019   1.450   0.240  1.4929  1.2244  2.6068
 1354SOL    HW215696   2.158   1.514   0.255  2.4382 -0.9345 -1.1459
 1355SOL     OW15697   3.944   4.536   6.264  0.3683  0.1212  0.0443
 1355SOL    HW115698   3.866   4.482   6.268 -0.2880  1.2257  2.3573
 1355SOL    HW215699   3.981   4.523   6.351 -0.3259  3.6625  0.8489
 1356SOL     OW15700   4.326   0.507  17.485  0.5603  0.2658 -0.0953
 1356SOL    HW115701   4.347   0.577  17.424 -2.3804  0.5019 -0.8032
 1356SOL    HW215702   4.250   0.468  17.442 -0.4161  1.2791  0.7195
 1357SOL     OW15703   4.168   3.577   4.714  0.5021  0.2168 -0.1636
 1357SOL    HW115704   4.108   3.651   4.724 -2.0309 -1.8975  0.1532
 1357SOL    HW215705   4.183   3.593   4.621  0.8881  2.2416  0.2271
 1358SOL     OW15706   0.445   3.376   7.504 -0.0422 -0.4045 -0.3483
 1358SOL    HW115707   0.502   3.302   7.483  5.6496  3.7494  0.4241
 1358SOL    HW215708   0.438   3.420   7.419 -0.1887  1.5920  0.6776
 1359SOL     OW15709   4.462   0.102   4.923  0.0601 -0.1858  0.1516
 1359SOL    HW115710   4.526   0.064   4.982 -1.2431 -2.7879 -0.1006
 1359SOL    HW215711   4.513   0.167   4.875  0.7584 -0.2055  0.8629
 1360SOL     OW15712   0.207   4.260  13.683  0.2385  0.0459  0.0388
 1360SOL    HW115713   0.255   4.264  13.601 -1.2588 -0.6582 -0.8697
 1360SOL    HW215714   0.208   4.165  13.693 -0.5240 -0.2677 -2.8188
 1361SOL     OW15715   2.419   2.751   2.162 -0.2405  0.5987 -0.1321
 1361SOL    HW115716   2.501   2.714   2.193 -0.7850 -0.7011 -0.1973
 1361SOL    HW215717   2.362   2.719   2.232  2.5386 -0.1126  1.7675
 1362SOL     OW15718   3.214   3.941   6.549  0.2606 -0.2798  0.2063
 1362SOL    HW115719   3.264   3.932   6.630 -0.6415 -0.2409  0.7696
 1362SOL    HW215720   3.159   3.862   6.549  0.0413 -0.1268  0.8860
 1363SOL     OW15721   1.138   3.176   6.565  0.2276 -0.0725  0.2746
 1363SOL    HW115722   1.233   3.162   6.567  0.6529  2.6670 -0.8607
 1363SOL    HW215723   1.131   3.271   6.559 -1.1013 -0.4388 -3.7239
 1364SOL     OW15724   2.661   1.134   5.093 -0.6368  0.0881  0.0584
 1364SOL    HW115725   2.724   1.170   5.031  0.4584  2.3390  2.4552
 1364SOL    HW215726   2.579   1.162   5.052 -1.4447 -0.7419  1.0982
 1365SOL     OW15727   4.498   1.182   8.876  0.0403 -0.0814  0.0012
 1365SOL    HW115728   4.539   1.188   8.962  1.4071  1.4648 -0.7522
 1365SOL    HW215729   4.504   1.087   8.863  1.6209  0.2740 -1.7893
 1366SOL     OW15730   4.482   2.181   3.570 -0.1607 -0.1451 -0.1918
 1366SOL    HW115731   4.510   2.181   3.662  1.9145  1.7894 -0.8255
 1366SOL    HW215732   4.548   2.237   3.530 -0.1677 -0.4971 -0.6966
 1367SOL     OW15733   0.216   3.146  15.245 -0.0511 -0.3042  0.0278
 1367SOL    HW115734   0.130   3.124  15.209 -0.8490 -0.6634  2.1631
 1367SOL    HW215735   0.199   3.154  15.339  0.1851 -2.1075  0.2117
 1368SOL     OW15736   2.170   0.474   5.063 -0.9455 -0.2317  0.4010
 1368SOL    HW115737   2.167   0.548   5.002 -1.6275  0.7068  1.5788
 1368SOL    HW215738   2.263   0.477   5.083 -0.8773 -2.4279  0.4150
 1369SOL     OW15739   2.869   4.625   0.336  0.2807  0.3141  0.6224
 1369SOL    HW115740   2.898   4.631   0.245 -1.7558 -0.0175 -0.0527
 1369SOL    HW215741   2.832   4.537   0.334 -0.1318  0.4675  1.9110
 1370SOL     OW15742   4.450   2.934  13.005 -0.0593  0.1285  0.5615
 1370SOL    HW115743   4.427   2.841  13.006 -0.3449  0.2278  1.9658
 1370SOL    HW215744   4.490   2.943  12.918 -0.4713 -1.0381  0.2488
 1371SOL     OW15745   4.455   1.945  11.405 -0.8113 -0.4043  0.6685
 1371SOL    HW115746   4.424   1.937  11.495 -1.4333 -0.5049  0.4468
 1371SOL    HW215747   4.518   2.018  11.407 -1.1705 -0.1403  1.9917
 1372SOL     OW15748   3.443   4.258  12.578 -0.1722 -0.5152  0.2821
 1372SOL    HW115749   3.519   4.296  12.534  0.4544 -0.9502  0.9668
 1372SOL    HW215750   3.476   4.282  12.665 -1.2661  1.7818  0.0609
 1373SOL     OW15751   1.557   0.812   8.928  0.6019 -0.1546  0.6149
 1373SOL    HW115752   1.570   0.819   8.834 -3.6906  1.6562  0.1738
 1373SOL    HW215753   1.515   0.894   8.953 -2.7618 -1.8060  0.3375
 1374SOL     OW15754   4.535   4.189   7.526 -0.4285 -0.0973 -0.2125
 1374SOL    HW115755   4.628   4.210   7.535 -0.4434 -0.0663 -0.1292
 1374SOL    HW215756   4.512   4.251   7.457  1.3422  1.9695  1.0421
 1375SOL     OW15757   3.671   1.989  12.069  0.7122  0.2463 -0.4186
 1375SOL    HW115758   3.588   2.034  12.081 -0.0667 -1.8358  2.0881
 1375SOL    HW215759   3.650   1.911  12.121 -2.6213  1.3843 -0.1012
 1376SOL     OW15760   3.445   1.704  15.930 -0.0468 -0.3345 -0.3485
 1376SOL    HW115761   3.447   1.646  16.007 -1.9833  0.0550  0.0103
 1376SOL    HW215762   3.495   1.654  15.866 -0.8247 -1.5850  0.0050
 1377SOL     OW15763   4.041   1.290   3.816  0.2112 -0.5087 -0.3585
 1377SOL    HW115764   4.016   1.382   3.829 -0.1944 -0.4120 -1.7319
 1377SOL    HW215765   4.036   1.268   3.909  1.6449 -1.8053 -0.6062
 1378SOL     OW15766   4.707   0.984  16.695  0.3431  0.2368 -0.1350
 1378SOL    HW115767   4.685   0.934  16.774  1.5153  0.4796  0.3503
 1378SOL    HW215768   4.618   1.011  16.674  0.1629  0.1228  0.4734
 1379SOL     OW15769   3.552   2.279   2.977  0.1591 -0.1053 -0.0031
 1379SOL    HW115770   3.639   2.316   2.993 -0.0596  0.4307 -0.0393
 1379SOL    HW215771   3.521   2.264   3.066  0.5329 -0.0340  0.1358
 1380SOL     OW15772   1.701   3.764   6.572 -0.1621  0.4067  0.3419
 1380SOL    HW115773   1.653   3.725   6.645 -2.4048  1.1058 -0.7585
 1380SOL    HW215774   1.700   3.859   6.587 -2.8245  0.3968  0.1510
 1381SOL     OW15775   0.129   1.757   4.335 -0.7144 -0.3811 -0.2079
 1381SOL    HW115776   0.093   1.846   4.342  0.5530  0.0713  0.5082
 1381SOL    HW215777   0.046   1.710   4.335 -0.5134 -0.7492 -2.0115
 1382SOL     OW15778   4.288   0.925   6.841 -0.4806 -0.2183 -0.5118
 1382SOL    HW115779   4.269   0.905   6.933 -0.4906 -2.3306 -0.9668
 1382SOL    HW215780   4.276   0.839   6.800 -1.0853 -1.3765  2.0869
 1383SOL     OW15781   0.976   0.673   5.328 -0.3422  0.2331 -0.0150
 1383SOL    HW115782   0.935   0.604   5.275 -0.3577 -0.5462  1.0247
 1383SOL    HW215783   0.957   0.643   5.417 -2.2305  1.0835 -0.1219
 1384SOL     OW15784   2.927   3.051   2.012  0.4277  0.1464 -0.3140
 1384SOL    HW115785   2.969   2.965   2.001 -0.7175 -0.3707 -0.6293
 1384SOL    HW215786   2.924   3.062   2.107  3.6741 -1.1823 -0.0590
 1385SOL     OW15787   3.064   1.502   1.749 -0.0993  0.3534  0.0217
 1385SOL    HW115788   3.017   1.553   1.814  0.0188  1.2993 -0.6267
 1385SOL    HW215789   3.070   1.555   1.669  0.0727 -1.2505 -1.0113
 1386SOL     OW15790   4.094   3.533   3.971  0.7242  0.1595 -0.7567
 1386SOL    HW115791   4.136   3.479   3.904  0.4885 -0.1600 -0.6508
 1386SOL    HW215792   4.127   3.490   4.050 -0.5284  0.5607 -0.0053
 1387SOL     OW15793   2.280   0.490   7.887  0.4131 -0.3521 -0.3646
 1387SOL    HW115794   2.299   0.582   7.902  1.4384 -0.6827  0.3389
 1387SOL    HW215795   2.337   0.449   7.951  2.2890  0.0454 -1.7843
 1388SOL     OW15796   0.881   1.275   5.231  0.0577 -0.2174 -0.7280
 1388SOL    HW115797   0.827   1.257   5.154 -0.3851  0.6861 -0.6337
 1388SOL    HW215798   0.835   1.230   5.302  1.2989 -1.5746 -0.8006
 1389SOL     OW15799   0.697   1.262   9.347  0.0868 -0.1357  0.0301
 1389SOL    HW115800   0.753   1.210   9.289  0.4866  1.1432 -0.7264
 1389SOL    HW215801   0.670   1.191   9.406  0.1604 -0.9463 -0.9056
 1390SOL     OW15802   2.778   0.171   3.819 -0.4568  0.0393  0.3120
 1390SOL    HW115803   2.777   0.207   3.908 -0.1845  2.6138 -0.7224
 1390SOL    HW215804   2.702   0.215   3.780 -0.4999  0.4189  0.8191
 1391SOL     OW15805   0.901   2.073  12.941 -0.6574 -0.2875  0.0741
 1391SOL    HW115806   0.965   2.143  12.952 -1.1060  0.2049 -0.5373
 1391SOL    HW215807   0.913   2.063  12.847  0.1218  1.8099 -0.0469
 1392SOL     OW15808   3.707   3.444   1.288  0.3718 -0.1398 -0.2695
 1392SOL    HW115809   3.757   3.487   1.219 -0.9206 -1.5473 -2.0570
 1392SOL    HW215810   3.776   3.390   1.329  0.2542  1.4417  2.0172
 1393SOL     OW15811   1.591   4.328   1.605 -0.1791  0.1424 -0.4170
 1393SOL    HW115812   1.615   4.396   1.541 -1.1906  1.4648  0.6210
 1393SOL    HW215813   1.672   4.277   1.606  0.2160  0.8065  2.1260
 1394SOL     OW15814   0.367   2.944   6.454  0.1609  0.0332 -0.1171
 1394SOL    HW115815   0.338   2.855   6.471 -0.8149  0.5028  0.6958
 1394SOL    HW215816   0.292   2.988   6.493 -0.6096 -1.5762  0.2091
 1395SOL     OW15817   1.113   1.271   2.331  0.1898 -0.3196 -0.0992
 1395SOL    HW115818   1.138   1.180   2.343 -2.0798 -0.6778  1.7168
 1395SOL    HW215819   1.108   1.291   2.424 -1.0178 -0.1041 -0.2131
 1396SOL     OW15820   1.404   3.349  13.189  0.1789 -0.4712  0.2123
 1396SOL    HW115821   1.430   3.386  13.104  0.5617 -0.9424  0.1257
 1396SOL    HW215822   1.310   3.338  13.172  0.2526  1.1967 -1.2907
 1397SOL     OW15823   3.584   0.684   7.568 -0.8247  0.5862  0.1804
 1397SOL    HW115824   3.495   0.676   7.602  0.0931 -1.7649  2.0440
 1397SOL    HW215825   3.589   0.595   7.533 -1.8876  0.8069 -0.5117
 1398SOL     OW15826   4.259   4.493   3.792  0.4182  0.0210  0.2336
 1398SOL    HW115827   4.318   4.424   3.762 -1.0183 -2.3287  2.7818
 1398SOL    HW215828   4.207   4.506   3.713 -0.2855  1.3481  0.9049
 1399SOL     OW15829   1.554   0.287   2.974 -0.0290 -0.2967  0.1736
 1399SOL    HW115830   1.575   0.344   3.048  1.5191  1.1235 -1.3676
 1399SOL    HW215831   1.460   0.273   2.985 -0.0912  0.5042  0.6585
 1400SOL     OW15832   3.953   1.262   4.329  0.3389 -0.2779 -0.7765
 1400SOL    HW115833   3.901   1.214   4.394  1.5540 -0.6022 -0.0374
 1400SOL    HW215834   4.035   1.217   4.349 -0.2379 -2.0195 -2.4324
 1401SOL     OW15835   4.323   1.001   6.411 -0.7246 -0.3588  0.3661
 1401SOL    HW115836   4.365   1.010   6.326 -1.1377  1.2075  0.3408
 1401SOL    HW215837   4.259   0.930   6.407 -1.3156  0.2431 -1.1053
 1402SOL     OW15838   3.977   1.920   6.046  0.0261  0.0883 -0.0877
 1402SOL    HW115839   4.049   1.857   6.049 -1.8207 -1.9217  2.2911
 1402SOL    HW215840   3.943   1.888   5.962 -2.2699  0.7367  0.5877
 1403SOL     OW15841   4.504   3.915   1.089  0.3396  0.1881 -0.2225
 1403SOL    HW115842   4.563   3.978   1.128 -0.5409  0.6213  0.4199
 1403SOL    HW215843   4.527   3.927   0.997  1.1621 -0.8766 -0.1535
 1404SOL     OW15844   0.467   3.370   9.368  0.9012  0.5055  0.1406
 1404SOL    HW115845   0.471   3.287   9.321 -0.2166  0.3139  0.3868
 1404SOL    HW215846   0.424   3.419   9.297 -0.9504  1.0257  1.6416
 1405SOL     OW15847   3.387   3.767   5.590  0.6826  0.5487  0.0458
 1405SOL    HW115848   3.328   3.696   5.565  1.6462 -0.7614  1.4569
 1405SOL    HW215849   3.465   3.712   5.596 -1.3457 -2.4071 -0.1510
 1406SOL     OW15850   3.417   3.488   1.625  0.1948 -0.2408  0.7825
 1406SOL    HW115851   3.438   3.400   1.656  1.3760  0.2539  1.4439
 1406SOL    HW215852   3.501   3.525   1.596  0.2299 -1.0427 -0.1265
 1407SOL     OW15853   1.471   3.691  16.630  0.0065 -0.0017  0.0108
 1407SOL    HW115854   1.428   3.661  16.710  0.9003  0.9627  0.8621
 1407SOL    HW215855   1.426   3.645  16.560 -1.3396 -0.3376  1.0980
 1408SOL     OW15856   2.460   2.728   3.999  0.3380  0.3070 -0.5272
 1408SOL    HW115857   2.368   2.710   3.981  0.8508 -3.5402  0.6358
 1408SOL    HW215858   2.506   2.709   3.918 -0.2281  0.9212 -0.9863
 1409SOL     OW15859   0.009   2.653   6.561  0.4398  0.1439 -0.2399
 1409SOL    HW115860   4.698   2.707   6.498 -1.0615  1.8088  2.2850
 1409SOL    HW215861   4.669   2.598   6.586 -1.0399  1.7860 -1.0728
 1410SOL     OW15862   0.340   1.436   3.664 -0.3325  0.0551  0.3911
 1410SOL    HW115863   0.302   1.519   3.692  2.1781  0.7042  1.8349
 1410SOL    HW215864   0.279   1.394   3.603 -1.1015  1.8562 -0.0702
 1411SOL     OW15865   2.397   2.655   5.626  0.2020 -0.7243 -0.0706
 1411SOL    HW115866   2.322   2.687   5.576  1.4360  0.7797 -0.9570
 1411SOL    HW215867   2.456   2.730   5.617  0.4156 -1.0148 -1.1418
 1412SOL     OW15868   2.252   1.657   4.278  0.5872  0.1347 -0.1911
 1412SOL    HW115869   2.263   1.599   4.353 -2.4936  1.6808  1.4747
 1412SOL    HW215870   2.178   1.712   4.304  0.1933 -0.8457  0.7479
 1413SOL     OW15871   2.828   3.117   5.438  0.0154 -0.4401 -0.1480
 1413SOL    HW115872   2.803   3.036   5.393  1.1632 -0.8949  0.0268
 1413SOL    HW215873   2.896   3.075   5.491  2.2255  0.1751 -2.4387
 1414SOL     OW15874   3.914   0.723   4.833 -0.1627  0.3403  0.5061
 1414SOL    HW115875   3.850   0.770   4.781 -1.3165 -0.5598  1.1021
 1414SOL    HW215876   3.910   0.641   4.784 -3.2666  0.7839  0.0300
 1415SOL     OW15877   0.761   0.617  17.502 -0.0306 -0.8858  0.1703
 1415SOL    HW115878   0.849   0.611  17.541  1.0963  2.0538 -1.8939
 1415SOL    HW215879   0.708   0.545  17.535 -0.4579 -0.3937  0.5694
 1416SOL     OW15880   0.233   2.005   2.943  0.4141  0.1679 -0.2899
 1416SOL    HW115881   0.184   2.016   2.862 -0.6668  1.1607  0.4984
 1416SOL    HW215882   0.197   1.927   2.984  0.8141  0.8694  1.4280
 1417SOL     OW15883   2.180   0.273   3.850  0.3436  0.2809 -0.3415
 1417SOL    HW115884   2.267   0.233   3.851  0.0122 -0.4803 -2.8085
 1417SOL    HW215885   2.203   0.362   3.822  0.3259  0.3635 -0.1032
 1418SOL     OW15886   0.689   3.644   6.901  0.1274  0.3872  0.2359
 1418SOL    HW115887   0.757   3.708   6.883  0.0421  0.0679 -1.2148
 1418SOL    HW215888   0.706   3.627   6.994  0.2366  0.5219  0.2397
 1419SOL     OW15889   1.387   1.583   3.979  0.4069 -0.5234 -0.6316
 1419SOL    HW115890   1.358   1.670   3.950 -1.1134 -1.7963 -2.8831
 1419SOL    HW215891   1.349   1.540   3.903 -1.0243  1.3977 -1.0199
 1420SOL     OW15892   1.139   3.284   5.922 -0.3011 -0.4254 -0.0141
 1420SOL    HW115893   1.048   3.300   5.946  0.2345  1.3282  0.8966
 1420SOL    HW215894   1.139   3.212   5.860  0.0082 -0.5027  0.0775
 1421SOL     OW15895   3.717   1.989  17.044  0.0848  0.2804  0.7754
 1421SOL    HW115896   3.631   2.009  17.079 -0.6930  0.1094 -1.0096
 1421SOL    HW215897   3.739   1.911  17.094 -0.8864 -0.3633  0.1980
 1422SOL     OW15898   2.449   0.639   7.493  0.3735 -0.1972  0.2995
 1422SOL    HW115899   2.376   0.685   7.536 -0.7028 -0.9303 -0.7340
 1422SOL    HW215900   2.488   0.714   7.448 -0.2300  1.2054  2.0774
 1423SOL     OW15901   2.611   3.836   9.978  0.2924  0.6124 -0.1768
 1423SOL    HW115902   2.631   3.865  10.067  3.4535 -1.3895 -0.2636
 1423SOL    HW215903   2.630   3.743   9.993  2.0367  1.0381  0.2382
 1424SOL     OW15904   0.433   0.797  15.502 -0.2417 -0.0217  0.1966
 1424SOL    HW115905   0.422   0.840  15.587 -1.5005 -0.2079  0.1384
 1424SOL    HW215906   0.365   0.732  15.522  0.1284  0.5348  3.2638
 1425SOL     OW15907   0.259   1.592  10.049 -0.0787  0.2520  0.0941
 1425SOL    HW115908   0.176   1.548  10.068 -0.7503  2.5269  2.4402
 1425SOL    HW215909   0.240   1.681  10.079 -1.2400 -0.5657  1.8026
 1426SOL     OW15910   2.265   2.718   5.139  0.5425  0.0118 -0.3637
 1426SOL    HW115911   2.337   2.694   5.196  0.6013  4.1380  1.3211
 1426SOL    HW215912   2.296   2.681   5.056  1.4545 -0.6545  0.2809
 1427SOL     OW15913   1.541   3.460  12.651 -0.1192 -0.6436  0.7357
 1427SOL    HW115914   1.508   3.403  12.581 -1.5462  1.5785 -0.3926
 1427SOL    HW215915   1.468   3.481  12.709 -0.9762 -2.4499  0.3316
 1428SOL     OW15916   3.255   3.985  14.193 -0.1713 -0.3507  0.1650
 1428SOL    HW115917   3.244   4.065  14.244 -0.1677  1.0875 -2.0872
 1428SOL    HW215918   3.224   4.004  14.104 -2.8342  0.3108  1.2492
 1429SOL     OW15919   3.349   4.174   8.655 -0.3258  0.1648 -0.0767
 1429SOL    HW115920   3.269   4.124   8.640 -1.5381  1.6207  1.5408
 1429SOL    HW215921   3.306   4.254   8.684 -0.7981  0.3168 -1.2076
 1430SOL     OW15922   2.938   0.773   7.026 -0.0815 -0.3510  0.0091
 1430SOL    HW115923   2.864   0.711   7.028  0.8308 -1.3863  1.4779
 1430SOL    HW215924   2.895   0.858   7.037 -0.1027 -0.4084  0.3645
 1431SOL     OW15925   0.402   2.570  14.020 -0.3986  0.1904 -0.8707
 1431SOL    HW115926   0.419   2.654  13.977  0.9700  0.5555  0.4021
 1431SOL    HW215927   0.448   2.517  13.955  2.2072 -1.4302  2.2913
 1432SOL     OW15928   4.476   0.490   0.939  0.0573 -0.0153 -0.0414
 1432SOL    HW115929   4.504   0.491   1.031 -1.1119 -0.1274  0.3215
 1432SOL    HW215930   4.540   0.422   0.921 -0.3429 -0.3324 -0.2769
 1433SOL     OW15931   3.976   1.606   9.105 -0.0103  0.1700  0.1385
 1433SOL    HW115932   3.889   1.629   9.138 -1.5414 -3.5278 -1.3567
 1433SOL    HW215933   4.032   1.676   9.138 -0.2840 -0.2967  1.5759
 1434SOL     OW15934   4.042   1.947   3.894  0.3546  0.9341 -0.0761
 1434SOL    HW115935   4.022   1.930   3.803 -0.2639  0.8451  0.0801
 1434SOL    HW215936   3.962   1.906   3.927  1.0589 -0.0478  0.4035
 1435SOL     OW15937   4.488   0.394   7.066  0.0464 -0.5040  0.1954
 1435SOL    HW115938   4.575   0.423   7.093  0.6157 -1.5134 -0.5515
 1435SOL    HW215939   4.442   0.380   7.148  3.0247 -0.5604  1.8498
 1436SOL     OW15940   1.642   1.842   4.341 -0.5966  0.5146  1.0659
 1436SOL    HW115941   1.584   1.917   4.325 -0.3127  0.8839  1.7726
 1436SOL    HW215942   1.589   1.789   4.401 -0.1044 -0.8968  0.2556
 1437SOL     OW15943   1.692   0.162   1.961  0.2283  0.3861 -0.0013
 1437SOL    HW115944   1.744   0.139   2.038  1.6217  1.9110 -0.5050
 1437SOL    HW215945   1.656   0.249   1.980  0.6158  0.4382  0.5067
 1438SOL     OW15946   4.726   4.713   4.739 -0.3629 -0.0129 -0.3761
 1438SOL    HW115947   0.081   4.686   4.754 -0.7760  0.6388  3.2768
 1438SOL    HW215948   4.682   4.643   4.787  1.3600 -0.9579 -0.1871
 1439SOL     OW15949   2.757   1.605  13.924  0.2183  0.2325 -0.1106
 1439SOL    HW115950   2.731   1.515  13.902  3.5914 -1.0542  1.0730
 1439SOL    HW215951   2.690   1.657  13.879  0.1162 -0.4141 -0.7143
 1440SOL     OW15952   3.736   4.605   6.949  0.1740 -0.2017  0.1487
 1440SOL    HW115953   3.824   4.612   6.911 -0.9940 -0.6236 -2.5970
 1440SOL    HW215954   3.760   4.612   7.042  3.5022 -0.5631 -0.6567
 1441SOL     OW15955   1.802   3.107   2.505 -0.3500  0.2207 -0.1588
 1441SOL    HW115956   1.809   3.139   2.415  2.3697 -0.9856 -0.3802
 1441SOL    HW215957   1.861   3.032   2.504 -1.4470 -0.6642  0.7495
 1442SOL     OW15958   2.474   0.549   8.927 -0.1908 -0.7993 -0.5928
 1442SOL    HW115959   2.398   0.556   8.984  2.6677 -0.3039  3.1368
 1442SOL    HW215960   2.533   0.611   8.970  0.0980 -1.5344  0.0563
 1443SOL     OW15961   1.453   2.811   5.729 -0.2255 -0.3438  0.1254
 1443SOL    HW115962   1.384   2.873   5.706  0.5908  0.6991  0.4934
 1443SOL    HW215963   1.406   2.737   5.768 -1.1575  0.2271  0.1034
 1444SOL     OW15964   2.932   1.490   7.915  0.4017 -0.0712  0.6642
 1444SOL    HW115965   2.894   1.404   7.935  1.2721 -0.8139 -0.8871
 1444SOL    HW215966   2.997   1.491   7.985  0.1957 -1.7219  0.8935
 1445SOL     OW15967   3.603   2.502   9.772  0.0354 -0.4536  0.0596
 1445SOL    HW115968   3.654   2.466   9.699 -1.6784 -2.5611 -0.0501
 1445SOL    HW215969   3.603   2.598   9.767  0.0690 -0.6483 -3.8248
 1446SOL     OW15970   2.217   1.319  16.736  0.3429 -0.1424  0.0078
 1446SOL    HW115971   2.301   1.275  16.727  0.1439 -0.7769  1.2423
 1446SOL    HW215972   2.161   1.241  16.742 -1.1861  0.8938 -0.7740
 1447SOL     OW15973   0.881   3.056   6.652  0.5929  0.0541  0.4667
 1447SOL    HW115974   0.963   3.105   6.644  1.5659 -1.6579 -0.1444
 1447SOL    HW215975   0.845   3.094   6.732 -1.1666 -0.2365 -0.1939
 1448SOL     OW15976   3.570   1.276  13.828 -0.0603  0.2544  0.5324
 1448SOL    HW115977   3.539   1.367  13.830  0.3164  0.4319 -1.5275
 1448SOL    HW215978   3.664   1.295  13.833  0.1369 -0.8550  1.0179
 1449SOL     OW15979   3.525   3.720  15.638 -0.5351 -0.0164 -0.5187
 1449SOL    HW115980   3.569   3.794  15.680  0.0235 -1.0653  0.7364
 1449SOL    HW215981   3.553   3.733  15.548  2.0728  1.6796  0.5270
 1450SOL     OW15982   0.714   3.838   5.672  0.0581  0.3755 -0.1796
 1450SOL    HW115983   0.652   3.766   5.662 -0.8618  1.1086  0.3348
 1450SOL    HW215984   0.654   3.903   5.708  0.5904  0.4333  0.6152
 1451SOL     OW15985   3.114   3.699   2.143 -0.2319 -0.1606  0.1115
 1451SOL    HW115986   3.136   3.739   2.059  0.7994  1.2179  1.0273
 1451SOL    HW215987   3.118   3.604   2.135  1.0161  0.0532 -1.8283
 1452SOL     OW15988   3.428   2.105   6.381 -0.4011  0.0722 -0.6141
 1452SOL    HW115989   3.507   2.138   6.338  0.3070  0.0063  0.6169
 1452SOL    HW215990   3.434   2.018   6.342 -0.1404 -0.0712 -0.2617
 1453SOL     OW15991   1.474   4.386   2.307  0.2677  0.1583  0.2126
 1453SOL    HW115992   1.462   4.294   2.329 -1.6034 -0.1555 -2.1284
 1453SOL    HW215993   1.384   4.411   2.287  0.3387  0.7130  0.5929
 1454SOL     OW15994   0.575   0.820   8.538  0.3377 -0.2500 -0.1169
 1454SOL    HW115995   0.575   0.907   8.497 -2.1262 -0.8134 -1.3388
 1454SOL    HW215996   0.656   0.823   8.588 -0.4732  3.7961  0.9649
 1455SOL     OW15997   1.971   3.419   9.549  0.0595 -0.0854 -0.3748
 1455SOL    HW115998   2.029   3.406   9.624 -0.2418  1.0693  0.0451
 1455SOL    HW215999   1.908   3.481   9.585  0.2155 -0.4610  0.5655
 1456SOL     OW16000   1.083   0.831   7.983  0.4126  0.2685  0.6153
 1456SOL    HW116001   1.088   0.794   7.895 -1.0690 -2.0792  1.4929
 1456SOL    HW216002   1.120   0.762   8.039  0.2657 -0.0774  0.2825
 1457SOL     OW16003   1.888   3.174  11.144  0.1121  0.1510  0.1947
 1457SOL    HW116004   1.802   3.152  11.180 -0.3569 -0.1201 -1.0720
 1457SOL    HW216005   1.937   3.225  11.208  2.6319 -0.4297 -1.2706
 1458SOL     OW16006   3.530   3.083   2.962  0.6147  0.0608  0.2603
 1458SOL    HW116007   3.550   2.991   2.981 -0.0899 -0.0885  0.3043
 1458SOL    HW216008   3.491   3.066   2.876  0.8333  0.6745  0.0393
 1459SOL     OW16009   1.268   1.113   1.358 -0.4184 -0.5646  0.1261
 1459SOL    HW116010   1.328   1.038   1.362  0.5304  0.1883 -0.0801
 1459SOL    HW216011   1.208   1.087   1.288  0.2053 -0.7142 -0.3477
 1460SOL     OW16012   4.171   3.700   6.275  0.0284 -0.0308 -0.1696
 1460SOL    HW116013   4.096   3.716   6.217 -0.6745  0.2001  0.8140
 1460SOL    HW216014   4.141   3.695   6.366  0.5853 -1.0101 -0.0388
 1461SOL     OW16015   2.832   4.072  11.166 -0.0946 -0.2680 -0.0517
 1461SOL    HW116016   2.784   4.125  11.229 -2.3351 -2.4984  0.1406
 1461SOL    HW216017   2.796   4.108  11.085  0.2345 -1.9326 -0.9376
 1462SOL     OW16018   1.915   4.579   6.392  0.4691  0.4502 -0.0988
 1462SOL    HW116019   1.927   4.604   6.300  1.5194  1.7845  0.3885
 1462SOL    HW216020   1.820   4.575   6.402  0.6515  0.9292  1.9317
 1463SOL     OW16021   4.549   0.496   2.584 -0.4734 -0.2736  0.8909
 1463SOL    HW116022   4.636   0.475   2.549 -1.2025 -0.5405 -0.7164
 1463SOL    HW216023   4.559   0.443   2.663 -0.8361 -0.2223  0.9689
 1464SOL     OW16024   4.148   4.503   2.115  0.4403 -0.3816  0.1937
 1464SOL    HW116025   4.111   4.453   2.042  1.1909  0.0914 -0.5036
 1464SOL    HW216026   4.142   4.595   2.089  0.2158 -0.2383  0.7440
 1465SOL     OW16027   0.793   0.166   6.017  0.1603  0.4538  0.3633
 1465SOL    HW116028   0.716   0.155   5.961 -0.5551 -1.1783  1.6866
 1465SOL    HW216029   0.837   0.082   6.012  0.3207  0.5099  0.9238
 1466SOL     OW16030   4.726   3.569   6.635  0.9144 -0.5074  0.2764
 1466SOL    HW116031   4.631   3.572   6.632  0.9739 -1.5252 -2.6106
 1466SOL    HW216032   0.016   3.656   6.607  1.0006  0.2372  2.6410
 1467SOL     OW16033   2.266   3.839   8.446 -0.4733 -0.0895 -0.4703
 1467SOL    HW116034   2.200   3.823   8.514  1.3219 -0.8051  1.1085
 1467SOL    HW216035   2.224   3.909   8.397  0.1539 -1.2876 -2.6987
 1468SOL     OW16036   2.794   1.594   6.579 -0.1267  0.4609  0.8060
 1468SOL    HW116037   2.769   1.669   6.633  4.0095  2.3504  0.0610
 1468SOL    HW216038   2.769   1.522   6.636 -1.4310 -1.3080 -1.9917
 1469SOL     OW16039   2.691   0.621   7.040 -0.1030 -0.4006  0.0992
 1469SOL    HW116040   2.706   0.616   7.134  0.4279  0.1423  0.0480
 1469SOL    HW216041   2.715   0.532   7.016  2.2194  0.2552 -0.0022
 1470SOL     OW16042   1.154   3.315   3.946  0.3070  0.0841  0.4992
 1470SOL    HW116043   1.089   3.260   3.988  0.4324  0.4690  1.1933
 1470SOL    HW216044   1.103   3.372   3.888 -0.3174  0.3519  1.3113
 1471SOL     OW16045   1.378   4.176   9.560  0.5711  0.8278  0.3350
 1471SOL    HW116046   1.430   4.129   9.626  0.2283 -1.6054 -1.1172
 1471SOL    HW216047   1.296   4.193   9.606 -0.5966 -0.0604 -1.3919
 1472SOL     OW16048   0.265   2.268   2.430 -0.5078  0.1031 -0.1103
 1472SOL    HW116049   0.356   2.242   2.424 -1.1996 -2.4531  0.6590
 1472SOL    HW216050   0.218   2.185   2.426 -0.3432 -0.0550  1.3604
 1473SOL     OW16051   4.349   4.408  11.721 -0.6322 -0.4266  0.0123
 1473SOL    HW116052   4.272   4.427  11.774 -0.8235  0.7789 -0.6889
 1473SOL    HW216053   4.409   4.448  11.784 -0.1263 -0.7144 -0.2793
 1474SOL     OW16054   1.755   0.601   1.778 -0.1318 -0.2209  0.0844
 1474SOL    HW116055   1.788   0.683   1.740 -1.3582 -0.9353 -2.5853
 1474SOL    HW216056   1.745   0.628   1.869 -1.1374  1.9287 -0.6519
 1475SOL     OW16057   0.826   3.456  15.461  0.0529  0.3894 -0.5086
 1475SOL    HW116058   0.916   3.428  15.444  0.5578  0.7081  1.7035
 1475SOL    HW216059   0.819   3.520  15.390  0.4197  1.3032  0.2794
 1476SOL     OW16060   4.011   4.002   1.372  0.0402  0.4151 -0.4988
 1476SOL    HW116061   4.027   4.064   1.443 -0.0200  1.2070 -1.1708
 1476SOL    HW216062   4.055   4.050   1.302  2.5171  0.6975  1.2830
 1477SOL     OW16063   2.605   1.959   3.700 -0.5198  0.3442  0.9565
 1477SOL    HW116064   2.645   1.886   3.748  1.7603  1.7200  1.1870
 1477SOL    HW216065   2.590   1.915   3.617 -1.1522  1.5279  0.4539
 1478SOL     OW16066   1.844   4.537   3.677 -0.1299 -0.3266 -0.2093
 1478SOL    HW116067   1.804   4.450   3.667  0.6275 -0.6738 -0.1811
 1478SOL    HW216068   1.784   4.580   3.739  0.8718 -0.9247  1.1778
 1479SOL     OW16069   3.311   0.140   7.184 -0.0617 -0.0542  0.2521
 1479SOL    HW116070   3.290   0.048   7.166  2.3000 -1.0184  2.4783
 1479SOL    HW216071   3.248   0.186   7.129 -1.4686 -1.3703  0.7512
 1480SOL     OW16072   4.682   3.800   5.832 -0.9322 -0.7339  0.1825
 1480SOL    HW116073   4.588   3.784   5.832 -1.5114  2.6148  0.9885
 1480SOL    HW216074   4.673   3.894   5.849  0.1103 -0.5485 -0.2945
 1481SOL     OW16075   2.184   0.530  16.087  0.3085 -0.2011  0.0394
 1481SOL    HW116076   2.171   0.607  16.033  0.2952 -0.6338 -0.5712
 1481SOL    HW216077   2.094   0.500  16.100  0.1896 -0.0606 -0.4622
 1482SOL     OW16078   2.854   3.532   4.298  0.6240  0.0668  0.3779
 1482SOL    HW116079   2.787   3.514   4.364 -0.4189 -0.2907 -0.7756
 1482SOL    HW216080   2.926   3.486   4.341  0.2238 -0.9679 -0.0517
 1483SOL     OW16081   4.706   1.869   8.672 -0.1045 -0.3673  0.6639
 1483SOL    HW116082   4.656   1.789   8.682  0.1711 -0.6684 -0.2823
 1483SOL    HW216083   4.679   1.913   8.752  1.7955 -1.4171  1.8677
 1484SOL     OW16084   0.325   1.428  17.424 -0.0448 -0.6142 -0.1999
 1484SOL    HW116085   0.264   1.358  17.448  0.4922 -1.2773 -0.7880
 1484SOL    HW216086   0.271   1.484  17.369  0.6468 -0.1310 -0.4022
 1485SOL     OW16087   1.455   4.124  14.104 -0.1786 -0.3723  0.5355
 1485SOL    HW116088   1.517   4.051  14.111 -0.9903 -1.1086 -0.0102
 1485SOL    HW216089   1.408   4.102  14.024  2.5491 -2.2938 -0.5418
 1486SOL     OW16090   3.949   4.455   4.085 -0.0454  0.3680  0.1617
 1486SOL    HW116091   3.954   4.374   4.034  0.3921  1.3655 -1.3701
 1486SOL    HW216092   4.043   4.472   4.097 -0.1866  0.8136  0.6744
 1487SOL     OW16093   1.451   0.043   0.419  0.6920  0.1218 -0.5967
 1487SOL    HW116094   1.523   0.071   0.477  0.5163  1.7346 -1.1506
 1487SOL    HW216095   1.371   0.058   0.469  0.7735 -0.4978 -0.2743
 1488SOL     OW16096   2.618   2.256   1.771  0.2465 -0.1589  0.2145
 1488SOL    HW116097   2.658   2.172   1.796  0.1092 -0.7238 -1.4195
 1488SOL    HW216098   2.553   2.232   1.705  0.6521 -1.4134  0.2746
 1489SOL     OW16099   2.221   1.391   9.218 -0.6417  0.0993 -0.4490
 1489SOL    HW116100   2.149   1.367   9.276 -0.3781 -0.3407 -0.3055
 1489SOL    HW216101   2.219   1.321   9.153  0.8002  0.4763 -0.9051
 1490SOL     OW16102   3.819   1.580   3.285 -0.7382  0.3546  0.2201
 1490SOL    HW116103   3.768   1.654   3.252  0.5877  1.0555 -0.2840
 1490SOL    HW216104   3.779   1.575   3.371  2.6313 -0.1584  1.7644
 1491SOL     OW16105   0.629   2.949   2.031  0.2404  0.0150  0.1530
 1491SOL    HW116106   0.704   2.927   1.977  0.3888  1.4272 -0.2134
 1491SOL    HW216107   0.575   2.983   1.959  1.2276 -1.2643 -1.1706
 1492SOL     OW16108   3.462   0.939   1.717  0.4172  0.0166  0.5363
 1492SOL    HW116109   3.475   0.853   1.757  2.2765 -0.4773 -1.1518
 1492SOL    HW216110   3.384   0.966   1.766 -0.8755 -2.2624 -0.2065
 1493SOL     OW16111   3.543   3.321   4.715  0.3857  0.3711  0.2303
 1493SOL    HW116112   3.575   3.289   4.631  0.6041  1.2091 -0.0065
 1493SOL    HW216113   3.615   3.295   4.772  0.4877  0.4275  0.1278
 1494SOL     OW16114   4.445   1.013   4.621  0.3776 -0.2457  0.3517
 1494SOL    HW116115   4.428   0.926   4.658  1.3772 -0.2239  0.8470
 1494SOL    HW216116   4.389   1.011   4.543  1.6626 -0.0033 -0.5807
 1495SOL     OW16117   4.503   3.971  12.188  0.5077 -0.1694  1.1429
 1495SOL    HW116118   4.525   3.878  12.188  1.5306  0.0695 -1.2690
 1495SOL    HW216119   4.575   4.001  12.133  0.3444 -0.8760  0.5497
 1496SOL     OW16120   0.679   3.698   8.862 -0.4152  0.2748  0.1516
 1496SOL    HW116121   0.640   3.785   8.850  0.0451  0.4476 -0.0977
 1496SOL    HW216122   0.638   3.662   8.941 -2.5540  1.2308 -0.5432
 1497SOL     OW16123   4.237   3.533  13.852 -0.5458 -0.7508 -0.0797
 1497SOL    HW116124   4.216   3.453  13.901 -0.6787 -0.6710 -0.0072
 1497SOL    HW216125   4.159   3.587  13.865  0.7793  1.4232 -1.1395
 1498SOL     OW16126   1.373   4.039  16.377 -0.1466 -0.0027  0.2468
 1498SOL    HW116127   1.365   4.134  16.367  5.2692  0.3864 -0.0320
 1498SOL    HW216128   1.399   4.026  16.286  2.0686  2.7193  0.5048
 1499SOL     OW16129   2.380   0.361   7.512  0.6765 -0.5164  0.3940
 1499SOL    HW116130   2.405   0.453   7.522  4.2513 -1.6330  1.3398
 1499SOL    HW216131   2.445   0.340   7.445  1.8885 -0.5538  1.6072
 1500SOL     OW16132   2.102   0.768   6.564  0.6652  0.2395 -0.3136
 1500SOL    HW116133   2.103   0.703   6.634 -0.8447  1.4714  0.8467
 1500SOL    HW216134   2.186   0.749   6.521  0.6910 -2.2150  0.8474
 1501SOL     OW16135   2.181   2.635  13.868 -0.0756 -0.3008  0.2900
 1501SOL    HW116136   2.181   2.671  13.957 -3.7795  2.5287 -0.8352
 1501SOL    HW216137   2.096   2.593  13.853 -0.1582 -0.0865  0.1577
 1502SOL     OW16138   4.076   2.961  13.311 -0.2872 -0.3944  0.5215
 1502SOL    HW116139   4.134   2.988  13.240 -1.9361 -0.1933 -0.7338
 1502SOL    HW216140   4.037   3.047  13.327  0.5149 -0.1363  1.0962
 1503SOL     OW16141   1.549   2.986   2.943  0.0530 -0.4380  0.2078
 1503SOL    HW116142   1.456   2.975   2.961 -0.1798  0.8918 -0.2143
 1503SOL    HW216143   1.578   2.996   3.034  0.2237 -0.9110  0.2072
 1504SOL     OW16144   1.725   0.862   4.400  0.4867 -0.1415  0.9897
 1504SOL    HW116145   1.674   0.820   4.469  0.2580  1.2081  1.6432
 1504SOL    HW216146   1.802   0.813   4.426  1.8559  0.8987 -1.0982
 1505SOL     OW16147   2.473   0.966   7.706 -0.3601 -0.1908 -0.2182
 1505SOL    HW116148   2.456   0.993   7.797  3.2017  1.3778 -0.0111
 1505SOL    HW216149   2.568   0.976   7.715 -0.8346  2.2126  2.2935
 1506SOL     OW16150   2.712   3.704   5.812  0.0888  0.5515 -0.0155
 1506SOL    HW116151   2.633   3.735   5.857  0.7060  0.7563  0.9246
 1506SOL    HW216152   2.675   3.631   5.763  0.7806 -0.4592  0.9803
 1507SOL     OW16153   0.734   0.201   8.434  0.3894 -0.1146  0.2939
 1507SOL    HW116154   0.829   0.210   8.429  0.4050 -0.7655 -0.4724
 1507SOL    HW216155   0.718   0.110   8.410 -2.6657  0.4503  0.1212
 1508SOL     OW16156   1.451   2.471   1.889  0.2002  0.0614  0.4427
 1508SOL    HW116157   1.454   2.476   1.793 -0.6169 -1.0740  0.3433
 1508SOL    HW216158   1.490   2.556   1.907 -0.1246  0.3385 -0.1296
 1509SOL     OW16159   2.192   1.441  17.226  0.2260 -0.3134  0.2540
 1509SOL    HW116160   2.241   1.431  17.145  1.5360 -2.6679  1.3016
 1509SOL    HW216161   2.119   1.494  17.195  0.6422  0.8544  1.2432
 1510SOL     OW16162   3.993   0.959   6.117 -0.0052  0.0463 -0.0547
 1510SOL    HW116163   3.930   0.954   6.189  0.0773 -0.5225 -0.0171
 1510SOL    HW216164   3.946   0.941   6.036  0.9885  1.9364 -1.0463
 1511SOL     OW16165   1.632   0.804   1.496  0.0760  0.0816  0.2751
 1511SOL    HW116166   1.650   0.842   1.582 -0.1505  1.1472 -0.1450
 1511SOL    HW216167   1.690   0.855   1.440  0.7740  0.8007  1.6772
 1512SOL     OW16168   0.263   0.260   5.043  0.1714 -0.3787 -0.5639
 1512SOL    HW116169   0.225   0.344   5.071  0.8715  0.2314 -1.4421
 1512SOL    HW216170   0.225   0.247   4.956 -0.9822  2.2312 -0.4561
 1513SOL     OW16171   3.137   4.045  13.220 -0.5095  0.0899 -0.0832
 1513SOL    HW116172   3.052   4.089  13.213 -0.8256 -0.3299  1.0559
 1513SOL    HW216173   3.187   4.117  13.260  1.4907 -0.4681 -1.5720
 1514SOL     OW16174   3.352   3.716   8.104 -0.1501  0.0326 -0.6045
 1514SOL    HW116175   3.293   3.790   8.087 -0.0170  0.7844  2.1370
 1514SOL    HW216176   3.371   3.677   8.019  0.0236 -0.4058 -0.3636
 1515SOL     OW16177   2.809   4.490  13.929  0.5495 -0.2648  0.4825
 1515SOL    HW116178   2.724   4.528  13.950  0.8071 -0.2369  1.4540
 1515SOL    HW216179   2.802   4.416  13.990  2.5324 -1.3613 -0.6322
 1516SOL     OW16180   3.795   1.015   6.286 -0.0738 -0.8714 -0.8844
 1516SOL    HW116181   3.850   1.057   6.352  0.1146 -0.8954 -1.0266
 1516SOL    HW216182   3.751   1.091   6.249  0.6783  0.3410  0.7065
 1517SOL     OW16183   3.624   3.436   4.162  0.4455  0.3595  0.0643
 1517SOL    HW116184   3.712   3.432   4.124  0.0549  0.3220 -0.8216
 1517SOL    HW216185   3.629   3.523   4.200  0.4098  0.8143 -0.9801
 1518SOL     OW16186   1.851   0.765   0.481  0.2734 -0.5386 -0.0598
 1518SOL    HW116187   1.866   0.735   0.571  1.4457  0.5710  0.1148
 1518SOL    HW216188   1.940   0.791   0.456 -0.7460  2.7298 -0.2670
 1519SOL     OW16189   3.034   1.676  10.772 -0.7035 -0.2184  0.0161
 1519SOL    HW116190   3.031   1.583  10.749 -0.5601  0.0023 -0.9134
 1519SOL    HW216191   3.053   1.711  10.685 -2.6588  1.6979  0.3418
 1520SOL     OW16192   0.346   0.571   7.048 -0.2481  0.3898 -0.1793
 1520SOL    HW116193   0.434   0.594   7.020 -0.2744 -0.1372 -0.6941
 1520SOL    HW216194   0.330   0.640   7.112  0.0505  0.7067 -0.4484
 1521SOL     OW16195   3.472   2.152  16.803 -0.1301  0.1822 -0.4574
 1521SOL    HW116196   3.541   2.125  16.743  0.1425  1.3371 -0.6772
 1521SOL    HW216197   3.498   2.242  16.825 -1.9478  1.1609 -2.3193
 1522SOL     OW16198   3.185   4.000  16.612  0.2764 -0.0431 -0.1334
 1522SOL    HW116199   3.222   4.083  16.642  0.8442 -0.3494  0.0179
 1522SOL    HW216200   3.259   3.964  16.564  0.8240 -0.7124  1.1908
 1523SOL     OW16201   3.909   3.991   3.475  0.4567 -0.3312 -0.4652
 1523SOL    HW116202   3.869   4.017   3.558 -0.6043 -0.2367 -1.0097
 1523SOL    HW216203   3.985   4.050   3.477 -0.4408  0.8986 -3.1265
 1524SOL     OW16204   0.362   1.206   6.229  0.4998  0.4174  0.2135
 1524SOL    HW116205   0.418   1.176   6.158 -0.6125  0.2541 -0.5800
 1524SOL    HW216206   0.278   1.164   6.213  0.0840  1.2452  0.2025
 1525SOL     OW16207   3.874   4.418  16.165  0.1766 -0.4934 -0.4212
 1525SOL    HW116208   3.963   4.391  16.144  1.4563  1.5664  2.4010
 1525SOL    HW216209   3.830   4.409  16.080  0.8431 -1.5949 -0.6496
 1526SOL     OW16210   0.211   3.381  11.723 -0.0637 -0.2216 -0.1143
 1526SOL    HW116211   0.214   3.464  11.676  0.9827 -0.5003 -0.5514
 1526SOL    HW216212   0.267   3.391  11.800 -2.8311 -0.2188  1.9016
 1527SOL     OW16213   3.965   0.470   8.368  0.2305  0.1781 -0.5617
 1527SOL    HW116214   3.962   0.439   8.458  0.2171  2.0057  0.0713
 1527SOL    HW216215   4.011   0.399   8.323 -0.9382  0.3953 -2.1300
 1528SOL     OW16216   2.120   0.017   5.999  0.1244 -0.0179  0.3195
 1528SOL    HW116217   2.080   0.096   5.965  0.3826 -1.0000 -2.2293
 1528SOL    HW216218   2.213   0.041   6.000 -0.1172  0.8142  2.4075
 1529SOL     OW16219   3.131   1.081   3.973 -0.0991  0.2449  0.3514
 1529SOL    HW116220   3.221   1.108   3.991 -0.5151  2.1271 -0.4102
 1529SOL    HW216221   3.147   0.987   3.981  0.4158  0.3523  0.5534
 1530SOL     OW16222   2.543   4.456   0.397 -0.4188 -0.4097 -0.1288
 1530SOL    HW116223   2.510   4.369   0.418 -2.6356  0.5247  0.2554
 1530SOL    HW216224   2.461   4.501   0.416  0.1955  0.9553 -0.7376
 1531SOL     OW16225   2.357   2.149   5.522  0.1426  0.4678 -0.1523
 1531SOL    HW116226   2.389   2.237   5.500  2.1623 -0.2285  0.0062
 1531SOL    HW216227   2.315   2.173   5.605  1.0994 -0.4044  0.5867
 1532SOL     OW16228   4.026   0.049   4.926  0.7038 -0.1736  0.8067
 1532SOL    HW116229   4.099   0.001   4.888  1.0033 -0.4794  1.7816
 1532SOL    HW216230   3.955   4.721   4.914 -0.5066  1.4364 -0.6038
 1533SOL     OW16231   4.056   4.442  14.144 -0.0310 -0.0628  0.5147
 1533SOL    HW116232   4.142   4.416  14.111 -0.7538 -0.6969 -0.8837
 1533SOL    HW216233   4.062   4.535  14.168  1.9322  0.0335 -0.3406
 1534SOL     OW16234   1.916   0.354   7.021 -0.1339 -0.1433  0.0797
 1534SOL    HW116235   1.914   0.267   7.061  2.5291  0.7287  2.1146
 1534SOL    HW216236   1.909   0.336   6.927 -1.8816 -1.1033  0.3923
 1535SOL     OW16237   1.796   4.677   0.086  0.3646  0.1815 -0.5592
 1535SOL    HW116238   1.704   4.685   0.060  0.4065  0.2658 -0.6808
 1535SOL    HW216239   1.849   0.013   0.050  0.4759 -0.8963 -2.5104
 1536SOL     OW16240   3.397   0.996   3.366 -0.2527  0.4604 -0.0920
 1536SOL    HW116241   3.418   1.020   3.275 -0.6794  0.1387 -0.2745
 1536SOL    HW216242   3.444   0.913   3.374  0.4613  0.9443  0.7796
 1537SOL     OW16243   1.270   3.486   9.468  0.7559  0.3430 -0.0421
 1537SOL    HW116244   1.326   3.564   9.478 -0.4740  1.1498  0.5465
 1537SOL    HW216245   1.243   3.474   9.558 -1.6886  2.5309 -0.4757
 1538SOL     OW16246   1.645   1.646   6.981 -0.4614 -0.1058 -0.2516
 1538SOL    HW116247   1.653   1.613   6.891  0.9604  0.3917 -0.2946
 1538SOL    HW216248   1.693   1.729   6.978 -0.8100  0.1140  0.2918
 1539SOL     OW16249   1.996   1.037   6.590  0.4172 -0.1935 -1.3072
 1539SOL    HW116250   2.077   1.060   6.636  1.3360  0.5212 -3.2806
 1539SOL    HW216251   2.006   0.943   6.575  2.1593 -0.3514  0.7999
 1540SOL     OW16252   1.813   2.769   3.824 -0.0781  0.6491 -0.0826
 1540SOL    HW116253   1.762   2.789   3.903 -0.3008 -0.8777  0.1491
 1540SOL    HW216254   1.818   2.851   3.774 -1.0780  0.8333  0.1299
 1541SOL     OW16255   0.318   0.451   4.503  0.3685  0.0871  0.2557
 1541SOL    HW116256   0.242   0.403   4.468  1.8673 -1.7261 -0.5303
 1541SOL    HW216257   0.296   0.540   4.475 -0.3116 -0.6528 -1.6245
 1542SOL     OW16258   0.720   2.136   5.545 -0.0063 -0.1458 -0.3029
 1542SOL    HW116259   0.752   2.100   5.462  2.2665  3.0340 -0.8085
 1542SOL    HW216260   0.625   2.138   5.533  0.0564  0.6333 -0.6479
 1543SOL     OW16261   1.125   4.126   4.942  0.0038 -0.6460  0.5428
 1543SOL    HW116262   1.075   4.130   4.860  0.8353 -3.3151 -0.0871
 1543SOL    HW216263   1.053   4.113   5.004 -1.1039  0.2516 -0.5336
 1544SOL     OW16264   0.586   3.840  17.184 -1.3205  0.9541 -0.0430
 1544SOL    HW116265   0.553   3.781  17.251 -3.4740  2.2574  0.0453
 1544SOL    HW216266   0.658   3.887  17.226 -0.5657 -0.3665  0.1561
 1545SOL     OW16267   3.407   0.699  11.702 -0.1651 -0.8014 -0.1396
 1545SOL    HW116268   3.375   0.730  11.618 -0.6493  0.7895  0.6345
 1545SOL    HW216269   3.498   0.677  11.684  0.6391  1.3857  1.2397
 1546SOL     OW16270   0.446   1.236   3.039 -0.3662  0.0737  0.5939
 1546SOL    HW116271   0.358   1.246   3.003  0.4214  1.0640 -1.0523
 1546SOL    HW216272   0.499   1.227   2.960  0.2237 -1.9150  1.2268
 1547SOL     OW16273   3.629   2.362  17.681  0.1442  0.1595 -0.2064
 1547SOL    HW116274   3.653   2.274  17.711 -2.8543 -0.3716  0.5586
 1547SOL    HW216275   3.686   2.417  17.735 -3.4286  2.2410  1.4421
 1548SOL     OW16276   1.181   1.633   4.689  0.0212  0.3535 -0.2866
 1548SOL    HW116277   1.238   1.709   4.704  2.4067 -1.2422 -1.1920
 1548SOL    HW216278   1.133   1.614   4.769 -1.9156 -0.2442 -1.5920
 1549SOL     OW16279   2.104   4.287   5.310  0.3241  0.2061  0.0674
 1549SOL    HW116280   2.015   4.270   5.341  0.6324 -0.1207  0.7737
 1549SOL    HW216281   2.090   4.372   5.269  2.2696  0.9710  0.9869
 1550SOL     OW16282   0.655   0.291  10.750 -0.1178 -0.0730  0.6525
 1550SOL    HW116283   0.592   0.252  10.690 -0.9877 -0.6711  1.9693
 1550SOL    HW216284   0.704   0.353  10.695 -0.1613  0.7144  1.4945
 1551SOL     OW16285   0.430   3.734   7.997  0.7205 -0.3463  0.5670
 1551SOL    HW116286   0.400   3.783   7.921 -2.5035 -1.9950  0.7719
 1551SOL    HW216287   0.517   3.709   7.967  0.6370  1.6660 -1.3399
 1552SOL     OW16288   2.708   4.274  11.346 -0.0099 -0.0904 -0.3064
 1552SOL    HW116289   2.691   4.368  11.339 -1.9835 -0.5773 -2.2076
 1552SOL    HW216290   2.758   4.270  11.428 -0.7272 -0.1107  0.1366
 1553SOL     OW16291   1.885   0.805   2.173  0.3045 -0.7376  0.2793
 1553SOL    HW116292   1.918   0.862   2.103  0.6100  0.3462  1.2959
 1553SOL    HW216293   1.922   0.851   2.249 -2.8046  0.1357  1.2699
 1554SOL     OW16294   3.605   2.951  11.436  0.1067 -0.4669 -0.0675
 1554SOL    HW116295   3.558   2.887  11.383 -1.5370 -0.3900  1.2939
 1554SOL    HW216296   3.542   3.018  11.460 -1.4692 -1.6365 -0.9566
 1555SOL     OW16297   3.229   2.172   6.934 -0.2064  0.1662  0.3224
 1555SOL    HW116298   3.256   2.082   6.950  2.8077  1.5060  2.8502
 1555SOL    HW216299   3.182   2.179   7.017 -0.0155 -0.8750  0.5173
 1556SOL     OW16300   1.904   0.267   6.768  0.3139 -0.4677 -0.0715
 1556SOL    HW116301   1.935   0.186   6.727  0.3194 -0.7385  0.4686
 1556SOL    HW216302   1.879   0.320   6.692 -1.5786 -1.4544 -0.1290
 1557SOL     OW16303   0.196   1.449   2.001  0.0882 -0.3119 -0.6573
 1557SOL    HW116304   0.152   1.468   2.084  1.9575  2.1459 -0.2473
 1557SOL    HW216305   0.185   1.354   1.998  1.9059 -0.5333 -0.3835
 1558SOL     OW16306   0.514   4.336   2.722  0.0717 -0.0726 -0.0566
 1558SOL    HW116307   0.442   4.366   2.667  0.2203  0.4190  0.0147
 1558SOL    HW216308   0.511   4.240   2.727  0.0847  0.1176  3.5497
 1559SOL     OW16309   4.637   0.063  11.973  0.1469  0.4020 -0.2894
 1559SOL    HW116310   4.599   0.046  12.060 -0.6508 -3.4890 -1.3678
 1559SOL    HW216311   4.721   0.026  12.001 -1.1756 -0.6465  2.3288
 1560SOL     OW16312   3.952   0.086   8.855  0.3032 -0.1336  0.0843
 1560SOL    HW116313   3.990   0.100   8.768  0.6076  0.7342  0.3556
 1560SOL    HW216314   3.858   0.083   8.839  0.1129  0.6341  1.1350
 1561SOL     OW16315   3.766   4.045   7.778  0.5951 -0.0679  0.3489
 1561SOL    HW116316   3.695   4.029   7.840  1.1119  2.3166  1.5550
 1561SOL    HW216317   3.842   4.051   7.835  0.5512  2.8844  0.0670
 1562SOL     OW16318   2.783   3.313  14.616  0.0906  0.0939 -0.4348
 1562SOL    HW116319   2.794   3.265  14.534  0.0610  0.2700 -0.5426
 1562SOL    HW216320   2.834   3.390  14.588  0.7013 -0.1411  0.0194
 1563SOL     OW16321   1.720   3.371   7.715 -0.4602  0.8554  0.1195
 1563SOL    HW116322   1.815   3.379   7.722 -0.0745 -1.2427 -2.4748
 1563SOL    HW216323   1.707   3.295   7.658  0.6886  0.9104 -0.2065
 1564SOL     OW16324   1.276   0.468   5.019 -0.1374 -0.3983 -0.0877
 1564SOL    HW116325   1.262   0.438   5.109  0.6517 -1.4244 -0.3034
 1564SOL    HW216326   1.352   0.420   4.986  0.8503  1.0775  0.0222
 1565SOL     OW16327   3.000   4.532   4.308 -0.2033 -0.1055  0.1084
 1565SOL    HW116328   3.046   4.473   4.368  1.8039  1.7122  0.3928
 1565SOL    HW216329   3.075   4.569   4.260 -1.4703 -1.3250 -2.7314
 1566SOL     OW16330   1.988   0.054   1.284 -0.1384  0.4408 -0.4780
 1566SOL    HW116331   1.918   0.037   1.348 -0.0568  1.5420 -0.1082
 1566SOL    HW216332   2.072   0.047   1.329 -0.1586  2.1337 -0.1706
 1567SOL     OW16333   2.358   1.275   4.419 -0.2799 -0.1909  0.8009
 1567SOL    HW116334   2.302   1.346   4.451 -1.4269 -1.2518  1.1534
 1567SOL    HW216335   2.440   1.322   4.430  1.1132 -2.4527  0.0872
 1568SOL     OW16336   0.784   4.328   2.881  0.1032  0.8314 -0.6984
 1568SOL    HW116337   0.707   4.279   2.852  0.6232 -0.1314 -0.4436
 1568SOL    HW216338   0.843   4.260   2.913  2.1595  1.9018 -2.2328
 1569SOL     OW16339   1.438   2.018   4.294 -0.6205 -0.0084  0.6082
 1569SOL    HW116340   1.459   2.095   4.240 -1.7656 -1.1780 -1.5164
 1569SOL    HW216341   1.441   2.060   4.380  0.9860  0.0606  0.5034
 1570SOL     OW16342   4.070   4.102   7.254 -0.3649 -0.1317 -0.3033
 1570SOL    HW116343   4.030   4.189   7.255  0.2392  0.1548 -0.8923
 1570SOL    HW216344   4.143   4.121   7.195 -1.3800  4.0639 -0.2000
 1571SOL     OW16345   0.052   0.794  13.931 -0.1092 -0.7808 -0.0391
 1571SOL    HW116346   0.034   0.844  13.851 -1.7368  0.8783  1.3629
 1571SOL    HW216347   4.717   0.729  13.932  0.8055 -1.7593 -0.9918
 1572SOL     OW16348   3.232   0.023   5.186  0.2416 -0.3283 -0.0406
 1572SOL    HW116349   3.235   0.118   5.173  2.3289  0.0187  2.9710
 1572SOL    HW216350   3.225   4.727   5.096  0.1972 -0.7903  0.1194
 1573SOL     OW16351   2.925   4.673   4.626 -0.1852 -0.4633  0.6339
 1573SOL    HW116352   2.937   0.011   4.687 -2.3681  1.7760 -1.6210
 1573SOL    HW216353   3.008   4.679   4.579 -0.6627 -1.3353 -0.3050
 1574SOL     OW16354   3.319   4.181   5.928 -0.4525 -0.3073 -0.3191
 1574SOL    HW116355   3.336   4.137   5.845 -1.9992  2.5187 -2.1352
 1574SOL    HW216356   3.286   4.102   5.972 -1.0000 -1.1623 -2.2492
 1575SOL     OW16357   3.267   0.712  10.423 -0.4636 -0.4998  0.2707
 1575SOL    HW116358   3.329   0.685  10.491 -2.3246 -3.4401  0.8181
 1575SOL    HW216359   3.180   0.688  10.457  0.9377 -0.5932  3.7938
 1576SOL     OW16360   3.007   4.628  14.466 -0.3551  0.7004  0.3828
 1576SOL    HW116361   2.967   4.657  14.384 -0.3253  0.0016  0.1218
 1576SOL    HW216362   3.003   4.711  14.514  0.9317  1.3473 -0.6248
 1577SOL     OW16363   1.143   3.637   2.963 -0.1281  0.1511  0.4405
 1577SOL    HW116364   1.144   3.652   3.058 -1.5100 -2.6691  0.8849
 1577SOL    HW216365   1.056   3.667   2.935 -0.8035 -1.4040  0.9067
 1578SOL     OW16366   3.375   3.727   5.999  0.7629  0.7857  0.5369
 1578SOL    HW116367   3.323   3.785   5.943  0.7733 -1.7583 -2.1103
 1578SOL    HW216368   3.453   3.781   6.013 -0.0165  1.6752  1.5273
 1579SOL     OW16369   2.980   4.664  10.009  0.0921  0.6169  0.3297
 1579SOL    HW116370   3.051   4.622   9.961 -1.0386  0.6822 -1.4314
 1579SOL    HW216371   2.902   4.619   9.978  1.2313  0.3709 -2.1849
 1580SOL     OW16372   1.356   4.488  17.728  0.1324 -0.2945  0.2511
 1580SOL    HW116373   1.391   4.557  17.671 -1.3049 -0.7574 -1.1999
 1580SOL    HW216374   1.396   4.512   0.073 -0.2905  0.7097  0.1598
 1581SOL     OW16375   4.317   3.956   3.775  0.0393 -0.2982 -0.2556
 1581SOL    HW116376   4.306   3.897   3.701 -3.2769 -0.3743  0.2983
 1581SOL    HW216377   4.256   3.922   3.840  1.6172 -1.5855  0.5393
 1582SOL     OW16378   1.324   4.087   8.846  0.1801  0.2640  0.0713
 1582SOL    HW116379   1.390   4.123   8.904  0.8448 -0.6789 -0.0974
 1582SOL    HW216380   1.332   3.992   8.856 -0.6785  0.1148 -0.5887
 1583SOL     OW16381   2.917   4.330  16.061  0.3960 -0.1816 -0.4564
 1583SOL    HW116382   2.848   4.324  16.126  1.9300  1.4437  1.3185
 1583SOL    HW216383   2.874   4.304  15.980  0.3351  1.8992 -1.0955
 1584SOL     OW16384   1.640   1.352   5.596 -0.4300  0.7443  0.2067
 1584SOL    HW116385   1.662   1.306   5.515  0.8684 -1.4830  1.8157
 1584SOL    HW216386   1.578   1.294   5.641  1.2750 -0.9620  0.3466
 1585SOL     OW16387   2.320   3.559  16.091  0.0890 -1.0322  0.2366
 1585SOL    HW116388   2.307   3.592  16.002  2.2759  0.6965  0.5589
 1585SOL    HW216389   2.364   3.632  16.135 -0.6432 -0.3907 -0.1092
 1586SOL     OW16390   1.226   1.480   5.864 -0.5020  0.3564 -0.2426
 1586SOL    HW116391   1.139   1.457   5.830 -0.0939 -0.5970 -0.6340
 1586SOL    HW216392   1.189   1.567   5.879 -0.0598  0.9193 -2.5042
 1587SOL     OW16393   4.726   4.627   9.965 -0.1975 -0.0539 -0.1721
 1587SOL    HW116394   0.075   4.581   9.964  0.7516  1.6021  2.9393
 1587SOL    HW216395   4.720   4.641  10.060  0.3152  0.0846 -0.1608
 1588SOL     OW16396   4.715   2.950   7.570  0.1269  0.2877  0.0264
 1588SOL    HW116397   4.733   3.020   7.633 -0.3854  2.4135 -2.1939
 1588SOL    HW216398   0.064   2.902   7.568  1.3618  2.3687  1.8717
 1589SOL     OW16399   2.897   1.829   1.832 -0.4362  0.0931  0.3015
 1589SOL    HW116400   2.919   1.889   1.903 -1.8006 -0.8331  1.5108
 1589SOL    HW216401   2.884   1.750   1.884 -0.8764 -1.2558 -1.8563
 1590SOL     OW16402   1.394   4.290   2.943 -0.5101 -0.6488  0.4902
 1590SOL    HW116403   1.303   4.305   2.918 -0.0340  1.9781  0.3289
 1590SOL    HW216404   1.432   4.350   2.880 -2.3055  0.0918  0.1005
 1591SOL     OW16405   2.492   3.273  15.786  0.1833  0.4434  0.2001
 1591SOL    HW116406   2.479   3.179  15.800  1.9710  0.1268 -0.2247
 1591SOL    HW216407   2.404   3.308  15.781  0.0983  0.2678  0.4577
 1592SOL     OW16408   0.262   2.065   3.773 -0.6569  0.0918  0.2712
 1592SOL    HW116409   0.173   2.040   3.798 -0.5924 -0.0470  0.3628
 1592SOL    HW216410   0.276   2.002   3.703 -2.8573 -0.2040  0.0889
 1593SOL     OW16411   2.030   4.580   0.779  0.3340 -0.1679 -0.1988
 1593SOL    HW116412   2.056   4.490   0.796  1.2523 -0.3773 -2.7302
 1593SOL    HW216413   2.033   4.609   0.870 -0.1366 -2.8590  0.6647
 1594SOL     OW16414   4.251   4.168   7.034 -0.4777 -0.3020  0.0270
 1594SOL    HW116415   4.180   4.219   6.996 -0.8817 -0.9425 -0.0882
 1594SOL    HW216416   4.325   4.189   6.977  1.0713 -0.8630  1.8628
 1595SOL     OW16417   0.296   1.460   8.026  0.1059 -0.2538  0.2115
 1595SOL    HW116418   0.330   1.442   8.114  0.9283  0.5868  0.0630
 1595SOL    HW216419   0.381   1.487   7.993 -0.4314 -0.2478 -1.1842
 1596SOL     OW16420   1.415   1.005   2.147  0.4115  0.0827  0.2608
 1596SOL    HW116421   1.445   1.095   2.143 -0.0327  0.2187 -0.1045
 1596SOL    HW216422   1.347   1.000   2.214  1.0815  1.0556  0.9938
 1597SOL     OW16423   3.932   3.943   6.471 -0.3244  0.0106  0.4727
 1597SOL    HW116424   3.916   3.918   6.562  0.4123  1.0659  0.8967
 1597SOL    HW216425   3.999   3.882   6.441 -0.8096 -1.1557  1.7305
 1598SOL     OW16426   2.349   4.354   8.650 -0.4834  0.0801 -0.4717
 1598SOL    HW116427   2.335   4.409   8.727 -0.6436  0.6210 -0.8836
 1598SOL    HW216428   2.445   4.358   8.649 -0.4108 -1.7490  0.7971
 1599SOL     OW16429   2.204   4.040   7.995  0.1047 -0.2022 -0.4652
 1599SOL    HW116430   2.284   4.069   7.950  1.4394 -0.5304  1.7022
 1599SOL    HW216431   2.153   3.982   7.938  2.0018 -3.1472  0.8415
 1600SOL     OW16432   3.180   0.699  10.714 -0.2198 -0.5701 -0.2417
 1600SOL    HW116433   3.172   0.782  10.668  1.0081 -0.1152  0.3776
 1600SOL    HW216434   3.151   0.723  10.802 -1.4746 -1.8055 -0.3037
 1601SOL     OW16435   0.008   1.370   5.574  0.6060 -0.5164  0.2249
 1601SOL    HW116436   0.062   1.391   5.498  0.8663  2.2787  1.1733
 1601SOL    HW216437   4.655   1.360   5.538 -0.0334  1.3173  1.2715
 1602SOL     OW16438   0.589   3.225   2.412  0.6943 -0.5567  0.0597
 1602SOL    HW116439   0.552   3.299   2.364  0.7458 -0.1459  0.6511
 1602SOL    HW216440   0.677   3.247   2.381  1.7226 -1.7887  2.1071
 1603SOL     OW16441   1.459   1.499   6.564 -0.5042  0.5947  0.2398
 1603SOL    HW116442   1.550   1.528   6.567 -0.1580 -0.3968 -0.5717
 1603SOL    HW216443   1.468   1.409   6.533 -0.7235  0.6602 -0.0114
 1604SOL     OW16444   4.519   4.052   4.373 -0.1017 -0.3025  0.0606
 1604SOL    HW116445   4.578   3.987   4.334 -1.0580 -0.0248 -1.8195
 1604SOL    HW216446   4.459   3.994   4.420  0.9115  0.1445  1.9458
 1605SOL     OW16447   4.602   1.100   2.847 -0.1496 -0.2317  0.7973
 1605SOL    HW116448   4.602   1.072   2.756  2.0350 -1.1118  1.0799
 1605SOL    HW216449   4.696   1.110   2.863 -0.0665 -0.6213  0.5408
 1606SOL     OW16450   3.262   3.735   9.219  0.3328 -0.4473 -0.4953
 1606SOL    HW116451   3.309   3.656   9.190 -0.7120 -1.2553 -0.0083
 1606SOL    HW216452   3.201   3.688   9.276  0.5018 -0.6682 -0.4932
 1607SOL     OW16453   3.481   0.240   9.451 -0.4170 -0.2480  0.4806
 1607SOL    HW116454   3.444   0.165   9.403 -0.0580  1.2219 -2.1333
 1607SOL    HW216455   3.404   0.296   9.455 -1.8902 -2.0765 -2.1363
 1608SOL     OW16456   0.178   1.729   6.149  0.1495  0.1443  0.1403
 1608SOL    HW116457   0.208   1.670   6.079 -1.1580  0.3548 -0.5888
 1608SOL    HW216458   0.262   1.773   6.165 -0.4400  1.2792  0.1266
 1609SOL     OW16459   1.270   4.061   8.580  0.5165  0.1660  0.0112
 1609SOL    HW116460   1.290   4.067   8.673  0.9661  0.8495 -0.1270
 1609SOL    HW216461   1.185   4.106   8.573  0.5197  0.4007  1.5699
 1610SOL     OW16462   1.189   1.932   7.656  0.2149  0.6039  0.1776
 1610SOL    HW116463   1.258   1.998   7.648  1.2206 -0.3928  0.4703
 1610SOL    HW216464   1.122   1.964   7.595 -0.9142  0.9315  1.6028
 1611SOL     OW16465   0.613   3.740   4.910 -0.0446 -0.5535  0.3339
 1611SOL    HW116466   0.630   3.690   4.990  0.8217  1.0323  1.1410
 1611SOL    HW216467   0.532   3.786   4.929  1.0532  1.0708  1.1109
 1612SOL     OW16468   3.441   3.222   1.699 -0.1129  0.5088  0.5159
 1612SOL    HW116469   3.396   3.138   1.700  0.4737  0.1687 -1.1524
 1612SOL    HW216470   3.412   3.276   1.773  4.0430 -2.1697  4.0624
 1613SOL     OW16471   1.045   1.582   1.185  0.0766 -0.3171  0.5445
 1613SOL    HW116472   1.022   1.673   1.169  0.7841 -0.0399  1.1011
 1613SOL    HW216473   1.085   1.563   1.100  1.8808 -1.0616  1.5704
 1614SOL     OW16474   0.299   0.617   0.901  0.5152  0.3020 -0.4613
 1614SOL    HW116475   0.253   0.654   0.977  0.2778  2.2715 -1.5523
 1614SOL    HW216476   0.379   0.581   0.939 -0.3176 -1.2351 -0.1806
 1615SOL     OW16477   4.209   1.816  15.742 -0.1994 -0.1681 -0.1823
 1615SOL    HW116478   4.246   1.877  15.806 -0.8477 -0.1273  0.1614
 1615SOL    HW216479   4.116   1.839  15.750 -0.0812  0.6644 -1.1640
 1616SOL     OW16480   3.147   2.866   3.944  0.0063  0.1069 -0.5178
 1616SOL    HW116481   3.235   2.885   3.975  0.5590 -2.7738 -0.2996
 1616SOL    HW216482   3.094   2.894   4.018 -2.1288  0.5370 -2.2102
 1617SOL     OW16483   1.547   1.953  11.207  0.1923  0.3000  0.0121
 1617SOL    HW116484   1.616   1.893  11.179  0.3254  0.5011 -0.0868
 1617SOL    HW216485   1.482   1.888  11.234  1.9250 -1.1471  0.6648
 1618SOL     OW16486   4.092   1.087  10.635  0.2477 -0.7180  0.3499
 1618SOL    HW116487   4.114   1.015  10.575  2.8564  0.4021 -0.0449
 1618SOL    HW216488   4.104   1.167  10.584 -0.1537 -0.4486  0.6781
 1619SOL     OW16489   0.665   4.293  12.367 -0.0298  0.4050 -0.3224
 1619SOL    HW116490   0.692   4.210  12.406 -0.1853  1.0599  1.1672
 1619SOL    HW216491   0.600   4.258  12.305 -2.3391  0.1100  2.2368
 1620SOL     OW16492   2.258   0.127   1.469 -0.3302  0.1982  0.4260
 1620SOL    HW116493   2.213   0.088   1.544 -1.5557  0.5803 -0.1236
 1620SOL    HW216494   2.308   0.202   1.501  0.9287 -1.4820  2.3885
 1621SOL     OW16495   1.418   0.599   7.805  0.2635  0.0200  0.2436
 1621SOL    HW116496   1.349   0.532   7.802  0.4258 -0.0360 -2.3638
 1621SOL    HW216497   1.411   0.640   7.719  0.4801 -2.0927 -0.7961
 1622SOL     OW16498   3.577   3.639   9.331  0.8989  0.4759 -0.4112
 1622SOL    HW116499   3.663   3.606   9.357  0.4085  1.5084  2.4779
 1622SOL    HW216500   3.600   3.713   9.275 -1.2634  0.3456 -1.4399
 1623SOL     OW16501   4.732   4.455   3.931  0.2533  0.2629  0.2867
 1623SOL    HW116502   0.081   4.498   3.917 -2.7632  6.4029  0.8693
 1623SOL    HW216503   4.679   4.533   3.952 -0.1802  0.8717 -3.0185
 1624SOL     OW16504   2.232   4.604   7.998  0.1300 -0.0838 -0.2378
 1624SOL    HW116505   2.183   4.572   8.074 -0.5935 -0.4775 -0.8675
 1624SOL    HW216506   2.215   4.698   8.001  0.2249 -0.0422 -1.0409
 1625SOL     OW16507   1.165   4.617  16.416  0.0979 -0.4090  0.1697
 1625SOL    HW116508   1.199   4.660  16.337  1.8592 -1.0546  0.5810
 1625SOL    HW216509   1.087   4.565  16.397 -0.3211  0.1201  0.4446
 1626SOL     OW16510   3.329   2.986  16.456  0.5264 -0.2117 -0.2692
 1626SOL    HW116511   3.402   3.032  16.498  1.2565  0.1996 -1.9880
 1626SOL    HW216512   3.326   2.915  16.519  1.4230  1.3131  1.4900
 1627SOL     OW16513   0.343   0.796   7.197 -0.2226  0.0419  0.1521
 1627SOL    HW116514   0.269   0.794   7.258 -1.2729  1.1427 -1.1092
 1627SOL    HW216515   0.374   0.885   7.212 -1.4333  0.0147  2.7988
 1628SOL     OW16516   2.457   0.462  13.147 -0.2851  0.0367  0.8948
 1628SOL    HW116517   2.420   0.544  13.113  0.9967  1.0391  1.9447
 1628SOL    HW216518   2.388   0.396  13.156 -1.5247  1.0624 -0.9052
 1629SOL     OW16519   3.040   2.285   7.896  0.4009  0.2404 -0.0650
 1629SOL    HW116520   3.047   2.370   7.940  0.8793  0.6035 -0.8482
 1629SOL    HW216521   3.075   2.230   7.966  0.0020 -2.5353 -2.0733
 1630SOL     OW16522   2.118   1.110   4.306  0.2418  0.0367  0.1171
 1630SOL    HW116523   2.198   1.150   4.340 -0.4309 -1.1223  3.1264
 1630SOL    HW216524   2.066   1.118   4.386  0.6215 -4.5469  0.8467
 1631SOL     OW16525   3.859   3.059  11.366  0.0067  0.4121  0.0596
 1631SOL    HW116526   3.847   3.131  11.304  3.2696  0.9978  0.0630
 1631SOL    HW216527   3.769   3.031  11.380  0.4727  0.2237  2.5493
 1632SOL     OW16528   2.695   1.633   3.851  0.2969 -0.2832 -0.3699
 1632SOL    HW116529   2.650   1.639   3.935 -0.5097 -0.7268 -0.7744
 1632SOL    HW216530   2.625   1.648   3.787 -1.1548  1.8317  1.7513
 1633SOL     OW16531   1.988   4.536   8.180  0.0757 -0.0841 -0.3693
 1633SOL    HW116532   1.925   4.508   8.246  2.0331  0.1910  1.6130
 1633SOL    HW216533   2.049   4.581   8.238  0.3197 -2.1222  0.9846
 1634SOL     OW16534   3.300   3.097   7.036 -0.1578  0.1435 -0.2792
 1634SOL    HW116535   3.379   3.104   7.091 -1.0593  3.0206  0.6727
 1634SOL    HW216536   3.345   3.084   6.953 -0.0425 -2.3853  0.1953
 1635SOL     OW16537   0.802   3.342   3.287  0.2739  0.0638  0.5378
 1635SOL    HW116538   0.738   3.409   3.263 -1.4800 -1.5373  0.7589
 1635SOL    HW216539   0.818   3.298   3.203 -2.3518 -0.9523  0.5696
 1636SOL     OW16540   3.238   2.287   7.690 -0.0593 -0.5437 -0.2021
 1636SOL    HW116541   3.223   2.265   7.598  0.2249  1.5047 -0.7275
 1636SOL    HW216542   3.154   2.289   7.736 -1.1020 -2.0474 -2.0019
 1637SOL     OW16543   2.075   0.485  15.182 -0.2494 -0.1781  0.1981
 1637SOL    HW116544   2.109   0.403  15.144  2.3551  1.1034 -0.2729
 1637SOL    HW216545   2.148   0.547  15.185 -0.8992  0.5489  0.8449
 1638SOL     OW16546   3.380   0.310  16.099 -0.6803  0.5521 -0.3685
 1638SOL    HW116547   3.471   0.330  16.076 -0.8248  1.0885 -0.4856
 1638SOL    HW216548   3.360   0.354  16.182  0.6014 -0.7988  0.6319
 1639SOL     OW16549   0.856   3.036  15.125  0.0840 -1.0223  0.1411
 1639SOL    HW116550   0.771   3.001  15.098 -0.1429 -1.3320  1.2906
 1639SOL    HW216551   0.857   3.037  15.220  0.1439  2.2066  0.1053
 1640SOL     OW16552   1.923   4.372   9.761  0.1074  0.0284  0.5436
 1640SOL    HW116553   1.921   4.277   9.748  0.6875 -0.0683  1.1677
 1640SOL    HW216554   1.908   4.373   9.855  0.6027  0.4915  0.6165
 1641SOL     OW16555   0.228   3.239   5.338  0.1803 -0.6978 -0.2331
 1641SOL    HW116556   0.157   3.256   5.399  1.2130  0.5194  0.6314
 1641SOL    HW216557   0.271   3.158   5.365  1.6527 -0.3597 -1.5642
 1642SOL     OW16558   2.011   1.744  16.866  0.1934  0.1379 -0.2393
 1642SOL    HW116559   1.945   1.805  16.833  0.7624  0.3107 -1.0557
 1642SOL    HW216560   2.080   1.800  16.899  0.4626  0.5727 -1.5335
 1643SOL     OW16561   4.518   2.045   0.522  0.5488  0.1503 -0.0373
 1643SOL    HW116562   4.510   2.085   0.609  3.5362  0.4538  0.1113
 1643SOL    HW216563   4.585   1.980   0.544  0.0789 -0.1773  0.4339
 1644SOL     OW16564   1.761   1.490  13.083  0.1951 -0.1105  0.3876
 1644SOL    HW116565   1.700   1.503  13.010  0.6555  0.0591  0.0335
 1644SOL    HW216566   1.840   1.523  13.039 -1.0695  3.7574  0.9744
 1645SOL     OW16567   3.594   2.128   0.874  0.2694  0.4353 -0.0933
 1645SOL    HW116568   3.630   2.066   0.938 -0.0394 -0.6243 -0.9540
 1645SOL    HW216569   3.675   2.168   0.845 -0.0300 -0.8204 -2.6593
 1646SOL     OW16570   1.079   3.426   6.533  0.0144 -0.2735 -0.4555
 1646SOL    HW116571   1.109   3.465   6.614  1.2294  0.8427 -1.4454
 1646SOL    HW216572   0.998   3.478   6.530  0.5410  0.5601 -0.0483
 1647SOL     OW16573   0.559   1.122   8.586  0.6788  0.1360 -0.0502
 1647SOL    HW116574   0.547   1.167   8.502  1.7808 -1.6327 -1.1393
 1647SOL    HW216575   0.639   1.164   8.620 -0.4453  4.0392 -2.2206
 1648SOL     OW16576   2.723   0.595   7.317 -0.4103  0.3154  0.5950
 1648SOL    HW116577   2.774   0.553   7.386  0.1464  0.3756  0.2174
 1648SOL    HW216578   2.639   0.558   7.346 -0.8411  0.0817 -0.9263
 1649SOL     OW16579   4.185   1.743   7.118 -0.6734 -0.0904 -0.0096
 1649SOL    HW116580   4.115   1.722   7.180 -0.4528 -1.0727 -0.0939
 1649SOL    HW216581   4.131   1.780   7.048  0.9958  2.3101 -0.0164
 1650SOL     OW16582   0.597   3.339   4.914  0.1257 -0.0671 -0.1422
 1650SOL    HW116583   0.692   3.351   4.908  0.1457 -0.5242 -0.6899
 1650SOL    HW216584   0.613   3.246   4.899 -0.4917 -0.4315  1.4747
 1651SOL     OW16585   3.008   4.360   3.483  0.4728 -1.0253  0.3019
 1651SOL    HW116586   2.926   4.321   3.450  1.5272 -3.3654  0.4293
 1651SOL    HW216587   3.014   4.308   3.564  1.2341  0.7678  1.3894
 1652SOL     OW16588   1.592   3.995   1.858 -0.2014 -0.0778  0.2559
 1652SOL    HW116589   1.541   3.941   1.918  0.9557 -0.4030  0.9565
 1652SOL    HW216590   1.569   4.084   1.886  0.1403  0.4648 -1.2109
 1653SOL     OW16591   0.669   2.628   5.823 -0.3851 -0.0622  0.6629
 1653SOL    HW116592   0.607   2.641   5.751  0.8333 -0.9472 -0.5549
 1653SOL    HW216593   0.720   2.709   5.818 -3.3037  1.5398 -3.0260
 1654SOL     OW16594   3.166   4.226  12.564 -0.4944 -0.1818  0.0555
 1654SOL    HW116595   3.159   4.287  12.637 -0.3996 -2.3986  1.9110
 1654SOL    HW216596   3.262   4.219  12.567 -0.3572  0.5036 -2.7797
 1655SOL     OW16597   4.450   3.682  14.392  0.4696  0.4369  0.1882
 1655SOL    HW116598   4.413   3.738  14.323 -0.4838 -0.7543 -0.2741
 1655SOL    HW216599   4.534   3.656  14.355  0.0345  1.8740 -1.8290
 1656SOL     OW16600   2.385   3.636  13.777 -0.3817  0.1943 -0.0330
 1656SOL    HW116601   2.429   3.703  13.829 -0.6284 -0.8827  1.5447
 1656SOL    HW216602   2.291   3.653  13.778 -0.3396  0.4549 -0.5654
 1657SOL     OW16603   2.820   4.167  10.909  0.0516 -0.3509  0.2901
 1657SOL    HW116604   2.823   4.191  10.816 -0.6957 -3.9023 -0.6356
 1657SOL    HW216605   2.801   4.253  10.946 -0.9938 -0.1004 -0.8220
 1658SOL     OW16606   0.326   1.064  10.964 -0.5045 -0.5353  0.2121
 1658SOL    HW116607   0.240   1.024  10.954 -1.1046  0.1347  2.6638
 1658SOL    HW216608   0.302   1.150  10.998  0.5505 -0.6417  1.1987
 1659SOL     OW16609   1.337   2.473  14.982  0.2049 -1.0235 -0.1683
 1659SOL    HW116610   1.382   2.437  14.906  1.3958 -0.8102  0.4455
 1659SOL    HW216611   1.288   2.393  15.003  0.7404 -0.6994  2.2647
 1660SOL     OW16612   2.805   2.715   3.980 -0.0066  0.0051 -0.3189
 1660SOL    HW116613   2.825   2.791   3.925  1.0657 -0.0210  0.0427
 1660SOL    HW216614   2.820   2.643   3.920  0.7026 -0.0186 -0.1144
 1661SOL     OW16615   3.774   4.302   6.721 -0.3369  0.2398  0.7688
 1661SOL    HW116616   3.832   4.371   6.688 -0.8671  0.4157  0.2110
 1661SOL    HW216617   3.692   4.347   6.704 -0.8892 -0.8925  0.4449
 1662SOL     OW16618   4.711   4.219   3.689  0.4082  0.4230  0.1324
 1662SOL    HW116619   0.026   4.166   3.751  1.5753 -0.2188 -1.3831
 1662SOL    HW216620   0.036   4.293   3.680  1.1435 -0.1498  0.2797
 1663SOL     OW16621   0.371   1.089   6.476  0.2640 -1.0668  0.2172
 1663SOL    HW116622   0.359   0.994   6.475 -2.6452 -0.6710 -3.3460
 1663SOL    HW216623   0.369   1.100   6.381  1.2394  2.2201  0.5935
 1664SOL     OW16624   4.211   2.336   1.448  0.6875 -0.2259 -1.1655
 1664SOL    HW116625   4.282   2.397   1.433  1.5356 -0.2958  2.6139
 1664SOL    HW216626   4.245   2.263   1.396  0.2068  0.0295 -1.8517
 1665SOL     OW16627   2.827   3.645  15.612 -0.8926 -0.6471  0.6006
 1665SOL    HW116628   2.791   3.650  15.524  0.4033  0.0828  0.1104
 1665SOL    HW216629   2.805   3.732  15.646  1.7572 -0.5792  2.1856
 1666SOL     OW16630   0.496   0.831   5.539  0.9477  0.4466  0.4253
 1666SOL    HW116631   0.418   0.777   5.551 -0.4003  1.9833 -1.3549
 1666SOL    HW216632   0.463   0.916   5.569  1.9902  1.1441 -0.4063
 1667SOL     OW16633   2.825   1.023   2.165 -0.1469 -0.3451 -0.6040
 1667SOL    HW116634   2.766   0.974   2.107 -2.6427  1.1015  0.7064
 1667SOL    HW216635   2.902   1.020   2.108 -0.1592 -0.6949 -0.6015
 1668SOL     OW16636   3.271   1.461   7.162  0.6976  0.4812  0.0840
 1668SOL    HW116637   3.213   1.473   7.237  1.2020  1.1700  0.3659
 1668SOL    HW216638   3.343   1.413   7.203 -2.1080 -4.7975 -1.2359
 1669SOL     OW16639   1.696   3.916   4.743 -0.2648  0.4839 -0.4088
 1669SOL    HW116640   1.734   3.999   4.713  1.0956 -0.6877 -1.8950
 1669SOL    HW216641   1.736   3.907   4.829  0.6611  0.5526 -0.8341
 1670SOL     OW16642   0.659   0.480   2.500  0.6528 -0.0817  0.4731
 1670SOL    HW116643   0.674   0.444   2.412 -0.7639 -0.2502  0.2931
 1670SOL    HW216644   0.586   0.539   2.479  0.1168 -0.1682  2.1372
 1671SOL     OW16645   1.605   0.429   1.668 -0.5626 -0.2639  0.0886
 1671SOL    HW116646   1.513   0.434   1.691 -0.3266 -1.5264  1.3479
 1671SOL    HW216647   1.652   0.505   1.703 -0.7397 -0.8842  1.6630
 1672SOL     OW16648   1.174   0.064   4.255 -0.2627  0.7975 -0.0181
 1672SOL    HW116649   1.078   0.072   4.258 -0.3607 -0.5150  0.1502
 1672SOL    HW216650   1.207   0.152   4.275 -0.0542  0.4410  1.2452
 1673SOL     OW16651   1.384   1.453   7.525  0.0403 -0.2660  0.2084
 1673SOL    HW116652   1.366   1.442   7.618  0.7396  1.3958  0.5401
 1673SOL    HW216653   1.473   1.487   7.524 -0.0857  0.0700  0.4721
 1674SOL     OW16654   0.901   4.641   7.059 -0.0660  0.1589 -0.3420
 1674SOL    HW116655   0.961   4.625   7.133  0.6012 -1.5396 -1.2488
 1674SOL    HW216656   0.879   4.550   7.037 -1.4910  0.0774  1.3990
 1675SOL     OW16657   0.638   2.164   4.224 -0.3322 -0.2216  0.4500
 1675SOL    HW116658   0.725   2.138   4.192 -0.9267 -0.0559 -1.3050
 1675SOL    HW216659   0.631   2.109   4.302  1.8089  0.4741  1.1349
 1676SOL     OW16660   0.955   3.341  11.067 -0.1952  0.1498 -0.1588
 1676SOL    HW116661   0.960   3.294  11.150  1.2340  0.7233  0.0753
 1676SOL    HW216662   0.985   3.428  11.092  1.0037 -1.1033  2.7101
 1677SOL     OW16663   1.502   1.774  13.069 -0.2371  0.6425  0.2052
 1677SOL    HW116664   1.502   1.708  12.999  1.4003  2.9290 -1.9520
 1677SOL    HW216665   1.436   1.842  13.055 -2.0028 -1.1435 -0.1621
 1678SOL     OW16666   4.099   2.946   4.624  1.2053 -0.1054 -0.4125
 1678SOL    HW116667   4.093   2.877   4.690  1.7093 -0.4915 -0.7722
 1678SOL    HW216668   4.134   3.025   4.665  2.3403 -1.5361  1.3629
 1679SOL     OW16669   3.426   4.460   2.510  0.0228 -0.4440  0.3932
 1679SOL    HW116670   3.500   4.439   2.454 -0.8853 -2.5109 -0.0617
 1679SOL    HW216671   3.462   4.428   2.593 -1.0355 -1.5008  0.4580
 1680SOL     OW16672   3.788   2.514   3.935  0.2939 -0.2560 -0.1050
 1680SOL    HW116673   3.841   2.562   3.998  0.8504  1.6919 -2.0383
 1680SOL    HW216674   3.704   2.511   3.979  1.1941  0.8300  1.6853
 1681SOL     OW16675   4.464   3.062   1.958 -0.2416  0.8766 -0.5228
 1681SOL    HW116676   4.548   3.023   1.934 -0.2707 -0.2141  1.1669
 1681SOL    HW216677   4.497   3.138   2.007 -1.0985  1.2671 -0.5524
 1682SOL     OW16678   2.667   0.185  17.733  0.4081  0.0935 -0.5019
 1682SOL    HW116679   2.651   0.142  17.649 -2.0580  0.6064 -0.3075
 1682SOL    HW216680   2.606   0.138   0.052  1.3610  1.2233  1.4171
 1683SOL     OW16681   3.974   1.367   8.043 -0.0229 -0.4597 -0.4499
 1683SOL    HW116682   3.952   1.404   8.128  0.5615 -0.4931 -0.2856
 1683SOL    HW216683   3.963   1.273   8.058 -0.4680  0.3156  3.9481
 1684SOL     OW16684   3.883   3.155   5.191  0.1551  0.4072 -0.5117
 1684SOL    HW116685   3.795   3.193   5.185 -0.4196 -0.9882 -1.0038
 1684SOL    HW216686   3.932   3.213   5.132 -1.4978  0.6564 -1.6527
 1685SOL     OW16687   4.399   4.099   4.905  0.3694 -0.1611 -0.2600
 1685SOL    HW116688   4.494   4.087   4.900  0.3454 -0.6717  0.7986
 1685SOL    HW216689   4.375   4.010   4.930 -0.9166 -0.4700 -2.5822
 1686SOL     OW16690   0.457   3.136   0.726  0.9463 -0.0971  0.3641
 1686SOL    HW116691   0.549   3.133   0.753  0.7575 -1.6585  0.8259
 1686SOL    HW216692   0.445   3.224   0.691 -4.3794 -1.3868 -0.9522
 1687SOL     OW16693   2.701   1.468   1.897  0.1067  0.1077  0.4569
 1687SOL    HW116694   2.647   1.395   1.927 -0.9446  0.3051 -0.9797
 1687SOL    HW216695   2.663   1.487   1.811  2.5335  0.3742 -0.5816
 1688SOL     OW16696   2.908   2.802   3.625 -0.3025 -0.1404 -0.8895
 1688SOL    HW116697   2.913   2.861   3.701 -0.1168 -2.2862  0.7809
 1688SOL    HW216698   2.892   2.723   3.677 -2.8440  0.2941 -1.0078
 1689SOL     OW16699   0.321   0.259   1.059  0.2151  0.2338  0.1296
 1689SOL    HW116700   0.376   0.212   0.996  0.2176  0.0963  0.2357
 1689SOL    HW216701   0.235   0.229   1.030 -0.6364  1.7977  1.0236
 1690SOL     OW16702   3.795   0.629  11.301 -0.5124  0.5970  0.3197
 1690SOL    HW116703   3.832   0.685  11.233 -0.6843 -0.8228 -0.9334
 1690SOL    HW216704   3.863   0.610  11.365  0.0487 -1.6958 -0.9690
 1691SOL     OW16705   1.906   2.904   6.774  0.0919 -0.2385  0.3164
 1691SOL    HW116706   1.931   2.946   6.857  0.6792  0.0780 -0.0208
 1691SOL    HW216707   1.871   2.976   6.722 -0.8691 -0.9485 -0.0171
 1692SOL     OW16708   4.499   4.116   3.940  0.1959 -0.1385 -0.7561
 1692SOL    HW116709   4.500   4.168   3.860  0.1190  0.0175 -0.6545
 1692SOL    HW216710   4.415   4.072   3.927 -1.0478  2.1643 -0.5194
 1693SOL     OW16711   0.531   4.521  12.205  0.3543  0.2447  0.3636
 1693SOL    HW116712   0.623   4.514  12.230  0.3376 -0.0695  0.3367
 1693SOL    HW216713   0.519   4.428  12.187  1.4207  0.8938 -3.7033
 1694SOL     OW16714   0.783   1.955  13.190  0.0549  0.2197  0.0419
 1694SOL    HW116715   0.781   2.015  13.115  1.6446  1.0246  0.6358
 1694SOL    HW216716   0.830   1.889  13.139 -0.6716 -0.7622  0.6459
 1695SOL     OW16717   3.710   1.024   8.495 -0.3557  0.3474 -0.3081
 1695SOL    HW116718   3.682   0.933   8.487  1.1510 -0.1343 -0.1053
 1695SOL    HW216719   3.658   1.040   8.573 -3.5751 -0.5767 -2.2461
 1696SOL     OW16720   3.953   2.116  16.098 -0.5245  0.0747  0.0285
 1696SOL    HW116721   3.898   2.192  16.117  1.1452  1.0452  0.9617
 1696SOL    HW216722   4.005   2.154  16.027 -0.1581 -0.3467  0.0679
 1697SOL     OW16723   2.210   2.811  14.112  0.1098 -0.3588 -0.5992
 1697SOL    HW116724   2.300   2.838  14.128  0.4131 -1.5798 -0.2688
 1697SOL    HW216725   2.155   2.865  14.169  1.4518 -0.2837  0.6286
 1698SOL     OW16726   2.978   4.287   4.120  0.0414  0.7279  0.0195
 1698SOL    HW116727   3.064   4.272   4.081 -0.2213  0.9317 -0.6461
 1698SOL    HW216728   3.009   4.295   4.210 -2.4789 -2.9233  1.2387
 1699SOL     OW16729   4.085   3.069   6.281  0.0375  0.1335  0.8668
 1699SOL    HW116730   4.173   3.084   6.317  1.0366 -2.5219 -0.4919
 1699SOL    HW216731   4.102   3.010   6.208 -2.3771 -0.2559  0.6470
 1700SOL     OW16732   2.778   3.450  16.182  0.6787  0.0453  0.7813
 1700SOL    HW116733   2.762   3.438  16.275 -0.7508  0.5580  0.6028
 1700SOL    HW216734   2.828   3.531  16.179 -1.0215  1.0975  0.9509
 1701SOL     OW16735   0.760   0.257   3.715 -0.0780 -0.0780  0.4422
 1701SOL    HW116736   0.793   0.219   3.634 -2.7620 -1.9867  0.2481
 1701SOL    HW216737   0.721   0.178   3.753 -1.6066 -0.5801 -2.2154
 1702SOL     OW16738   0.739   0.998  11.500 -0.1268 -0.0630 -0.5276
 1702SOL    HW116739   0.693   1.018  11.418  0.7548 -0.0584 -1.0150
 1702SOL    HW216740   0.732   0.903  11.505  0.9649 -0.1011  0.4073
 1703SOL     OW16741   2.313   4.489  14.252 -0.0004  0.2563  0.4208
 1703SOL    HW116742   2.291   4.578  14.280 -0.8542  0.5619 -1.2281
 1703SOL    HW216743   2.278   4.439  14.326  0.2345  0.1123  0.4358
 1704SOL     OW16744   4.422   4.218   1.393 -0.3464 -0.3019  0.8948
 1704SOL    HW116745   4.337   4.262   1.392 -0.1584 -0.0048 -0.9234
 1704SOL    HW216746   4.481   4.281   1.434 -1.0827 -0.2121  1.8125
 1705SOL     OW16747   1.565   1.245   2.139 -0.1721  0.5374  0.0664
 1705SOL    HW116748   1.652   1.282   2.129 -0.8873  1.5850 -2.2288
 1705SOL    HW216749   1.518   1.324   2.167 -0.2462  0.7656 -0.6891
 1706SOL     OW16750   2.003   3.154   5.591  0.1520 -0.1908  0.2869
 1706SOL    HW116751   2.057   3.077   5.609  1.2335  0.2475 -1.0938
 1706SOL    HW216752   1.920   3.119   5.623  0.7429 -1.6995  0.2045
 1707SOL     OW16753   0.762   3.537   6.315  0.1211  0.1546 -0.2528
 1707SOL    HW116754   0.688   3.532   6.254  0.3159 -0.2219 -0.4513
 1707SOL    HW216755   0.747   3.457   6.365  2.0740  0.3672  0.6447
 1708SOL     OW16756   4.586   2.768   5.531 -0.9976 -0.2416 -0.6838
 1708SOL    HW116757   4.520   2.791   5.596  0.2524  1.0809  0.0995
 1708SOL    HW216758   4.602   2.674   5.544 -0.8980 -0.0613  0.5027
 1709SOL     OW16759   3.553   2.390   6.083  0.0436 -0.2480  0.2099
 1709SOL    HW116760   3.571   2.395   6.176  0.7904 -1.7454  0.1501
 1709SOL    HW216761   3.645   2.411   6.063  0.3982 -1.8607  0.1362
 1710SOL     OW16762   0.261   4.631   3.930 -0.0427 -0.1169 -0.4542
 1710SOL    HW116763   0.208   4.687   3.874 -0.2795  0.2512  0.1310
 1710SOL    HW216764   0.345   4.627   3.885  0.9617 -1.5938  1.5378
 1711SOL     OW16765   0.724   1.035   3.084  0.0516 -0.0046 -0.4045
 1711SOL    HW116766   0.794   0.984   3.044 -1.9914 -2.5274 -0.7125
 1711SOL    HW216767   0.653   0.971   3.088  0.7197 -0.6722  0.5658
 1712SOL     OW16768   3.225   0.933   7.434  0.4586  0.0439  0.4836
 1712SOL    HW116769   3.184   1.011   7.397  1.4696 -0.0376 -0.8024
 1712SOL    HW216770   3.185   0.868   7.376  1.7529 -0.4439  0.1348
 1713SOL     OW16771   3.457   1.099  16.355 -0.0729  0.1852 -0.0775
 1713SOL    HW116772   3.547   1.078  16.332 -0.9033 -0.5428 -2.7332
 1713SOL    HW216773   3.419   1.012  16.340  0.0591  0.1492 -0.2033
 1714SOL     OW16774   0.372   1.448   5.514 -0.1869  0.1275 -0.4901
 1714SOL    HW116775   0.433   1.442   5.441 -1.0263 -1.7996 -1.0366
 1714SOL    HW216776   0.290   1.462   5.466 -2.1257 -0.4237  2.6600
 1715SOL     OW16777   4.424   1.754   2.011 -0.5229 -0.0419 -0.3370
 1715SOL    HW116778   4.444   1.661   2.025  0.7056  0.0881 -1.1650
 1715SOL    HW216779   4.389   1.752   1.922  0.5678 -0.7451 -0.7599
 1716SOL     OW16780   2.144   3.678  17.377 -0.0989 -0.0158 -0.3854
 1716SOL    HW116781   2.228   3.647  17.342 -0.6233 -0.6087 -1.1167
 1716SOL    HW216782   2.148   3.768  17.344  2.1527  0.6071  1.5949
 1717SOL     OW16783   2.033   3.510   1.941  0.2759  1.1307 -0.3170
 1717SOL    HW116784   2.127   3.505   1.927  0.5361  0.9588  1.5791
 1717SOL    HW216785   2.004   3.567   1.870  0.0292  0.8761 -0.4247
 1718SOL     OW16786   1.470   3.181   8.053  0.1535 -0.3166  0.0663
 1718SOL    HW116787   1.471   3.230   7.970  2.1648  2.7989  1.9284
 1718SOL    HW216788   1.376   3.186   8.069 -0.2331 -2.1760 -1.6336
 1719SOL     OW16789   2.236   4.672   8.272  0.2318 -0.3676 -0.4378
 1719SOL    HW116790   2.329   4.696   8.266 -0.4749  1.7931 -2.3899
 1719SOL    HW216791   2.244   4.592   8.324 -1.1708  1.0014  1.8957
 1720SOL     OW16792   3.118   3.237   7.211  0.2020  0.5328  0.4846
 1720SOL    HW116793   3.152   3.326   7.222 -1.5775  0.9195  2.8209
 1720SOL    HW216794   3.178   3.207   7.142  0.9944 -0.7521  1.7374
 1721SOL     OW16795   4.385   0.383   6.795  0.8093 -0.4081  0.4421
 1721SOL    HW116796   4.401   0.291   6.815  0.8581 -0.7136 -1.0079
 1721SOL    HW216797   4.394   0.406   6.888 -1.7941  1.7751  0.1633
 1722SOL     OW16798   1.797   3.982   5.750  0.1229 -0.2154 -0.1145
 1722SOL    HW116799   1.766   3.897   5.719 -0.6436  0.4440 -1.1973
 1722SOL    HW216800   1.720   4.037   5.764  2.4903  2.9712  0.3835
 1723SOL     OW16801   2.967   4.478   5.747 -0.2821  0.0343  0.0339
 1723SOL    HW116802   2.881   4.501   5.783 -0.3592  1.2132 -0.8920
 1723SOL    HW216803   2.945   4.420   5.675 -1.4522  0.2288  0.2290
 1724SOL     OW16804   1.038   1.302   5.600  0.0506 -0.0921  0.1003
 1724SOL    HW116805   1.056   1.229   5.660  4.7857 -1.1470 -2.6656
 1724SOL    HW216806   1.006   1.368   5.662  0.2926  0.4079 -0.3106
 1725SOL     OW16807   1.362   3.134   3.975 -0.4627  0.1151  0.8226
 1725SOL    HW116808   1.287   3.172   3.930  0.2643  0.9784  0.3335
 1725SOL    HW216809   1.427   3.198   3.946  0.2879 -0.8819  0.2979
 1726SOL     OW16810   3.497   0.147   5.276  0.4481  0.1624  0.5683
 1726SOL    HW116811   3.411   0.122   5.312  0.3278 -0.1501  0.0659
 1726SOL    HW216812   3.519   0.233   5.311 -1.8584  0.5523  1.0592
 1727SOL     OW16813   3.676   2.439   4.390 -0.4716 -0.3506  0.0618
 1727SOL    HW116814   3.760   2.475   4.361 -2.1253 -0.0171 -4.3480
 1727SOL    HW216815   3.666   2.465   4.481  1.7357  2.2816 -0.4468
 1728SOL     OW16816   0.192   2.384  15.918 -0.0276  0.1587  0.3471
 1728SOL    HW116817   0.275   2.377  15.966  0.6385  1.2594 -0.6199
 1728SOL    HW216818   0.123   2.382  15.984 -1.8069 -1.5642 -1.5624
 1729SOL     OW16819   0.670   0.916   6.627 -0.2370 -0.0994  0.2856
 1729SOL    HW116820   0.606   0.937   6.696 -0.9531 -0.4700 -0.2619
 1729SOL    HW216821   0.731   0.862   6.678 -0.7969  0.1955  1.2708
 1730SOL     OW16822   3.296   3.350   2.677 -0.0219  0.4002  0.2054
 1730SOL    HW116823   3.255   3.417   2.732 -2.1286 -0.6331 -0.0943
 1730SOL    HW216824   3.383   3.351   2.715  0.4722 -0.3374 -0.9190
 1731SOL     OW16825   2.911   1.130   5.749  0.0625 -0.1678 -0.2002
 1731SOL    HW116826   2.984   1.175   5.791 -1.1244  0.8376  0.7963
 1731SOL    HW216827   2.850   1.199   5.726 -0.2852 -0.4991 -0.2742
 1732SOL     OW16828   2.512   4.161  12.154 -0.1650  0.1623 -0.2879
 1732SOL    HW116829   2.497   4.253  12.173 -1.0445 -0.0021 -0.2016
 1732SOL    HW216830   2.467   4.143  12.072  1.2428 -0.5332 -0.9098
 1733SOL     OW16831   3.895   0.975   1.205  0.0235  0.1750 -0.6853
 1733SOL    HW116832   3.903   0.977   1.301 -2.3005 -0.9354 -0.4671
 1733SOL    HW216833   3.838   1.051   1.193 -0.4445  0.1481  1.4249
 1734SOL     OW16834   2.243   2.188  10.672 -0.6235  0.3753 -0.2615
 1734SOL    HW116835   2.252   2.277  10.639  1.4835  0.6961  1.1493
 1734SOL    HW216836   2.290   2.194  10.756  0.6936 -0.6240 -0.9244
 1735SOL     OW16837   3.620   2.453   8.267  0.1846  0.6337  0.3502
 1735SOL    HW116838   3.628   2.412   8.181  1.0305  0.1613  0.6545
 1735SOL    HW216839   3.706   2.483   8.297  0.1591  1.3076 -0.2652
 1736SOL     OW16840   3.440   2.695   9.102 -0.1174 -0.3993  0.1789
 1736SOL    HW116841   3.460   2.783   9.070 -0.1557 -1.7212 -3.5321
 1736SOL    HW216842   3.494   2.639   9.045  1.5050 -2.3045  3.5722
 1737SOL     OW16843   4.609   1.844   6.491 -0.0418 -0.0035  0.1199
 1737SOL    HW116844   4.687   1.894   6.467 -0.5611  0.3556 -0.7840
 1737SOL    HW216845   4.623   1.833   6.585  1.4875  3.3635  0.2723
 1738SOL     OW16846   2.118   3.672   0.476  0.1486 -0.8298 -0.1608
 1738SOL    HW116847   2.139   3.765   0.482  1.8431 -1.2623  0.5988
 1738SOL    HW216848   2.054   3.652   0.544  1.1067  0.6367  1.1679
 1739SOL     OW16849   0.093   3.784   8.223  0.2675  0.0769  0.4090
 1739SOL    HW116850   0.003   3.752   8.226 -0.0514  0.8224 -1.4405
 1739SOL    HW216851   0.118   3.776   8.315  0.7728  1.3536  0.3821
 1740SOL     OW16852   0.018   3.199   4.206  0.2437 -0.0406  0.5367
 1740SOL    HW116853   0.087   3.135   4.222  0.5222 -0.5480 -2.6368
 1740SOL    HW216854   4.710   3.168   4.126  0.9117 -1.0847  0.5893
 1741SOL     OW16855   4.137   2.316  10.187  0.5830  0.2528  0.4119
 1741SOL    HW116856   4.104   2.406  10.183 -0.2590 -0.0207  1.0301
 1741SOL    HW216857   4.231   2.327  10.199  0.7868 -0.6756 -0.2828
 1742SOL     OW16858   4.062   3.592   2.291  0.4869 -0.5146  0.6799
 1742SOL    HW116859   4.050   3.687   2.288  2.0982 -0.3207  0.2973
 1742SOL    HW216860   3.989   3.558   2.240 -0.6532  0.7978  1.4223
 1743SOL     OW16861   3.341   1.507   3.120 -0.1362  0.1642  0.1137
 1743SOL    HW116862   3.349   1.507   3.215 -0.2055  0.9921  0.1210
 1743SOL    HW216863   3.432   1.515   3.090  0.2685 -0.1203  1.2707
 1744SOL     OW16864   0.109   3.468   2.092 -0.1039  0.4775 -0.1909
 1744SOL    HW116865   0.176   3.404   2.115 -1.1171 -0.2820  0.6596
 1744SOL    HW216866   0.147   3.555   2.091  0.4221  0.2548  0.4064
 1745SOL     OW16867   3.849   2.688   6.599 -0.4339  0.5810  1.2348
 1745SOL    HW116868   3.936   2.668   6.635 -0.3167 -1.3954 -0.1889
 1745SOL    HW216869   3.859   2.747   6.524  0.1660  1.0442  1.6723
 1746SOL     OW16870   2.831   0.271  16.016  0.5822  0.6838 -1.0800
 1746SOL    HW116871   2.857   0.261  15.924 -0.0918 -0.5584 -1.1382
 1746SOL    HW216872   2.894   0.216  16.062 -0.5750 -0.0371 -0.3694
 1747SOL     OW16873   2.135   1.942  16.252  0.0064 -0.4141 -0.1480
 1747SOL    HW116874   2.211   2.000  16.249 -1.0093  0.8044 -2.2426
 1747SOL    HW216875   2.157   1.854  16.223  0.2006 -0.7116  0.8821
 1748SOL     OW16876   0.346   3.971  17.116 -0.0965 -0.1081 -0.3419
 1748SOL    HW116877   0.438   3.959  17.139  0.0616  2.0846  0.1092
 1748SOL    HW216878   0.307   3.884  17.121  0.4335 -0.2207  1.7764
 1749SOL     OW16879   1.606   3.647   1.799  0.4244 -0.0355  0.1599
 1749SOL    HW116880   1.619   3.581   1.867  1.0878 -1.7051 -1.6067
 1749SOL    HW216881   1.679   3.705   1.822 -0.2801  0.6002  0.8140
 1750SOL     OW16882   3.465   0.013   2.124 -0.3501  0.1838  0.2615
 1750SOL    HW116883   3.490   0.029   2.215 -0.2459 -0.2481  0.3104
 1750SOL    HW216884   3.491   0.094   2.081 -2.3522  0.7547  0.1341
 1751SOL     OW16885   1.679   3.197   5.933  0.4129  0.0651  0.2840
 1751SOL    HW116886   1.685   3.101   5.936 -0.1902 -0.0004 -0.4587
 1751SOL    HW216887   1.683   3.223   6.025  1.3233 -0.8984  0.5161
 1752SOL     OW16888   2.964   2.534   4.977  0.0886 -0.8298  0.2799
 1752SOL    HW116889   3.023   2.477   4.927 -1.1155 -3.0772  1.3940
 1752SOL    HW216890   2.981   2.619   4.936 -0.3644 -0.5223  0.7200
 1753SOL     OW16891   2.574   3.316   7.355 -0.6723  0.1272 -0.4851
 1753SOL    HW116892   2.598   3.253   7.287  1.8108  0.0763  0.4447
 1753SOL    HW216893   2.534   3.383   7.300 -2.9951 -1.3831 -0.6231
 1754SOL     OW16894   0.045   2.888   5.285  0.3515  0.5112  0.5485
 1754SOL    HW116895   0.089   2.824   5.229 -1.9852  1.5144 -2.4375
 1754SOL    HW216896   0.018   2.840   5.363 -0.8242  0.1555 -0.0794
 1755SOL     OW16897   1.753   1.501   6.754  0.8809  0.3032  0.1837
 1755SOL    HW116898   1.727   1.564   6.685  1.6985  2.0411  1.4644
 1755SOL    HW216899   1.844   1.487   6.730  1.2683  0.7380  1.4402
 1756SOL     OW16900   2.066   4.227  15.394  0.4158  0.7474 -0.2622
 1756SOL    HW116901   2.055   4.189  15.307  1.0832 -0.8772  0.3616
 1756SOL    HW216902   2.161   4.236  15.400  0.6079 -0.4350 -1.7577
 1757SOL     OW16903   2.616   0.413   0.961  0.2632 -0.0512 -0.5433
 1757SOL    HW116904   2.575   0.334   0.996 -0.2039  0.8190  0.9037
 1757SOL    HW216905   2.659   0.385   0.880  0.5238 -1.8245  0.2094
 1758SOL     OW16906   0.927   4.116   2.997  0.1308  0.0557  0.0773
 1758SOL    HW116907   0.913   4.138   3.089  0.1303 -1.2974  0.3947
 1758SOL    HW216908   0.855   4.055   2.984 -0.5603  0.8305  0.2709
 1759SOL     OW16909   1.493   2.764   3.347 -0.3265  0.3479 -0.0829
 1759SOL    HW116910   1.406   2.790   3.315 -0.3875  3.2822  2.4925
 1759SOL    HW216911   1.549   2.836   3.321  0.9154 -0.7243 -0.3412
 1760SOL     OW16912   1.046   3.183   3.601 -0.3135  0.2992  0.3193
 1760SOL    HW116913   1.102   3.189   3.523 -0.3882  1.1976  0.3365
 1760SOL    HW216914   1.099   3.116   3.643  0.1559  1.0119  0.8720
 1761SOL     OW16915   3.262   4.215   2.761  0.0831 -0.3691 -0.4164
 1761SOL    HW116916   3.269   4.214   2.666 -0.9049  0.7781 -0.4996
 1761SOL    HW216917   3.240   4.123   2.776 -2.7543  0.5590  1.1322
 1762SOL     OW16918   3.763   4.562   3.246 -0.6848  0.2197 -0.5877
 1762SOL    HW116919   3.732   4.643   3.208 -0.3589  1.2537  1.3547
 1762SOL    HW216920   3.719   4.492   3.198 -0.7328 -0.2350  0.1135
 1763SOL     OW16921   2.082   3.631   7.823  0.1593 -0.1768 -0.2229
 1763SOL    HW116922   2.028   3.615   7.746 -1.0182  0.1377  0.5506
 1763SOL    HW216923   2.172   3.621   7.793  0.4228 -0.7456  0.7376
 1764SOL     OW16924   2.056   4.186   7.177 -0.0194  0.0923  0.6811
 1764SOL    HW116925   1.982   4.190   7.116  1.1884  0.2671 -0.7856
 1764SOL    HW216926   2.032   4.248   7.245 -0.4818 -0.4123  0.9709
 1765SOL     OW16927   3.816   2.962   1.287 -0.2226 -0.2235 -0.2451
 1765SOL    HW116928   3.785   2.942   1.198 -1.3667  0.9883 -0.1149
 1765SOL    HW216929   3.767   3.044   1.291 -1.1418 -0.6992 -1.4363
 1766SOL     OW16930   0.534   2.523  12.067 -0.5770 -0.2242 -0.2330
 1766SOL    HW116931   0.470   2.572  12.119 -0.0342  1.4096 -1.1375
 1766SOL    HW216932   0.589   2.494  12.140  0.6831 -1.8306 -1.8478
 1767SOL     OW16933   1.268   1.669   1.700  0.2736 -0.2417  0.0071
 1767SOL    HW116934   1.252   1.763   1.691  0.3295 -0.1317  1.0044
 1767SOL    HW216935   1.208   1.642   1.630  0.1240 -0.0897  0.0745
 1768SOL     OW16936   4.502   0.463   1.457 -0.1817  0.5784 -0.5333
 1768SOL    HW116937   4.513   0.518   1.535  1.3025 -0.4827  0.0089
 1768SOL    HW216938   4.597   0.458   1.447 -0.4964 -1.2543 -2.4670
 1769SOL     OW16939   0.259   0.472   5.845  0.2968 -0.1845  0.2799
 1769SOL    HW116940   0.316   0.398   5.868  0.6063 -0.7362 -2.3064
 1769SOL    HW216941   0.185   0.478   5.906 -1.0140 -0.2370 -1.2975
 1770SOL     OW16942   1.100   0.672  12.364 -0.2311 -0.1957  0.1589
 1770SOL    HW116943   1.143   0.589  12.343 -0.8420  0.0155 -1.9156
 1770SOL    HW216944   1.015   0.635  12.390 -0.1134  0.7761  1.8819
 1771SOL     OW16945   2.015   0.605   2.577 -0.0587  0.2036 -0.5330
 1771SOL    HW116946   1.929   0.566   2.564  0.4820 -0.9100 -0.7154
 1771SOL    HW216947   2.035   0.642   2.491  0.8772  0.7027 -0.1077
 1772SOL     OW16948   2.252   4.125   4.383  0.5049 -0.2240  0.3217
 1772SOL    HW116949   2.249   4.055   4.447 -0.2937 -0.0927  0.4365
 1772SOL    HW216950   2.330   4.110   4.329 -0.4663  2.0823 -1.7475
 1773SOL     OW16951   4.182   3.104   8.873 -0.3566  0.4253  0.3555
 1773SOL    HW116952   4.111   3.166   8.858 -0.2693  0.1560 -1.1258
 1773SOL    HW216953   4.141   3.027   8.833  0.0398  0.4587 -0.1191
 1774SOL     OW16954   2.028   4.501   5.185 -0.4403  0.6126  0.5454
 1774SOL    HW116955   2.060   4.564   5.120 -2.1366 -1.0640 -1.9085
 1774SOL    HW216956   1.953   4.548   5.223 -1.1834 -0.2702  0.1727
 1775SOL     OW16957   1.752   2.988   2.027  0.6614  0.7137  0.2543
 1775SOL    HW116958   1.675   3.045   2.036  0.5034  0.3889  0.9873
 1775SOL    HW216959   1.720   2.909   2.071 -2.7720  0.3872 -2.8349
 1776SOL     OW16960   2.496   3.734   5.249 -0.0767 -0.0537 -0.0614
 1776SOL    HW116961   2.427   3.793   5.216 -0.9479 -0.5150  0.9429
 1776SOL    HW216962   2.447   3.655   5.271 -1.9158  0.2340 -3.1866
 1777SOL     OW16963   0.278   0.509  11.687 -0.5532 -0.0090  0.4565
 1777SOL    HW116964   0.190   0.516  11.650  0.0322 -0.7264 -1.0805
 1777SOL    HW216965   0.265   0.421  11.721  0.2850 -0.9554 -1.6059
 1778SOL     OW16966   4.694   3.901   7.902 -0.4092  0.1056  0.0194
 1778SOL    HW116967   0.003   3.817   7.891 -1.4179 -0.3798 -0.2381
 1778SOL    HW216968   4.639   3.899   7.824  2.4063  1.9346 -2.0289
 1779SOL     OW16969   4.720   3.030  16.270 -0.2921  0.1188  0.0451
 1779SOL    HW116970   0.063   2.978  16.289 -1.7745 -1.6714  1.1840
 1779SOL    HW216971   4.682   3.038  16.358  0.9059  2.0463  0.3890
 1780SOL     OW16972   2.631   3.081  11.462 -0.4889  0.4421 -0.1580
 1780SOL    HW116973   2.704   3.022  11.445 -0.4337  0.7182 -0.8892
 1780SOL    HW216974   2.575   3.078  11.384 -0.2640  0.1111 -0.3061
 1781SOL     OW16975   0.979   0.317  12.350  0.0443  0.1776  0.3403
 1781SOL    HW116976   0.959   0.224  12.357  1.7932 -0.2945 -0.9153
 1781SOL    HW216977   1.073   0.313  12.372 -0.2351 -0.4133  1.4072
 1782SOL     OW16978   2.766   0.297   6.410  0.5101 -0.0511  0.0310
 1782SOL    HW116979   2.832   0.326   6.347  1.6302  1.2543  1.8009
 1782SOL    HW216980   2.756   0.374   6.466 -0.1855  0.0831 -0.2775
 1783SOL     OW16981   2.578   1.489   5.509  0.8345 -0.3432 -0.0119
 1783SOL    HW116982   2.600   1.582   5.506 -0.2162  0.0300  3.9220
 1783SOL    HW216983   2.488   1.487   5.478  0.0008 -0.5181  2.3776
 1784SOL     OW16984   3.704   3.821   9.159  0.5393 -0.0087  0.3267
 1784SOL    HW116985   3.653   3.899   9.137 -0.0858 -0.9454 -1.5358
 1784SOL    HW216986   3.765   3.820   9.085 -0.0588 -0.3528 -0.1580
 1785SOL     OW16987   3.440   2.653   8.220  0.2453  0.3981 -0.5659
 1785SOL    HW116988   3.404   2.607   8.144 -1.9496 -0.8859  1.2825
 1785SOL    HW216989   3.487   2.579   8.258 -1.0046 -0.9456 -1.6277
 1786SOL     OW16990   0.260   0.446   3.482  0.4817 -0.9218 -0.9602
 1786SOL    HW116991   0.179   0.492   3.503  1.4835  1.0554 -1.3697
 1786SOL    HW216992   0.309   0.456   3.564 -0.8063 -2.5539  0.0123
 1787SOL     OW16993   2.192   3.209   6.673 -0.6442  0.0519  0.0792
 1787SOL    HW116994   2.131   3.167   6.734  0.4886 -2.4245 -0.4581
 1787SOL    HW216995   2.270   3.190   6.725 -0.9380  0.7946  0.7938
 1788SOL     OW16996   1.165   2.500   2.586 -0.7417  0.3011 -0.3076
 1788SOL    HW116997   1.152   2.576   2.528  1.2567 -1.2949 -2.8823
 1788SOL    HW216998   1.091   2.445   2.561 -1.5361  1.8456 -1.3438
 1789SOL     OW16999   0.472   3.876   8.814 -0.0629 -0.0475 -0.4216
 1789SOL    HW117000   0.382   3.909   8.808 -0.1637 -0.5820 -1.7310
 1789SOL    HW217001   0.463   3.794   8.766 -0.8576  0.8329 -1.7775
 1790SOL     OW17002   2.388   0.050   6.068  0.4894  0.1754  0.0667
 1790SOL    HW117003   2.389   0.101   6.150  2.2274 -2.1441  1.4867
 1790SOL    HW217004   2.460   4.723   6.076  0.3296  0.0054  0.1964
 1791SOL     OW17005   1.958   2.484   7.441 -0.0110  0.6961 -0.3097
 1791SOL    HW117006   1.896   2.450   7.376 -1.0536  0.5457  0.7633
 1791SOL    HW217007   1.899   2.535   7.496 -0.6622  0.5085 -0.8349
 1792SOL     OW17008   0.357   4.309   4.987  0.1688 -0.4028 -0.6875
 1792SOL    HW117009   0.355   4.316   4.891  2.2607  1.5944 -0.5961
 1792SOL    HW217010   0.268   4.280   5.004  0.7979 -1.7761  0.2407
 1793SOL     OW17011   0.560   3.197  14.166  0.3567  0.6418  0.5713
 1793SOL    HW117012   0.570   3.102  14.157  0.6006  0.6750  0.5029
 1793SOL    HW217013   0.473   3.207  14.205 -0.6562 -0.1323 -1.4585
 1794SOL     OW17014   2.148   2.921   8.211 -0.7831 -0.9620  0.1904
 1794SOL    HW117015   2.083   2.854   8.191 -2.1212 -0.3022  2.3376
 1794SOL    HW217016   2.202   2.868   8.269 -1.5519  1.3768  3.0488
 1795SOL     OW17017   4.036   0.630   5.337  0.4633 -0.2397 -0.2643
 1795SOL    HW117018   4.045   0.724   5.324  1.8281 -0.5431 -1.5366
 1795SOL    HW217019   4.102   0.618   5.404  0.1951 -1.8278 -0.2816
 1796SOL     OW17020   3.269   4.026   9.666 -0.1562  0.6467 -0.2937
 1796SOL    HW117021   3.195   3.999   9.720 -0.8597  1.9632 -0.6182
 1796SOL    HW217022   3.297   3.942   9.628 -0.0920  0.3567  0.3867
 1797SOL     OW17023   2.603   3.413   4.438 -0.1187  0.0488  0.3022
 1797SOL    HW117024   2.555   3.397   4.357  0.3224  0.2911 -0.0097
 1797SOL    HW217025   2.604   3.328   4.482 -0.1110 -0.4737 -0.7326
 1798SOL     OW17026   2.691   3.262   2.806  0.5461 -0.0203 -0.0335
 1798SOL    HW117027   2.704   3.253   2.900  0.3314  3.3160  0.3027
 1798SOL    HW217028   2.683   3.357   2.795 -1.2951 -0.2029 -0.2793
 1799SOL     OW17029   1.947   4.559   3.987  0.5249 -0.0013 -0.1774
 1799SOL    HW117030   1.872   4.528   4.038 -0.2746  4.8639  1.6226
 1799SOL    HW217031   1.986   4.475   3.965  0.4598 -0.0583 -0.0764
 1800SOL     OW17032   2.718   2.048   1.969  0.2565  0.2230  0.0297
 1800SOL    HW117033   2.732   1.963   2.010 -1.3653  0.4646  1.0510
 1800SOL    HW217034   2.681   2.091   2.046  0.1467 -0.4967  0.3754
 1801SOL     OW17035   4.404   0.753  10.573 -0.5957  0.1229 -0.2244
 1801SOL    HW117036   4.437   0.667  10.600 -2.4831 -0.1601  1.2210
 1801SOL    HW217037   4.490   0.787  10.549  0.1641 -0.5372  1.5558
 1802SOL     OW17038   4.125   4.610   8.902 -0.9510 -0.8490 -0.1116
 1802SOL    HW117039   4.187   4.641   8.836 -0.6500  2.2035  1.6244
 1802SOL    HW217040   4.051   4.667   8.879 -0.8970 -0.7611 -0.0651
 1803SOL     OW17041   4.217   4.000   9.727 -0.1057 -0.0620  0.3345
 1803SOL    HW117042   4.122   4.008   9.722 -0.3642 -1.6509  2.6549
 1803SOL    HW217043   4.232   3.918   9.774  2.9820  1.7602  2.4501
 1804SOL     OW17044   1.128   3.776   8.695 -0.6254 -0.7900 -0.1220
 1804SOL    HW117045   1.145   3.802   8.785  1.5235  0.0370 -0.7423
 1804SOL    HW217046   1.053   3.831   8.673 -0.8472 -0.9166  0.3192
 1805SOL     OW17047   2.276   2.178  16.969  0.3909  0.7535 -0.1823
 1805SOL    HW117048   2.318   2.148  17.051 -0.2614  1.3193  0.3551
 1805SOL    HW217049   2.326   2.258  16.953  0.8051  0.3105 -1.1060
 1806SOL     OW17050   1.249   0.731   8.875 -0.0190 -0.1355 -0.6903
 1806SOL    HW117051   1.329   0.692   8.911 -1.1378  0.2762  2.2540
 1806SOL    HW217052   1.235   0.700   8.786 -1.3598  1.1078 -0.9125
 1807SOL     OW17053   2.261   3.554  13.347 -0.1625  0.6091  0.2686
 1807SOL    HW117054   2.264   3.530  13.254 -0.9683 -0.6297  0.5616
 1807SOL    HW217055   2.207   3.486  13.387  1.4872 -0.2719  0.9866
 1808SOL     OW17056   1.444   1.471   8.570  0.1728 -0.3604 -0.1440
 1808SOL    HW117057   1.432   1.420   8.650  0.2925  0.2554  0.2615
 1808SOL    HW217058   1.360   1.458   8.525  1.1403  0.2279 -2.0955
 1809SOL     OW17059   0.732   1.497  13.190  0.1555  0.3017  0.2543
 1809SOL    HW117060   0.823   1.467  13.183  0.7633  1.7236  2.0774
 1809SOL    HW217061   0.743   1.568  13.127 -2.7216  1.5583  1.2053
 1810SOL     OW17062   0.150   0.283  11.459 -0.4444  0.4237  0.2073
 1810SOL    HW117063   0.114   0.359  11.504 -0.3231 -0.6503  2.1195
 1810SOL    HW217064   0.225   0.276  11.517  0.9237  2.4937 -1.3066
 1811SOL     OW17065   1.064   1.853   5.453  0.1778 -0.4920  0.3746
 1811SOL    HW117066   1.025   1.845   5.366 -0.4190  0.5983  0.5366
 1811SOL    HW217067   1.047   1.768   5.494  1.4168  0.3499  2.6401
 1812SOL     OW17068   1.635   4.054   5.121 -0.7277  0.2246 -0.1353
 1812SOL    HW117069   1.546   4.021   5.114 -1.0177  0.9926  0.0398
 1812SOL    HW217070   1.626   4.145   5.094 -1.4212 -0.0503 -0.8109
 1813SOL     OW17071   0.091   2.504   7.569  0.0371  0.2216  0.1705
 1813SOL    HW117072   0.055   2.441   7.630  0.5300 -1.6944 -1.5357
 1813SOL    HW217073   0.014   2.553   7.540 -0.3324 -0.0144  0.7759
 1814SOL     OW17074   0.144   4.125   7.813 -0.4254 -0.1190 -0.1707
 1814SOL    HW117075   0.121   4.033   7.828  2.6510 -0.5840  1.7659
 1814SOL    HW217076   0.148   4.133   7.718  3.1435 -0.5654 -0.0657
 1815SOL     OW17077   0.984   4.210   1.571 -0.2616  0.0535 -0.2300
 1815SOL    HW117078   0.975   4.298   1.607  4.2397  0.7924 -0.8783
 1815SOL    HW217079   0.923   4.158   1.622  0.5934 -1.6219 -0.9268
 1816SOL     OW17080   1.219   0.217  12.429  0.4347 -0.2983  0.0064
 1816SOL    HW117081   1.238   0.177  12.514 -1.3573 -1.3312 -0.0843
 1816SOL    HW217082   1.254   0.148  12.373  1.7077 -0.2915  0.7962
 1817SOL     OW17083   1.183   4.345  16.209 -0.2873 -0.0390  0.0449
 1817SOL    HW117084   1.105   4.291  16.222 -0.1995 -0.7930 -2.4209
 1817SOL    HW217085   1.144   4.405  16.146 -2.7216  0.6165  2.1959
 1818SOL     OW17086   0.392   1.069  11.531 -0.1065 -0.4188 -0.1735
 1818SOL    HW117087   0.417   0.989  11.485  0.4065 -1.1699  1.4093
 1818SOL    HW217088   0.333   1.104  11.464  0.6650  0.5110 -0.3695
 1819SOL     OW17089   2.155   2.191   1.699  0.1912 -0.0013  0.4889
 1819SOL    HW117090   2.181   2.276   1.734  0.7085 -0.0006  0.0980
 1819SOL    HW217091   2.232   2.166   1.648 -0.4251 -3.7352  1.3895
 1820SOL     OW17092   4.216   3.473   4.201 -0.1087  0.4355 -0.5177
 1820SOL    HW117093   4.269   3.491   4.278  1.4640 -1.4424 -1.1814
 1820SOL    HW217094   4.126   3.495   4.227  0.0562  0.9199 -0.3547
 1821SOL     OW17095   1.167   4.431  15.053 -0.1181 -0.1628 -0.4746
 1821SOL    HW117096   1.213   4.351  15.028 -0.3820 -1.0078  1.7292
 1821SOL    HW217097   1.077   4.401  15.066 -0.0896 -0.5586 -1.2240
 1822SOL     OW17098   3.976   0.173   7.593 -0.3964 -0.0078 -0.3325
 1822SOL    HW117099   3.925   0.253   7.590 -1.4696 -0.6995 -0.5187
 1822SOL    HW217100   3.906   0.118   7.628  2.2483 -2.1629  1.7027
 1823SOL     OW17101   1.894   1.737   0.580 -0.1607  0.0712 -0.0123
 1823SOL    HW117102   1.974   1.745   0.527  1.0405  1.6323  2.0666
 1823SOL    HW217103   1.892   1.822   0.622 -3.1055 -0.0548  0.1240
 1824SOL     OW17104   0.368   2.090  10.935 -0.1777 -0.6487  0.1486
 1824SOL    HW117105   0.441   2.044  10.975 -0.6599 -0.2132  1.5267
 1824SOL    HW217106   0.305   2.018  10.934 -0.7333 -0.1506 -0.4831
 1825SOL     OW17107   3.564   1.284  15.252 -0.4086 -0.0190  0.2299
 1825SOL    HW117108   3.543   1.192  15.268 -0.5368 -0.2856 -1.4763
 1825SOL    HW217109   3.641   1.283  15.309 -1.8382  2.2079  2.1905
 1826SOL     OW17110   0.625   3.186   7.758 -0.0104  0.2739  0.3696
 1826SOL    HW117111   0.535   3.201   7.786  0.4372  1.4946  1.1429
 1826SOL    HW217112   0.660   3.170   7.846  0.8226 -2.7934 -0.5182
 1827SOL     OW17113   1.760   0.905   6.308  0.3152  0.1103  0.5001
 1827SOL    HW117114   1.753   1.000   6.317 -1.5448 -0.2821  3.1592
 1827SOL    HW217115   1.852   0.885   6.288  0.2531 -0.7484  1.0551
 1828SOL     OW17116   3.139   2.408   4.815  0.2723  0.5267 -0.0723
 1828SOL    HW117117   3.148   2.313   4.806 -0.0225  0.6134 -1.3427
 1828SOL    HW217118   3.230   2.428   4.794  0.5827 -1.5436 -0.7675
 1829SOL     OW17119   1.632   1.585   8.403 -0.3884  0.4864  0.3264
 1829SOL    HW117120   1.635   1.498   8.363  1.2906  0.9294 -0.5023
 1829SOL    HW217121   1.569   1.553   8.468  1.4929 -0.4117  1.7241
 1830SOL     OW17122   4.344   4.589  15.506 -0.2867 -0.3102 -0.6441
 1830SOL    HW117123   4.411   4.629  15.560 -1.4180 -1.3400  1.5135
 1830SOL    HW217124   4.368   4.496  15.515 -0.9569 -0.5688 -1.5119
 1831SOL     OW17125   3.190   4.620   1.262  0.1960  0.2676 -0.2827
 1831SOL    HW117126   3.284   4.630   1.245  0.5667 -0.3116  1.4128
 1831SOL    HW217127   3.183   4.525   1.254 -0.7506  0.4112 -1.0993
 1832SOL     OW17128   2.803   2.410   1.097  0.5501  0.2262 -0.0345
 1832SOL    HW117129   2.788   2.369   1.182 -1.0993  0.4660 -0.2224
 1832SOL    HW217130   2.718   2.453   1.089  0.7811  0.6195 -0.3772
 1833SOL     OW17131   4.389   3.772   5.900  0.0120 -0.0937 -0.2586
 1833SOL    HW117132   4.328   3.846   5.907  0.8532  0.8414 -2.8692
 1833SOL    HW217133   4.357   3.726   5.823  0.3544 -0.6548 -0.0655
 1834SOL     OW17134   4.672   0.271  14.492 -0.0956  0.3164  0.1675
 1834SOL    HW117135   0.012   0.211  14.492 -1.0757 -0.8893 -0.4124
 1834SOL    HW217136   4.660   0.292  14.585  0.5194 -1.1798  0.5688
 1835SOL     OW17137   3.396   1.551   5.645  0.1211 -0.5140 -0.0922
 1835SOL    HW117138   3.302   1.537   5.657  0.4752 -1.7521  1.2121
 1835SOL    HW217139   3.406   1.646   5.648 -3.1363 -0.2000  0.6665
 1836SOL     OW17140   2.642   4.118   6.804 -0.0183  0.2286 -0.4351
 1836SOL    HW117141   2.644   4.152   6.894  1.0659 -2.7886  0.6828
 1836SOL    HW217142   2.651   4.023   6.815 -1.3269  0.4117  2.5222
 1837SOL     OW17143   1.835   1.405   8.142 -0.2140  0.0425  0.2397
 1837SOL    HW117144   1.819   1.498   8.124 -0.9061 -0.7122 -3.0999
 1837SOL    HW217145   1.858   1.383   8.051 -0.2989 -0.1500  0.2644
 1838SOL     OW17146   4.231   0.224   1.519  0.1582  0.2396  0.0266
 1838SOL    HW117147   4.187   0.267   1.592 -0.2650 -4.1959  2.4130
 1838SOL    HW217148   4.214   0.134   1.548  0.9827  0.3810  0.9451
 1839SOL     OW17149   1.070   0.498   7.313  0.5972 -0.1459  0.2769
 1839SOL    HW117150   0.979   0.505   7.342  0.6589  0.1207  0.4011
 1839SOL    HW217151   1.091   0.414   7.353  1.3752 -0.0835 -0.0055
 1840SOL     OW17152   3.154   1.203   2.496 -0.2365 -0.3023 -0.1046
 1840SOL    HW117153   3.133   1.137   2.562 -3.2588 -2.7447 -3.5383
 1840SOL    HW217154   3.070   1.242   2.471  0.5927  0.9267 -0.9578
 1841SOL     OW17155   3.213   0.312   7.568  0.2659  0.2309  0.1659
 1841SOL    HW117156   3.126   0.303   7.607  0.8784  1.1288  1.7051
 1841SOL    HW217157   3.184   0.381   7.509 -2.4938  0.0421  1.2912
 1842SOL     OW17158   1.125   1.545  12.894  0.3477  0.2682  0.0307
 1842SOL    HW117159   1.054   1.604  12.868 -1.4396 -0.6518  2.8703
 1842SOL    HW217160   1.134   1.507  12.806 -3.3536  1.4271 -0.8269
 1843SOL     OW17161   2.359   0.564   2.474 -0.0282 -0.0711  0.1731
 1843SOL    HW117162   2.330   0.504   2.543  0.1981 -0.1825  0.1687
 1843SOL    HW217163   2.443   0.593   2.511 -0.9945  2.8655  0.0993
 1844SOL     OW17164   4.138   3.991   2.392  0.5425  0.0275  0.3038
 1844SOL    HW117165   4.086   4.062   2.355  0.3699 -0.7847 -1.0138
 1844SOL    HW217166   4.197   3.969   2.319  0.0329 -0.0204 -0.0995
 1845SOL     OW17167   4.010   4.460   1.589 -0.2119 -0.0483  0.2990
 1845SOL    HW117168   3.915   4.456   1.589 -0.1099 -2.3891  1.2189
 1845SOL    HW217169   4.031   4.551   1.610  0.4506 -0.1357  0.0409
 1846SOL     OW17170   2.387   2.634   1.885  0.1789 -0.0716  0.0127
 1846SOL    HW117171   2.397   2.666   1.975 -1.0100 -0.3946  0.2562
 1846SOL    HW217172   2.443   2.693   1.834  1.3312 -1.5538 -0.4469
 1847SOL     OW17173   3.362   0.436   4.471 -0.3650  0.4648 -0.4340
 1847SOL    HW117174   3.319   0.354   4.493  2.3222 -0.8040  0.0593
 1847SOL    HW217175   3.296   0.466   4.409 -1.6663 -1.9572 -0.2142
 1848SOL     OW17176   2.302   3.812  17.591 -0.0299 -1.0333 -0.1005
 1848SOL    HW117177   2.209   3.823  17.572 -0.5320 -2.7169  1.3520
 1848SOL    HW217178   2.304   3.729  17.639  3.0298 -2.0252 -1.8935
 1849SOL     OW17179   4.259   1.841   6.735 -0.1384  0.1429 -0.0252
 1849SOL    HW117180   4.301   1.927   6.729  0.7802 -0.4753 -2.3038
 1849SOL    HW217181   4.329   1.780   6.758 -1.3289 -0.5396  1.7988
 1850SOL     OW17182   1.302   4.448   6.843  0.1578 -0.5439 -0.2028
 1850SOL    HW117183   1.229   4.410   6.795 -0.2059 -1.0701  0.7555
 1850SOL    HW217184   1.291   4.540   6.819 -1.9301 -0.3404  1.4845
 1851SOL     OW17185   4.098   1.932   3.153 -0.0879  0.2473  0.3808
 1851SOL    HW117186   4.138   1.877   3.220 -0.0360  0.1487  0.2685
 1851SOL    HW217187   4.050   1.999   3.203  0.5399  1.7639 -1.0378
 1852SOL     OW17188   0.911   0.842  10.443 -0.1212 -0.4713  0.1105
 1852SOL    HW117189   0.935   0.927  10.481  1.8532 -0.5111 -1.0795
 1852SOL    HW217190   0.986   0.792  10.474 -0.2336 -0.8709 -0.2696
 1853SOL     OW17191   4.504   2.196   7.448  0.5341 -0.1778  0.0468
 1853SOL    HW117192   4.429   2.143   7.421  0.1301 -1.2762  3.2137
 1853SOL    HW217193   4.464   2.242   7.523 -2.1708  0.5419 -1.8358
 1854SOL     OW17194   1.095   2.674   7.101 -0.8724 -0.2961 -0.4968
 1854SOL    HW117195   1.007   2.644   7.122 -1.4884  1.9637  0.1965
 1854SOL    HW217196   1.079   2.757   7.055 -1.0239 -0.4635 -0.7445
 1855SOL     OW17197   0.008   4.504   5.119 -0.3641 -0.4364 -0.5870
 1855SOL    HW117198   0.077   4.505   5.186 -1.5959 -0.2631  0.6851
 1855SOL    HW217199   0.032   4.413   5.102 -1.4672 -0.6010 -1.2637
 1856SOL     OW17200   4.504   0.630   3.045 -0.1755 -0.9864 -0.0884
 1856SOL    HW117201   4.484   0.622   3.138  2.8248 -2.2762  0.4651
 1856SOL    HW217202   4.456   0.556   3.009 -0.7395  0.3432 -2.0494
 1857SOL     OW17203   0.311   4.388   2.253 -0.0788  0.0231 -0.3808
 1857SOL    HW117204   0.230   4.338   2.245 -0.7192  1.0782 -0.5039
 1857SOL    HW217205   0.336   4.362   2.342  1.3781 -0.2254 -0.8542
 1858SOL     OW17206   3.180   2.031  17.551  0.3730 -0.8524  0.1833
 1858SOL    HW117207   3.191   1.986  17.635  1.4865 -0.0820  0.4592
 1858SOL    HW217208   3.228   2.113  17.565  0.1214 -0.7078  0.1958
 1859SOL     OW17209   4.407   1.848   9.287  0.0376 -0.2873  0.2654
 1859SOL    HW117210   4.418   1.754   9.300 -1.8646 -0.7287 -1.4037
 1859SOL    HW217211   4.498   1.876   9.299  0.1374 -0.9967  1.1688
 1860SOL     OW17212   1.533   2.038   1.802 -0.0860 -0.5700 -0.0265
 1860SOL    HW117213   1.520   2.076   1.889  0.4385 -1.0540  0.2723
 1860SOL    HW217214   1.625   2.013   1.815 -0.3057 -0.3717  1.8881
 1861SOL     OW17215   0.870   2.357   3.807  0.0521  0.0355  0.1756
 1861SOL    HW117216   0.894   2.442   3.842  1.9813 -1.1439  1.7337
 1861SOL    HW217217   0.808   2.324   3.873  2.2008 -2.1937  1.0812
 1862SOL     OW17218   3.010   0.606  10.447  0.1363  0.3562  0.0409
 1862SOL    HW117219   2.942   0.606  10.514  1.3196  0.1448  1.2502
 1862SOL    HW217220   3.052   0.521  10.456  0.3284  0.7043  2.4407
 1863SOL     OW17221   1.968   1.511   1.950 -0.1144  0.2779  0.0384
 1863SOL    HW117222   1.956   1.605   1.968 -1.4417 -0.0713  1.0025
 1863SOL    HW217223   2.058   1.495   1.978 -0.7393 -0.5958  1.5311
 1864SOL     OW17224   0.354   0.687   6.134  0.2370  0.1615  0.0878
 1864SOL    HW117225   0.396   0.707   6.218  0.6831 -0.1774 -0.0537
 1864SOL    HW217226   0.400   0.604   6.117  1.0639  0.6850 -0.2131
 1865SOL     OW17227   0.667   1.058   6.068 -0.6161  0.2305 -0.8652
 1865SOL    HW117228   0.654   0.985   6.129  1.8682  1.2186  0.8478
 1865SOL    HW217229   0.731   1.012   6.014  0.7697  0.9901  0.1174
 1866SOL     OW17230   2.847   0.425  15.489 -0.9637 -0.3969  0.4218
 1866SOL    HW117231   2.866   0.341  15.447 -1.8500 -0.6581  0.5437
 1866SOL    HW217232   2.753   0.425  15.471 -0.6048 -0.7755 -1.5000
 1867SOL     OW17233   2.357   2.989   9.897 -0.0852  0.2488  0.8216
 1867SOL    HW117234   2.314   2.931   9.959 -1.6787  0.0681 -0.4718
 1867SOL    HW217235   2.434   2.943   9.864 -0.0677  0.1394  1.0144
 1868SOL     OW17236   1.714   1.183  12.126 -0.2578 -0.0355  0.3532
 1868SOL    HW117237   1.656   1.115  12.161  0.6489  0.6116  3.1255
 1868SOL    HW217238   1.680   1.264  12.164 -1.3897 -0.2971 -0.1074
 1869SOL     OW17239   2.203   1.488   2.117  0.0328  0.2946 -0.3247
 1869SOL    HW117240   2.255   1.459   2.192 -0.6028  1.5097  0.5790
 1869SOL    HW217241   2.268   1.546   2.077  2.3232 -0.7772  1.8501
 1870SOL     OW17242   4.051   2.881   8.820  0.2028  0.2492 -0.1702
 1870SOL    HW117243   3.989   2.811   8.840  1.5680 -1.0967 -0.6220
 1870SOL    HW217244   4.119   2.831   8.775  0.3047 -1.7852  2.2734
 1871SOL     OW17245   0.121   4.391  17.731  0.3273  0.3642  0.6099
 1871SOL    HW117246   0.035   4.403   0.034  0.9694  0.6396  1.8469
 1871SOL    HW217247   0.132   4.483  17.708 -3.4357  0.5751 -0.3283
 1872SOL     OW17248   4.089   1.678   1.991  0.0923 -0.5608  0.2778
 1872SOL    HW117249   4.129   1.671   2.078  0.4368 -0.7750  0.1049
 1872SOL    HW217250   4.084   1.588   1.958  0.3841 -0.9505  1.2918
 1873SOL     OW17251   2.949   2.055   3.263 -0.2113  0.1329 -0.6465
 1873SOL    HW117252   2.870   2.002   3.247 -1.4033  1.3194  1.3268
 1873SOL    HW217253   2.946   2.127   3.201  2.3215  1.6026  0.9647
 1874SOL     OW17254   1.509   0.644  15.386  0.2523 -0.0369 -0.3665
 1874SOL    HW117255   1.547   0.722  15.427  1.1565 -1.1015  0.8344
 1874SOL    HW217256   1.529   0.659  15.294 -0.1093  0.0179 -0.4380
 1875SOL     OW17257   4.039   2.657   7.609  0.2736  0.4542  0.4044
 1875SOL    HW117258   3.983   2.609   7.671  0.7133 -0.5950 -0.0061
 1875SOL    HW217259   4.075   2.580   7.564 -1.0286  0.2808 -0.3219
 1876SOL     OW17260   2.688   3.351   6.585 -0.5556  0.3279 -0.7033
 1876SOL    HW117261   2.644   3.436   6.592 -2.9048 -0.9766  0.4177
 1876SOL    HW217262   2.682   3.344   6.490  1.3757  0.3382 -0.8197
 1877SOL     OW17263   2.850   0.182   5.289 -0.0105  0.5564 -0.5338
 1877SOL    HW117264   2.898   0.131   5.353  0.9761 -0.0345 -1.7360
 1877SOL    HW217265   2.882   0.150   5.205  1.3079  1.1324 -0.2469
 1878SOL     OW17266   3.503   3.181  16.608 -0.2822  0.1356  0.2887
 1878SOL    HW117267   3.584   3.140  16.580 -1.1613 -0.5798 -1.1918
 1878SOL    HW217268   3.523   3.190  16.701  1.5451 -1.0193 -0.0192
 1879SOL     OW17269   4.673   2.219   4.572  0.0464 -1.2716 -0.1511
 1879SOL    HW117270   4.612   2.224   4.646 -0.7496  1.0788 -0.9860
 1879SOL    HW217271   4.648   2.299   4.526  2.6030 -0.8095 -0.7346
 1880SOL     OW17272   3.138   0.796   6.839  0.1953 -0.0534  0.1406
 1880SOL    HW117273   3.077   0.767   6.907 -0.6955  0.3627 -0.4807
 1880SOL    HW217274   3.182   0.871   6.878  0.7946 -1.5360  2.3501
 1881SOL     OW17275   0.153   4.715   3.701  0.5888  0.3524  0.5009
 1881SOL    HW117276   0.120   0.064   3.734  2.8090  1.4071  0.0219
 1881SOL    HW217277   0.228   0.015   3.653 -0.3397 -1.8374 -2.4959
 1882SOL     OW17278   3.888   2.132   8.404  0.6354 -0.2515  0.0667
 1882SOL    HW117279   3.839   2.079   8.342 -0.1256 -1.0459  1.3411
 1882SOL    HW217280   3.920   2.065   8.464  2.3856  1.9157  1.5432
 1883SOL     OW17281   3.754   2.647  16.208 -0.0142 -0.3170  0.2055
 1883SOL    HW117282   3.811   2.722  16.225 -0.9299  0.6832 -1.1771
 1883SOL    HW217283   3.707   2.642  16.291 -1.8247 -1.5187 -0.9146
 1884SOL     OW17284   2.975   0.865  10.365  0.3520  0.0233  0.0152
 1884SOL    HW117285   2.984   0.772  10.384  0.9608 -0.2178 -1.4415
 1884SOL    HW217286   2.979   0.874  10.270 -1.5479 -1.8263 -0.2288
 1885SOL     OW17287   4.155   3.780  15.774  0.2439 -0.6014 -0.5215
 1885SOL    HW117288   4.080   3.755  15.719 -0.2462 -1.4082  0.5110
 1885SOL    HW217289   4.223   3.726  15.735  1.9965  0.7437  0.6764
 1886SOL     OW17290   3.877   1.846   5.705 -0.0365  0.1035 -0.2278
 1886SOL    HW117291   3.839   1.841   5.618  1.3201 -1.2501 -0.7356
 1886SOL    HW217292   3.971   1.864   5.693  0.0837  0.4160  1.1713
 1887SOL     OW17293   3.753   3.838   4.905  0.2799 -0.5000 -0.1382
 1887SOL    HW117294   3.668   3.876   4.885  0.7023  0.0763 -0.8495
 1887SOL    HW217295   3.793   3.903   4.963 -1.9785 -1.1889  2.2307
 1888SOL     OW17296   3.805   2.901  16.525  0.5798  0.4342 -0.1512
 1888SOL    HW117297   3.821   2.867  16.613  1.2747 -1.7009 -1.1099
 1888SOL    HW217298   3.764   2.826  16.481  0.6418 -0.1256  0.7277
 1889SOL     OW17299   1.022   0.992   7.124 -0.0815 -0.4892 -0.1425
 1889SOL    HW117300   1.113   0.968   7.144 -1.0653 -1.6579  2.8270
 1889SOL    HW217301   1.037   1.031   7.037 -0.2794 -1.1689 -0.4781
 1890SOL     OW17302   0.599   4.649   2.533  0.6669  0.1701  0.4022
 1890SOL    HW117303   0.652   4.625   2.610  0.5553  0.9887  0.7259
 1890SOL    HW217304   0.525   4.589   2.543 -0.9413  2.0839 -0.0850
 1891SOL     OW17305   1.040   2.925   4.677  0.6138  0.0096  0.2894
 1891SOL    HW117306   1.100   2.863   4.718  0.9963 -0.1185 -0.4579
 1891SOL    HW217307   1.098   2.973   4.618 -1.6458  1.6536 -0.6032
 1892SOL     OW17308   4.502   1.238   5.211 -0.2107  0.3177  0.7215
 1892SOL    HW117309   4.556   1.236   5.132 -1.7953 -1.5080 -0.2999
 1892SOL    HW217310   4.470   1.328   5.204 -1.4958 -0.2130 -0.0744
 1893SOL     OW17311   0.906   4.078   5.139  0.8501 -0.2257 -0.4425
 1893SOL    HW117312   0.846   4.150   5.155  0.7301 -0.0085 -1.8618
 1893SOL    HW217313   0.870   4.011   5.198 -0.0259  0.7352  0.0988
 1894SOL     OW17314   2.752   0.515   1.850 -0.3167 -0.2600 -0.2906
 1894SOL    HW117315   2.764   0.530   1.944  0.2040  3.0120 -0.8778
 1894SOL    HW217316   2.689   0.586   1.847 -1.8338 -1.6203 -0.8324
 1895SOL     OW17317   0.622   0.127   5.804 -0.5613 -0.3987 -0.0282
 1895SOL    HW117318   0.588   0.042   5.776 -1.2315 -0.5179  1.1760
 1895SOL    HW217319   0.678   0.142   5.727  0.4759  1.2159  1.0388
 1896SOL     OW17320   0.408   3.209   0.277  0.2379 -0.4199  0.5168
 1896SOL    HW117321   0.463   3.276   0.318 -0.0199  1.2094 -1.7699
 1896SOL    HW217322   0.390   3.255   0.195 -2.7826  1.4769  2.2293
 1897SOL     OW17323   1.951   2.741   9.686  0.1298 -0.1833  0.1529
 1897SOL    HW117324   1.972   2.833   9.701 -0.9510 -0.1802  1.5966
 1897SOL    HW217325   1.883   2.734   9.753  0.0235 -1.8421 -0.1300
 1898SOL     OW17326   3.038   4.083  15.889  0.6985 -0.5529 -0.5190
 1898SOL    HW117327   3.007   4.016  15.950 -0.6923 -1.2897 -2.0408
 1898SOL    HW217328   2.975   4.101  15.820  0.0668 -1.3416 -0.1447
 1899SOL     OW17329   2.378   1.004  12.652  0.5494  0.7074  0.3049
 1899SOL    HW117330   2.425   1.079  12.690  0.4777 -0.3911  2.6165
 1899SOL    HW217331   2.423   0.935  12.702 -0.7979 -0.2161  0.2353
 1900SOL     OW17332   1.433   2.468   1.182 -0.6001 -0.3550  0.0066
 1900SOL    HW117333   1.527   2.474   1.170 -0.5804  1.5475  1.0967
 1900SOL    HW217334   1.433   2.390   1.239 -2.3457 -0.3954 -0.0296
 1901SOL     OW17335   1.005   2.167   1.882 -0.4236 -0.2553 -0.2680
 1901SOL    HW117336   0.980   2.225   1.810  0.9548  1.1843  0.4037
 1901SOL    HW217337   1.078   2.221   1.912 -1.7499  1.0573  0.6207
 1902SOL     OW17338   2.664   4.600   5.583  0.0840  0.6343 -0.6980
 1902SOL    HW117339   2.731   4.536   5.607 -1.7279 -0.8843  0.2807
 1902SOL    HW217340   2.580   4.560   5.561  1.1658 -0.3745 -2.9596
 1903SOL     OW17341   0.490   4.324  11.369 -0.1839  0.3127 -0.0564
 1903SOL    HW117342   0.419   4.374  11.329  0.1665  2.1931  1.6868
 1903SOL    HW217343   0.445   4.243  11.395  0.3311  0.1372  0.2970
 1904SOL     OW17344   3.757   3.712   5.769 -0.0818 -0.1627 -0.0818
 1904SOL    HW117345   3.699   3.716   5.845 -1.1844 -2.2912 -0.8252
 1904SOL    HW217346   3.808   3.792   5.786 -0.9252 -0.0635  1.9439
 1905SOL     OW17347   3.509   1.948  14.830 -0.2670 -0.5457  0.0128
 1905SOL    HW117348   3.441   1.933  14.764 -0.7266  0.3692  0.2729
 1905SOL    HW217349   3.453   1.958  14.906 -0.1934 -1.0637  0.1332
 1906SOL     OW17350   3.873   0.278   4.906  0.2408  0.2642  0.9020
 1906SOL    HW117351   3.814   0.258   4.979  0.8257  0.6190  1.4731
 1906SOL    HW217352   3.940   0.210   4.921  1.4133  1.9398  3.2153
 1907SOL     OW17353   0.191   4.482   5.359  0.4392 -0.0416  0.8510
 1907SOL    HW117354   0.226   4.571   5.355  0.7319 -0.1649  0.6068
 1907SOL    HW217355   0.161   4.480   5.450 -0.5442  1.5822  0.5485
 1908SOL     OW17356   2.483   3.405   4.145  0.2164  0.3368 -0.2228
 1908SOL    HW117357   2.403   3.439   4.105  0.6232 -1.6811 -2.7053
 1908SOL    HW217358   2.557   3.454   4.109  1.2401 -0.0229  1.3919
 1909SOL     OW17359   1.363   1.145  15.276 -0.1704  0.4381  0.2813
 1909SOL    HW117360   1.438   1.193  15.312 -1.1420  0.4159  2.3346
 1909SOL    HW217361   1.377   1.157  15.182 -1.0935  0.4478  0.1438
 1910SOL     OW17362   2.104   1.756   0.418  0.0623 -0.4301  0.1881
 1910SOL    HW117363   2.182   1.806   0.394  0.3474 -1.3983 -0.9205
 1910SOL    HW217364   2.145   1.671   0.432 -0.1076 -0.1776  2.2087
 1911SOL     OW17365   3.393   0.752   1.975 -0.1372 -0.0236  0.2209
 1911SOL    HW117366   3.315   0.695   1.977  0.3847 -0.6736  2.2148
 1911SOL    HW217367   3.410   0.753   2.069  2.9124 -1.7429 -0.3251
 1912SOL     OW17368   0.124   2.854   3.188  0.0100 -0.1170 -0.0389
 1912SOL    HW117369   0.123   2.868   3.093 -0.2615  1.3388  0.1706
 1912SOL    HW217370   0.071   2.776   3.199  3.1040 -2.5215 -2.1481
 1913SOL     OW17371   3.426   4.726   1.231  0.0485  0.3395  0.1115
 1913SOL    HW117372   3.512   4.714   1.190  0.7754 -2.8242  2.5831
 1913SOL    HW217373   3.407   0.079   1.198  0.2930  0.1482 -0.5328
 1914SOL     OW17374   4.619   4.415   3.394  0.7595 -0.5370  0.1577
 1914SOL    HW117375   4.702   4.442   3.354  0.1312  0.4471 -0.4992
 1914SOL    HW217376   4.585   4.347   3.336  0.8423 -1.3438  1.0622
 1915SOL     OW17377   3.703   0.866   6.008  0.0931 -0.4458  0.4800
 1915SOL    HW117378   3.673   0.781   6.039  0.8795 -0.5495  0.9661
 1915SOL    HW217379   3.728   0.911   6.089 -0.3249  0.5262  0.0725
 1916SOL     OW17380   1.996   1.121   0.581  0.3260  0.3395 -0.2489
 1916SOL    HW117381   1.937   1.189   0.614 -1.6600 -2.1359  1.3122
 1916SOL    HW217382   2.013   1.082   0.667 -1.0088  1.4335  0.5148
 1917SOL     OW17383   3.022   1.424   9.292  0.4800  0.5948 -0.0763
 1917SOL    HW117384   3.098   1.383   9.331  0.0865 -0.7009 -0.6535
 1917SOL    HW217385   3.049   1.422   9.200  1.3657  1.4917  0.1724
 1918SOL     OW17386   2.708   3.712   6.160  0.4540  0.1490 -0.5339
 1918SOL    HW117387   2.788   3.755   6.129  2.0980 -1.0930  2.0087
 1918SOL    HW217388   2.654   3.748   6.090  0.6865  1.2482 -0.1492
 1919SOL     OW17389   2.904   0.587   1.048 -0.0724  0.2656 -0.2648
 1919SOL    HW117390   2.891   0.676   1.014  1.4265 -0.0183 -1.5582
 1919SOL    HW217391   2.823   0.583   1.099 -0.4277 -0.1250 -0.8621
 1920SOL     OW17392   1.754   3.902   9.625 -0.3425  0.1208  0.1215
 1920SOL    HW117393   1.694   3.940   9.561 -0.3917 -0.4101 -0.1406
 1920SOL    HW217394   1.837   3.932   9.587 -0.2996 -0.0817  0.0567
 1921SOL     OW17395   0.303   4.467   2.585 -0.5126 -0.2322 -0.7299
 1921SOL    HW117396   0.240   4.398   2.563 -1.7291  0.8288 -0.5635
 1921SOL    HW217397   0.246   4.542   2.602 -0.1161  0.2270 -1.4008
 1922SOL     OW17398   1.204   3.363   6.309  0.0774  0.1531  0.1850
 1922SOL    HW117399   1.189   3.376   6.402 -2.6927  3.0661 -0.6687
 1922SOL    HW217400   1.242   3.444   6.276 -1.4186  0.6030 -0.4276
 1923SOL     OW17401   2.073   2.625   0.085  0.0613  0.0072 -0.6813
 1923SOL    HW117402   2.075   2.720   0.090  0.7864 -0.1547  2.0951
 1923SOL    HW217403   1.988   2.612   0.127  0.1500 -0.7626 -0.7402
 1924SOL     OW17404   4.021   1.701   3.534 -0.2183  0.4843  0.4281
 1924SOL    HW117405   4.052   1.735   3.450  0.6657 -3.3509 -0.8060
 1924SOL    HW217406   3.955   1.636   3.507  1.7781 -0.8824 -1.1295
 1925SOL     OW17407   2.189   1.302   7.784 -0.0051  0.3891  0.0211
 1925SOL    HW117408   2.179   1.212   7.816  1.1951  0.9784  2.0848
 1925SOL    HW217409   2.147   1.297   7.699 -0.0340  1.8035 -0.0569
 1926SOL     OW17410   3.546   1.675   4.734 -0.0196  0.1457  0.3229
 1926SOL    HW117411   3.571   1.648   4.823 -1.2538 -1.5501  0.1409
 1926SOL    HW217412   3.456   1.644   4.739 -0.0584  0.1772 -0.1835
 1927SOL     OW17413   0.830   4.525   2.445  0.2348  0.0913  0.4178
 1927SOL    HW117414   0.910   4.574   2.427  0.5126 -0.8664 -0.9759
 1927SOL    HW217415   0.765   4.592   2.424  0.2878 -0.2939 -0.9799
 1928SOL     OW17416   3.519   3.038   4.909  0.2317  0.1727 -0.9057
 1928SOL    HW117417   3.527   3.059   5.002 -0.6954  3.7602 -1.6140
 1928SOL    HW217418   3.577   3.106   4.873 -1.7943  1.2305 -2.1820
 1929SOL     OW17419   2.578   1.764   2.430 -0.1346  0.3098 -0.1101
 1929SOL    HW117420   2.573   1.835   2.494 -1.8063  2.6101 -2.7701
 1929SOL    HW217421   2.672   1.747   2.425  0.3319  2.6460  0.5406
 1930SOL     OW17422   0.378   1.005  11.791 -0.0226  0.1251  0.0164
 1930SOL    HW117423   0.470   0.978  11.797 -0.2697 -0.7108  0.0344
 1930SOL    HW217424   0.360   1.035  11.702 -3.2778  0.3672  0.7800
 1931SOL     OW17425   1.593   0.987   3.394 -0.1697 -0.4169  0.2116
 1931SOL    HW117426   1.514   1.035   3.418 -0.8739 -0.9600 -1.0177
 1931SOL    HW217427   1.663   1.042   3.429 -0.3774  1.4300 -2.2981
 1932SOL     OW17428   2.211   2.348   0.062  0.2118 -0.4972  0.7333
 1932SOL    HW117429   2.161   2.428   0.078  0.5287  0.1144 -1.3713
 1932SOL    HW217430   2.140   2.289   0.035 -1.4893  1.1743  1.5289
 1933SOL     OW17431   2.777   1.592   7.035  0.1930 -0.0547 -0.0347
 1933SOL    HW117432   2.726   1.532   7.090  1.9755 -1.3601  0.1773
 1933SOL    HW217433   2.703   1.616   6.979  0.4592  1.2136  0.1358
 1934SOL     OW17434   2.004   1.001   2.924 -0.2523  0.7860  0.0395
 1934SOL    HW117435   1.952   0.947   2.983 -0.6377  1.9412  0.7515
 1934SOL    HW217436   2.059   1.053   2.982  1.2975 -1.4084  0.5456
 1935SOL     OW17437   2.638   2.251   8.924 -0.0076 -0.3931  0.1528
 1935SOL    HW117438   2.569   2.279   8.984  1.7527 -0.0936  2.0215
 1935SOL    HW217439   2.650   2.318   8.857  1.8767 -0.4357  0.4430
 1936SOL     OW17440   3.102   2.392  11.995 -0.0268 -0.4123 -0.0564
 1936SOL    HW117441   3.061   2.462  11.943 -0.7403 -0.9154 -0.1670
 1936SOL    HW217442   3.193   2.397  11.966 -0.6927 -2.2053 -2.4815
 1937SOL     OW17443   0.461   1.864   1.314 -0.1662 -0.2043  0.2312
 1937SOL    HW117444   0.505   1.887   1.232 -0.2421  1.1319  0.5659
 1937SOL    HW217445   0.396   1.796   1.293  0.0853 -1.0786  2.2731
 1938SOL     OW17446   4.320   0.026   8.691 -0.3676  0.2006  0.9358
 1938SOL    HW117447   4.323   4.696   8.621  1.3057  1.1961  0.0906
 1938SOL    HW217448   4.390   0.086   8.667 -0.8352  0.5367  0.4198
 1939SOL     OW17449   3.471   2.705   2.366  0.2658  0.9050  0.2973
 1939SOL    HW117450   3.554   2.753   2.366  1.1710 -0.6762  1.9740
 1939SOL    HW217451   3.472   2.673   2.456  3.0343  2.4231  0.8221
 1940SOL     OW17452   0.884   2.468   8.667  0.1800 -0.3254 -0.6003
 1940SOL    HW117453   0.971   2.473   8.628 -0.6352  0.3916 -2.2876
 1940SOL    HW217454   0.887   2.417   8.748  1.2551 -0.0238 -0.4463
 1941SOL     OW17455   0.857   4.516   7.800 -0.5021 -0.0945 -0.2236
 1941SOL    HW117456   0.792   4.576   7.763  1.3817  1.1791 -1.5212
 1941SOL    HW217457   0.933   4.537   7.745 -0.8470  1.3020 -0.1805
 1942SOL     OW17458   2.538   3.749  11.764  0.0571  0.1603 -0.3524
 1942SOL    HW117459   2.618   3.777  11.719  0.4592 -0.2374  0.1116
 1942SOL    HW217460   2.582   3.726  11.846  0.2787 -2.1653 -1.1403
 1943SOL     OW17461   0.077   2.232  14.234 -0.3095 -0.1312 -0.3160
 1943SOL    HW117462   0.026   2.199  14.308  0.9998 -0.3931  0.4767
 1943SOL    HW217463   0.122   2.149  14.217 -0.1396 -0.2034  0.4587
 1944SOL     OW17464   3.775   1.419  11.467 -0.1818 -0.2081  0.0005
 1944SOL    HW117465   3.709   1.389  11.530  1.8264 -0.4375  2.0160
 1944SOL    HW217466   3.719   1.458  11.401  4.2410  1.8290 -2.5175
 1945SOL     OW17467   3.096   2.474   8.894  0.8900  0.0090 -0.2688
 1945SOL    HW117468   3.133   2.436   8.974 -0.2565  1.2015  0.8098
 1945SOL    HW217469   3.101   2.569   8.906  0.1455  0.1881 -1.3829
 1946SOL     OW17470   4.404   3.628   8.978 -0.1209 -0.2216 -0.2261
 1946SOL    HW117471   4.419   3.716   9.012 -0.4226 -0.3074  0.1311
 1946SOL    HW217472   4.396   3.571   9.055  0.4017  1.3819  1.0030
 1947SOL     OW17473   4.588   3.917   7.645  0.2400  0.3393  0.0624
 1947SOL    HW117474   4.577   3.996   7.592  1.1741  1.3902  1.4335
 1947SOL    HW217475   4.605   3.843   7.586  2.0384 -0.0594  1.0618
 1948SOL     OW17476   2.986   3.100  10.932  0.6989 -0.2785  0.3697
 1948SOL    HW117477   3.062   3.130  10.983  0.5059 -1.6852  1.4796
 1948SOL    HW217478   2.914   3.125  10.991  0.6071  0.2656  0.0286
 1949SOL     OW17479   2.621   2.930   5.845 -0.1057  0.4902  0.5687
 1949SOL    HW117480   2.602   2.858   5.905  0.4542  0.7982  1.1094
 1949SOL    HW217481   2.708   2.952   5.877  0.5628 -1.4896  0.1101
 1950SOL     OW17482   1.825   0.007   1.497 -0.5007 -0.2062  0.4540
 1950SOL    HW117483   1.771   0.084   1.514 -0.4737 -0.2749  0.8598
 1950SOL    HW217484   1.752   4.686   1.470  0.3969 -0.3855 -1.5651
 1951SOL     OW17485   3.821   2.773  17.736  0.0477 -0.3687 -0.7061
 1951SOL    HW117486   3.852   2.752  17.648 -0.2766  2.0531 -1.3936
 1951SOL    HW217487   3.857   2.855   0.031  2.8068 -0.7316 -2.8354
 1952SOL     OW17488   0.436   0.127   8.306 -0.4431 -0.4079 -0.1089
 1952SOL    HW117489   0.456   0.133   8.400  0.2051 -0.6525 -0.2262
 1952SOL    HW217490   0.363   0.188   8.313 -0.1419 -0.3905  2.8928
 1953SOL     OW17491   2.047   4.668   9.159  0.2246 -0.3526 -0.7171
 1953SOL    HW117492   1.996   0.014   9.147 -0.0487 -0.4294 -0.0294
 1953SOL    HW217493   1.994   4.611   9.104 -0.0892 -1.4463  0.7334
 1954SOL     OW17494   2.735   3.956  17.644  0.0261 -0.3120  0.2050
 1954SOL    HW117495   2.650   3.987  17.612 -0.3423  0.3306  1.7666
 1954SOL    HW217496   2.742   3.871  17.601 -0.8547 -0.4611  0.3377
 1955SOL     OW17497   0.443   2.653   7.663  0.0810  0.3841 -0.1928
 1955SOL    HW117498   0.484   2.721   7.717  0.7554 -0.7770  0.7605
 1955SOL    HW217499   0.506   2.651   7.591 -1.0329  0.5404 -1.1674
 1956SOL     OW17500   3.852   3.211   6.219  0.0272  0.6681  0.0903
 1956SOL    HW117501   3.855   3.198   6.124  0.1208  3.3539 -0.2842
 1956SOL    HW217502   3.923   3.153   6.246  0.4362  1.5967  1.0190
 1957SOL     OW17503   3.120   1.060   2.109 -1.0331  0.3314  0.0688
 1957SOL    HW117504   3.188   1.070   2.043 -0.6054 -0.1396  0.4420
 1957SOL    HW217505   3.093   0.971   2.088 -0.2326 -0.7016  3.4144
 1958SOL     OW17506   3.109   3.110   3.304 -0.3258  0.1251 -0.3486
 1958SOL    HW117507   3.165   3.067   3.368 -0.4898 -0.9876 -0.9583
 1958SOL    HW217508   3.022   3.089   3.338  0.5643 -3.3128 -0.2049
 1959SOL     OW17509   2.013   1.906   5.157  0.4329 -0.9981  0.0017
 1959SOL    HW117510   1.927   1.894   5.198  0.2765 -2.5482 -0.7660
 1959SOL    HW217511   2.035   1.995   5.183 -0.0811 -1.1824  1.0537
 1960SOL     OW17512   1.265   3.931  14.788 -0.7596 -0.0452  0.0862
 1960SOL    HW117513   1.308   3.951  14.705 -1.4427  0.8786 -0.0446
 1960SOL    HW217514   1.331   3.874  14.826 -0.2159  1.0278  0.7446
 1961SOL     OW17515   0.953   2.214  16.250  0.2237 -0.2142 -0.1395
 1961SOL    HW117516   1.013   2.235  16.321  1.5021 -0.4977 -1.1249
 1961SOL    HW217517   1.001   2.223  16.168 -1.3520  2.4234 -0.7943
 1962SOL     OW17518   1.354   3.689   0.637 -0.2533 -0.4029  0.3409
 1962SOL    HW117519   1.398   3.627   0.579  1.0700 -0.7284  1.6807
 1962SOL    HW217520   1.320   3.754   0.576  3.0598  1.5045  0.5554
 1963SOL     OW17521   0.174   1.566   9.629 -0.2408  0.5546 -0.7156
 1963SOL    HW117522   0.244   1.590   9.689  0.0956  0.5600 -1.1105
 1963SOL    HW217523   0.162   1.473   9.647 -1.3866  1.0378  1.0306
 1964SOL     OW17524   4.306   3.799   6.813  0.4563 -0.2451  0.1473
 1964SOL    HW117525   4.249   3.732   6.850 -0.7963  0.8645  0.2233
 1964SOL    HW217526   4.239   3.865   6.797 -0.0553 -0.8255 -0.0975
 1965SOL     OW17527   3.584   3.086   1.280  0.4003  0.2933 -0.0537
 1965SOL    HW117528   3.554   2.996   1.286  0.7737  0.0576 -1.6923
 1965SOL    HW217529   3.541   3.124   1.357  1.8894  3.6650 -0.8473
 1966SOL     OW17530   0.957   1.716   6.522  0.0925 -0.1975  0.1075
 1966SOL    HW117531   0.997   1.645   6.573  1.7302 -1.5647 -3.0416
 1966SOL    HW217532   0.936   1.665   6.444 -0.6089 -0.1861  0.2928
 1967SOL     OW17533   1.755   2.831   9.853 -0.4213  0.7475  0.4054
 1967SOL    HW117534   1.773   2.900   9.917 -0.6797  2.3664 -1.2764
 1967SOL    HW217535   1.718   2.890   9.787  1.5602  2.1304  0.5151
 1968SOL     OW17536   1.011   0.810  15.276  0.3034  0.4961 -0.9188
 1968SOL    HW117537   1.063   0.888  15.294 -0.2672  0.4714  0.7766
 1968SOL    HW217538   1.032   0.809  15.182  1.8762 -1.9332 -0.5343
 1969SOL     OW17539   2.661   0.818   2.070  0.7096  0.0526  0.4785
 1969SOL    HW117540   2.741   0.767   2.060 -0.0765 -1.2876  1.0449
 1969SOL    HW217541   2.605   0.776   2.004  3.4659 -0.6032 -1.4679
 1970SOL     OW17542   3.712   3.175   7.967 -0.6490 -0.3017 -0.1849
 1970SOL    HW117543   3.648   3.237   8.002  1.3240  1.0025  1.0999
 1970SOL    HW217544   3.794   3.224   7.968  1.1962 -3.3781 -1.4198
 1971SOL     OW17545   1.877   4.324   9.203 -0.1127  0.4614  0.1368
 1971SOL    HW117546   1.798   4.373   9.179  1.0624  1.3317 -1.9122
 1971SOL    HW217547   1.869   4.255   9.137  0.3303 -0.0750  0.6526
 1972SOL     OW17548   0.620   3.514   3.221  0.1589  0.6678  0.3820
 1972SOL    HW117549   0.601   3.524   3.314 -1.0280  0.7191  0.1282
 1972SOL    HW217550   0.594   3.599   3.186  0.0361  0.0938 -0.9222
 1973SOL     OW17551   1.062   1.616   6.819  0.1700 -0.1872  0.1228
 1973SOL    HW117552   1.064   1.711   6.836  0.1075 -0.0614 -0.5763
 1973SOL    HW217553   1.029   1.583   6.902 -0.5399 -1.1479 -0.5422
 1974SOL     OW17554   2.608   1.922   7.530 -0.0844  0.2686 -0.3409
 1974SOL    HW117555   2.569   2.001   7.493 -1.7677 -0.0840  0.6603
 1974SOL    HW217556   2.699   1.951   7.519 -0.3930  2.3414  2.3852
 1975SOL     OW17557   3.944   1.393   5.582 -0.2149 -0.1306  0.3898
 1975SOL    HW117558   3.934   1.452   5.508 -1.1675  0.9757  1.4076
 1975SOL    HW217559   3.852   1.371   5.601  0.5937 -2.6072  1.5402
 1976SOL     OW17560   0.928   1.272  13.368  0.9200  0.0723  0.2630
 1976SOL    HW117561   0.857   1.250  13.308 -0.1608  0.2257  1.4958
 1976SOL    HW217562   0.977   1.333  13.314 -0.8504 -0.4430 -1.9139
 1977SOL     OW17563   1.438   3.154   9.663  0.9345  0.2226 -0.2798
 1977SOL    HW117564   1.438   3.077   9.606  1.8087 -0.1600  0.2291
 1977SOL    HW217565   1.521   3.194   9.636 -0.6465  4.0377  0.6361
 1978SOL     OW17566   1.291   4.607   3.940  0.0026  0.1077 -0.1045
 1978SOL    HW117567   1.370   4.661   3.946  0.2094 -0.4112  1.8862
 1978SOL    HW217568   1.236   4.635   4.013 -0.5325 -0.6385 -0.2173
 1979SOL     OW17569   3.544   1.244   9.454  0.2071  0.2705  0.1559
 1979SOL    HW117570   3.569   1.297   9.378  1.8666  1.6523  1.6481
 1979SOL    HW217571   3.500   1.309   9.509 -0.0623 -0.7452  1.1528
 1980SOL     OW17572   2.470   4.356  15.185  0.2600  0.1931  0.4388
 1980SOL    HW117573   2.399   4.292  15.184 -0.1706  0.7296 -4.0916
 1980SOL    HW217574   2.413   4.431  15.197 -2.1166 -1.3945 -1.0692
 1981SOL     OW17575   1.917   0.069   7.045 -0.2975  0.4177  0.4444
 1981SOL    HW117576   1.905   4.710   7.031  0.0934  0.5996 -1.0812
 1981SOL    HW217577   1.825   0.089   7.062 -0.8866 -2.2931  0.4664
 1982SOL     OW17578   2.609   0.398   3.720 -0.1267 -0.0017  0.1045
 1982SOL    HW117579   2.536   0.417   3.660 -0.2761  1.8523  0.8452
 1982SOL    HW217580   2.663   0.476   3.707 -1.9755  1.8357  3.3802
 1983SOL     OW17581   1.988   4.577   3.002 -0.0828  0.3119  0.2706
 1983SOL    HW117582   1.971   4.670   2.990 -0.4472  0.0973 -0.9438
 1983SOL    HW217583   1.921   4.542   2.943  0.3563  0.8156 -0.5397
 1984SOL     OW17584   0.922   2.136   4.143  0.4364  0.3164  0.3477
 1984SOL    HW117585   0.926   2.090   4.059  0.5924  1.8285 -0.4717
 1984SOL    HW217586   0.997   2.110   4.197  0.8851  1.1350  0.1135
 1985SOL     OW17587   1.038   2.146   5.317  0.9913 -0.0878 -0.5642
 1985SOL    HW117588   1.061   2.106   5.401  0.2852  1.2491  0.2665
 1985SOL    HW217589   0.945   2.125   5.305  0.3186  1.6486  1.6314
 1986SOL     OW17590   3.091   0.605   3.040 -0.1994 -0.6241 -0.4891
 1986SOL    HW117591   3.084   0.653   3.123  0.6563 -2.1305  0.4603
 1986SOL    HW217592   3.160   0.545   3.067  1.6388  0.6354 -2.3565
 1987SOL     OW17593   4.364   3.870  14.633 -0.0413  0.7382 -0.5265
 1987SOL    HW117594   4.331   3.911  14.713  4.0979 -0.3020  1.7212
 1987SOL    HW217595   4.453   3.904  14.623  0.4894 -0.5431 -0.1973
 1988SOL     OW17596   2.624   1.989   2.615  0.0703  0.1097  0.2472
 1988SOL    HW117597   2.656   2.035   2.538  1.8106  0.6591  1.3003
 1988SOL    HW217598   2.708   1.954   2.646 -1.3398 -2.1622  1.6016
 1989SOL     OW17599   1.745   1.606   7.819  0.2416  0.0092  0.0452
 1989SOL    HW117600   1.681   1.570   7.881  0.9980  0.9762  1.3819
 1989SOL    HW217601   1.822   1.554   7.842  0.4780  0.1276 -0.4768
 1990SOL     OW17602   2.578   4.125   5.721  0.2191 -0.2452  0.2860
 1990SOL    HW117603   2.554   4.108   5.630 -1.6248 -1.8432  1.0862
 1990SOL    HW217604   2.493   4.122   5.764 -0.0540  1.9554 -0.1232
 1991SOL     OW17605   0.079   1.340   7.112  0.0398  0.4392  0.1952
 1991SOL    HW117606   4.734   1.301   7.147  1.1275 -1.7958  0.1626
 1991SOL    HW217607   0.112   1.262   7.068  4.6309  2.3343  0.2876
 1992SOL     OW17608   3.475   3.003   2.711  0.1415  0.3837 -0.0268
 1992SOL    HW117609   3.390   3.017   2.669 -0.6359 -0.1090  1.3964
 1992SOL    HW217610   3.535   3.011   2.636  1.3770  2.4107  1.1995
 1993SOL     OW17611   4.182   0.144   8.342  0.5498  0.3727 -0.2567
 1993SOL    HW117612   4.111   0.177   8.287 -0.1421  0.2141  0.5475
 1993SOL    HW217613   4.251   0.141   8.276  0.7163  1.2854 -0.1335
 1994SOL     OW17614   1.037   1.229   1.668 -0.2764  0.5091 -0.2625
 1994SOL    HW117615   1.033   1.317   1.706 -0.1731  0.9356 -1.2500
 1994SOL    HW217616   1.099   1.187   1.727 -0.6166 -0.2784 -0.4747
 1995SOL     OW17617   3.015   3.931   7.079  0.2241 -0.7085  0.0906
 1995SOL    HW117618   2.985   4.021   7.069 -1.5060 -1.2423  0.4262
 1995SOL    HW217619   3.041   3.913   6.988 -0.5962 -0.5029 -0.1818
 1996SOL     OW17620   4.379   0.962   5.264  0.3401 -0.7797 -0.2677
 1996SOL    HW117621   4.408   1.052   5.254 -1.7179 -0.3973 -2.9881
 1996SOL    HW217622   4.426   0.937   5.343  0.3757 -0.4873 -0.2002
 1997SOL     OW17623   3.517   1.965   2.064  0.3482 -0.3106  0.4610
 1997SOL    HW117624   3.489   2.049   2.099 -0.0502 -0.6842  1.0451
 1997SOL    HW217625   3.600   1.956   2.110  0.7645 -0.2493 -0.2700
 1998SOL     OW17626   1.363   0.365   1.795  0.4098  0.8230 -0.1546
 1998SOL    HW117627   1.414   0.375   1.875  2.4512  1.1454 -1.5104
 1998SOL    HW217628   1.305   0.300   1.836  0.6052 -0.3308 -1.6871
 1999SOL     OW17629   3.985   2.850  16.298 -0.2147 -0.2980 -0.0680
 1999SOL    HW117630   3.998   2.925  16.356  3.3679 -0.7844 -0.2738
 1999SOL    HW217631   3.931   2.893  16.230  0.0618  0.0675 -0.0599
 2000SOL     OW17632   4.135   2.243   2.710  0.0063 -0.4714  0.1687
 2000SOL    HW117633   4.170   2.175   2.767  0.9612  0.9242  1.2669
 2000SOL    HW217634   4.200   2.313   2.715  0.4094 -0.8357 -0.0361
 2001SOL     OW17635   0.052   0.723   6.362  0.0904  0.7581  0.1584
 2001SOL    HW117636   0.040   0.765   6.277  0.1767  2.4178  0.9690
 2001SOL    HW217637   0.026   0.633   6.341  1.2536  0.7013 -1.0054
 2002SOL     OW17638   3.204   1.588   4.754  0.8134  0.4660  0.2730
 2002SOL    HW117639   3.176   1.553   4.839  2.9426 -3.3082 -0.5658
 2002SOL    HW217640   3.129   1.646   4.745  0.4076 -0.4420 -1.9945
 2003SOL     OW17641   0.594   1.007  10.358  0.1898 -0.5950  0.2624
 2003SOL    HW117642   0.577   1.024  10.451 -2.1004  0.1774 -0.2836
 2003SOL    HW217643   0.532   0.938  10.335 -0.7343 -0.3519  1.9874
 2004SOL     OW17644   4.137   0.016   7.191 -0.1068 -0.3151  0.9527
 2004SOL    HW117645   4.183   0.039   7.271 -0.8868  1.9445  0.7631
 2004SOL    HW217646   4.060   0.074   7.199  1.5592  2.0697 -0.3109
 2005SOL     OW17647   2.052   4.361   9.411  0.3134 -0.4254 -0.2110
 2005SOL    HW117648   1.987   4.358   9.341 -0.5017  0.3974  0.5118
 2005SOL    HW217649   2.012   4.421   9.474  1.4619  0.8731 -0.7016
 2006SOL     OW17650   2.957   3.467  15.787  0.1744  0.2216 -0.0384
 2006SOL    HW117651   2.898   3.539  15.767  1.0067  0.9338  0.0747
 2006SOL    HW217652   2.920   3.435  15.870  0.3505  1.2092  0.4286
 2007SOL     OW17653   1.546   2.482   5.097  0.0584  0.2909 -0.1257
 2007SOL    HW117654   1.612   2.415   5.077 -2.1961 -1.6137 -1.1645
 2007SOL    HW217655   1.493   2.468   5.019 -2.1679  0.9654  1.2612
 2008SOL     OW17656   3.584   2.917   3.588 -0.4928  0.0505  0.3608
 2008SOL    HW117657   3.665   2.959   3.559  0.3315 -1.1995  0.8606
 2008SOL    HW217658   3.538   2.902   3.506  0.7262 -1.0266 -0.1288
 2009SOL     OW17659   4.173   3.778  13.235  0.3155 -0.1187  0.1030
 2009SOL    HW117660   4.170   3.872  13.215  1.9421 -0.7331 -3.0996
 2009SOL    HW217661   4.251   3.773  13.291 -2.1110 -1.4480  3.3287
 2010SOL     OW17662   3.553   0.927  15.973 -0.2646 -0.2889 -0.0949
 2010SOL    HW117663   3.543   0.964  16.061  0.0197  0.1463 -0.2421
 2010SOL    HW217664   3.590   0.840  15.990  0.7634  0.3243  0.8377
 2011SOL     OW17665   2.871   4.678   6.029 -0.1410 -0.4615  0.1669
 2011SOL    HW117666   2.900   4.588   6.015  0.1404 -0.4281  0.5530
 2011SOL    HW217667   2.905   4.719   5.950  0.8366  0.4427  1.0646
 2012SOL     OW17668   1.501   1.996   6.210  0.1051 -0.0333 -0.1209
 2012SOL    HW117669   1.556   2.075   6.210  1.8252 -1.2386  1.7191
 2012SOL    HW217670   1.491   1.977   6.117  0.2889 -1.1071  0.0771
 2013SOL     OW17671   3.526   2.384   2.615 -0.2675  0.5482  0.4822
 2013SOL    HW117672   3.547   2.427   2.698 -1.0028 -0.5462  1.2257
 2013SOL    HW217673   3.605   2.388   2.561 -0.6204 -0.4318 -0.0887
 2014SOL     OW17674   2.219   0.589   4.804 -0.0181 -0.3126  0.3278
 2014SOL    HW117675   2.248   0.499   4.798  1.7168  0.4955 -3.5864
 2014SOL    HW217676   2.179   0.591   4.717  1.3252  0.7895 -0.2581
 2015SOL     OW17677   3.302   0.166   2.960  0.6353 -0.2097  0.7461
 2015SOL    HW117678   3.208   0.152   2.977  0.1860  0.1117 -1.4740
 2015SOL    HW217679   3.305   0.208   2.874  0.3149 -1.4870  0.1049
 2016SOL     OW17680   0.426   1.905  14.343 -0.1052 -0.2094 -0.2817
 2016SOL    HW117681   0.471   1.941  14.419 -0.2328 -1.3850  0.3586
 2016SOL    HW217682   0.455   1.814  14.352 -1.7222 -0.7292 -0.3113
 2017SOL     OW17683   0.886   1.551   4.629  0.2368 -0.3552 -0.7204
 2017SOL    HW117684   0.966   1.534   4.579 -0.4312  2.2031 -2.6063
 2017SOL    HW217685   0.851   1.620   4.573 -2.8420 -2.2665 -1.1693
 2018SOL     OW17686   3.824   0.167   2.774 -0.2783  0.0264 -0.0228
 2018SOL    HW117687   3.805   0.190   2.683 -0.2030  0.2347  0.0137
 2018SOL    HW217688   3.885   0.095   2.756  0.5641  1.0533 -1.2530
 2019SOL     OW17689   4.718   4.061  13.736  0.2625 -0.2204  0.2741
 2019SOL    HW117690   4.731   4.035  13.645  2.7741  0.7134  0.3792
 2019SOL    HW217691   0.054   4.019  13.785 -0.4461 -2.4790 -0.6398
 2020SOL     OW17692   2.226   1.828   3.835 -0.2628  0.3973  0.3881
 2020SOL    HW117693   2.280   1.851   3.911 -0.3584  2.1506 -0.0910
 2020SOL    HW217694   2.144   1.791   3.869 -0.4092  0.2436 -0.1399
 2021SOL     OW17695   4.410   3.066   8.728  0.4170 -0.1425 -0.1756
 2021SOL    HW117696   4.368   3.093   8.646  0.8043  0.4879 -0.1695
 2021SOL    HW217697   4.326   3.057   8.775 -0.4462 -0.7352 -1.8420
 2022SOL     OW17698   3.532   1.783  13.773  0.3442  0.1937 -0.8959
 2022SOL    HW117699   3.538   1.688  13.761 -2.1000 -0.4070  2.7198
 2022SOL    HW217700   3.616   1.805  13.813 -0.1256  0.8106 -0.2524
 2023SOL     OW17701   0.107   3.716   6.080  0.0563 -0.3209 -0.0836
 2023SOL    HW117702   0.019   3.722   6.041  0.6679  2.6804 -1.0225
 2023SOL    HW217703   0.091   3.747   6.169 -0.2833  0.9618 -0.5941
 2024SOL     OW17704   4.421   4.480   9.235  0.3201 -0.2881 -0.5331
 2024SOL    HW117705   4.445   4.404   9.182  0.4708 -1.3513  1.0753
 2024SOL    HW217706   4.504   4.527   9.236 -0.4750  1.0575  1.0156
 2025SOL     OW17707   0.024   0.479  11.615 -0.4489 -0.0275 -0.2195
 2025SOL    HW117708   4.711   0.427  11.679 -2.3764  0.1823 -1.4697
 2025SOL    HW217709   4.707   0.559  11.629 -2.8174 -1.5435 -0.2583
 2026SOL     OW17710   4.278   1.926  10.912 -0.2432  0.2069  0.0958
 2026SOL    HW117711   4.316   1.839  10.925 -0.1296 -0.0282 -1.8921
 2026SOL    HW217712   4.343   1.962  10.972  2.0247 -2.5930 -0.6855
 2027SOL     OW17713   3.037   1.893   5.913 -0.3126 -0.1037 -0.1123
 2027SOL    HW117714   2.954   1.929   5.942  0.0321  0.7991 -0.2264
 2027SOL    HW217715   3.063   1.831   5.980  2.0577  1.6158  0.5860
 2028SOL     OW17716   3.450   3.269   6.559 -0.0712 -0.4072  0.3636
 2028SOL    HW117717   3.375   3.287   6.501  0.3010 -0.0738 -0.0105
 2028SOL    HW217718   3.517   3.243   6.496  0.5490  0.4357  0.6907
 2029SOL     OW17719   3.545   3.635  16.392 -0.6018 -0.7764  0.0159
 2029SOL    HW117720   3.513   3.563  16.446 -1.8096  1.2221  1.9527
 2029SOL    HW217721   3.579   3.699  16.455 -1.8205 -0.6020  0.4873
 2030SOL     OW17722   0.644   2.190  13.288 -0.1840  0.2189 -0.2341
 2030SOL    HW117723   0.666   2.243  13.365  2.3765 -2.1355  0.6517
 2030SOL    HW217724   0.693   2.111  13.311  0.6149  0.0238 -2.5737
 2031SOL     OW17725   2.374   3.473  16.780  0.7962  1.0044 -0.2936
 2031SOL    HW117726   2.328   3.466  16.696  2.3473 -1.3545 -0.9569
 2031SOL    HW217727   2.379   3.568  16.790 -0.0034  1.3030 -2.8524
 2032SOL     OW17728   4.583   4.301   2.494  0.1028  0.1369 -0.2376
 2032SOL    HW117729   4.583   4.319   2.588 -0.4971 -1.5885  0.1006
 2032SOL    HW217730   4.673   4.268   2.488 -0.3756 -0.7358 -2.7632
 2033SOL     OW17731   0.576   2.094   8.460  0.0401  0.2864 -0.2313
 2033SOL    HW117732   0.608   2.014   8.417 -1.2672  0.1897 -1.0201
 2033SOL    HW217733   0.564   2.158   8.390  1.6436 -2.0870 -2.7120
 2034SOL     OW17734   0.342   0.754   8.672 -0.7277  0.0949  0.2875
 2034SOL    HW117735   0.432   0.780   8.651 -0.1448 -1.7522  0.5135
 2034SOL    HW217736   0.330   0.808   8.750 -2.1709  1.5907 -0.9661
 2035SOL     OW17737   0.053   3.375  14.436  0.2916  0.4567  0.1068
 2035SOL    HW117738   0.051   3.288  14.396 -0.0824  0.4868  0.0570
 2035SOL    HW217739   4.698   3.392  14.407 -0.0238  1.9038  1.9270
 2036SOL     OW17740   2.020   2.141   6.520 -0.4008  0.0573  0.2693
 2036SOL    HW117741   1.979   2.227   6.530 -1.8393 -0.0808 -4.2009
 2036SOL    HW217742   2.001   2.121   6.428  0.0994  0.1647  0.1452
 2037SOL     OW17743   0.719   2.392   1.701  0.2469 -0.7353  0.0403
 2037SOL    HW117744   0.653   2.421   1.764 -0.3283 -0.5855 -0.6199
 2037SOL    HW217745   0.788   2.455   1.720 -0.8839  0.7932 -0.9225
 2038SOL     OW17746   1.336   3.660   1.995  0.2612 -0.0251 -0.0884
 2038SOL    HW117747   1.286   3.581   2.018  0.9907  0.3085  2.5100
 2038SOL    HW217748   1.356   3.639   1.903  1.6629  0.6880  0.0612
 2039SOL     OW17749   0.362   1.330   4.615 -0.6510  0.0007  0.0681
 2039SOL    HW117750   0.363   1.337   4.520 -1.6323 -1.2686 -0.0440
 2039SOL    HW217751   0.452   1.307   4.637 -0.4102  0.1751 -0.7742
 2040SOL     OW17752   1.750   3.605   3.777 -0.4337 -0.5227  0.3416
 2040SOL    HW117753   1.782   3.683   3.823  0.5662 -1.8106  1.8111
 2040SOL    HW217754   1.717   3.548   3.847 -0.9190  0.2734  0.7771
 2041SOL     OW17755   2.924   2.143   6.426 -0.0758  0.2520 -0.2440
 2041SOL    HW117756   2.960   2.184   6.347  1.6412 -0.1751  0.3329
 2041SOL    HW217757   2.979   2.174   6.497  0.8688  0.3581 -1.0187
 2042SOL     OW17758   3.854   2.300   3.795 -0.3483  0.0752 -0.0891
 2042SOL    HW117759   3.831   2.373   3.852 -0.0555 -0.6882  1.0112
 2042SOL    HW217760   3.934   2.276   3.842 -0.0161  0.9390 -0.2211
 2043SOL     OW17761   2.447   3.295   4.632 -0.7908  0.3086  0.0701
 2043SOL    HW117762   2.438   3.221   4.693 -0.6869  0.5172  0.3366
 2043SOL    HW217763   2.455   3.367   4.695  1.4619 -0.7809  1.0288
 2044SOL     OW17764   4.631   2.199  16.553  0.1060  0.1624  0.0142
 2044SOL    HW117765   4.719   2.191  16.589 -0.0929 -0.0644  0.4441
 2044SOL    HW217766   4.645   2.271  16.492  0.1319 -0.0346 -0.2120
 2045SOL     OW17767   1.861   4.249  15.780 -0.0081  0.0872  0.0369
 2045SOL    HW117768   1.785   4.305  15.798 -0.4503 -0.4988 -0.0146
 2045SOL    HW217769   1.823   4.209  15.702  1.7783 -2.3596  0.4389
 2046SOL     OW17770   2.467   2.873   6.166  0.3215  0.0450 -0.3175
 2046SOL    HW117771   2.498   2.795   6.119 -1.0913 -0.6680 -0.0795
 2046SOL    HW217772   2.491   2.853   6.257  0.5937  2.0309  0.0491
 2047SOL     OW17773   3.291   4.561   6.875  0.3066 -0.3673 -0.0359
 2047SOL    HW117774   3.276   4.470   6.901  1.0811 -0.5791 -0.3202
 2047SOL    HW217775   3.209   4.605   6.898  1.7844  2.8320 -0.8570
 2048SOL     OW17776   3.372   1.684  14.959  0.3751 -0.3076 -0.1339
 2048SOL    HW117777   3.339   1.623  15.026 -0.2977  0.7397  0.4865
 2048SOL    HW217778   3.430   1.735  15.016  0.5957 -1.1599  0.4110
 2049SOL     OW17779   3.238   1.733   9.573 -0.4603 -0.3666 -0.1769
 2049SOL    HW117780   3.272   1.707   9.488  0.3351 -2.1661  0.6855
 2049SOL    HW217781   3.259   1.826   9.563 -0.7717 -0.1098  1.4674
 2050SOL     OW17782   3.073   2.448   8.381 -0.2119  0.7854 -0.1203
 2050SOL    HW117783   3.151   2.395   8.361  0.3174  1.3726  0.3755
 2050SOL    HW217784   3.019   2.439   8.303  1.9700  0.4072 -1.6116
 2051SOL     OW17785   2.359   2.025  13.383  0.0862 -0.0829 -0.0022
 2051SOL    HW117786   2.434   1.967  13.367  0.9279  1.5418 -2.0639
 2051SOL    HW217787   2.358   2.076  13.302  1.1849 -1.6949 -1.0515
 2052SOL     OW17788   2.496   4.195   0.406  0.0183 -0.2367 -0.4840
 2052SOL    HW117789   2.479   4.103   0.426 -0.4380  0.3014  1.6328
 2052SOL    HW217790   2.519   4.187   0.314  1.7540  0.1694 -0.0924
 2053SOL     OW17791   1.771   3.069   4.006 -0.4208 -0.4395  0.0235
 2053SOL    HW117792   1.730   3.121   3.937  0.5681  1.1015  0.6069
 2053SOL    HW217793   1.862   3.095   3.992  0.3166 -2.5070  0.9966
 2054SOL     OW17794   1.403   3.186   6.500  0.0189  0.6023  0.0391
 2054SOL    HW117795   1.470   3.248   6.475 -0.0967  0.9563  0.6097
 2054SOL    HW217796   1.457   3.121   6.545 -0.2856 -1.2555 -2.2610
 2055SOL     OW17797   4.040   0.438   6.193 -0.3706 -0.7420 -0.1064
 2055SOL    HW117798   4.054   0.508   6.129 -3.3114 -2.3517 -2.4536
 2055SOL    HW217799   4.097   0.479   6.259 -1.2840  2.2397 -1.1683
 2056SOL     OW17800   2.797   1.255   4.417  0.1094  0.3857 -0.6452
 2056SOL    HW117801   2.884   1.246   4.457 -0.9167 -1.7583  1.1185
 2056SOL    HW217802   2.808   1.192   4.346 -0.4289  0.3735 -0.7166
 2057SOL     OW17803   2.267   3.600   3.580  0.5411 -0.0478  0.1792
 2057SOL    HW117804   2.362   3.589   3.577  0.2661 -2.5254  0.6973
 2057SOL    HW217805   2.253   3.693   3.596 -0.3500 -0.2303  0.4425
 2058SOL     OW17806   3.629   2.135   9.662 -0.5602 -0.0017 -0.6594
 2058SOL    HW117807   3.691   2.204   9.636 -2.1468  1.0718 -1.6122
 2058SOL    HW217808   3.687   2.068   9.698 -1.2323 -0.0347  0.3399
 2059SOL     OW17809   0.135   3.569  16.643 -0.1006 -0.0104  0.4252
 2059SOL    HW117810   0.136   3.559  16.548  0.7138 -0.4963  0.4840
 2059SOL    HW217811   0.142   3.665  16.650  0.5022 -0.1995  2.3938
 2060SOL     OW17812   1.496   0.224   5.756 -0.0023 -0.4524  0.2803
 2060SOL    HW117813   1.589   0.222   5.776  0.3950  1.4932 -1.4787
 2060SOL    HW217814   1.475   0.317   5.765  0.4957 -0.5582  2.5396
 2061SOL     OW17815   3.701   1.863   9.024  0.9087 -0.2955 -0.0789
 2061SOL    HW117816   3.673   1.771   9.016 -0.7624  0.2824 -0.8672
 2061SOL    HW217817   3.615   1.905   9.035  0.9218 -0.7726  1.8345
 2062SOL     OW17818   0.035   1.944   7.471 -0.0635 -0.4943  0.6628
 2062SOL    HW117819   4.685   1.965   7.510  0.1652  0.5924  0.5855
 2062SOL    HW217820   0.064   2.028   7.433 -0.8407  0.4719  2.1979
 2063SOL     OW17821   1.446   4.568   9.701  0.1766 -0.2959 -0.3808
 2063SOL    HW117822   1.452   4.664   9.705  0.1010 -0.2503 -1.2877
 2063SOL    HW217823   1.483   4.541   9.617 -0.2249 -1.2063 -0.2616
 2064SOL     OW17824   3.347   4.395   0.751 -0.0284 -0.4102 -0.3608
 2064SOL    HW117825   3.299   4.467   0.711 -2.8609 -2.1030 -0.0286
 2064SOL    HW217826   3.413   4.446   0.797  0.6522  1.6112 -3.5390
 2065SOL     OW17827   1.939   2.162   4.893 -0.5017  0.1509  0.3532
 2065SOL    HW117828   2.029   2.145   4.922 -1.4149 -0.3376  2.9597
 2065SOL    HW217829   1.932   2.256   4.907  1.4402  0.0687  1.9673
 2066SOL     OW17830   3.574   2.556   7.858 -0.2836 -0.0454  0.0027
 2066SOL    HW117831   3.651   2.577   7.806 -1.0586 -2.1302 -1.9937
 2066SOL    HW217832   3.601   2.612   7.931 -1.4862 -1.7113  1.7273
 2067SOL     OW17833   4.034   0.871   0.573 -0.3414  0.3599 -0.1966
 2067SOL    HW117834   3.993   0.861   0.659  1.3098  0.1804  0.5750
 2067SOL    HW217835   4.108   0.811   0.583  0.4326  1.0885 -1.4551
 2068SOL     OW17836   3.573   3.137   1.023  0.2904  0.2278  0.4800
 2068SOL    HW117837   3.645   3.084   0.988 -0.5422 -1.1557  0.8909
 2068SOL    HW217838   3.581   3.119   1.116  0.5998 -1.5186  0.1046
 2069SOL     OW17839   4.043   1.708   4.127 -0.8516 -0.7246  0.1965
 2069SOL    HW117840   4.001   1.639   4.179  0.1085  0.8567  3.0914
 2069SOL    HW217841   4.072   1.777   4.187 -1.0606  1.0885 -1.7664
 2070SOL     OW17842   2.223   1.240   8.266 -0.6804 -0.3815 -0.1377
 2070SOL    HW117843   2.131   1.265   8.252  0.2952  2.9886 -0.5258
 2070SOL    HW217844   2.211   1.178   8.337 -0.2467 -1.1962 -0.7814
 2071SOL     OW17845   0.561   0.195   4.317  0.1563 -0.0696 -0.3749
 2071SOL    HW117846   0.545   0.251   4.241  1.4321 -1.4621 -1.6792
 2071SOL    HW217847   0.618   0.252   4.368 -1.1413 -1.4296  2.5960
 2072SOL     OW17848   2.080   3.280  11.825  0.6678  0.4469 -0.2770
 2072SOL    HW117849   2.067   3.372  11.806  0.3145  0.0323 -1.9906
 2072SOL    HW217850   2.090   3.247  11.736  0.4139 -1.2197  0.3076
 2073SOL     OW17851   3.519   3.618  15.300 -0.0113  0.8232 -0.2049
 2073SOL    HW117852   3.480   3.539  15.263 -3.0252  1.8085  0.8450
 2073SOL    HW217853   3.447   3.678  15.323  0.8978  2.7518 -2.4402
 2074SOL     OW17854   0.862   4.573   9.175  0.1754 -0.1814 -0.1667
 2074SOL    HW117855   0.883   4.622   9.254  1.7364 -0.9973 -0.0888
 2074SOL    HW217856   0.916   4.495   9.183 -1.1426 -0.8606  2.2669
 2075SOL     OW17857   4.074   3.887   5.186 -0.5544 -0.1588 -0.0506
 2075SOL    HW117858   4.080   3.926   5.273 -0.4843 -0.4572  0.0799
 2075SOL    HW217859   4.110   3.799   5.198 -0.7838 -0.4852 -1.7865
 2076SOL     OW17860   0.049   1.089   4.897  0.5237 -0.6553 -0.7446
 2076SOL    HW117861   0.072   1.144   4.823  0.7874  0.0711 -0.1235
 2076SOL    HW217862   4.719   1.147   4.936  1.7334  0.7673 -0.8854
 2077SOL     OW17863   3.157   1.949  15.665 -0.2763  0.4133  0.2155
 2077SOL    HW117864   3.112   2.032  15.650 -2.5392 -0.9286 -0.3677
 2077SOL    HW217865   3.240   1.997  15.667 -0.8076  1.3625 -0.4942
 2078SOL     OW17866   2.117   0.331   3.031  0.4770 -0.0117 -0.0155
 2078SOL    HW117867   2.110   0.332   2.936 -1.5337  1.2053  0.1463
 2078SOL    HW217868   2.120   0.423   3.056  2.0074 -0.0967  0.1223
 2079SOL     OW17869   0.846   2.564  14.095  0.1614 -0.1544 -0.0972
 2079SOL    HW117870   0.806   2.482  14.124 -1.1991  0.8745  0.9072
 2079SOL    HW217871   0.816   2.579  14.005 -0.3868  1.9984  0.4332
 2080SOL     OW17872   4.649   2.648  16.235  0.1299 -0.3801  0.1401
 2080SOL    HW117873   4.647   2.683  16.324  0.4993  1.4188 -0.5661
 2080SOL    HW217874   0.003   2.664  16.202 -0.2862  0.9924 -0.2899
 2081SOL     OW17875   4.200   0.429   1.012  0.2763 -0.2943  0.3867
 2081SOL    HW117876   4.281   0.478   1.015 -0.9296  1.6899  0.7249
 2081SOL    HW217877   4.195   0.388   1.099  0.3464 -2.5380 -0.6659
 2082SOL     OW17878   1.955   1.061   7.407 -0.4587 -0.4585  0.5542
 2082SOL    HW117879   1.953   1.154   7.385  1.1298 -0.3933  0.7120
 2082SOL    HW217880   1.922   1.053   7.496  1.7106 -0.4529  1.3661
 2083SOL     OW17881   4.453   0.550   6.083 -0.3105  0.0356 -0.0017
 2083SOL    HW117882   4.541   0.521   6.059 -0.1457  0.5183  0.0182
 2083SOL    HW217883   4.404   0.469   6.074 -1.5769  0.6431  1.4365
 2084SOL     OW17884   2.632   2.504   5.515 -0.1103  0.0581 -0.1846
 2084SOL    HW117885   2.605   2.463   5.433 -0.8753  0.2799 -0.0360
 2084SOL    HW217886   2.553   2.512   5.567 -1.1158  0.4459 -1.7695
 2085SOL     OW17887   1.653   3.854   6.304  0.1954 -0.1772  0.4509
 2085SOL    HW117888   1.571   3.894   6.331  0.8687 -0.6961  3.3554
 2085SOL    HW217889   1.687   3.808   6.381 -2.6461 -0.3377  1.5920
 2086SOL     OW17890   4.190   2.448   2.081 -0.1889 -0.5412  0.3920
 2086SOL    HW117891   4.137   2.504   2.025 -1.0795 -0.9867  0.7846
 2086SOL    HW217892   4.190   2.366   2.033 -3.3284 -0.7375  0.7427
 2087SOL     OW17893   0.465   2.296   5.127  0.1304 -0.3628  0.1439
 2087SOL    HW117894   0.491   2.302   5.035  0.2831  0.3885  0.2356
 2087SOL    HW217895   0.512   2.372   5.162  0.2383  0.0872 -0.9944
 2088SOL     OW17896   3.262   3.993   9.120  0.2511  0.1762 -0.7454
 2088SOL    HW117897   3.304   3.912   9.148 -0.8364 -0.6522 -1.4918
 2088SOL    HW217898   3.186   3.950   9.081 -0.4408 -1.4273  2.3782
 2089SOL     OW17899   2.524   2.773   6.428 -0.0719 -1.0674  0.0420
 2089SOL    HW117900   2.525   2.797   6.521 -0.7324  0.2807 -0.2994
 2089SOL    HW217901   2.452   2.710   6.426 -0.9113 -0.0924 -0.7311
 2090SOL     OW17902   0.270   4.622   1.102  0.1994 -0.3621  0.8477
 2090SOL    HW117903   0.199   4.567   1.136  0.1944 -0.9352 -0.0832
 2090SOL    HW217904   0.244   4.594   1.014  0.7058  1.1781  0.2096
 2091SOL     OW17905   4.321   4.087   5.296 -0.6890  0.1914  0.7780
 2091SOL    HW117906   4.390   4.083   5.230 -0.0739  0.6984  1.3858
 2091SOL    HW217907   4.361   4.033   5.365  0.1869 -0.6894 -0.4187
 2092SOL     OW17908   0.127   0.220   4.467 -0.0313 -0.4509  0.8155
 2092SOL    HW117909   0.055   0.158   4.452  0.5753 -0.7721 -0.8099
 2092SOL    HW217910   0.113   0.242   4.559  0.4412  0.8912  0.5604
 2093SOL     OW17911   1.666   4.022   6.834 -0.2650  0.3620 -0.4329
 2093SOL    HW117912   1.752   3.988   6.808  0.4990  1.2930  0.8989
 2093SOL    HW217913   1.607   3.992   6.765  0.2645  2.9878 -1.9954
 2094SOL     OW17914   2.107   3.443  13.555  0.2395  0.6935 -0.4566
 2094SOL    HW117915   2.132   3.502  13.625 -1.3118  0.2118  0.4928
 2094SOL    HW217916   2.091   3.362  13.604  0.5031  0.8117 -0.1748
 2095SOL     OW17917   3.054   1.530   8.564 -0.2727  0.0947  0.0417
 2095SOL    HW117918   2.964   1.563   8.560 -0.8429 -1.4263  0.2264
 2095SOL    HW217919   3.059   1.490   8.476 -1.0025  0.9473 -0.3841
 2096SOL     OW17920   0.452   0.388  13.050  0.3628  0.4998  0.0511
 2096SOL    HW117921   0.453   0.292  13.060 -0.5178  0.5572  0.7618
 2096SOL    HW217922   0.364   0.399  13.086 -0.3946 -3.4430 -0.5077
 2097SOL     OW17923   2.297   2.791   8.381 -0.2090  0.7118  0.2388
 2097SOL    HW117924   2.325   2.709   8.340  1.8131  1.6228 -0.1792
 2097SOL    HW217925   2.311   2.767   8.473 -2.6891 -2.0047 -0.0690
 2098SOL     OW17926   3.339   4.124  14.695  0.2222  0.5375 -0.3454
 2098SOL    HW117927   3.403   4.178  14.741  0.1518 -0.6184  1.1490
 2098SOL    HW217928   3.327   4.059  14.764 -0.1253  2.2746  1.2287
 2099SOL     OW17929   2.476   3.212   6.778 -0.3214 -0.0140 -0.1215
 2099SOL    HW117930   2.547   3.241   6.721 -1.8063 -0.6449 -2.3047
 2099SOL    HW217931   2.518   3.232   6.861  0.0499 -2.7919  0.3514
 2100SOL     OW17932   1.853   2.099   5.633  0.4585  0.2579 -0.4375
 2100SOL    HW117933   1.761   2.115   5.613  0.7092  1.1583 -0.9315
 2100SOL    HW217934   1.859   2.004   5.642 -0.4284  0.2440 -0.0333
 2101SOL     OW17935   0.264   2.039   7.913  0.5914  0.3428  0.4201
 2101SOL    HW117936   0.311   1.982   7.852  0.8217  2.5314 -1.4818
 2101SOL    HW217937   0.328   2.065   7.979 -0.8482  0.8286  1.6414
 2102SOL     OW17938   2.201   0.302   1.216 -0.5608 -0.7074  0.6453
 2102SOL    HW117939   2.172   0.264   1.299 -0.6130  0.0743  0.9775
 2102SOL    HW217940   2.117   0.301   1.170  1.1210 -1.5538 -2.4355
 2103SOL     OW17941   0.438   2.672   4.708  0.3797  0.1843  0.3407
 2103SOL    HW117942   0.492   2.637   4.638 -0.1647  2.6585 -1.3242
 2103SOL    HW217943   0.396   2.750   4.671  0.3815 -0.5204 -1.1362
 2104SOL     OW17944   4.082   4.555   9.195 -0.0601  0.4078 -0.0980
 2104SOL    HW117945   3.994   4.546   9.231 -0.3360  0.0665 -0.8361
 2104SOL    HW217946   4.062   4.571   9.103 -0.2775  0.1757 -0.0916
 2105SOL     OW17947   3.822   1.745   3.775 -0.1904  0.0193 -0.5054
 2105SOL    HW117948   3.852   1.749   3.684  0.0198  1.3663 -0.3685
 2105SOL    HW217949   3.767   1.823   3.785  0.5028  0.6284 -1.4421
 2106SOL     OW17950   0.982   0.010   4.713  0.0047  0.2092  0.4954
 2106SOL    HW117951   0.970   4.707   4.625  0.2395  0.7471  0.2323
 2106SOL    HW217952   0.994   4.669   4.770 -1.6757 -0.5931 -0.2220
 2107SOL     OW17953   3.287   4.356   7.403 -0.1310 -0.2930 -0.4113
 2107SOL    HW117954   3.300   4.263   7.422  2.0260 -0.5066 -2.9625
 2107SOL    HW217955   3.372   4.386   7.436 -0.3028  0.4528 -0.6425
 2108SOL     OW17956   0.813   2.844   8.094 -0.0654 -0.0309 -0.3553
 2108SOL    HW117957   0.718   2.855   8.082 -0.0035  1.1826  0.2162
 2108SOL    HW217958   0.828   2.919   8.151 -2.2937 -0.4083  0.7217
 2109SOL     OW17959   4.010   4.283  13.744 -0.2526  0.6417 -0.3859
 2109SOL    HW117960   3.982   4.304  13.833  0.1603 -1.4345  0.2400
 2109SOL    HW217961   4.100   4.253  13.758 -0.2602  1.5684  1.5666
 2110SOL     OW17962   1.962   1.803   9.254  0.5690  0.3409 -0.3286
 2110SOL    HW117963   2.051   1.769   9.242 -0.2330 -2.2622  0.9829
 2110SOL    HW217964   1.988   1.879   9.305 -1.7604  1.5240 -0.9296
 2111SOL     OW17965   4.011   0.518   7.064 -0.2571 -0.1301 -0.0896
 2111SOL    HW117966   3.979   0.465   6.991 -0.3772  2.8448 -2.1643
 2111SOL    HW217967   4.005   0.605   7.025 -0.3048 -0.0091  0.1919
 2112SOL     OW17968   2.587   0.157   8.577  0.1376  0.4397 -0.3633
 2112SOL    HW117969   2.567   0.233   8.631 -0.1689 -0.9840  1.5331
 2112SOL    HW217970   2.627   0.199   8.501 -1.8132  2.3685 -0.3209
 2113SOL     OW17971   1.984   0.566   5.202  0.7817  0.3111 -0.0333
 2113SOL    HW117972   2.025   0.549   5.287 -1.5628  0.4830  1.1384
 2113SOL    HW217973   2.051   0.536   5.141 -0.3812 -0.8162 -0.7355
 2114SOL     OW17974   2.601   2.932   4.109 -0.2511  0.6127 -0.1708
 2114SOL    HW117975   2.691   2.902   4.121 -0.6315 -1.2561 -1.9618
 2114SOL    HW217976   2.562   2.847   4.088 -0.5265 -0.3816  4.4764
 2115SOL     OW17977   3.200   1.162   4.890  0.2000 -0.2877 -0.1325
 2115SOL    HW117978   3.238   1.091   4.838  2.7673  0.2028  1.0773
 2115SOL    HW217979   3.157   1.213   4.821  1.4739  1.2651  0.2473
 2116SOL     OW17980   2.838   2.423   7.271 -0.7427  0.3975 -0.1773
 2116SOL    HW117981   2.760   2.372   7.247 -2.2652  1.8775  1.6430
 2116SOL    HW217982   2.820   2.415   7.364 -2.3175 -0.2223 -0.5213
 2117SOL     OW17983   1.605   1.280   5.153 -0.7688  0.5911  0.9328
 2117SOL    HW117984   1.535   1.262   5.216  0.8368 -1.2707  2.1931
 2117SOL    HW217985   1.590   1.195   5.112 -0.2766  0.4516  1.0452
 2118SOL     OW17986   2.518   3.634  10.671  0.2752  0.0768  0.0803
 2118SOL    HW117987   2.591   3.584  10.634  1.3099  0.5871  1.4492
 2118SOL    HW217988   2.561   3.666  10.750  0.0990  1.9555 -0.5945
 2119SOL     OW17989   0.510   2.069  10.115 -0.1411 -0.1987 -0.2208
 2119SOL    HW117990   0.572   2.050  10.185 -2.0079 -1.1456  1.1650
 2119SOL    HW217991   0.563   2.123  10.057 -0.8249  0.4505 -0.2359
 2120SOL     OW17992   4.434   4.646  11.252 -0.6439 -0.2345 -0.0129
 2120SOL    HW117993   4.388   4.730  11.258 -0.8518 -0.2835 -0.8431
 2120SOL    HW217994   4.458   4.637  11.344  0.9136  0.9371 -0.2984
 2121SOL     OW17995   2.902   3.339  13.676  0.0295 -0.0404 -0.9311
 2121SOL    HW117996   2.867   3.250  13.667  0.2695 -0.0914 -1.3963
 2121SOL    HW217997   2.847   3.378  13.608 -0.3712  0.4122 -0.3475
 2122SOL     OW17998   1.007   2.663   5.384  0.2950 -0.2057  0.3120
 2122SOL    HW117999   1.101   2.656   5.396 -0.0118 -1.8559  1.7937
 2122SOL    HW218000   0.981   2.718   5.457  0.9477  1.2191 -0.5437
 2123SOL     OW18001   3.294   4.272   6.480  0.3872  0.0219  0.1254
 2123SOL    HW118002   3.236   4.346   6.497 -0.4557 -0.8235  0.9507
 2123SOL    HW218003   3.329   4.281   6.392  0.8295  0.4543  0.3444
 2124SOL     OW18004   4.080   4.074   2.648 -0.1050 -0.3289  0.3137
 2124SOL    HW118005   3.988   4.065   2.674 -0.2614  0.0179 -0.1306
 2124SOL    HW218006   4.089   4.023   2.567 -1.9782  0.3139 -0.3103
 2125SOL     OW18007   1.780   1.916   5.307 -0.0077  0.1712 -0.0481
 2125SOL    HW118008   1.783   1.837   5.360  0.3503 -0.2011 -0.6152
 2125SOL    HW218009   1.691   1.949   5.319 -0.7297 -2.5755  2.1333
 2126SOL     OW18010   2.449   2.611   4.767  0.4295  0.4693  0.3585
 2126SOL    HW118011   2.513   2.554   4.724 -0.0965 -1.8741  2.6584
 2126SOL    HW218012   2.503   2.616   4.846  2.1957 -0.3133 -0.8033
 2127SOL     OW18013   3.744   0.321   8.869 -0.5618 -0.2396 -0.0012
 2127SOL    HW118014   3.729   0.228   8.854 -0.9932 -0.2914  0.7536
 2127SOL    HW218015   3.656   0.352   8.846 -0.4210 -0.2008 -0.4996
 2128SOL     OW18016   2.538   4.096   6.076  0.0688 -0.0885 -0.1273
 2128SOL    HW118017   2.631   4.112   6.089  0.1679 -1.9505  1.6658
 2128SOL    HW218018   2.517   4.120   5.986  1.1221 -1.2562 -0.6868
 2129SOL     OW18019   1.880   3.284   1.566 -0.2953 -0.7239 -0.0692
 2129SOL    HW118020   1.975   3.293   1.561 -0.1522 -1.6555  1.0870
 2129SOL    HW218021   1.857   3.319   1.652  0.3889 -2.6480  0.8825
 2130SOL     OW18022   0.847   0.747   7.508  0.8493 -0.0952  0.0581
 2130SOL    HW118023   0.933   0.753   7.466  0.3629  0.8620 -0.7776
 2130SOL    HW218024   0.867   0.772   7.598  1.0962  0.0360 -0.0343
 2131SOL     OW18025   1.044   4.416   5.159 -0.0516  0.3836  0.1135
 2131SOL    HW118026   1.069   4.458   5.241 -0.5218 -0.9314  0.9274
 2131SOL    HW218027   1.004   4.334   5.189  1.0038 -1.1773 -2.7471
 2132SOL     OW18028   3.659   0.855   8.846 -0.0381  0.4093 -0.3018
 2132SOL    HW118029   3.641   0.765   8.821  1.0319 -0.3436  1.6261
 2132SOL    HW218030   3.567   0.882   8.852  1.2454  4.4096  2.0280
 2133SOL     OW18031   1.372   3.129   2.710  0.0612 -0.5548  0.1278
 2133SOL    HW118032   1.378   3.054   2.650  2.8342 -2.2465  2.4663
 2133SOL    HW218033   1.338   3.086   2.788 -0.8828  0.5169  0.2939
 2134SOL     OW18034   3.182   1.776   2.570  0.2533 -0.2762 -0.6437
 2134SOL    HW118035   3.267   1.753   2.533  0.6262  2.5394 -1.5396
 2134SOL    HW218036   3.171   1.865   2.537 -1.3381 -0.4010 -0.4755
 2135SOL     OW18037   3.572   2.824  15.715  0.1326  0.5852  0.6066
 2135SOL    HW118038   3.622   2.882  15.658 -1.9743 -0.7286 -2.6334
 2135SOL    HW218039   3.482   2.849  15.691 -0.1056 -2.0514 -1.2628
 2136SOL     OW18040   1.419   1.392   3.189 -0.3831 -0.0273 -0.5120
 2136SOL    HW118041   1.370   1.475   3.185  1.1108  0.9662  1.7636
 2136SOL    HW218042   1.406   1.355   3.102 -0.2883  0.4057 -0.7136
 2137SOL     OW18043   0.121   0.901  14.544  0.4571 -1.0137 -0.5909
 2137SOL    HW118044   0.057   0.839  14.579  1.0209 -1.7387 -0.8386
 2137SOL    HW218045   0.102   0.975  14.601  0.4857 -0.6108 -1.1046
 2138SOL     OW18046   3.235   0.972   8.082  0.1187 -0.1758  0.2206
 2138SOL    HW118047   3.235   0.897   8.022 -1.2497 -0.0712  0.1061
 2138SOL    HW218048   3.329   0.990   8.071 -0.3146  0.8230 -1.7316
 2139SOL     OW18049   1.073   2.765   1.415  0.1066 -0.7518  0.0283
 2139SOL    HW118050   1.080   2.817   1.335  0.6299 -0.3529  0.3306
 2139SOL    HW218051   1.155   2.718   1.402  0.2984 -0.5314  0.4465
 2140SOL     OW18052   1.739   0.341   3.717 -0.9253  0.1861 -1.0881
 2140SOL    HW118053   1.792   0.303   3.787 -1.1589  1.2060 -0.3539
 2140SOL    HW218054   1.796   0.333   3.640 -1.2916 -0.3157 -1.3041
 2141SOL     OW18055   1.550   0.866  12.180  0.1092 -0.4433  0.2006
 2141SOL    HW118056   1.564   0.843  12.272  0.4901  2.3479  0.8322
 2141SOL    HW218057   1.469   0.816  12.166 -0.2736  0.1475  0.3405
 2142SOL     OW18058   1.232   0.653  10.200 -0.1760  0.4603 -0.1020
 2142SOL    HW118059   1.282   0.579  10.236  1.2155  0.7569 -1.4415
 2142SOL    HW218060   1.278   0.725  10.242 -0.2258  0.3518  0.1381
 2143SOL     OW18061   3.399   4.273  13.584 -0.1495 -0.4443  0.6552
 2143SOL    HW118062   3.462   4.337  13.553 -0.5740 -0.6132 -0.5778
 2143SOL    HW218063   3.458   4.220  13.637 -0.5060 -3.3453 -1.8278
 2144SOL     OW18064   4.537   0.532   5.405 -0.1049 -0.2224 -0.1287
 2144SOL    HW118065   4.598   0.605   5.398  2.5563 -2.4120  0.1149
 2144SOL    HW218066   4.538   0.514   5.499 -2.5412  0.4917  0.0362
 2145SOL     OW18067   1.103   0.342   3.559  0.4879 -0.0727  0.0953
 2145SOL    HW118068   1.123   0.280   3.629  0.6259  1.2721  1.2521
 2145SOL    HW218069   1.007   0.342   3.559  0.4922  0.4712 -0.9455
 2146SOL     OW18070   4.315   0.034   9.143  0.3700 -0.0078  0.2186
 2146SOL    HW118071   4.296   0.100   9.077 -0.7897 -1.5223 -0.9674
 2146SOL    HW218072   4.375   4.706   9.102  1.7424  2.4391 -1.4695
 2147SOL     OW18073   1.156   4.732  10.802  1.0183  0.7535 -0.4608
 2147SOL    HW118074   1.172   0.090  10.817 -3.3972  1.6192 -0.9424
 2147SOL    HW218075   1.151   4.710  10.895  0.6144  0.6714 -0.5026
 2148SOL     OW18076   4.699   2.018   6.013  0.3107  0.0409 -0.1630
 2148SOL    HW118077   4.711   1.936   6.061  0.2839  1.6125  2.5025
 2148SOL    HW218078   4.637   2.065   6.069  0.3832 -0.7689  0.5982
 2149SOL     OW18079   2.678   2.500   5.862 -0.1948  0.3967 -0.8434
 2149SOL    HW118080   2.723   2.554   5.798  0.7411 -0.1000 -0.5988
 2149SOL    HW218081   2.733   2.425   5.841  0.7831  0.8275  0.1700
 2150SOL     OW18082   4.554   1.932   4.562  0.3276 -0.7614 -0.1475
 2150SOL    HW118083   4.626   1.990   4.587  0.7342 -2.1997  1.9685
 2150SOL    HW218084   4.527   1.971   4.478  1.4158 -1.1034 -0.6510
 2151SOL     OW18085   2.227   0.555   3.748 -0.0015 -0.9222  0.0852
 2151SOL    HW118086   2.295   0.540   3.682  2.0525  0.0899  1.9572
 2151SOL    HW218087   2.267   0.609   3.816  0.2947 -1.6505  0.4945
 2152SOL     OW18088   0.965   1.404  12.203 -0.2229 -0.1083  0.3727
 2152SOL    HW118089   0.936   1.387  12.293  2.2366  0.6501  1.2767
 2152SOL    HW218090   1.058   1.385  12.204 -0.4468 -1.3607 -2.6548
 2153SOL     OW18091   2.135   0.039   0.575  0.0535 -0.0425  0.3681
 2153SOL    HW118092   2.218   0.046   0.622 -0.2156 -1.2934  1.0357
 2153SOL    HW218093   2.097   4.701   0.624 -1.1008 -0.0988 -0.6203
 2154SOL     OW18094   0.750   3.044  10.462 -0.3133  0.7595 -0.1625
 2154SOL    HW118095   0.838   3.015  10.482 -0.7325  0.9180  1.9060
 2154SOL    HW218096   0.714   3.090  10.538 -0.7666  0.6323 -0.2990
 2155SOL     OW18097   3.093   3.190   0.786  0.3486 -0.1928  0.0185
 2155SOL    HW118098   3.094   3.271   0.735 -1.8958  0.2124  0.6038
 2155SOL    HW218099   3.185   3.177   0.806  0.1908 -0.9551  0.2555
 2156SOL     OW18100   1.634   4.075   4.434  0.1364 -0.5075  0.1525
 2156SOL    HW118101   1.726   4.050   4.443 -0.0826 -1.9936 -1.7633
 2156SOL    HW218102   1.631   4.143   4.501  2.9036 -0.8154  0.6187
 2157SOL     OW18103   3.378   2.487  13.930 -0.2217 -0.1661  1.2590
 2157SOL    HW118104   3.286   2.504  13.952 -1.3520 -0.0683 -3.5268
 2157SOL    HW218105   3.395   2.402  13.970  0.8656 -1.4588 -1.9380
 2158SOL     OW18106   4.571   3.227   2.277 -0.4141  0.0329  0.2382
 2158SOL    HW118107   4.564   3.264   2.189  3.4664 -0.1133 -0.1022
 2158SOL    HW218108   4.617   3.293   2.328 -0.8047 -0.3202  1.0456
 2159SOL     OW18109   4.503   2.680   5.212  0.3299  0.5042  0.3145
 2159SOL    HW118110   4.535   2.718   5.294  1.7028  0.0168  0.0045
 2159SOL    HW218111   4.577   2.628   5.181 -0.8042 -1.4108  0.8040
 2160SOL     OW18112   3.098   2.875   6.738  0.0382  0.7719 -0.2945
 2160SOL    HW118113   3.061   2.787   6.736  1.2719  0.2374 -0.1588
 2160SOL    HW218114   3.183   2.857   6.696 -0.5670  0.7351 -1.4978
 2161SOL     OW18115   1.232   3.888   1.714  0.0881 -0.4396  0.4353
 2161SOL    HW118116   1.238   3.904   1.808 -0.3154  1.9775  0.0295
 2161SOL    HW218117   1.256   3.974   1.681  0.3697 -1.0096 -0.8513
 2162SOL     OW18118   4.301   3.363   2.099  0.7977  0.7836  0.2716
 2162SOL    HW118119   4.396   3.370   2.087  0.5381  0.2688 -2.0543
 2162SOL    HW218120   4.281   3.449   2.136 -0.9911  0.6830 -0.4930
 2163SOL     OW18121   0.322   0.292   7.048  0.0634 -0.1063 -0.2086
 2163SOL    HW118122   0.350   0.255   7.131  0.5453  0.9103  0.0684
 2163SOL    HW218123   0.313   0.380   7.083 -2.7332 -0.7103  0.6231
 2164SOL     OW18124   2.157   3.661   5.712 -0.0960 -0.0928 -0.0752
 2164SOL    HW118125   2.106   3.666   5.794 -2.1182  0.0890 -1.3414
 2164SOL    HW218126   2.097   3.703   5.650 -0.1701 -1.1701 -0.7211
 2165SOL     OW18127   1.898   2.148   1.609  0.4277 -0.0815 -0.0564
 2165SOL    HW118128   1.867   2.238   1.617 -1.2046 -0.5023 -1.6666
 2165SOL    HW218129   1.990   2.162   1.631  0.2978 -0.8066  0.9609
 2166SOL     OW18130   0.850   3.141   0.552  0.4574  0.1846  0.3578
 2166SOL    HW118131   0.844   3.231   0.519 -0.2990 -0.1882 -0.5266
 2166SOL    HW218132   0.814   3.141   0.641  0.6582 -0.7572  0.4362
 2167SOL     OW18133   0.074   2.075   5.067 -0.0873  0.6042 -0.5650
 2167SOL    HW118134   4.731   2.056   5.120 -0.3858  0.7547 -0.9523
 2167SOL    HW218135   0.132   2.085   5.143  0.9733  0.2383 -1.3254
 2168SOL     OW18136   4.308   1.494   8.683  0.3774  0.4424  0.0251
 2168SOL    HW118137   4.245   1.494   8.755 -1.5883  1.1600 -1.7000
 2168SOL    HW218138   4.328   1.400   8.677  1.3574  0.6314  0.1716
 2169SOL     OW18139   1.896   2.681   5.626 -0.2047 -0.2652  0.3994
 2169SOL    HW118140   1.899   2.667   5.720 -0.0948  1.0745  0.5875
 2169SOL    HW218141   1.867   2.592   5.605 -1.9743  0.1045  1.2475
 2170SOL     OW18142   3.721   2.175   0.145  0.3137  0.1458 -0.4376
 2170SOL    HW118143   3.780   2.114   0.102 -0.8932 -1.4292  0.1568
 2170SOL    HW218144   3.776   2.214   0.213  0.5702 -1.3460  0.2032
 2171SOL     OW18145   3.233   3.250   3.643  0.1705 -0.4460  0.2501
 2171SOL    HW118146   3.215   3.174   3.588 -0.5840  1.4720 -2.1604
 2171SOL    HW218147   3.292   3.206   3.703  2.6602 -1.1399 -2.7114
 2172SOL     OW18148   2.437   4.034   5.013  0.7706  0.2464 -0.1321
 2172SOL    HW118149   2.531   4.020   5.029  0.9011  0.5544 -0.6327
 2172SOL    HW218150   2.406   3.947   5.039  1.1347  0.0479 -0.3595
 2173SOL     OW18151   1.197   0.346   9.389 -0.4004 -0.1391 -0.3519
 2173SOL    HW118152   1.173   0.260   9.354 -0.6308 -0.3475  0.3261
 2173SOL    HW218153   1.194   0.320   9.481 -0.4260  2.8783  0.4921
 2174SOL     OW18154   2.656   4.220   7.056 -0.1811  0.5588  0.0027
 2174SOL    HW118155   2.565   4.218   7.085  0.2931  0.5518  1.5091
 2174SOL    HW218156   2.660   4.315   7.063 -1.1770  0.5618  0.4493
 2175SOL     OW18157   0.999   2.525   7.812  0.6540  0.0735  0.5690
 2175SOL    HW118158   1.094   2.518   7.814  0.6730  0.3246  0.5357
 2175SOL    HW218159   0.981   2.560   7.899 -0.8915 -1.8067  1.0112
 2176SOL     OW18160   2.507   1.104   7.019  0.4583  0.3408 -0.6502
 2176SOL    HW118161   2.423   1.091   7.063  0.2346  0.5490 -1.0148
 2176SOL    HW218162   2.563   1.113   7.096  0.5142  1.3178 -0.8148
 2177SOL     OW18163   3.497   2.506   4.117  0.4457  0.2656  0.3884
 2177SOL    HW118164   3.526   2.530   4.204 -0.7555  1.1692  0.5398
 2177SOL    HW218165   3.453   2.588   4.093  0.1856  0.3765  1.2731
 2178SOL     OW18166   1.590   2.265   4.207 -0.1099  0.0765 -0.6148
 2178SOL    HW118167   1.567   2.296   4.120 -0.9244 -0.0793 -0.4575
 2178SOL    HW218168   1.558   2.335   4.263 -1.7555 -2.1107  1.1782
 2179SOL     OW18169   3.501   3.980   4.406  0.5077 -0.1861 -0.2820
 2179SOL    HW118170   3.472   4.031   4.331 -0.4857 -0.2444  0.0589
 2179SOL    HW218171   3.422   3.967   4.458  2.1844  1.5203  2.6869
 2180SOL     OW18172   1.912   4.520   8.954  0.0140 -0.0738 -0.5103
 2180SOL    HW118173   1.939   4.435   8.919  0.5453  0.6199 -1.8084
 2180SOL    HW218174   1.817   4.512   8.960  0.0272  0.1251  0.0109
 2181SOL     OW18175   1.231   2.917   3.548 -0.5740  0.6068  0.2333
 2181SOL    HW118176   1.219   2.914   3.453 -0.0265 -1.1516  0.2084
 2181SOL    HW218177   1.222   2.822   3.563  2.1957  0.0576 -1.6457
 2182SOL     OW18178   1.078   1.285   7.528  0.2280  0.4689  0.4539
 2182SOL    HW118179   1.161   1.246   7.500 -0.8771  1.4331 -4.1063
 2182SOL    HW218180   1.026   1.265   7.450 -1.1467  1.3837  1.1362
 2183SOL     OW18181   0.645   1.788  14.773 -0.1662  0.7026 -0.1212
 2183SOL    HW118182   0.611   1.723  14.711 -0.9394  0.9160  0.0873
 2183SOL    HW218183   0.739   1.787  14.751  0.2560 -0.1494  1.7041
 2184SOL     OW18184   2.222   3.996   7.253 -0.2364 -0.2209  0.6307
 2184SOL    HW118185   2.146   4.049   7.226  0.3441  0.3678  0.1666
 2184SOL    HW218186   2.269   4.061   7.305  0.2918  0.1268 -0.2980
 2185SOL     OW18187   1.121   4.211  13.840 -0.4726  0.6741 -0.7144
 2185SOL    HW118188   1.167   4.295  13.830  1.1684 -0.1727 -0.2503
 2185SOL    HW218189   1.075   4.225  13.923  1.5318 -0.8286  0.6504
 2186SOL     OW18190   2.572   0.944   2.503  0.1994 -0.0509 -0.4865
 2186SOL    HW118191   2.521   0.910   2.430 -0.6149  2.0411 -0.8966
 2186SOL    HW218192   2.530   0.886   2.567 -0.7269  1.6890  0.5202
 2187SOL     OW18193   2.930   4.024   7.714 -0.0241 -0.5871  0.9734
 2187SOL    HW118194   2.879   4.056   7.640  1.1131 -0.3095  0.3080
 2187SOL    HW218195   2.951   3.942   7.670 -2.2343 -1.1614  1.0036
 2188SOL     OW18196   3.676   0.632   6.763  0.3259  0.3676  0.3244
 2188SOL    HW118197   3.657   0.681   6.682 -0.4116 -1.3969 -0.5734
 2188SOL    HW218198   3.659   0.544   6.730  0.5027  0.7214 -0.7269
 2189SOL     OW18199   1.724   3.124   0.798 -0.4931 -0.5637 -0.7181
 2189SOL    HW118200   1.657   3.109   0.732 -2.2923 -1.5514  1.3375
 2189SOL    HW218201   1.791   3.064   0.764  0.3111 -0.4366  0.6292
 2190SOL     OW18202   4.305   0.820   2.953  0.1019 -0.0624 -0.2043
 2190SOL    HW118203   4.377   0.757   2.962 -1.0286 -1.4912 -1.1795
 2190SOL    HW218204   4.285   0.820   3.047 -1.7492 -1.4723 -0.5950
 2191SOL     OW18205   0.042   0.119   7.204 -0.7849 -0.2402  0.0358
 2191SOL    HW118206   0.069   0.210   7.215  0.3675 -0.2861 -2.5544
 2191SOL    HW218207   0.066   0.089   7.292  3.8581  3.7389  0.1186
 2192SOL     OW18208   1.405   2.644  12.154  0.2474 -0.2400  0.0032
 2192SOL    HW118209   1.435   2.726  12.194 -0.5913 -0.6435  1.4674
 2192SOL    HW218210   1.331   2.682  12.107 -0.5155  0.1587  1.5057
 2193SOL     OW18211   4.136   0.882   4.940 -0.2439  0.4030  0.0329
 2193SOL    HW118212   4.073   0.816   4.910 -0.8824  1.3035 -0.5923
 2193SOL    HW218213   4.191   0.824   4.993 -0.1936  0.2746 -0.1582
 2194SOL     OW18214   0.653   0.185  16.747  0.0167  0.3429 -0.2720
 2194SOL    HW118215   0.719   0.253  16.759  0.5440 -0.3914  0.9545
 2194SOL    HW218216   0.584   0.243  16.713 -0.0646 -1.0427 -2.5165
 2195SOL     OW18217   4.095   1.291   5.380  0.2775  0.8036 -0.3133
 2195SOL    HW118218   4.105   1.380   5.347  0.0624  1.6403  1.9051
 2195SOL    HW218219   4.052   1.304   5.464  0.5647  0.0553 -0.0455
 2196SOL     OW18220   3.397   1.956   5.906 -0.2122 -0.0360 -0.1572
 2196SOL    HW118221   3.492   1.965   5.915  0.0052 -0.2361 -2.2806
 2196SOL    HW218222   3.373   2.045   5.880  0.7986  1.0384  2.5751
 2197SOL     OW18223   1.538   1.023   4.957 -0.2630  0.0747  0.5297
 2197SOL    HW118224   1.624   0.998   4.922 -0.8687 -0.6886 -0.3905
 2197SOL    HW218225   1.503   1.053   4.874 -0.7105 -1.9354 -0.0123
 2198SOL     OW18226   2.107   0.216   5.645 -0.1514  0.0488  0.5171
 2198SOL    HW118227   2.027   0.207   5.592 -0.8777  1.1504  1.4048
 2198SOL    HW218228   2.087   0.161   5.720 -1.9498  1.2394  0.9313
 2199SOL     OW18229   4.021   3.719   9.212  0.1752  0.0520 -0.2914
 2199SOL    HW118230   4.073   3.682   9.141 -3.2478 -2.5370 -1.4309
 2199SOL    HW218231   4.082   3.732   9.285 -0.8032 -1.6477  0.8444
 2200SOL     OW18232   3.559   1.594   5.003  0.1198 -0.0222 -0.2217
 2200SOL    HW118233   3.537   1.500   4.999 -4.1995  1.0244 -0.8380
 2200SOL    HW218234   3.479   1.635   5.034  1.5304  2.1123  0.5283
 2201SOL     OW18235   0.939   0.385   6.111 -0.1921  0.6510  0.4581
 2201SOL    HW118236   0.905   0.304   6.074  0.6520  1.4561 -2.0582
 2201SOL    HW218237   1.015   0.346   6.154  0.6894  1.0199 -0.7790
 2202SOL     OW18238   1.255   0.091  15.283  0.1551  0.4576 -0.3182
 2202SOL    HW118239   1.161   0.088  15.298  0.1306 -1.1466 -0.7634
 2202SOL    HW218240   1.257   0.025  15.213  1.4966  0.2982 -0.1481
 2203SOL     OW18241   1.692   0.505   7.708 -0.5832  0.1921 -0.0341
 2203SOL    HW118242   1.681   0.415   7.677  1.2529  0.7231 -2.2257
 2203SOL    HW218243   1.643   0.503   7.791 -0.0520 -1.9614  0.2489
 2204SOL     OW18244   2.362   4.630   0.678  1.0397 -0.1791 -0.2224
 2204SOL    HW118245   2.430   4.691   0.706 -0.2726  1.0601  0.2746
 2204SOL    HW218246   2.376   4.562   0.743 -1.5691 -0.5605 -0.0450
 2205SOL     OW18247   0.675   1.768  10.056  0.4162  0.4330  0.9143
 2205SOL    HW118248   0.681   1.733  10.145 -0.0072  2.3263  1.6749
 2205SOL    HW218249   0.604   1.831  10.070  0.0153  0.1063  0.3796
 2206SOL     OW18250   3.276   3.913   3.435 -0.1346  0.2932 -0.1613
 2206SOL    HW118251   3.212   3.892   3.367 -0.7436 -0.6728  0.6964
 2206SOL    HW218252   3.230   3.969   3.498 -0.1623  1.7006 -1.4358
 2207SOL     OW18253   1.049   3.517   6.786  0.8000 -0.5745 -0.1353
 2207SOL    HW118254   1.100   3.557   6.857 -0.0444 -0.3849  0.3779
 2207SOL    HW218255   0.999   3.448   6.832  0.2438  0.5938  1.0247
 2208SOL     OW18256   2.792   4.485   9.909 -0.4077  0.5077 -0.4004
 2208SOL    HW118257   2.817   4.407   9.858 -1.8899 -2.0017  2.6699
 2208SOL    HW218258   2.728   4.530   9.854 -1.7272  0.1345  0.8336
 2209SOL     OW18259   0.792   1.258   8.693  0.0417  0.6673  0.1414
 2209SOL    HW118260   0.755   1.345   8.703 -0.1917  0.4256  1.4423
 2209SOL    HW218261   0.874   1.268   8.741  0.1361 -0.5871  0.2612
 2210SOL     OW18262   1.817   4.273   0.718 -0.1027  0.4297 -0.7396
 2210SOL    HW118263   1.843   4.343   0.659 -1.2020 -0.1149 -1.8761
 2210SOL    HW218264   1.906   4.240   0.734 -0.7129 -1.1712 -0.5854
 2211SOL     OW18265   0.077   4.261   2.109 -0.6118  0.6234  0.3727
 2211SOL    HW118266   0.155   4.235   2.059 -1.8325 -1.7107 -0.3304
 2211SOL    HW218267   0.059   4.206   2.185  0.7248  0.0330  0.2597
 2212SOL     OW18268   0.863   1.234   6.246  0.0442  0.0046 -0.2527
 2212SOL    HW118269   0.773   1.242   6.215 -0.4877 -4.6825  0.1203
 2212SOL    HW218270   0.852   1.188   6.329  0.4278  2.7402  1.3272
 2213SOL     OW18271   3.022   0.608   9.727 -0.3449 -0.3893 -0.2254
 2213SOL    HW118272   3.038   0.574   9.815  1.7659  1.4290  0.1039
 2213SOL    HW218273   2.946   0.666   9.732  1.1528  1.3084  2.6141
 2214SOL     OW18274   3.219   3.094   9.279  0.0562  0.2193 -0.0332
 2214SOL    HW118275   3.154   3.054   9.337 -0.2353  0.7447  0.0022
 2214SOL    HW218276   3.181   3.182   9.280  1.7354  0.9272  1.3768
 2215SOL     OW18277   3.973   0.728   3.105  0.3239  0.3054 -0.5712
 2215SOL    HW118278   3.950   0.636   3.111 -0.8020  0.5708 -0.9001
 2215SOL    HW218279   4.055   0.737   3.154 -0.1194 -0.1702  0.2568
 2216SOL     OW18280   0.892   1.314   1.182 -0.3123  0.5294  0.0718
 2216SOL    HW118281   0.826   1.313   1.252  0.5231 -0.3634  0.8368
 2216SOL    HW218282   0.908   1.408   1.187 -4.0751  1.1758  0.6362
 2217SOL     OW18283   2.829   3.785   6.596 -0.2654 -0.4257 -0.2747
 2217SOL    HW118284   2.920   3.791   6.565  0.2300  1.9885  1.6723
 2217SOL    HW218285   2.804   3.831   6.516  0.7859  2.4990  1.0616
 2218SOL     OW18286   4.374   1.468   4.691 -0.0272 -0.4591  0.2691
 2218SOL    HW118287   4.375   1.399   4.758 -1.1802 -0.9248 -0.1995
 2218SOL    HW218288   4.359   1.417   4.611  2.5941  0.8990 -1.1083
 2219SOL     OW18289   3.654   0.518  16.826  0.1033  0.3914 -0.1785
 2219SOL    HW118290   3.564   0.512  16.859  0.9614 -0.8866  1.8741
 2219SOL    HW218291   3.660   0.442  16.768 -1.4710  0.2022 -0.1014
 2220SOL     OW18292   2.495   0.562  16.066 -0.0186  0.1215  0.1847
 2220SOL    HW118293   2.415   0.510  16.061  0.4509 -0.9190  3.4650
 2220SOL    HW218294   2.465   0.653  16.066 -1.9411 -0.5053  2.7043
 2221SOL     OW18295   4.300   0.370   1.284 -0.4694  0.2978  0.0682
 2221SOL    HW118296   4.385   0.403   1.312 -0.3244  0.6573 -0.7940
 2221SOL    HW218297   4.263   0.354   1.371  0.2775 -1.7132  0.0223
 2222SOL     OW18298   3.425   2.195   5.219 -0.1412 -0.4740  0.3158
 2222SOL    HW118299   3.498   2.222   5.164 -1.2427 -0.0101 -0.9118
 2222SOL    HW218300   3.345   2.228   5.179 -0.6764 -2.9835 -0.7176
 2223SOL     OW18301   4.223   1.912   0.167  0.7768 -0.5072  0.2052
 2223SOL    HW118302   4.232   1.951   0.254  0.9487  4.1560 -1.9226
 2223SOL    HW218303   4.214   1.819   0.191  0.0655  0.0364  2.0623
 2224SOL     OW18304   4.568   3.710   8.550 -0.0723  0.1823 -0.3626
 2224SOL    HW118305   4.598   3.765   8.621  1.4733  1.4983 -2.0340
 2224SOL    HW218306   4.499   3.655   8.588 -0.4418  1.3044  0.5677
 2225SOL     OW18307   4.357   3.906   2.209  0.2112  0.4097  0.2989
 2225SOL    HW118308   4.377   3.920   2.117 -1.1189 -0.8181 -0.1743
 2225SOL    HW218309   4.419   3.966   2.251  0.0698  0.1229  0.9244
 2226SOL     OW18310   4.590   3.323   2.029  0.0412  0.7096 -0.1439
 2226SOL    HW118311   4.684   3.341   2.031 -0.1764  1.9713 -1.1183
 2226SOL    HW218312   4.567   3.380   1.955  0.8027 -0.5498 -1.3455
 2227SOL     OW18313   2.724   1.377  14.107 -0.3411  0.2649 -0.0711
 2227SOL    HW118314   2.718   1.304  14.046  1.2808  0.6076 -0.6260
 2227SOL    HW218315   2.796   1.340  14.159  0.4572  2.9068  0.6892
 2228SOL     OW18316   1.106   2.262  12.972 -0.0781  1.0959 -0.6860
 2228SOL    HW118317   1.135   2.268  13.063 -1.4757 -0.9418 -0.1108
 2228SOL    HW218318   1.191   2.281  12.931 -0.2639 -0.5197 -1.7872
 2229SOL     OW18319   3.249   0.887   9.989  0.6146  0.0525 -0.5553
 2229SOL    HW118320   3.235   0.836  10.069  1.1966 -0.5035 -0.7984
 2229SOL    HW218321   3.159   0.913   9.970  0.3837  0.6159  1.3695
 2230SOL     OW18322   0.705   3.606   4.454  0.1052 -0.0722 -0.6307
 2230SOL    HW118323   0.751   3.566   4.380  1.1374  1.7272 -0.9785
 2230SOL    HW218324   0.668   3.687   4.418  0.6337  0.9017  1.0427
 2231SOL     OW18325   3.708   1.899   6.159 -0.1748 -0.7394 -0.2227
 2231SOL    HW118326   3.642   1.934   6.099  0.9521  2.0136  0.1486
 2231SOL    HW218327   3.763   1.843   6.104  2.3705 -1.1568  2.7252
 2232SOL     OW18328   0.084   3.351   1.493 -0.1055 -0.2328  0.4539
 2232SOL    HW118329   4.735   3.306   1.483 -0.6109  0.6099  0.9071
 2232SOL    HW218330   0.106   3.326   1.582 -0.3407  1.4290  0.9767
 2233SOL     OW18331   1.119   0.305   4.038  0.0319 -0.2307 -0.2348
 2233SOL    HW118332   1.179   0.317   4.112  0.2359  0.5947 -0.5283
 2233SOL    HW218333   1.039   0.299   4.090  0.6895 -1.8583  0.5950
 2234SOL     OW18334   1.534   2.194   3.575  0.3086  0.5143  0.2702
 2234SOL    HW118335   1.562   2.118   3.525  1.6541  0.6851  0.7679
 2234SOL    HW218336   1.611   2.224   3.623  0.7999 -0.2864 -0.0161
 2235SOL     OW18337   3.252   2.086   2.221  0.3850  0.2921  0.1215
 2235SOL    HW118338   3.245   2.167   2.171 -0.1610 -0.3885 -0.9228
 2235SOL    HW218339   3.245   2.018   2.153 -2.5064  0.6168  0.0860
 2236SOL     OW18340   2.643   0.710   5.796  0.0839 -0.4536 -0.1450
 2236SOL    HW118341   2.668   0.792   5.753  1.5473 -1.1449 -0.6373
 2236SOL    HW218342   2.617   0.652   5.725 -0.8894 -1.5719  1.1164
 2237SOL     OW18343   0.211   4.583  17.370  0.3945  0.0800  0.4822
 2237SOL    HW118344   0.199   4.591  17.464 -1.3492 -0.1067  0.2851
 2237SOL    HW218345   0.244   4.666  17.336  0.3953 -0.1325 -0.0443
 2238SOL     OW18346   2.560   1.445   4.107  0.3440  0.1007 -0.2852
 2238SOL    HW118347   2.609   1.526   4.122 -0.0184  0.3321 -0.3814
 2238SOL    HW218348   2.477   1.483   4.079  0.3551 -0.2647 -0.7985
 2239SOL     OW18349   1.006   0.345  11.945 -0.1991 -0.2464 -0.2210
 2239SOL    HW118350   0.937   0.280  11.959  0.7126 -0.7371  1.9650
 2239SOL    HW218351   1.080   0.286  11.957  0.3502  1.0085  2.6679
 2240SOL     OW18352   2.557   4.342   6.371  0.1832  0.0449  0.3231
 2240SOL    HW118353   2.619   4.287   6.419 -0.2292 -0.4161  0.3287
 2240SOL    HW218354   2.497   4.270   6.351  0.3381  0.4688 -1.7210
 2241SOL     OW18355   2.657   1.054   1.779  0.0878 -0.0706 -0.2134
 2241SOL    HW118356   2.618   1.109   1.847 -0.8708 -0.2857 -0.5927
 2241SOL    HW218357   2.632   1.107   1.704 -0.8365 -3.0825 -2.0517
 2242SOL     OW18358   4.009   4.329   0.352  0.2447  0.0707  0.0346
 2242SOL    HW118359   4.093   4.322   0.398 -0.1475  1.1886  0.9222
 2242SOL    HW218360   4.000   4.422   0.331  1.3022  0.5852  1.7840
 2243SOL     OW18361   0.284   1.406   3.306  0.3968 -0.1484  0.1856
 2243SOL    HW118362   0.311   1.492   3.337 -0.1655  0.3172 -0.6188
 2243SOL    HW218363   0.237   1.418   3.224  0.4727  1.5221  0.3953
 2244SOL     OW18364   1.199   2.825   7.977  0.2037  0.0951 -0.3826
 2244SOL    HW118365   1.138   2.755   8.002  0.8428 -1.0413 -2.0234
 2244SOL    HW218366   1.199   2.876   8.058  1.6248  0.2824 -0.5099
 2245SOL     OW18367   3.635   2.775   9.804  0.0077 -0.1543 -0.2195
 2245SOL    HW118368   3.679   2.727   9.874 -2.2784 -1.2259  0.4748
 2245SOL    HW218369   3.683   2.859   9.808  1.1281 -0.7112 -1.7499
 2246SOL     OW18370   0.097   0.423   4.120 -0.7218 -0.1051  0.1253
 2246SOL    HW118371   0.013   0.435   4.074 -0.2992 -1.2388 -0.9532
 2246SOL    HW218372   0.120   0.331   4.107 -0.0996 -0.2385  2.1428
 2247SOL     OW18373   3.178   0.471  17.149 -0.8978 -0.0075  0.0766
 2247SOL    HW118374   3.204   0.479  17.241  0.6875 -0.1215 -0.3643
 2247SOL    HW218375   3.249   0.427  17.103 -0.3227  0.4395  0.5372
 2248SOL     OW18376   0.968   0.617  14.467 -0.1554  0.0324  0.0856
 2248SOL    HW118377   0.942   0.552  14.402  1.0577  1.1731 -1.5336
 2248SOL    HW218378   1.058   0.636  14.438 -0.2943 -0.0091 -0.3702
 2249SOL     OW18379   3.322   0.188  16.699 -0.8130  0.0537 -0.3562
 2249SOL    HW118380   3.235   0.217  16.670 -1.0616 -0.7092 -0.3866
 2249SOL    HW218381   3.295   0.101  16.728 -0.8570 -0.7062 -2.6543
 2250SOL     OW18382   0.786   3.967   6.031  0.0687 -0.4099 -0.2519
 2250SOL    HW118383   0.694   3.941   6.022 -0.2429  0.9462 -0.9839
 2250SOL    HW218384   0.815   3.885   6.070  0.7377 -0.5538 -1.0534
 2251SOL     OW18385   0.753   0.628  16.200  0.3741 -0.5047 -0.0376
 2251SOL    HW118386   0.803   0.699  16.240  0.8319 -1.0574  0.3808
 2251SOL    HW218387   0.767   0.562  16.269  0.4121  0.9416  1.3370
 2252SOL     OW18388   1.844   2.631   2.636 -0.3778  0.0465  0.1068
 2252SOL    HW118389   1.922   2.644   2.691  0.1207  0.0182 -0.5835
 2252SOL    HW218390   1.778   2.687   2.677  2.3016  2.9002  0.5676
 2253SOL     OW18391   2.423   1.320   0.517  0.1324 -0.0628  0.3609
 2253SOL    HW118392   2.493   1.261   0.543  0.1781  0.3186  1.1202
 2253SOL    HW218393   2.356   1.260   0.484 -0.6704  0.3431  1.2247
 2254SOL     OW18394   3.792   2.111   3.615 -0.0528  0.2506  0.4257
 2254SOL    HW118395   3.880   2.072   3.615  0.2643  0.9701  0.1683
 2254SOL    HW218396   3.796   2.192   3.667  0.4624 -0.0354  0.8356
 2255SOL     OW18397   2.510   0.265   9.018 -0.2756  0.4195  0.4599
 2255SOL    HW118398   2.426   0.219   9.021 -1.2731  2.1965  0.0235
 2255SOL    HW218399   2.488   0.353   8.988 -0.9958 -0.1432 -0.6784
 2256SOL     OW18400   4.161   4.463   5.440  0.1271  0.3303 -0.1368
 2256SOL    HW118401   4.239   4.466   5.384  1.1840  0.3517  1.3299
 2256SOL    HW218402   4.181   4.543   5.490  1.3291 -0.5486  0.7950
 2257SOL     OW18403   1.697   2.865  16.614 -0.0089  0.0391  0.1374
 2257SOL    HW118404   1.655   2.795  16.565  1.6708 -0.9541  0.1156
 2257SOL    HW218405   1.689   2.822  16.699 -0.1085 -1.2050 -0.5146
 2258SOL     OW18406   0.666   2.933   0.470 -0.2128 -1.3342 -0.2934
 2258SOL    HW118407   0.700   2.896   0.551  1.8512  1.0170 -0.0862
 2258SOL    HW218408   0.722   3.011   0.470 -2.2791  0.1722 -2.8898
 2259SOL     OW18409   3.397   2.680   9.365 -0.0037  0.5358 -0.4571
 2259SOL    HW118410   3.303   2.660   9.372 -0.2048  2.2456  1.7074
 2259SOL    HW218411   3.403   2.703   9.273  1.0136 -0.6515 -0.6843
 2260SOL     OW18412   0.767   1.444   8.149  0.0963 -0.3208  0.0038
 2260SOL    HW118413   0.784   1.395   8.230  2.3204  0.5981  0.0984
 2260SOL    HW218414   0.782   1.368   8.094 -2.3610 -0.6991 -0.1611
 2261SOL     OW18415   2.206   0.237  12.002  0.0801 -0.1636  0.5378
 2261SOL    HW118416   2.262   0.239  11.924  0.3763  0.5711  0.7717
 2261SOL    HW218417   2.193   0.148  12.034  0.5372 -0.0143  1.1419
 2262SOL     OW18418   0.769   0.360   4.422  0.5643 -0.1213  0.1437
 2262SOL    HW118419   0.743   0.298   4.490 -0.1216  1.8241  1.6716
 2262SOL    HW218420   0.834   0.408   4.473  0.6295  0.3677 -0.3951
 2263SOL     OW18421   3.794   1.698   5.927  0.3862  0.4490  0.1261
 2263SOL    HW118422   3.845   1.619   5.909  2.2495  0.9273  3.3280
 2263SOL    HW218423   3.800   1.751   5.847 -0.5088 -0.9410 -0.8529
 2264SOL     OW18424   4.698   0.353   0.889 -0.9517  0.2886 -0.1471
 2264SOL    HW118425   0.018   0.397   0.954  0.6632 -0.7436 -0.8139
 2264SOL    HW218426   4.710   0.261   0.913  0.3356  0.3326 -0.6372
 2265SOL     OW18427   4.512   2.262   5.195 -0.5786  0.9439 -0.4579
 2265SOL    HW118428   4.455   2.279   5.269  0.6803  0.2791  0.6762
 2265SOL    HW218429   4.560   2.190   5.237  0.0796  0.3595 -2.1995
 2266SOL     OW18430   0.700   2.459   4.920 -0.0117 -0.4439 -0.4307
 2266SOL    HW118431   0.642   2.398   4.875 -1.6287  1.6127 -1.1766
 2266SOL    HW218432   0.630   2.515   4.955  0.4471 -0.7826  1.0245
 2267SOL     OW18433   1.501   4.047   9.746  0.4560  0.0629  0.7999
 2267SOL    HW118434   1.579   4.042   9.801 -0.4630  3.3411  2.4571
 2267SOL    HW218435   1.435   4.059   9.815 -0.3303  1.8929 -0.2446
 2268SOL     OW18436   3.873   2.629   9.230  0.6733  0.2397 -0.6217
 2268SOL    HW118437   3.877   2.535   9.249  0.1207  0.4878  0.7149
 2268SOL    HW218438   3.803   2.653   9.291  1.2119  1.2785 -0.4044
 2269SOL     OW18439   3.552   0.399  13.117  0.2830 -0.1070 -0.0270
 2269SOL    HW118440   3.609   0.476  13.123  0.4226  0.0437 -3.1450
 2269SOL    HW218441   3.607   0.332  13.075  0.1103 -0.5538  0.4623
 2270SOL     OW18442   0.191   0.575   2.601  0.3677  0.2463 -0.0887
 2270SOL    HW118443   0.218   0.623   2.679 -1.0696  1.6921 -0.4723
 2270SOL    HW218444   0.219   0.640   2.536 -1.0036 -2.1356 -3.0736
 2271SOL     OW18445   1.516   4.718   3.487 -0.4849 -0.2035 -0.3525
 2271SOL    HW118446   1.494   0.026   3.570 -0.2140 -0.9931  0.1285
 2271SOL    HW218447   1.463   0.030   3.423  0.2510  2.3255  0.8877
 2272SOL     OW18448   2.250   1.983   5.324 -0.2038  0.1665 -0.2251
 2272SOL    HW118449   2.158   2.005   5.334  0.0159 -0.1810  2.4272
 2272SOL    HW218450   2.294   2.034   5.392  2.5687 -3.1997  0.5288
 2273SOL     OW18451   1.778   3.380   9.875  0.0055  0.1287 -0.1686
 2273SOL    HW118452   1.692   3.408   9.908 -0.4763 -0.7202 -0.6864
 2273SOL    HW218453   1.837   3.445   9.912  1.0316 -1.3691  0.7967
 2274SOL     OW18454   1.442   2.004   8.154  0.7123  0.3544  0.2068
 2274SOL    HW118455   1.400   2.051   8.226 -0.8722  0.0807 -0.5611
 2274SOL    HW218456   1.400   2.037   8.074 -1.1000 -1.8697  0.2527
 2275SOL     OW18457   3.251   0.919   2.998 -0.1273 -0.3710 -0.1470
 2275SOL    HW118458   3.331   0.970   3.010 -1.9043  1.7805  2.6236
 2275SOL    HW218459   3.294   0.839   2.971 -1.8419 -0.5359 -2.4003
 2276SOL     OW18460   2.691   2.114   9.240 -0.2423 -0.0735 -0.3183
 2276SOL    HW118461   2.713   2.035   9.290 -0.6974  0.1298  0.2119
 2276SOL    HW218462   2.596   2.112   9.254 -0.0043  1.5923  1.4966
 2277SOL     OW18463   2.419   0.951   7.972 -0.3992 -1.1574  0.2342
 2277SOL    HW118464   2.452   1.025   8.024  1.2347 -1.3084 -0.5809
 2277SOL    HW218465   2.388   0.888   8.036  0.2429  0.0237  1.7196
 2278SOL     OW18466   3.248   4.511   3.426 -0.7319  0.3082  0.1129
 2278SOL    HW118467   3.178   4.446   3.432 -0.5156  0.2481  1.8593
 2278SOL    HW218468   3.221   4.554   3.345 -0.0748  0.8335  0.1703
 2279SOL     OW18469   0.638   0.241   6.216 -0.0782  0.0379  0.2029
 2279SOL    HW118470   0.706   0.216   6.154 -1.0088 -1.5324 -0.1707
 2279SOL    HW218471   0.688   0.284   6.285 -1.2577  2.4995 -0.4613
 2280SOL     OW18472   1.887   2.415   6.463 -0.1266  0.0693  0.1671
 2280SOL    HW118473   1.857   2.397   6.374  0.6348 -0.2723 -0.0189
 2280SOL    HW218474   1.890   2.510   6.473 -1.4583  0.0977  0.2659
 2281SOL     OW18475   4.607   0.941   3.110 -0.0888 -0.4652 -0.1847
 2281SOL    HW118476   4.574   0.992   3.037  0.4532 -1.0988 -0.8675
 2281SOL    HW218477   4.572   0.852   3.115 -1.7017  0.1517 -0.4190
 2282SOL     OW18478   4.599   2.996   7.133  0.1673 -0.2748  0.0548
 2282SOL    HW118479   4.518   3.039   7.107 -0.1504 -1.0923 -0.3161
 2282SOL    HW218480   4.657   3.072   7.134  1.4287 -1.2376 -0.3260
 2283SOL     OW18481   3.267   4.240   9.897  0.1253 -0.0543 -0.4017
 2283SOL    HW118482   3.177   4.208   9.893  0.2583 -0.7727  1.9783
 2283SOL    HW218483   3.296   4.193   9.820  0.4411 -1.9631  0.8807
 2284SOL     OW18484   1.198   2.626   4.254 -0.2166 -0.2233 -0.4357
 2284SOL    HW118485   1.268   2.685   4.283  1.6483 -2.9849  0.6438
 2284SOL    HW218486   1.232   2.601   4.167  0.1632  0.8385 -0.6000
 2285SOL     OW18487   0.605   2.294   8.241  0.0717  0.0725  0.4585
 2285SOL    HW118488   0.691   2.291   8.200  0.4323 -1.5038  1.3325
 2285SOL    HW218489   0.573   2.382   8.220  0.3701  0.0637 -0.0222
 2286SOL     OW18490   0.690   4.703   7.698 -0.0850  0.1267  0.2756
 2286SOL    HW118491   0.748   4.707   7.622 -0.7457  3.3686 -0.0818
 2286SOL    HW218492   0.727   0.036   7.755  0.9365  0.2984 -0.5864
 2287SOL     OW18493   3.185   1.208   8.195 -0.5828  0.0451  0.4046
 2287SOL    HW118494   3.127   1.264   8.143  1.6481 -0.2314 -2.3747
 2287SOL    HW218495   3.188   1.126   8.145  0.6122  0.1645  0.2875
 2288SOL     OW18496   4.355   3.101   1.402 -0.5232  0.5367  0.6992
 2288SOL    HW118497   4.384   3.042   1.332 -0.5780  0.3781  0.8108
 2288SOL    HW218498   4.320   3.035   1.461 -0.2060  2.2370  2.7990
 2289SOL     OW18499   2.503   3.853   3.315 -0.1793  0.5257  0.1474
 2289SOL    HW118500   2.461   3.933   3.283 -0.4283 -0.1036 -1.0841
 2289SOL    HW218501   2.466   3.784   3.260  0.6989  1.6018 -1.8197
 2290SOL     OW18502   0.510   2.555  17.459  0.0051 -0.2592  0.1736
 2290SOL    HW118503   0.469   2.608  17.391 -2.2507 -1.5683  0.5328
 2290SOL    HW218504   0.599   2.592  17.456 -0.2409  0.4769  2.1964
 2291SOL     OW18505   1.586   0.488   5.417  0.2411  0.1463 -0.3467
 2291SOL    HW118506   1.681   0.475   5.417  0.4085  1.3820 -2.3746
 2291SOL    HW218507   1.593   0.583   5.426 -0.2194  0.1308  0.1293
 2292SOL     OW18508   1.070   4.108   1.336  0.1445  0.3010 -0.2578
 2292SOL    HW118509   0.989   4.093   1.288  0.9024  2.7927 -2.2795
 2292SOL    HW218510   1.034   4.138   1.420  2.3725 -1.0215  1.1871
 2293SOL     OW18511   0.886   3.712   5.179  0.3745 -0.0187 -0.4516
 2293SOL    HW118512   0.958   3.673   5.229 -0.7388 -1.3976  0.0501
 2293SOL    HW218513   0.855   3.774   5.246  1.7606  1.7677 -1.4599
 2294SOL     OW18514   0.124   3.105  15.517  0.1524  0.9652 -0.1477
 2294SOL    HW118515   0.137   3.171  15.585  0.3776  2.3120 -1.5065
 2294SOL    HW218516   0.042   3.065  15.548 -0.5514  0.3502 -2.7929
 2295SOL     OW18517   4.618   0.486  10.988 -0.2388  0.9225  0.5704
 2295SOL    HW118518   4.646   0.420  10.924 -1.6367  0.8721  0.0041
 2295SOL    HW218519   4.679   0.475  11.060  0.8639 -1.1449 -0.6744
 2296SOL     OW18520   2.575   2.021   5.410  0.0738  0.1557  0.4923
 2296SOL    HW118521   2.638   2.090   5.427  0.9594 -0.8897  1.4775
 2296SOL    HW218522   2.503   2.050   5.466  1.7684  1.0804  2.2127
 2297SOL     OW18523   3.264   2.272  17.643  0.2138 -0.3161  0.0656
 2297SOL    HW118524   3.216   2.302  17.566  0.2101  3.0677  1.3775
 2297SOL    HW218525   3.268   2.341  17.710 -1.0108 -0.4152  0.2272
 2298SOL     OW18526   2.342   4.179   6.318 -0.0234  0.2664 -0.0177
 2298SOL    HW118527   2.254   4.209   6.297 -0.6536 -1.5456  0.0689
 2298SOL    HW218528   2.371   4.146   6.233 -0.7146  0.1423 -0.2022
 2299SOL     OW18529   0.881   3.627   2.608  0.0985 -0.2816 -0.3919
 2299SOL    HW118530   0.908   3.716   2.587 -2.4521  0.4101 -0.7529
 2299SOL    HW218531   0.969   3.590   2.615  1.0605  1.9268 -0.8344
 2300SOL     OW18532   1.477   4.249  10.181  0.5063 -0.1562  0.2348
 2300SOL    HW118533   1.410   4.315  10.199  1.8154  0.3942  3.1816
 2300SOL    HW218534   1.439   4.173  10.224  0.8405 -0.1214  0.5930
 2301SOL     OW18535   0.967   0.825  17.420 -0.3847  0.2100  0.8941
 2301SOL    HW118536   0.889   0.831  17.475 -0.9259  1.0653  0.0157
 2301SOL    HW218537   0.929   0.816  17.333 -3.3092  1.2761  2.0869
 2302SOL     OW18538   3.257   3.184   4.144  0.2120 -0.5063  0.0857
 2302SOL    HW118539   3.245   3.278   4.130 -4.1395 -1.3895 -2.0507
 2302SOL    HW218540   3.330   3.154   4.089  1.7509 -1.1937  2.4835
 2303SOL     OW18541   1.883   2.819  10.368 -0.1780 -0.0183 -0.0085
 2303SOL    HW118542   1.881   2.755  10.297 -2.7161 -0.3938  0.3990
 2303SOL    HW218543   1.824   2.787  10.436  1.6440 -0.3624  1.4161
 2304SOL     OW18544   1.486   2.863  12.295 -0.1759  0.3600 -0.0228
 2304SOL    HW118545   1.512   2.883  12.385  0.8541 -0.5185 -0.1308
 2304SOL    HW218546   1.481   2.950  12.255  1.2067  0.7457  0.6383
 2305SOL     OW18547   4.361   3.856   3.089 -0.4097 -0.0627  0.6272
 2305SOL    HW118548   4.367   3.801   3.011 -1.7676  4.1214 -2.4322
 2305SOL    HW218549   4.268   3.876   3.091 -0.7293 -1.4859  0.3390
 2306SOL     OW18550   2.690   1.163   7.227  0.3911  0.1423 -0.5687
 2306SOL    HW118551   2.653   1.135   7.311 -1.0629 -0.7335 -1.4897
 2306SOL    HW218552   2.699   1.258   7.235  0.9016  0.0252  0.2699
 2307SOL     OW18553   2.040   2.111   4.345  0.1278  0.6050  0.2832
 2307SOL    HW118554   1.971   2.106   4.412 -0.0213 -0.7581  0.0175
 2307SOL    HW218555   1.996   2.080   4.266  0.6484 -2.4279  1.1858
 2308SOL     OW18556   1.884   0.008   2.660  0.4467  0.3307  0.6413
 2308SOL    HW118557   1.919   0.023   2.747  0.5529  0.7165  0.5319
 2308SOL    HW218558   1.833   0.087   2.645  0.5663  0.1166 -0.9840
 2309SOL     OW18559   2.761   1.456  13.601  0.2217  0.0526 -0.5929
 2309SOL    HW118560   2.728   1.397  13.668 -0.1434  0.6790 -0.2198
 2309SOL    HW218561   2.843   1.413  13.578 -0.2520 -0.7116 -0.8599
 2310SOL     OW18562   2.958   3.584  12.426 -0.1921 -0.2153 -0.1768
 2310SOL    HW118563   2.972   3.602  12.519  0.5372 -0.8808 -0.1565
 2310SOL    HW218564   2.941   3.669  12.387 -1.7395 -0.0312  0.8851
 2311SOL     OW18565   2.410   0.091   4.823 -0.5055  0.6578 -0.1646
 2311SOL    HW118566   2.480   0.027   4.831 -3.0070 -1.9987  0.5899
 2311SOL    HW218567   2.348   0.040   4.875  2.0941 -1.9426  0.4049
 2312SOL     OW18568   0.990   3.961   4.678 -0.3686  0.3474  0.3373
 2312SOL    HW118569   1.082   3.937   4.684 -0.4856  0.2492  1.7448
 2312SOL    HW218570   0.953   3.874   4.692 -0.5591  0.8505  2.9309
 2313SOL     OW18571   4.560   3.360   9.154 -0.4069  0.0021 -0.1711
 2313SOL    HW118572   4.503   3.423   9.199 -1.4969 -1.7241  0.8468
 2313SOL    HW218573   4.496   3.294   9.128  1.5877 -1.9319 -0.1315
 2314SOL     OW18574   2.617   0.670   3.249 -0.3111  0.6154 -0.3998
 2314SOL    HW118575   2.654   0.749   3.209  0.8551  0.8657  1.1863
 2314SOL    HW218576   2.613   0.709   3.336 -0.3741  0.1977 -0.2160
 2315SOL     OW18577   3.323   1.228   6.768 -0.3928  0.3722 -0.0406
 2315SOL    HW118578   3.310   1.286   6.692  0.2810 -0.2193 -0.6053
 2315SOL    HW218579   3.280   1.265   6.845 -2.8227  0.6300 -1.5069
 2316SOL     OW18580   1.518   0.542   2.230 -0.5887  0.3271  0.0074
 2316SOL    HW118581   1.499   0.482   2.303 -1.0399  1.8780  1.1519
 2316SOL    HW218582   1.488   0.625   2.266 -2.4698 -0.7103  0.8143
 2317SOL     OW18583   2.399   2.275   7.988  0.3908  0.6379  0.4359
 2317SOL    HW118584   2.418   2.287   7.895 -3.4899  3.6736  0.0496
 2317SOL    HW218585   2.433   2.186   8.002  0.9713  0.5652 -1.4203
 2318SOL     OW18586   1.020   3.704   7.522  0.1535  0.8002 -0.2192
 2318SOL    HW118587   0.957   3.776   7.511 -1.6375 -0.7052  0.2258
 2318SOL    HW218588   1.079   3.710   7.447  0.8779  0.1947  0.3081
 2319SOL     OW18589   1.802   2.064   4.194 -0.2104 -0.9750 -0.9510
 2319SOL    HW118590   1.736   2.131   4.212 -0.7835 -2.1390  1.3430
 2319SOL    HW218591   1.783   2.004   4.266  1.4163  0.8562  1.0112
 2320SOL     OW18592   4.506   3.148   7.866 -0.4065 -0.3656  0.3304
 2320SOL    HW118593   4.558   3.143   7.786  0.0158  0.0894  0.5759
 2320SOL    HW218594   4.563   3.198   7.924  0.6177 -0.8631 -0.2546
 2321SOL     OW18595   3.364   0.035   9.288  0.1953  0.4894  0.4863
 2321SOL    HW118596   3.268   0.039   9.291  0.1692 -0.5458  1.2977
 2321SOL    HW218597   3.374   4.679   9.259 -0.8816 -0.3089  2.5874
 2322SOL     OW18598   1.910   1.598   5.263  0.2139 -0.4112  0.4012
 2322SOL    HW118599   1.898   1.535   5.192 -1.3666 -0.4093  0.6776
 2322SOL    HW218600   1.970   1.663   5.226  0.3521  0.2085  1.7303
 2323SOL     OW18601   3.403   1.480   5.377 -0.0382  0.0689  0.3115
 2323SOL    HW118602   3.332   1.543   5.365 -2.2806 -2.2214  1.7691
 2323SOL    HW218603   3.420   1.499   5.470  0.6852  1.8048 -0.1568
 2324SOL     OW18604   1.219   1.620  14.486 -0.0255  0.1499 -0.4878
 2324SOL    HW118605   1.257   1.666  14.411  0.7889 -2.5536 -1.7267
 2324SOL    HW218606   1.293   1.568  14.516 -2.0126 -1.8987  0.9071
 2325SOL     OW18607   2.000   1.643   6.346  0.2127 -0.2154 -0.1476
 2325SOL    HW118608   2.064   1.653   6.417 -0.4880 -0.9489  0.5942
 2325SOL    HW218609   1.922   1.676   6.391 -0.6478 -0.9646 -1.0977
 2326SOL     OW18610   3.096   2.251   7.461 -0.7523 -0.0287 -0.6712
 2326SOL    HW118611   3.087   2.261   7.367  1.6617 -0.6204 -0.9614
 2326SOL    HW218612   3.117   2.158   7.465 -1.4934 -0.1200  1.4276
 2327SOL     OW18613   4.011   4.293   1.970  0.1006 -0.0882 -0.1947
 2327SOL    HW118614   4.005   4.201   1.994  1.5726  0.3859  1.9785
 2327SOL    HW218615   3.921   4.308   1.942  0.0601  1.2163  0.6326
 2328SOL     OW18616   0.751   3.227   4.172 -0.1155 -0.1078 -0.2140
 2328SOL    HW118617   0.785   3.241   4.261 -2.3051  4.1718 -0.0585
 2328SOL    HW218618   0.738   3.318   4.146  2.2233  0.3340  0.2082
 2329SOL     OW18619   0.224   1.310  10.311 -0.5803 -0.2902 -0.1203
 2329SOL    HW118620   0.316   1.286  10.300 -0.6533 -0.3910 -0.5155
 2329SOL    HW218621   0.204   1.281  10.400  1.1648  1.3950  0.8262
 2330SOL     OW18622   1.086   0.512   0.864  0.2265  0.0244  0.2678
 2330SOL    HW118623   1.042   0.488   0.782 -2.3306  0.1416  1.6095
 2330SOL    HW218624   1.028   0.577   0.904 -0.4913 -1.9609  2.4472
 2331SOL     OW18625   1.733   0.898   7.119  0.0627  0.2191  0.5223
 2331SOL    HW118626   1.809   0.956   7.115  2.0056 -2.4412 -0.7942
 2331SOL    HW218627   1.660   0.959   7.108 -0.9492 -0.9449  0.6527
 2332SOL     OW18628   0.246   2.995   5.893 -0.5006  0.1402  0.1675
 2332SOL    HW118629   0.191   2.934   5.943 -1.2624  1.0130  0.3882
 2332SOL    HW218630   0.287   2.927   5.839 -1.4175 -0.6691  0.4691
 2333SOL     OW18631   0.779   1.700   5.648 -0.4365 -0.3217  0.1318
 2333SOL    HW118632   0.701   1.672   5.696  0.1624  3.0580  3.0954
 2333SOL    HW218633   0.821   1.756   5.713 -1.0359  0.1268  0.1404
 2334SOL     OW18634   3.575   1.997  17.569  0.0684  0.0784 -0.1060
 2334SOL    HW118635   3.668   2.017  17.561  0.0141 -0.1419 -1.2993
 2334SOL    HW218636   3.528   2.077  17.543  0.1010  1.5421  4.3340
 2335SOL     OW18637   4.669   1.745   2.570  0.2337  0.6265 -0.0403
 2335SOL    HW118638   4.720   1.753   2.490  0.0448 -0.7669 -0.2976
 2335SOL    HW218639   4.688   1.831   2.607  1.1418  0.5812 -0.4041
 2336SOL     OW18640   3.662   3.606   5.336 -0.0175 -0.3147 -0.2519
 2336SOL    HW118641   3.586   3.617   5.280 -1.0832 -3.4180  0.5987
 2336SOL    HW218642   3.627   3.599   5.424  0.5773 -1.6114 -0.1194
 2337SOL     OW18643   0.279   4.605  16.408 -0.3253 -0.1345  0.2979
 2337SOL    HW118644   0.304   4.657  16.332 -2.0256  1.1473  0.6052
 2337SOL    HW218645   0.274   4.523  16.360 -0.3001 -0.1661  0.3490
 2338SOL     OW18646   0.778   3.304   2.774  0.5030 -0.3300 -0.3968
 2338SOL    HW118647   0.734   3.385   2.799  3.4186  0.4913  2.0327
 2338SOL    HW218648   0.765   3.311   2.679 -1.2533  0.9121 -0.0602
 2339SOL     OW18649   0.566   1.883  17.274  0.2170  0.2069 -0.0394
 2339SOL    HW118650   0.607   1.867  17.359  1.0508 -4.1124 -1.2344
 2339SOL    HW218651   0.614   1.825  17.214  1.6721 -0.8831  2.1707
 2340SOL     OW18652   1.911   4.184   6.271  0.0940 -0.2789 -0.4474
 2340SOL    HW118653   1.837   4.147   6.224 -0.1704  1.2864 -1.2787
 2340SOL    HW218654   1.933   4.106   6.321  1.6989  0.2073 -0.4075
 2341SOL     OW18655   0.320   1.954   6.228  0.1670  0.2583 -0.1136
 2341SOL    HW118656   0.397   2.000   6.261 -0.5766 -0.8906  3.2302
 2341SOL    HW218657   0.279   2.018   6.169  1.5790  0.4281 -0.9101
 2342SOL     OW18658   3.716   2.066  10.114  0.3055  0.2431 -0.4026
 2342SOL    HW118659   3.709   1.990  10.172  0.1519  0.7780  0.2853
 2342SOL    HW218660   3.636   2.052  10.063  0.6540 -0.3475 -0.7768
 2343SOL     OW18661   2.267   1.500  16.967  0.1198  0.1111 -0.0810
 2343SOL    HW118662   2.262   1.433  16.898  1.5962  0.6550 -0.7247
 2343SOL    HW218663   2.302   1.574  16.917  0.8830 -0.7083 -0.7662
 2344SOL     OW18664   1.268   0.024  16.907 -0.2254 -0.1616  0.0873
 2344SOL    HW118665   1.229   4.708  16.835  0.7411  2.1349 -2.0441
 2344SOL    HW218666   1.252   4.697  16.979  1.2227  0.1941  0.7032
 2345SOL     OW18667   3.663   3.702   2.133  0.0777 -0.2902 -0.5874
 2345SOL    HW118668   3.580   3.738   2.101  0.5916 -0.7762 -2.5001
 2345SOL    HW218669   3.714   3.781   2.118  1.9215 -1.2007  0.8600
 2346SOL     OW18670   3.793   2.396   5.970 -0.0349 -0.1598 -0.2053
 2346SOL    HW118671   3.823   2.397   5.879 -1.8645 -1.3686 -0.8435
 2346SOL    HW218672   3.805   2.304   5.993 -1.0726  0.3808  2.5178
 2347SOL     OW18673   0.928   4.662   4.008  0.3129 -0.3343 -0.4355
 2347SOL    HW118674   0.928   0.010   4.056 -0.3677 -0.2554 -0.5697
 2347SOL    HW218675   0.845   4.629   4.043  0.1512  1.9996  1.4754
 2348SOL     OW18676   4.321   0.644   6.681  0.4477  0.2042 -0.1445
 2348SOL    HW118677   4.337   0.550   6.683  2.0088  0.4370 -1.1571
 2348SOL    HW218678   4.403   0.682   6.647  1.1335 -0.6420  0.5829
 2349SOL     OW18679   1.955   1.305  14.652 -0.2942  0.4625  0.1171
 2349SOL    HW118680   1.887   1.309  14.585 -0.7936 -1.6399  0.5141
 2349SOL    HW218681   2.016   1.248  14.605 -0.2223  1.3143 -0.8374
 2350SOL     OW18682   3.184   1.747   3.508 -0.0594  0.1739  0.0067
 2350SOL    HW118683   3.088   1.751   3.507  0.0556  2.5468 -1.3556
 2350SOL    HW218684   3.194   1.827   3.458 -1.5320 -0.2593 -0.9653
 2351SOL     OW18685   3.006   2.152  11.942  0.2658 -0.0501 -0.0651
 2351SOL    HW118686   3.007   2.239  11.983 -2.4071 -0.9038  1.8265
 2351SOL    HW218687   3.079   2.104  11.980  2.4185  2.1344 -1.4397
 2352SOL     OW18688   3.740   0.510   2.393 -0.4177 -0.2934  0.0531
 2352SOL    HW118689   3.708   0.581   2.449 -0.0219  0.5520 -0.7811
 2352SOL    HW218690   3.746   0.564   2.314  1.8188  2.7322  2.3073
 2353SOL     OW18691   0.635   2.750   3.102 -0.2197  0.4451  0.2145
 2353SOL    HW118692   0.542   2.746   3.126 -0.6219  0.6263 -1.3582
 2353SOL    HW218693   0.664   2.661   3.121  0.8640  1.0235  1.3320
 2354SOL     OW18694   3.569   1.844   1.324 -0.1163 -0.4628  0.0095
 2354SOL    HW118695   3.609   1.758   1.341  2.2123  0.4392 -0.9054
 2354SOL    HW218696   3.478   1.814   1.328  0.1122 -1.2625 -0.8522
 2355SOL     OW18697   2.479   0.825   5.256 -0.0849 -0.1034  0.4828
 2355SOL    HW118698   2.417   0.832   5.184  2.3747  1.0873 -1.4796
 2355SOL    HW218699   2.490   0.916   5.283 -1.4590  0.1604  0.1758
 2356SOL     OW18700   1.597   2.309   8.460  0.4233  0.6004 -0.4585
 2356SOL    HW118701   1.568   2.385   8.409 -1.7015  0.4574  0.5400
 2356SOL    HW218702   1.554   2.238   8.413  1.6495 -0.6295  0.2783
 2357SOL     OW18703   3.377   2.653   3.231  0.6406  0.4197  0.9639
 2357SOL    HW118704   3.352   2.565   3.259 -0.3382  0.0773 -0.9280
 2357SOL    HW218705   3.463   2.664   3.271  1.6135 -1.6486 -0.5589
 2358SOL     OW18706   2.808   2.818   9.073  0.1048  0.2618 -0.0390
 2358SOL    HW118707   2.801   2.913   9.061  0.6698  0.1264 -1.4702
 2358SOL    HW218708   2.900   2.813   9.100  0.2880  1.7274 -0.3928
 2359SOL     OW18709   4.323   0.851  14.501  0.3378  0.1120 -0.1780
 2359SOL    HW118710   4.384   0.923  14.520  0.2668  0.5415 -1.5127
 2359SOL    HW218711   4.369   0.827  14.420  2.0123 -0.6362  0.9971
 2360SOL     OW18712   3.490   4.709   4.133  0.3775 -0.5530  0.1165
 2360SOL    HW118713   3.549   4.647   4.176 -1.7757 -0.6990  2.9041
 2360SOL    HW218714   3.513   4.698   4.041 -2.4625 -1.0006 -0.5303
 2361SOL     OW18715   4.085   0.666   3.636 -0.3552  0.1481  0.9121
 2361SOL    HW118716   4.155   0.617   3.679 -0.3984  1.2508  2.2376
 2361SOL    HW218717   4.017   0.600   3.624  0.6878 -0.6897 -0.3340
 2362SOL     OW18718   4.512   2.005   4.279 -0.0616  0.4319  0.1500
 2362SOL    HW118719   4.520   1.921   4.234 -3.7333  0.1022  0.1096
 2362SOL    HW218720   4.426   2.037   4.251 -0.0966  0.9817  0.8797
 2363SOL     OW18721   0.876   1.270   8.354 -0.0396  0.4819  0.0849
 2363SOL    HW118722   0.818   1.194   8.361  0.1717  0.4646  1.8190
 2363SOL    HW218723   0.937   1.232   8.290  0.9528 -0.1198  1.3732
 2364SOL     OW18724   2.306   1.052   5.462  0.3763 -0.5224 -0.6425
 2364SOL    HW118725   2.386   1.098   5.490 -0.5026  0.6175 -0.0293
 2364SOL    HW218726   2.284   1.095   5.380  0.9590 -0.8851 -0.9918
 2365SOL     OW18727   0.651   3.687   8.248 -0.0900 -0.5436  0.0039
 2365SOL    HW118728   0.606   3.764   8.213 -0.7424 -1.6438 -1.5895
 2365SOL    HW218729   0.585   3.640   8.298 -0.5626  0.3906  0.2428
 2366SOL     OW18730   2.695   3.190   1.899 -0.4583 -0.5547 -0.1465
 2366SOL    HW118731   2.732   3.103   1.918 -0.2845 -0.6253 -0.7906
 2366SOL    HW218732   2.637   3.169   1.826 -1.2452  2.7089 -0.4614
 2367SOL     OW18733   2.537   1.951   4.485  0.0289 -0.1140 -0.2280
 2367SOL    HW118734   2.516   1.869   4.440 -0.3265  1.0453 -2.1571
 2367SOL    HW218735   2.476   2.017   4.452 -0.0517 -0.2238 -0.2992
 2368SOL     OW18736   1.345   0.371   3.198  0.1562  0.6919 -0.0965
 2368SOL    HW118737   1.382   0.427   3.266  2.0695  0.8561 -1.2540
 2368SOL    HW218738   1.333   0.433   3.126  0.6424  0.8715 -0.0212
 2369SOL     OW18739   1.204   1.585   6.489  0.5866  0.1270 -0.3019
 2369SOL    HW118740   1.294   1.584   6.520 -0.5794 -2.4694  3.0604
 2369SOL    HW218741   1.223   1.588   6.395 -0.8478  0.0281 -0.5968
 2370SOL     OW18742   1.250   1.094   3.902  0.1212  0.4101  0.1117
 2370SOL    HW118743   1.245   1.184   3.934  1.1522  1.0556 -1.5145
 2370SOL    HW218744   1.343   1.075   3.915  0.1457  0.9640  0.7672
 2371SOL     OW18745   3.050   1.750  15.808 -0.2333  0.3511  0.6485
 2371SOL    HW118746   2.972   1.731  15.756  0.6092  1.8032 -1.1415
 2371SOL    HW218747   3.085   1.820  15.753  2.0262 -1.0789  0.2826
 2372SOL     OW18748   4.291   2.994   8.007  0.2134  0.0071 -0.0453
 2372SOL    HW118749   4.241   2.937   7.949  1.5171 -0.2013 -0.9811
 2372SOL    HW218750   4.346   3.039   7.943 -0.2225 -1.6296 -1.5629
 2373SOL     OW18751   4.277   3.671   7.126  0.1993 -0.3116 -0.0974
 2373SOL    HW118752   4.245   3.592   7.081  0.7749 -0.6191  0.0359
 2373SOL    HW218753   4.217   3.689   7.198  2.8118 -1.9077  2.4636
 2374SOL     OW18754   3.960   4.068  16.649  0.3298  0.1029  0.1948
 2374SOL    HW118755   4.053   4.048  16.652  0.3079  0.1013  0.7499
 2374SOL    HW218756   3.965   4.070  16.553  2.1420 -1.6336  0.2537
 2375SOL     OW18757   0.811   1.797   0.769  0.1569 -0.3256 -0.2466
 2375SOL    HW118758   0.796   1.748   0.689  0.3150 -1.1014  0.1968
 2375SOL    HW218759   0.839   1.879   0.728 -0.1191  0.8049  1.8112
 2376SOL     OW18760   3.880   3.715   1.550  0.1876 -0.0897  0.4146
 2376SOL    HW118761   3.868   3.810   1.538 -0.6309 -0.0716  1.3174
 2376SOL    HW218762   3.963   3.711   1.597  0.1664  1.2181  0.5742
 2377SOL     OW18763   3.780   2.673   8.375  0.5587 -0.4815 -0.8522
 2377SOL    HW118764   3.872   2.647   8.368 -0.0725 -2.7801 -0.5022
 2377SOL    HW218765   3.788   2.732   8.450  2.2810 -1.0742 -0.5689
 2378SOL     OW18766   3.942   1.451   2.534  0.1235  0.0234  0.0208
 2378SOL    HW118767   3.886   1.427   2.460 -0.1826  2.6041 -0.6071
 2378SOL    HW218768   4.012   1.497   2.487  1.8007 -2.2964  0.2580
 2379SOL     OW18769   0.766   2.205   6.609 -0.0084 -0.0350  0.2645
 2379SOL    HW118770   0.791   2.117   6.638 -0.8123  0.2528  1.8076
 2379SOL    HW218771   0.735   2.188   6.520 -1.0270 -1.2887  0.8509
 2380SOL     OW18772   3.534   3.953   4.795 -0.9179  0.1522  0.3710
 2380SOL    HW118773   3.486   3.923   4.718  0.7754 -0.4197 -0.4661
 2380SOL    HW218774   3.475   3.954   4.870 -0.1118  1.3470  0.9883
 2381SOL     OW18775   3.476   1.100   5.118  0.2742  0.0360  0.4321
 2381SOL    HW118776   3.386   1.068   5.119  0.4698 -0.5378 -0.2837
 2381SOL    HW218777   3.522   1.031   5.165  0.1248  0.8954  1.8404
 2382SOL     OW18778   3.532   0.638   9.118 -0.2047  0.1838  0.5377
 2382SOL    HW118779   3.521   0.650   9.024  0.5358 -0.5515  0.3602
 2382SOL    HW218780   3.562   0.547   9.113  0.2543  0.3275  0.7324
 2383SOL     OW18781   2.243   1.210   4.681  0.1256  0.1529 -0.3982
 2383SOL    HW118782   2.322   1.262   4.672  0.2705  0.0949  0.4924
 2383SOL    HW218783   2.264   1.128   4.637 -1.9556  1.4234 -3.7327
 2384SOL     OW18784   0.103   2.269   5.327 -0.2626  0.0370  0.0917
 2384SOL    HW118785   0.141   2.181   5.324 -0.1112  0.1226 -0.5030
 2384SOL    HW218786   0.024   2.244   5.376 -0.4729 -1.5480 -1.0587
 2385SOL     OW18787   2.482   3.932   0.489  0.3204  0.1299  0.0002
 2385SOL    HW118788   2.453   3.842   0.474  0.7377 -0.1536  0.9739
 2385SOL    HW218789   2.574   3.929   0.463  0.2212  0.9350 -0.4475
 2386SOL     OW18790   4.451   2.107   6.487  0.2859  0.0373 -0.4818
 2386SOL    HW118791   4.493   2.021   6.486  0.9002  0.3328 -0.1501
 2386SOL    HW218792   4.525   2.160   6.517  0.3757 -0.6950  0.5636
 2387SOL     OW18793   0.562   3.584  16.750 -0.5197  0.0798  0.4764
 2387SOL    HW118794   0.549   3.632  16.669 -0.7821 -0.1940  0.3579
 2387SOL    HW218795   0.529   3.647  16.815 -2.9542  0.0628 -0.7530
 2388SOL     OW18796   4.336   2.272   4.654  0.1748  0.7221 -0.4557
 2388SOL    HW118797   4.344   2.177   4.658 -3.3968  0.3549 -1.7959
 2388SOL    HW218798   4.266   2.278   4.588 -1.2181 -1.5870  0.8183
 2389SOL     OW18799   4.406   2.692   6.792 -0.7237  0.1621  0.0245
 2389SOL    HW118800   4.435   2.700   6.882  0.4936  0.2661 -0.3826
 2389SOL    HW218801   4.414   2.599   6.770 -0.9820  0.9059 -3.2437
 2390SOL     OW18802   4.659   4.693   4.136  0.5033  0.2110 -0.1472
 2390SOL    HW118803   4.600   4.663   4.068 -0.7238  2.6388 -0.1492
 2390SOL    HW218804   4.622   4.642   4.208  1.5425 -1.4045 -0.7639
 2391SOL     OW18805   0.351   4.404   7.504  0.3710 -0.4919  0.5961
 2391SOL    HW118806   0.310   4.470   7.447  3.9433  1.3832  0.2161
 2391SOL    HW218807   0.317   4.328   7.457 -1.9257  0.9430 -0.0456
 2392SOL     OW18808   4.594   4.088   5.823 -0.0833  0.3112 -0.2992
 2392SOL    HW118809   4.504   4.111   5.800 -1.1531 -3.8821 -0.3599
 2392SOL    HW218810   4.625   4.151   5.759  0.2223  2.2244  1.7241
 2393SOL     OW18811   0.940   2.634   4.228 -0.1745 -0.4996 -0.5017
 2393SOL    HW118812   0.935   2.539   4.228 -0.6907 -0.4741  2.9484
 2393SOL    HW218813   1.036   2.638   4.231 -0.1184 -0.8903 -2.1736
 2394SOL     OW18814   2.097   3.352   4.277 -0.3716 -0.3253  0.0685
 2394SOL    HW118815   2.034   3.384   4.342  0.5367  0.2031  0.6894
 2394SOL    HW218816   2.167   3.322   4.336 -1.3496 -1.0901  0.8378
 2395SOL     OW18817   0.459   4.099  13.381  0.1481  0.3870  0.3692
 2395SOL    HW118818   0.529   4.077  13.442  0.6307  1.4837  0.2048
 2395SOL    HW218819   0.383   4.065  13.428 -1.3658  1.3626 -1.3828
 2396SOL     OW18820   2.933   3.292   1.605  0.6554 -0.0155  0.0431
 2396SOL    HW118821   3.024   3.275   1.581 -0.2779 -1.9524 -2.0938
 2396SOL    HW218822   2.906   3.215   1.654  1.6331 -0.2375  0.2392
 2397SOL     OW18823   3.683   3.021   2.484  0.3278 -0.4938  0.3173
 2397SOL    HW118824   3.625   3.048   2.412  0.0281  1.3133  1.2192
 2397SOL    HW218825   3.721   3.106   2.508  1.1138 -0.3354 -1.4388
 2398SOL     OW18826   0.485   4.682  16.635 -0.3215 -0.2334 -0.5652
 2398SOL    HW118827   0.547   4.637  16.577 -1.1870 -2.1513 -0.0069
 2398SOL    HW218828   0.536   0.019  16.672  1.0704 -1.0144 -0.9873
 2399SOL     OW18829   0.868   3.215   2.371  0.1251 -0.0798 -0.3691
 2399SOL    HW118830   0.936   3.202   2.437 -0.8078 -0.4768  0.5047
 2399SOL    HW218831   0.922   3.270   2.313  0.9008  0.5175  0.9114
 2400SOL     OW18832   2.594   3.190   3.994  0.2533  0.5094 -0.0903
 2400SOL    HW118833   2.575   3.258   4.058  1.0613  0.4358  0.2336
 2400SOL    HW218834   2.596   3.107   4.041  2.2092 -0.0294 -1.0825
 2401SOL     OW18835   2.336   2.813   9.220  0.7447  0.3568 -0.1343
 2401SOL    HW118836   2.388   2.782   9.294 -1.1656  1.0554  1.4875
 2401SOL    HW218837   2.250   2.794   9.258  1.0372 -2.5638 -0.9071
 2402SOL     OW18838   2.446   3.674   8.309  0.7224 -0.4396 -0.6987
 2402SOL    HW118839   2.497   3.741   8.264  0.0649  0.8013  0.4184
 2402SOL    HW218840   2.376   3.730   8.341  1.3772  0.0515 -0.1201
 2403SOL     OW18841   3.085   2.985   8.176 -0.5364 -0.2341  0.2235
 2403SOL    HW118842   3.159   3.038   8.207 -0.7999 -0.1971  0.7948
 2403SOL    HW218843   3.087   2.921   8.247  0.9163  1.8383  2.0621
 2404SOL     OW18844   2.797   2.754   9.457 -0.1870  0.2720  0.0088
 2404SOL    HW118845   2.847   2.737   9.377  0.2372 -0.1277  0.3541
 2404SOL    HW218846   2.782   2.849   9.457  2.0721  0.6486  2.1585
 2405SOL     OW18847   0.647   1.541   3.881  1.0291 -0.5578 -0.7567
 2405SOL    HW118848   0.561   1.540   3.923  0.2189  2.8687 -2.3595
 2405SOL    HW218849   0.637   1.478   3.810 -2.4605 -0.5322 -0.2986
 2406SOL     OW18850   4.185   1.468   3.330  0.0560  0.2640 -0.0102
 2406SOL    HW118851   4.188   1.466   3.426  1.6344 -1.0643 -0.0960
 2406SOL    HW218852   4.193   1.374   3.314 -1.0913  0.3267 -0.9756
 2407SOL     OW18853   4.591   3.980   1.842 -0.0301  0.0487  0.0334
 2407SOL    HW118854   4.677   3.943   1.822 -0.5673 -0.9252 -0.4389
 2407SOL    HW218855   4.612   4.073   1.838  1.7959 -0.2031  3.2179
 2408SOL     OW18856   3.179   3.057   5.783  0.3581  0.3449  0.3108
 2408SOL    HW118857   3.155   3.022   5.869 -0.5291 -0.5207 -0.2741
 2408SOL    HW218858   3.127   3.137   5.783  0.1531  0.2239 -0.9730
 2409SOL     OW18859   1.048   3.497   3.733  0.4349  0.2520  0.1740
 2409SOL    HW118860   0.953   3.488   3.725  0.5613 -0.1082 -0.9166
 2409SOL    HW218861   1.076   3.477   3.644 -2.5552  1.2031 -0.9605
 2410SOL     OW18862   0.125   2.799   0.931 -0.2655  0.2327  0.4546
 2410SOL    HW118863   0.117   2.860   1.005  1.2708 -0.1401  0.9223
 2410SOL    HW218864   0.206   2.822   0.888  0.4758 -3.0221  0.1334
 2411SOL     OW18865   4.013   2.008   7.484  0.6056 -0.0962 -0.1792
 2411SOL    HW118866   4.082   2.074   7.477  0.7341 -0.1862  0.2297
 2411SOL    HW218867   3.956   2.051   7.548  0.6937 -0.6218  0.2524
 2412SOL     OW18868   0.434   3.520   6.332 -0.6174  0.4833  0.8006
 2412SOL    HW118869   0.492   3.493   6.260 -0.4216  1.0755  0.7397
 2412SOL    HW218870   0.403   3.437   6.369 -2.1366  0.9572  0.6170
 2413SOL     OW18871   2.143   1.232   5.915  0.4420  0.1376  0.0355
 2413SOL    HW118872   2.106   1.168   5.975 -1.9061  0.9389 -0.5380
 2413SOL    HW218873   2.200   1.289   5.966 -0.7860  2.1709 -0.8203
 2414SOL     OW18874   4.218   4.567   0.009 -0.9450  0.2948 -0.0375
 2414SOL    HW118875   4.295   4.511   0.009 -0.0851  1.4892  0.1466
 2414SOL    HW218876   4.249   4.657   0.010 -3.1944  1.0914 -0.5858
 2415SOL     OW18877   1.517   1.471  10.448 -0.0848  0.1616 -0.5193
 2415SOL    HW118878   1.599   1.422  10.451 -0.4795 -0.5227 -0.8431
 2415SOL    HW218879   1.508   1.487  10.542  2.4593  1.5231 -0.5011
 2416SOL     OW18880   2.317   1.399   2.361 -0.4877  0.0541  0.4733
 2416SOL    HW118881   2.253   1.328   2.361  1.2030 -1.4440  0.4217
 2416SOL    HW218882   2.325   1.411   2.455  3.9628 -0.4618  0.1483
 2417SOL     OW18883   2.037   1.487   6.989  0.1093 -0.4121  0.2589
 2417SOL    HW118884   1.991   1.460   7.069 -0.7098  0.7845  0.1838
 2417SOL    HW218885   2.024   1.409   6.936  1.5316 -1.2093  1.0738
 2418SOL     OW18886   1.395   3.544   6.197  0.2281  0.1682  0.2181
 2418SOL    HW118887   1.411   3.637   6.211  0.3665  0.2152 -0.2742
 2418SOL    HW218888   1.416   3.536   6.104  1.6997 -1.3301  0.6791
 2419SOL     OW18889   0.445   2.860   1.508  0.7683 -0.0388  0.3352
 2419SOL    HW118890   0.472   2.768   1.513  0.3005 -0.1205  1.4527
 2419SOL    HW218891   0.427   2.865   1.414  0.6995  0.9470  0.3990
 2420SOL     OW18892   0.937   4.577  17.560  0.5717 -0.1508  0.0877
 2420SOL    HW118893   0.892   4.584  17.476  1.1269 -3.3854 -0.4574
 2420SOL    HW218894   0.936   4.482  17.571 -0.3456 -0.1510 -0.0553
 2421SOL     OW18895   0.709   0.667  16.913  0.6612  0.5594  0.5130
 2421SOL    HW118896   0.748   0.708  16.836 -0.2744  0.6293  0.0824
 2421SOL    HW218897   0.704   0.743  16.970 -0.0055  0.7549  0.1897
 2422SOL     OW18898   4.173   3.558   6.862 -0.7450 -0.0648  0.3183
 2422SOL    HW118899   4.212   3.471   6.855 -1.2594 -0.2049 -0.7947
 2422SOL    HW218900   4.088   3.534   6.824  0.3215 -0.6245 -1.6711
 2423SOL     OW18901   1.522   4.468   5.185  0.6051 -0.4785  0.5321
 2423SOL    HW118902   1.527   4.544   5.127 -0.4026 -1.0298 -0.2766
 2423SOL    HW218903   1.510   4.389   5.131 -0.0683 -0.9106  1.3259
 2424SOL     OW18904   0.724   1.275   1.418 -0.2934  0.3863 -0.2587
 2424SOL    HW118905   0.660   1.330   1.373 -1.0263  0.6007  1.0427
 2424SOL    HW218906   0.677   1.229   1.487 -0.9987 -2.1514 -2.4478
 2425SOL     OW18907   2.530   1.172  10.146 -0.3022  0.0090 -0.7010
 2425SOL    HW118908   2.541   1.116  10.223  2.6924 -1.2481 -2.0442
 2425SOL    HW218909   2.464   1.234  10.176  0.2901  0.5127 -0.4266
 2426SOL     OW18910   1.261   2.471   7.825  0.4145 -0.4898 -0.2678
 2426SOL    HW118911   1.279   2.446   7.735  2.5679  1.9076 -0.5175
 2426SOL    HW218912   1.349   2.471   7.862  0.7461 -0.8995 -1.0727
 2427SOL     OW18913   1.016   3.546   8.284 -0.7863  0.1459 -0.0537
 2427SOL    HW118914   1.079   3.579   8.219  0.1683 -0.6142  0.4993
 2427SOL    HW218915   0.948   3.612   8.267  0.7398  1.7513  0.1363
 2428SOL     OW18916   0.053   2.755   4.398 -0.4234 -0.2660  0.2805
 2428SOL    HW118917   0.012   2.727   4.316  2.6678 -0.2490 -1.2732
 2428SOL    HW218918   4.716   2.810   4.428  0.3517 -0.1696  1.9574
 2429SOL     OW18919   1.804   2.822  17.054 -0.0585 -0.6715 -0.2627
 2429SOL    HW118920   1.773   2.875  17.127  0.9449  1.2367 -1.2391
 2429SOL    HW218921   1.841   2.892  17.001  1.6297 -1.5195 -0.1970
 2430SOL     OW18922   3.898   0.267   7.987  0.5924  0.3421 -0.1662
 2430SOL    HW118923   3.843   0.293   7.912 -1.4808 -0.1962  1.1589
 2430SOL    HW218924   3.935   0.353   8.009  1.8332 -0.8712  2.4929
 2431SOL     OW18925   0.012   0.335  15.727  0.6724  0.0548 -0.0707
 2431SOL    HW118926   4.723   0.386  15.650  1.3480  0.9445  0.2997
 2431SOL    HW218927   0.081   0.385  15.771 -0.9948  0.8059  1.6853
 2432SOL     OW18928   1.406   0.023   9.412  0.3295  0.0298 -0.2627
 2432SOL    HW118929   1.462   0.023   9.335 -0.3953 -0.3259 -0.7923
 2432SOL    HW218930   1.328   4.722   9.369 -0.0946  1.3086 -0.5572
 2433SOL     OW18931   1.625   4.034   5.431 -0.4784 -0.0382 -0.3729
 2433SOL    HW118932   1.620   4.104   5.366 -2.4986 -1.2973 -1.5944
 2433SOL    HW218933   1.718   4.037   5.453 -0.3793 -1.3059 -0.6199
 2434SOL     OW18934   0.024   3.987   7.388 -0.0235  0.4017 -0.4399
 2434SOL    HW118935   0.018   3.892   7.390  0.7839  0.4085  1.7010
 2434SOL    HW218936   4.707   4.013   7.312  1.2811 -0.5321 -1.6565
 2435SOL     OW18937   1.257   3.902   4.638 -0.0884  0.3206  0.2624
 2435SOL    HW118938   1.291   3.813   4.627 -0.6463  0.2141 -0.5626
 2435SOL    HW218939   1.331   3.951   4.674  0.9078 -3.1551  2.8927
 2436SOL     OW18940   2.016   2.984  14.779  0.1266 -0.1311 -0.8612
 2436SOL    HW118941   1.949   2.927  14.816  0.0591  0.5322  0.0194
 2436SOL    HW218942   1.972   3.069  14.778  0.2059 -0.0714  0.8200
 2437SOL     OW18943   0.559   4.378   2.133 -0.2501  0.1231 -0.3579
 2437SOL    HW118944   0.477   4.383   2.181 -1.6251 -1.3536 -2.5553
 2437SOL    HW218945   0.518   4.394   2.048  0.3683 -1.4167 -0.9555
 2438SOL     OW18946   1.290   3.543  15.016 -0.3171  0.0178  0.1890
 2438SOL    HW118947   1.268   3.534  14.924 -1.1482 -3.0511  0.6830
 2438SOL    HW218948   1.263   3.460  15.056  0.4935  0.6202  2.0094
 2439SOL     OW18949   4.232   3.712   1.893  0.4318 -0.6656  0.1710
 2439SOL    HW118950   4.237   3.805   1.917  0.1426  0.0616 -2.5796
 2439SOL    HW218951   4.271   3.670   1.969  0.1541 -1.3354 -0.0523
 2440SOL     OW18952   2.441   0.265   1.642  0.1050 -0.6627  0.1607
 2440SOL    HW118953   2.512   0.317   1.604 -0.7344 -1.0008 -1.8677
 2440SOL    HW218954   2.470   0.269   1.733 -1.3947  0.1813  0.5964
 2441SOL     OW18955   1.985   2.869   5.313  0.5768  0.4752 -0.0980
 2441SOL    HW118956   1.917   2.829   5.366 -0.8413  1.8652 -0.8540
 2441SOL    HW218957   1.955   2.960   5.308 -1.2295 -0.0995  0.3832
 2442SOL     OW18958   3.768   3.879   8.533 -0.0312  0.5568  0.4189
 2442SOL    HW118959   3.820   3.927   8.597 -1.0468  0.7333  1.1119
 2442SOL    HW218960   3.826   3.871   8.457  0.8001 -2.7551  1.4216
 2443SOL     OW18961   2.737   2.859   5.036 -0.8719 -0.0502 -0.0891
 2443SOL    HW118962   2.727   2.766   5.015 -0.6608  0.1125 -0.9227
 2443SOL    HW218963   2.823   2.854   5.077  0.2110 -3.9571 -2.8841
 2444SOL     OW18964   3.616   4.636   4.763 -0.5501 -0.0909 -0.3291
 2444SOL    HW118965   3.566   4.642   4.845 -2.2371  1.5606 -1.4700
 2444SOL    HW218966   3.706   4.635   4.797 -1.0032 -0.9172  0.8645
 2445SOL     OW18967   2.079   3.121   4.064 -0.6193 -0.0977 -0.2591
 2445SOL    HW118968   2.052   3.201   4.018 -1.0013 -1.7217 -2.8191
 2445SOL    HW218969   2.058   3.151   4.153 -2.2483 -2.0618  0.0078
 2446SOL     OW18970   3.189   1.881   1.114  0.6932 -0.9578 -0.0003
 2446SOL    HW118971   3.251   1.930   1.167 -0.1990 -0.0581  0.2179
 2446SOL    HW218972   3.167   1.809   1.172  0.0583 -0.0763  0.8654
 2447SOL     OW18973   2.351   4.356   3.093 -0.5810 -0.1239  0.3639
 2447SOL    HW118974   2.269   4.352   3.142 -0.5797 -0.4152  0.3430
 2447SOL    HW218975   2.309   4.389   3.014 -1.1556  0.7575  1.0384
 2448SOL     OW18976   4.419   0.873   2.095  0.7151 -0.2981  0.5091
 2448SOL    HW118977   4.466   0.818   2.158 -0.4225 -1.2790  0.5045
 2448SOL    HW218978   4.342   0.816   2.084 -0.2468  1.1064  0.0247
 2449SOL     OW18979   0.349   1.108   6.868  0.2027  0.3676 -0.3641
 2449SOL    HW118980   0.389   1.024   6.887 -1.2029  0.3682  2.5684
 2449SOL    HW218981   0.392   1.127   6.785  0.3868  1.0579 -0.1066
 2450SOL     OW18982   4.211   2.346   6.783 -0.2163  0.3687 -0.7721
 2450SOL    HW118983   4.297   2.339   6.824 -1.6854 -0.7826  2.1183
 2450SOL    HW218984   4.215   2.280   6.714  1.3998  0.1573 -0.4696
 2451SOL     OW18985   4.130   2.382   9.137 -0.8499  0.4799 -0.1929
 2451SOL    HW118986   4.042   2.355   9.110 -1.2274  1.4988  0.0071
 2451SOL    HW218987   4.110   2.398   9.229 -1.5834 -0.2575 -0.2244
 2452SOL     OW18988   2.691   0.579   8.553 -0.7455  0.1665  0.7737
 2452SOL    HW118989   2.682   0.674   8.559 -0.8075  0.2673 -1.0681
 2452SOL    HW218990   2.781   0.563   8.582 -0.4457 -2.5639 -1.6440
 2453SOL     OW18991   2.833   1.736  16.326  0.0211 -0.2640 -0.1906
 2453SOL    HW118992   2.834   1.654  16.277 -3.9436 -0.3090 -0.2140
 2453SOL    HW218993   2.874   1.799  16.266  0.3842  0.3364  0.6915
 2454SOL     OW18994   1.860   2.563  10.193  0.5841  0.1798 -0.0332
 2454SOL    HW118995   1.936   2.548  10.137 -0.6326 -2.4668 -0.9549
 2454SOL    HW218996   1.787   2.579  10.132  0.1152  1.1086  0.7747
 2455SOL     OW18997   2.024   4.593   2.118  0.5194 -0.5482 -0.3405
 2455SOL    HW118998   2.118   4.576   2.116  0.5978 -0.3999  1.9344
 2455SOL    HW218999   2.002   4.553   2.034 -0.7403  0.2346 -0.3874
 2456SOL     OW19000   1.012   0.573  12.736  0.4296 -0.0192 -0.0496
 2456SOL    HW119001   1.082   0.510  12.722 -0.8276 -1.1123 -1.3941
 2456SOL    HW219002   1.059   0.654  12.759  2.2832 -0.8489 -0.9054
 2457SOL     OW19003   0.971   2.924   6.217  0.1002  0.4465  0.0254
 2457SOL    HW119004   1.063   2.896   6.224 -0.0518  0.1227  0.7361
 2457SOL    HW219005   0.970   3.019   6.226 -0.4794  0.8624 -4.2665
 2458SOL     OW19006   1.446   1.868   5.930 -0.4631  0.1113  0.0423
 2458SOL    HW119007   1.447   1.894   5.838  1.9304  1.0185  0.3345
 2458SOL    HW219008   1.352   1.869   5.950 -0.3433  2.4710  0.4476
 2459SOL     OW19009   1.656   3.415   2.023 -0.5903  0.4157 -0.3132
 2459SOL    HW119010   1.722   3.381   1.963 -1.5445 -1.0682 -0.4993
 2459SOL    HW219011   1.618   3.333   2.055  2.1918 -1.1115 -0.9510
 2460SOL     OW19012   2.524   2.831   1.739  0.5081  0.6651 -0.0002
 2460SOL    HW119013   2.501   2.924   1.733  0.0957  0.6019  0.6871
 2460SOL    HW219014   2.540   2.821   1.645  2.3639 -2.8377  0.7124
 2461SOL     OW19015   4.103   2.561  10.651  0.3103 -0.7375 -0.1246
 2461SOL    HW119016   4.140   2.493  10.595  1.8479 -1.4201  1.7031
 2461SOL    HW219017   4.094   2.524  10.739 -1.1203  1.5874  0.7031
 2462SOL     OW19018   2.404   1.723  10.362 -0.2039 -0.2100 -0.1264
 2462SOL    HW119019   2.460   1.800  10.375 -0.7043  0.0445  0.4812
 2462SOL    HW219020   2.403   1.695  10.453  1.3844 -4.2077 -1.3113
 2463SOL     OW19021   3.232   3.025   4.549 -0.0242  0.1181  0.4517
 2463SOL    HW119022   3.243   3.005   4.642  0.0254 -0.3933  0.3377
 2463SOL    HW219023   3.280   2.951   4.511  2.6039  1.1739  1.6590
 2464SOL     OW19024   1.498   1.645  11.531  0.7812  0.0135  0.0757
 2464SOL    HW119025   1.414   1.646  11.576  2.0816  1.1748  2.4571
 2464SOL    HW219026   1.554   1.609  11.600 -1.1984 -0.8001  1.2431
 2465SOL     OW19027   3.859   3.531   2.124 -0.7063  0.7952 -0.2344
 2465SOL    HW119028   3.861   3.534   2.028 -1.0584 -0.2819 -0.2826
 2465SOL    HW219029   3.785   3.588   2.141 -2.2310 -0.9232 -1.1466
 2466SOL     OW19030   0.750   4.715   8.022 -0.0388  0.3387  0.1117
 2466SOL    HW119031   0.803   0.034   7.963 -0.8281  1.7657  0.6991
 2466SOL    HW219032   0.817   4.695   8.088  0.6653 -0.3066 -0.8080
 2467SOL     OW19033   1.244   2.294   1.027 -1.0296 -1.1043 -0.2674
 2467SOL    HW119034   1.317   2.343   0.990 -2.0109 -0.2961 -1.0851
 2467SOL    HW219035   1.234   2.229   0.958 -2.3877 -2.2840  1.0438
 2468SOL     OW19036   2.892   1.998   4.290 -0.0341  0.5226 -0.4389
 2468SOL    HW119037   2.983   1.970   4.285 -0.6324 -1.5258 -0.1032
 2468SOL    HW219038   2.856   1.973   4.376  1.0700  0.4479  0.0036
 2469SOL     OW19039   0.895   2.163   2.627  0.5315 -0.6400  0.4695
 2469SOL    HW119040   0.889   2.086   2.571 -0.6081 -1.0320  1.1246
 2469SOL    HW219041   0.898   2.118   2.711  1.9054  0.2005  0.8818
 2470SOL     OW19042   2.084   2.470   5.659 -0.4540 -0.1265  0.3534
 2470SOL    HW119043   2.144   2.424   5.717 -0.7235  0.0908  0.8104
 2470SOL    HW219044   2.092   2.550   5.712  0.1139  0.6150 -0.8558
 2471SOL     OW19045   4.409   2.772   2.472 -0.4753 -0.3396  0.1004
 2471SOL    HW119046   4.432   2.719   2.396  0.8667  2.4743 -1.4619
 2471SOL    HW219047   4.368   2.847   2.430  0.7010  1.7205  2.6205
 2472SOL     OW19048   0.033   0.455   0.643 -0.1439 -0.4587  0.3416
 2472SOL    HW119049   0.034   0.549   0.660  1.9820 -0.5935  0.9596
 2472SOL    HW219050   4.731   0.424   0.726  1.2559 -0.8160  0.8340
 2473SOL     OW19051   2.346   4.707   5.750  0.1514 -0.0044  0.3913
 2473SOL    HW119052   2.383   0.032   5.685  0.9215 -0.5348  0.3444
 2473SOL    HW219053   2.385   0.010   5.829  0.9048 -0.9915  0.4907
 2474SOL     OW19054   0.977   1.090   2.664  0.1644  0.6978 -1.1975
 2474SOL    HW119055   0.955   1.015   2.719  0.7552  0.8076 -0.8139
 2474SOL    HW219056   0.978   1.058   2.574 -0.0818  0.1160 -0.9927
 2475SOL     OW19057   2.702   2.304   6.145  0.2071  0.3713  0.4828
 2475SOL    HW119058   2.672   2.349   6.224 -0.2562  0.6948  0.1271
 2475SOL    HW219059   2.617   2.300   6.100  0.6081  1.1732 -0.3626
 2476SOL     OW19060   2.943   1.800   4.981 -0.3759 -0.4605 -0.0282
 2476SOL    HW119061   2.874   1.842   5.032  0.3511  0.7269 -0.0286
 2476SOL    HW219062   2.902   1.824   4.898  0.3918 -0.0887 -0.2970
 2477SOL     OW19063   2.096   0.141   3.615  0.4330  0.2521  0.5074
 2477SOL    HW119064   2.112   0.206   3.683 -0.3703  0.3783  0.5764
 2477SOL    HW219065   2.085   0.063   3.668  1.7357  1.5084  2.6483
 2478SOL     OW19066   4.534   2.733   2.211 -0.2963  0.9862 -0.1951
 2478SOL    HW119067   4.465   2.798   2.222 -0.5313  0.8294 -0.8092
 2478SOL    HW219068   4.609   2.792   2.201  0.0623 -0.2465 -4.5923
 2479SOL     OW19069   1.952   0.216   4.600  0.0050 -0.3747 -0.2983
 2479SOL    HW119070   2.025   0.236   4.541  1.4617  0.2989  1.7338
 2479SOL    HW219071   1.984   0.131   4.630 -0.5714 -0.1786  0.8759
 2480SOL     OW19072   1.867   3.097   6.986  0.1362 -0.2432 -0.0377
 2480SOL    HW119073   1.827   3.072   7.069  2.5414 -1.4508  0.7608
 2480SOL    HW219074   1.797   3.161   6.968 -0.8328 -0.9690  1.2071
 2481SOL     OW19075   0.520   2.870  10.052  0.3930 -0.4003 -0.0800
 2481SOL    HW119076   0.546   2.939  10.113  0.7269 -1.7313  1.2903
 2481SOL    HW219077   0.573   2.903   9.980  1.6653 -1.6653  0.2760
 2482SOL     OW19078   3.388   1.786   5.061 -0.0569  0.3368  0.5025
 2482SOL    HW119079   3.322   1.788   5.130 -1.1098  1.0042 -0.5468
 2482SOL    HW219080   3.377   1.874   5.026 -0.3623  0.0928 -0.0134
 2483SOL     OW19081   2.956   2.358   3.404  0.1113 -0.0947  0.4386
 2483SOL    HW119082   2.887   2.379   3.341  0.9601 -0.8341 -0.7353
 2483SOL    HW219083   2.933   2.271   3.436 -2.2612  0.1605 -0.5962
 2484SOL     OW19084   1.731   1.372   4.224  0.1830 -0.1058  0.3174
 2484SOL    HW119085   1.654   1.374   4.168 -0.1310  1.9770  0.8244
 2484SOL    HW219086   1.724   1.285   4.265 -1.2750  0.3052  0.9302
 2485SOL     OW19087   4.144   0.980  10.017 -0.5697 -0.5633  0.0632
 2485SOL    HW119088   4.074   1.044  10.015  2.2540  2.5254 -0.6117
 2485SOL    HW219089   4.122   0.938  10.100 -2.6013  0.4479  0.0306
 2486SOL     OW19090   3.487   3.605   8.800  0.0352 -0.1660 -0.4943
 2486SOL    HW119091   3.447   3.588   8.886  0.1757 -1.0898 -0.6162
 2486SOL    HW219092   3.440   3.562   8.729 -3.0242 -0.3122  1.6215
 2487SOL     OW19093   0.767   2.934  16.581 -0.1198 -0.3579 -0.3988
 2487SOL    HW119094   0.741   3.010  16.634  0.1470 -0.6093  0.0909
 2487SOL    HW219095   0.796   2.872  16.648  0.5896 -1.1781 -1.4633
 2488SOL     OW19096   3.646   4.296   8.008  0.2653 -0.2956 -0.3517
 2488SOL    HW119097   3.711   4.230   8.029 -0.5084 -1.4389 -1.5444
 2488SOL    HW219098   3.704   4.366   7.976 -1.0571  1.3261  0.8301
 2489SOL     OW19099   2.670   0.421   1.593  0.0411  0.4015 -0.1086
 2489SOL    HW119100   2.709   0.433   1.680  0.5964 -1.4659 -0.1123
 2489SOL    HW219101   2.710   0.499   1.555 -1.7017  1.0242 -0.6957
 2490SOL     OW19102   0.635   2.469   2.484 -0.1270  0.2342 -0.3354
 2490SOL    HW119103   0.663   2.433   2.568 -0.7025  0.8080  0.1015
 2490SOL    HW219104   0.591   2.545   2.522 -2.5575 -1.5925  0.5129
 2491SOL     OW19105   3.789   0.318   6.436 -0.4300  0.5511  0.3916
 2491SOL    HW119106   3.833   0.235   6.415 -0.2862  0.1166  2.4227
 2491SOL    HW219107   3.764   0.347   6.348 -2.7777 -0.0552  0.8468
 2492SOL     OW19108   2.036   3.596   8.474  0.0436 -0.0065 -0.4421
 2492SOL    HW119109   2.017   3.673   8.421 -0.8034  0.1897  0.1429
 2492SOL    HW219110   2.131   3.586   8.473  0.1396  0.3415  2.9249
 2493SOL     OW19111   3.721   3.719   0.605 -0.0414 -0.1427  0.1829
 2493SOL    HW119112   3.786   3.651   0.589 -0.2145 -0.5442  1.2018
 2493SOL    HW219113   3.662   3.655   0.645  1.3753 -0.5802  1.5858
 2494SOL     OW19114   0.543   0.830   3.054  0.7926  0.4908 -0.9947
 2494SOL    HW119115   0.512   0.742   3.072  0.3690  0.4668 -1.8165
 2494SOL    HW219116   0.468   0.856   3.001 -0.3441  1.1470  0.9435
 2495SOL     OW19117   1.186   3.135   4.577  0.0477 -0.0459 -0.1467
 2495SOL    HW119118   1.280   3.117   4.588 -0.0780  0.1644  1.2459
 2495SOL    HW219119   1.180   3.225   4.609 -1.7214 -0.8292  1.6688
 2496SOL     OW19120   0.632   1.481   6.349  0.1754  0.3432  0.8099
 2496SOL    HW119121   0.650   1.455   6.259 -0.1757 -1.5270  1.2905
 2496SOL    HW219122   0.712   1.534   6.351 -0.6622  1.6607 -0.4597
 2497SOL     OW19123   1.470   2.423   6.371 -0.1984  0.0846 -0.4455
 2497SOL    HW119124   1.426   2.506   6.388 -0.3445  0.4161 -2.4759
 2497SOL    HW219125   1.416   2.374   6.433 -0.8413  1.3869  0.0073
 2498SOL     OW19126   0.181   3.032   2.163 -0.1475  0.9859 -0.3754
 2498SOL    HW119127   0.247   2.972   2.128 -1.1324 -0.0174 -0.5161
 2498SOL    HW219128   0.126   3.053   2.088  1.2313  3.2453 -0.7640
 2499SOL     OW19129   2.778   1.834  17.460 -0.1796  0.1942  0.4300
 2499SOL    HW119130   2.683   1.840  17.449 -0.1938 -1.0274 -0.0952
 2499SOL    HW219131   2.799   1.743  17.439 -0.1028  0.2563  0.2350
 2500SOL     OW19132   4.386   0.791   8.095  0.5388 -0.3597 -0.7359
 2500SOL    HW119133   4.475   0.825   8.102  0.7864 -0.9267 -1.1295
 2500SOL    HW219134   4.343   0.837   8.167  0.5385 -0.4514 -0.6771
 2501SOL     OW19135   1.852   2.428   4.069 -0.5507  0.0938  0.0116
 2501SOL    HW119136   1.776   2.399   4.119 -1.2765  2.1630  0.1011
 2501SOL    HW219137   1.817   2.443   3.982 -0.1637 -0.2016 -0.1986
 2502SOL     OW19138   0.406   3.325   6.716  0.9069 -0.1280  0.6165
 2502SOL    HW119139   0.462   3.294   6.787 -1.6824  0.3669  2.8533
 2502SOL    HW219140   0.363   3.404   6.749 -1.2130 -1.5198  1.1222
 2503SOL     OW19141   1.740   4.658   4.354 -0.0913  0.5143  0.4695
 2503SOL    HW119142   1.796   4.621   4.422 -0.9371 -1.5391  0.0707
 2503SOL    HW219143   1.809   4.669   4.289  0.1031 -1.9585  0.2466
 2504SOL     OW19144   4.189   0.900   3.490 -0.2862  0.0634  0.2877
 2504SOL    HW119145   4.138   0.830   3.531 -2.1885  0.7943 -0.7956
 2504SOL    HW219146   4.260   0.914   3.552  0.6132  0.1304 -0.7598
 2505SOL     OW19147   0.900   0.141   4.211  0.0045 -0.4399  0.2786
 2505SOL    HW119148   0.849   0.221   4.209 -0.6280 -0.7695  2.7004
 2505SOL    HW219149   0.850   0.081   4.266 -0.1737 -1.6308 -1.1783
 2506SOL     OW19150   2.585   2.908   8.774  0.4710 -0.2447  0.1957
 2506SOL    HW119151   2.541   2.895   8.690 -2.0614  0.5605  1.3808
 2506SOL    HW219152   2.654   2.843   8.762 -0.0906 -0.7284 -0.4634
 2507SOL     OW19153   4.509   1.592   3.348 -0.1595 -0.4607 -0.4281
 2507SOL    HW119154   4.500   1.544   3.266  2.0875  0.5168 -1.2265
 2507SOL    HW219155   4.417   1.615   3.366  0.0427 -0.5622  0.7388
 2508SOL     OW19156   2.370   3.855   3.877  0.3017 -0.8796 -0.3259
 2508SOL    HW119157   2.409   3.898   3.801 -1.2282  1.4839  0.2227
 2508SOL    HW219158   2.351   3.763   3.859  0.7115 -1.2268  1.0031
 2509SOL     OW19159   1.914   1.629  12.839 -0.2682 -0.3415  0.5172
 2509SOL    HW119160   2.001   1.593  12.822  0.1481 -1.0090  4.0857
 2509SOL    HW219161   1.938   1.722  12.843 -1.4067 -0.0428  0.2988
 2510SOL     OW19162   1.835   3.115   9.843  0.5028  0.1299 -0.1802
 2510SOL    HW119163   1.776   3.125   9.918 -0.1026  1.0295 -0.7749
 2510SOL    HW219164   1.860   3.206   9.827 -0.7214  0.4958 -0.0659
 2511SOL     OW19165   4.014   0.992  11.586  0.2911  0.6426  0.1685
 2511SOL    HW119166   4.059   1.040  11.655 -0.7553  0.9554  0.6383
 2511SOL    HW219167   3.922   1.016  11.595  0.2810 -0.4219  2.9523
 2512SOL     OW19168   1.617   3.789   1.536 -0.2670 -0.0743  0.9922
 2512SOL    HW119169   1.644   3.710   1.491  0.2721  1.8711 -2.0762
 2512SOL    HW219170   1.558   3.753   1.603  0.4800 -1.3742  0.9529
 2513SOL     OW19171   3.613   2.285   3.476 -0.1569  0.2596 -0.1689
 2513SOL    HW119172   3.688   2.225   3.483 -1.0062 -0.9861 -1.6919
 2513SOL    HW219173   3.593   2.308   3.566 -1.1498  1.3548 -0.6626
 2514SOL     OW19174   4.326   2.362   7.611 -0.2222  0.2102 -0.0122
 2514SOL    HW119175   4.361   2.450   7.598 -1.8347  0.8767  0.0998
 2514SOL    HW219176   4.314   2.355   7.705  1.9250  0.5195  0.2651
 2515SOL     OW19177   0.845   2.891   7.386 -0.4956 -0.1031  0.5103
 2515SOL    HW119178   0.822   2.912   7.476 -2.7102  2.1552 -0.5848
 2515SOL    HW219179   0.929   2.936   7.384  0.5149 -1.9798  1.0315
 2516SOL     OW19180   3.260   2.395   2.859 -0.4714  0.2301 -0.2600
 2516SOL    HW119181   3.272   2.476   2.909 -0.8074  0.3302 -0.3444
 2516SOL    HW219182   3.325   2.333   2.892 -0.4952  0.0632 -0.5237
 2517SOL     OW19183   2.135   3.322   4.818  0.2059 -0.4960  0.1047
 2517SOL    HW119184   2.071   3.285   4.756  0.0843 -0.2867  0.1044
 2517SOL    HW219185   2.128   3.269   4.897  1.6584 -1.3725 -0.3620
 2518SOL     OW19186   2.078   1.316  11.484  0.1959 -0.3966 -0.7611
 2518SOL    HW119187   2.114   1.384  11.541 -1.8452  0.3793 -0.4305
 2518SOL    HW219188   2.120   1.324  11.399  2.0382 -0.3838  0.1467
 2519SOL     OW19189   0.524   0.121   8.020  0.2542  0.0657 -0.2225
 2519SOL    HW119190   0.496   0.138   8.110 -2.0340  0.0397 -0.9199
 2519SOL    HW219191   0.605   0.071   8.025  1.0198  1.3498  0.2002
 2520SOL     OW19192   2.010   2.975  12.620 -0.0184 -0.7620 -0.2677
 2520SOL    HW119193   2.058   2.898  12.652  0.8868 -0.7229 -1.5180
 2520SOL    HW219194   2.028   3.039  12.688 -2.3338 -0.3614 -0.0299
 2521SOL     OW19195   4.556   4.428   5.818  0.0558  0.0064 -0.0173
 2521SOL    HW119196   4.464   4.452   5.829 -0.0599  0.1706 -1.3247
 2521SOL    HW219197   4.585   4.440   5.908  0.0536  0.7148 -0.1130
 2522SOL     OW19198   0.689   4.672  11.113 -0.4247  0.4099  0.1738
 2522SOL    HW119199   0.685   4.598  11.051 -2.1344 -1.3553  2.4088
 2522SOL    HW219200   0.649   0.008  11.062  0.6682  1.3433  0.6157
 2523SOL     OW19201   2.401   3.479   5.254  0.1773  0.2435  0.1438
 2523SOL    HW119202   2.467   3.410   5.262  0.5378  0.4526 -1.0625
 2523SOL    HW219203   2.325   3.433   5.288 -1.0570  0.2187 -2.6851
 2524SOL     OW19204   1.560   1.645  10.955  0.1909 -0.0866 -0.1649
 2524SOL    HW119205   1.629   1.700  10.993  0.2971 -1.3474  1.4578
 2524SOL    HW219206   1.500   1.631  11.028  0.1245 -0.1356 -0.2287
 2525SOL     OW19207   1.727   1.368   7.400  0.0308 -0.0544 -0.5756
 2525SOL    HW119208   1.688   1.438   7.453  2.3221 -0.3344  1.4792
 2525SOL    HW219209   1.690   1.378   7.312  0.1295  3.0767 -0.2401
 2526SOL     OW19210   4.579   2.794   0.825 -0.5866 -0.6824  0.0235
 2526SOL    HW119211   4.554   2.886   0.816  1.3124 -0.1304  0.4210
 2526SOL    HW219212   4.673   2.798   0.840 -0.5042 -1.6962 -0.2471
 2527SOL     OW19213   4.184   1.975   8.192 -0.0285 -0.1184 -0.5302
 2527SOL    HW119214   4.169   1.885   8.221  4.1509 -0.8022 -0.3956
 2527SOL    HW219215   4.271   1.982   8.233  0.2341 -2.1206 -0.7376
 2528SOL     OW19216   2.777   2.836   4.587 -0.9920  0.9583  0.4985
 2528SOL    HW119217   2.743   2.793   4.666 -0.7062 -0.3502 -0.0900
 2528SOL    HW219218   2.781   2.927   4.615 -1.2781  0.1343  3.2164
 2529SOL     OW19219   3.109   2.069   0.285 -1.3501  0.2887 -0.2517
 2529SOL    HW119220   3.126   1.977   0.304 -0.1008  0.5455 -0.1555
 2529SOL    HW219221   3.025   2.069   0.239 -0.3368  0.0499 -2.0864
 2530SOL     OW19222   4.425   1.417   2.716 -0.1850  0.1586 -0.3657
 2530SOL    HW119223   4.403   1.389   2.805 -0.1982  0.8957 -0.1306
 2530SOL    HW219224   4.469   1.340   2.681 -2.5908 -0.6990 -1.5032
 2531SOL     OW19225   0.253   3.157   5.671 -0.2996 -0.1696  0.0342
 2531SOL    HW119226   0.174   3.204   5.645 -0.1160 -0.4544 -1.0172
 2531SOL    HW219227   0.216   3.103   5.740 -1.7881  3.3630  2.0457
 2532SOL     OW19228   2.540   0.173   5.285  0.0145  0.0886 -0.2518
 2532SOL    HW119229   2.513   0.122   5.209 -0.3227 -0.7122  0.3989
 2532SOL    HW219230   2.635   0.169   5.272 -0.5035  1.6485 -4.6302
 2533SOL     OW19231   0.614   0.109   1.479 -0.0672  0.4783 -0.1832
 2533SOL    HW119232   0.553   0.066   1.419 -0.5818 -1.1809  1.5294
 2533SOL    HW219233   0.569   0.096   1.562 -1.4773  0.1261 -0.9950
 2534SOL     OW19234   1.304   0.576   7.174  0.2160 -0.1054 -0.0105
 2534SOL    HW119235   1.212   0.552   7.183 -0.4046  3.0060  1.7093
 2534SOL    HW219236   1.341   0.514   7.237 -0.8922  0.3587  1.0879
 2535SOL     OW19237   0.420   0.844  17.121 -0.0113 -0.0710  0.2371
 2535SOL    HW119238   0.401   0.869  17.031  3.1269 -1.8445 -0.9193
 2535SOL    HW219239   0.361   0.768  17.126  0.6442 -0.4850  1.4687
 2536SOL     OW19240   0.806   2.235   6.316  0.1263 -0.0637  0.1236
 2536SOL    HW119241   0.901   2.225   6.307  0.2792  2.8872 -1.8358
 2536SOL    HW219242   0.807   2.331   6.315  0.7394 -0.0990 -2.3154
 2537SOL     OW19243   4.647   1.583   3.566 -0.0259 -0.5482  0.0001
 2537SOL    HW119244   4.698   1.508   3.536  0.7439  0.1527 -0.4474
 2537SOL    HW219245   4.592   1.590   3.488 -1.0287  0.4963  0.8149
 2538SOL     OW19246   0.653   2.729   7.862  0.1510  0.2591 -0.1566
 2538SOL    HW119247   0.677   2.637   7.855  0.1582  0.2623 -0.1747
 2538SOL    HW219248   0.739   2.762   7.889  0.1383  1.6555 -1.8118
 2539SOL     OW19249   4.170   1.154  11.113 -0.8649 -0.1794 -0.2707
 2539SOL    HW119250   4.122   1.111  11.043 -2.3851  0.9078  0.1074
 2539SOL    HW219251   4.107   1.134  11.182  0.5951  1.0799  1.4245
 2540SOL     OW19252   1.001   1.676  12.464 -0.4360  0.1665  0.1037
 2540SOL    HW119253   1.008   1.586  12.497  0.9900  0.1799 -0.1733
 2540SOL    HW219254   1.086   1.707  12.496  0.4094 -0.9781 -1.0006
 2541SOL     OW19255   2.661   3.350   2.290 -0.7937  0.0502 -0.3658
 2541SOL    HW119256   2.619   3.362   2.375  1.2143  3.3034  0.1389
 2541SOL    HW219257   2.752   3.338   2.317 -1.5266 -1.8954  1.2568
 2542SOL     OW19258   1.681   4.483  10.376 -0.1622  0.1772  0.3332
 2542SOL    HW119259   1.730   4.402  10.359  1.2389  1.3160 -0.9581
 2542SOL    HW219260   1.616   4.470  10.308 -0.4813 -0.4803  0.7618
 2543SOL     OW19261   3.068   4.098   7.929  0.4051  0.8220 -0.0819
 2543SOL    HW119262   3.031   4.087   7.842 -0.2319  0.3983  0.2357
 2543SOL    HW219263   2.990   4.082   7.982  0.2548  1.9470  0.0404
 2544SOL     OW19264   0.396   2.298  17.324  0.2343 -0.3249  0.1915
 2544SOL    HW119265   0.364   2.218  17.283  0.4811  0.1713 -0.9549
 2544SOL    HW219266   0.397   2.362  17.253  3.3616 -1.1807 -0.5328
 2545SOL     OW19267   4.661   0.023   5.132 -0.1228 -0.0375  0.6470
 2545SOL    HW119268   4.685   4.666   5.133  0.1518  0.0276  0.0205
 2545SOL    HW219269   4.681   0.044   5.223  2.6882  0.7409 -0.1473
 2546SOL     OW19270   0.964   0.415   3.844 -0.1194 -0.3542  0.2601
 2546SOL    HW119271   1.021   0.347   3.880 -2.7325 -3.4136 -1.4392
 2546SOL    HW219272   0.890   0.359   3.824 -0.9360  0.9935 -0.5026
 2547SOL     OW19273   4.462   1.609   7.427  0.0875 -0.0090 -0.5555
 2547SOL    HW119274   4.547   1.567   7.437 -1.0944 -1.8783  1.8181
 2547SOL    HW219275   4.473   1.659   7.346 -1.5350 -0.4310 -1.0315
 2548SOL     OW19276   0.394   1.832   2.251 -0.1374  0.1786 -0.4879
 2548SOL    HW119277   0.473   1.825   2.198  0.6405  1.1828  0.5707
 2548SOL    HW219278   0.329   1.834   2.180  1.0890 -0.7250 -1.6273
 2549SOL     OW19279   3.331   4.203   2.493 -0.1785  0.2912 -0.0628
 2549SOL    HW119280   3.359   4.287   2.458 -2.5486  1.7583  1.6321
 2549SOL    HW219281   3.360   4.150   2.418  0.6332 -0.3525  0.7010
 2550SOL     OW19282   3.566   4.433  12.211 -0.5381 -0.6415  0.1897
 2550SOL    HW119283   3.484   4.401  12.173  0.2624 -0.4987 -1.6336
 2550SOL    HW219284   3.612   4.472  12.137 -0.5658 -1.4135 -0.2380
 2551SOL     OW19285   1.961   1.430   1.684  0.6610  0.6633 -0.1487
 2551SOL    HW119286   2.051   1.456   1.703  0.3071  0.6736  1.5237
 2551SOL    HW219287   1.925   1.437   1.773 -0.4345  1.5328 -0.6534
 2552SOL     OW19288   0.087   2.622   5.997 -0.2693  0.3474 -0.2259
 2552SOL    HW119289   0.091   2.703   6.047  0.9495  0.1821 -0.0618
 2552SOL    HW219290   0.040   2.649   5.918 -0.3174  0.3320 -0.2027
 2553SOL     OW19291   1.723   3.950  16.826 -0.4228  0.1861  0.3481
 2553SOL    HW119292   1.743   3.945  16.733 -1.7850  0.3883  0.0477
 2553SOL    HW219293   1.635   3.914  16.840  0.0123  0.4123  3.7308
 2554SOL     OW19294   4.032   2.266   2.437  0.4142  0.0733  0.1517
 2554SOL    HW119295   4.007   2.179   2.407  1.8332  0.0042 -0.8222
 2554SOL    HW219296   4.056   2.241   2.525 -4.0789  0.4078  1.4931
 2555SOL     OW19297   4.302   4.264   9.477  0.3427  0.6460 -0.3191
 2555SOL    HW119298   4.207   4.254   9.470  0.2749  0.9698  0.2251
 2555SOL    HW219299   4.303   4.359   9.467  0.4519  0.8797  1.9815
 2556SOL     OW19300   3.623   0.480   7.371  0.2706  0.4823  0.1114
 2556SOL    HW119301   3.703   0.462   7.321  0.7984  0.3619  0.9987
 2556SOL    HW219302   3.577   0.398   7.353 -0.8333  0.7422  1.7498
 2557SOL     OW19303   0.016   0.845   3.617 -0.5256 -0.4294 -0.2846
 2557SOL    HW119304   4.663   0.824   3.585 -1.5931  0.4312  2.0528
 2557SOL    HW219305   0.074   0.807   3.551 -3.4105 -2.1960 -1.8208
 2558SOL     OW19306   1.049   2.696   2.434  0.2861 -0.1597 -0.1597
 2558SOL    HW119307   0.960   2.701   2.401  0.6610 -0.1795 -1.1749
 2558SOL    HW219308   1.052   2.773   2.490 -1.4336  1.6018 -2.4930
 2559SOL     OW19309   3.299   3.142   8.220 -0.6681 -0.7630  0.0118
 2559SOL    HW119310   3.361   3.073   8.244  0.3313 -0.3486 -1.3457
 2559SOL    HW219311   3.276   3.181   8.304 -0.1809 -0.9380  0.2249
 2560SOL     OW19312   3.995   0.328   8.620  0.5818  0.2226 -0.1214
 2560SOL    HW119313   4.008   0.244   8.574  1.9444  0.1694  0.3632
 2560SOL    HW219314   3.900   0.326   8.628  0.5307 -0.7270 -0.9039
 2561SOL     OW19315   2.034   4.106  15.170  0.1759 -0.0661 -0.1435
 2561SOL    HW119316   2.074   4.038  15.116 -0.7380  0.4312 -1.4567
 2561SOL    HW219317   2.053   4.188  15.126 -2.0905 -0.6361 -2.1570
 2562SOL     OW19318   4.613   0.424   2.256  0.3512  0.4144  0.3385
 2562SOL    HW119319   4.657   0.359   2.201 -0.9943 -0.1932 -0.0147
 2562SOL    HW219320   4.656   0.406   2.340 -2.0858 -0.7947  1.3280
 2563SOL     OW19321   3.080   0.280   8.285  0.6782 -0.0796  0.3522
 2563SOL    HW119322   3.090   0.217   8.357 -3.9442 -0.3103  0.7891
 2563SOL    HW219323   3.069   0.231   8.203  0.0370 -0.1649  0.4864
 2564SOL     OW19324   0.120   1.054   7.069 -0.0534  0.2718 -1.1654
 2564SOL    HW119325   0.215   1.053   7.066 -0.0086 -1.5020  0.7957
 2564SOL    HW219326   0.117   1.003   6.988  1.9508  2.0375 -2.3433
 2565SOL     OW19327   4.530   1.505   2.040 -0.4150  0.2262  0.6449
 2565SOL    HW119328   4.522   1.411   2.026 -2.8646  0.1336  2.7691
 2565SOL    HW219329   4.603   1.513   2.101 -0.8897  1.1966  1.0825
 2566SOL     OW19330   2.110   4.050  12.441 -0.0659  1.2084  0.7740
 2566SOL    HW119331   2.155   3.967  12.458 -1.7036  0.0871 -0.3244
 2566SOL    HW219332   2.020   4.026  12.419  0.3852 -0.2371  0.4540
 2567SOL     OW19333   2.433   2.287   5.999 -0.1649  0.1649  0.2290
 2567SOL    HW119334   2.363   2.226   5.976 -0.4267  0.6115 -0.1599
 2567SOL    HW219335   2.446   2.328   5.914 -0.5033  0.9190  0.5429
 2568SOL     OW19336   2.157   2.860  10.039  0.6223  0.3356 -0.4475
 2568SOL    HW119337   2.098   2.896  10.105 -1.5433 -1.3759 -1.4117
 2568SOL    HW219338   2.120   2.772  10.039 -0.5034  0.7879 -4.2452
 2569SOL     OW19339   2.122   1.732  17.133  0.3669 -0.0386  0.5618
 2569SOL    HW119340   2.036   1.770  17.145  0.3724  0.0322  0.3621
 2569SOL    HW219341   2.115   1.683  17.051 -0.0176  0.7168  0.1495
 2570SOL     OW19342   3.210   3.258   7.974  0.0806  0.4526 -0.6289
 2570SOL    HW119343   3.209   3.216   8.061  0.7933  0.8769 -0.4180
 2570SOL    HW219344   3.116   3.264   7.958 -0.5257  0.1910  2.6795
 2571SOL     OW19345   4.117   4.008   4.951 -0.2150  0.1777 -0.0033
 2571SOL    HW119346   4.095   3.982   5.040 -0.3053  2.5764  0.6855
 2571SOL    HW219347   4.201   3.964   4.938  1.4381  2.8756  1.4383
 2572SOL     OW19348   4.042   1.442  11.983  0.4537 -0.0181 -0.4961
 2572SOL    HW119349   4.013   1.376  12.046  0.5736 -1.3905 -1.8706
 2572SOL    HW219350   3.955   1.477  11.963  1.0365  2.4317  1.3536
 2573SOL     OW19351   1.894   1.591  11.535  0.1092 -0.2900  0.7029
 2573SOL    HW119352   1.830   1.648  11.492 -0.2640 -0.0272  1.6106
 2573SOL    HW219353   1.958   1.575  11.465 -1.1026  0.2707 -0.5482
 2574SOL     OW19354   3.377   1.523   3.403  0.8470 -0.1932 -0.1311
 2574SOL    HW119355   3.381   1.586   3.474  0.0044 -0.4728  0.1552
 2574SOL    HW219356   3.431   1.454   3.442  0.4055 -0.1523  0.5372
 2575SOL     OW19357   1.412   0.942   6.888  0.6666  0.4393 -0.1393
 2575SOL    HW119358   1.341   0.895   6.843  0.3257  0.6402  0.1875
 2575SOL    HW219359   1.458   0.883   6.947  1.3493 -2.0279 -3.1171
 2576SOL     OW19360   1.537   2.345   0.851  0.0801 -0.2102 -0.4116
 2576SOL    HW119361   1.518   2.429   0.893 -0.0259 -0.4943  0.1216
 2576SOL    HW219362   1.526   2.357   0.757  1.0033  2.1609 -0.2109
 2577SOL     OW19363   0.349   0.271   4.697 -0.0738 -0.6025  0.5737
 2577SOL    HW119364   0.342   0.304   4.607  0.2387 -2.4028 -0.1178
 2577SOL    HW219365   0.413   0.200   4.694  1.3807  0.8270 -2.6786
 2578SOL     OW19366   2.596   0.383   8.716  0.2173  0.1401 -0.0476
 2578SOL    HW119367   2.539   0.423   8.782  1.4975  0.0279  1.1298
 2578SOL    HW219368   2.637   0.449   8.660 -1.2393  1.6504  0.6511
 2579SOL     OW19369   4.322   1.803   8.787  0.0614 -0.4776  0.0691
 2579SOL    HW119370   4.249   1.741   8.794  0.3222 -0.7284  0.4982
 2579SOL    HW219371   4.270   1.884   8.783  2.3117  0.8633 -2.1087
 2580SOL     OW19372   3.209   3.707   1.244  0.6557  0.3613 -0.1305
 2580SOL    HW119373   3.268   3.637   1.272 -1.2818 -1.3363 -0.3251
 2580SOL    HW219374   3.136   3.654   1.213  1.0907 -2.1574  3.1563
 2581SOL     OW19375   2.011   1.272  17.569 -0.0123  0.0390 -0.5301
 2581SOL    HW119376   1.947   1.336  17.600  0.6823  0.6151 -0.2960
 2581SOL    HW219377   1.985   1.189  17.608  0.7649 -0.7320 -1.6218
 2582SOL     OW19378   0.705   4.351   3.261 -0.1170  0.4786  0.1310
 2582SOL    HW119379   0.728   4.402   3.183 -0.2189 -1.0294 -0.8829
 2582SOL    HW219380   0.782   4.299   3.283 -1.4348 -1.3483  0.4241
 2583SOL     OW19381   2.156   1.986  16.833  0.2374 -0.3355  0.2580
 2583SOL    HW119382   2.061   1.998  16.827  0.2422 -0.1234  0.5991
 2583SOL    HW219383   2.187   2.053  16.894 -1.4752 -2.5098  3.5292
 2584SOL     OW19384   3.332   3.378   4.882 -0.0230  0.0572 -0.3587
 2584SOL    HW119385   3.307   3.464   4.849  0.4280  0.1369 -0.5014
 2584SOL    HW219386   3.381   3.337   4.811  1.2352  0.3721  0.3231
 2585SOL     OW19387   0.047   3.682   7.583 -0.1657  0.4408 -0.8095
 2585SOL    HW119388   0.121   3.673   7.523  0.4137  0.3782 -0.0906
 2585SOL    HW219389   0.095   3.696   7.665 -1.1971 -1.7804  0.1854
 2586SOL     OW19390   1.605   4.457   9.490 -0.3101 -0.3516  0.3168
 2586SOL    HW119391   1.688   4.499   9.512  0.1553 -0.2996 -1.5378
 2586SOL    HW219392   1.593   4.473   9.396  2.0337  1.0589  0.2736
 2587SOL     OW19393   2.278   4.464   2.544 -0.2538  0.0857 -0.2846
 2587SOL    HW119394   2.274   4.554   2.512  1.0567  0.2951  0.1155
 2587SOL    HW219395   2.189   4.460   2.577  0.0136 -0.1276  0.4091
 2588SOL     OW19396   2.622   0.754   9.034  0.0974  0.2633  0.0396
 2588SOL    HW119397   2.571   0.827   9.000 -0.2499 -0.0489 -0.1074
 2588SOL    HW219398   2.675   0.791   9.104  0.7780 -0.5761 -0.0255
 2589SOL     OW19399   0.343   3.218  15.003 -0.0959  0.3519  0.0430
 2589SOL    HW119400   0.321   3.146  14.943  2.2145  1.8723 -2.6681
 2589SOL    HW219401   0.292   3.208  15.082 -0.4279 -0.5532 -0.2857
 2590SOL     OW19402   4.565   1.474  11.517  0.0376 -0.5150  0.7820
 2590SOL    HW119403   4.655   1.503  11.499 -0.1489  0.9719  2.2704
 2590SOL    HW219404   4.514   1.524  11.454 -0.7966 -1.9341  0.3477
 2591SOL     OW19405   3.645   2.216   5.054 -0.4394  0.2340 -0.5524
 2591SOL    HW119406   3.658   2.310   5.061 -1.0403  0.2556  0.2122
 2591SOL    HW219407   3.737   2.194   5.037  0.1989  2.0157  0.6015
 2592SOL     OW19408   0.914   1.825  10.706  0.2097 -0.1319  0.3476
 2592SOL    HW119409   0.938   1.808  10.615 -0.4112 -0.9461  0.3407
 2592SOL    HW219410   0.963   1.762  10.760  0.0978 -0.7284 -0.2444
 2593SOL     OW19411   1.985   3.036  16.383  0.7976 -0.1034  0.1589
 2593SOL    HW119412   2.060   3.037  16.443  0.6695 -2.2843  0.3801
 2593SOL    HW219413   1.998   2.959  16.327  2.1600  0.5550 -0.4428
 2594SOL     OW19414   3.874   2.251   0.358  0.2910 -0.7328 -0.4171
 2594SOL    HW119415   3.908   2.294   0.437  0.4132  1.3738 -1.6014
 2594SOL    HW219416   3.950   2.258   0.300  0.3471  1.7871 -0.0689
 2595SOL     OW19417   1.384   3.896   4.139  0.1101  0.2954 -0.4017
 2595SOL    HW119418   1.335   3.977   4.150  0.3370  0.3776  0.0165
 2595SOL    HW219419   1.317   3.842   4.096  0.1776 -0.0619 -0.0619
 2596SOL     OW19420   3.662   3.158  10.136  0.1545 -0.3827 -0.7187
 2596SOL    HW119421   3.680   3.078  10.184  0.1079  0.5692  0.8728
 2596SOL    HW219422   3.584   3.130  10.087  0.0925 -1.1761 -0.1535
 2597SOL     OW19423   0.529   3.516  12.767  0.6577  0.4236  0.0497
 2597SOL    HW119424   0.529   3.607  12.738  0.6199  0.4217  0.0439
 2597SOL    HW219425   0.552   3.526  12.860  0.3260  3.4516 -0.1884
 2598SOL     OW19426   2.286   4.568   4.885 -0.2273  0.5762 -0.2833
 2598SOL    HW119427   2.311   4.563   4.978  1.2655 -0.1432 -0.7227
 2598SOL    HW219428   2.324   4.487   4.853 -1.6071  0.9851 -2.9393
 2599SOL     OW19429   0.500   4.290   7.099 -0.3841  0.8888 -0.0237
 2599SOL    HW119430   0.435   4.261   7.035  1.9846 -0.2785 -1.9052
 2599SOL    HW219431   0.484   4.224   7.167 -0.1667  1.1476  0.2807
 2600SOL     OW19432   2.273   4.060  10.996  0.7649  0.2828  0.1221
 2600SOL    HW119433   2.318   4.138  10.965 -0.1655  0.5084 -0.6898
 2600SOL    HW219434   2.261   4.086  11.087 -0.8620  0.6532 -0.1860
 2601SOL     OW19435   2.225   0.298   9.091  0.7914 -0.2050  0.3194
 2601SOL    HW119436   2.238   0.390   9.111 -0.8212  0.0611  0.1479
 2601SOL    HW219437   2.149   0.301   9.033  1.0361  0.4811  0.0342
 2602SOL     OW19438   3.357   2.231  15.075 -0.3147 -0.7660  0.4150
 2602SOL    HW119439   3.426   2.263  15.016  0.3485 -2.7566  0.1064
 2602SOL    HW219440   3.404   2.230  15.158  2.5966 -0.4651 -1.2133
 2603SOL     OW19441   3.915   0.324   4.383  0.5939 -0.2568 -0.1704
 2603SOL    HW119442   3.859   0.249   4.362 -1.6923  0.5910  3.0117
 2603SOL    HW219443   3.955   0.297   4.465 -0.0440 -1.3678 -0.2214
 2604SOL     OW19444   3.833   3.427   5.774  0.1483  0.7208 -0.7680
 2604SOL    HW119445   3.899   3.497   5.782  1.0143 -0.0462 -1.2511
 2604SOL    HW219446   3.774   3.439   5.848  1.7987 -2.1179  1.0001
 2605SOL     OW19447   0.253   0.917   2.980 -0.3035 -0.2430  0.1751
 2605SOL    HW119448   0.230   0.901   3.071  2.2796 -0.9579  0.6980
 2605SOL    HW219449   0.224   0.838   2.933 -0.6706 -0.3303  0.5418
 2606SOL     OW19450   0.986   1.066  10.582  0.0829  0.1764 -0.1569
 2606SOL    HW119451   0.983   1.049  10.676  2.9732  0.1151 -0.0750
 2606SOL    HW219452   1.031   1.149  10.575  2.5461 -1.2888 -1.8910
 2607SOL     OW19453   4.705   0.710   3.882 -0.1391  0.5771 -0.2915
 2607SOL    HW119454   4.732   0.718   3.791  1.4310 -1.4839 -0.0240
 2607SOL    HW219455   4.659   0.626   3.870  1.5157 -0.3841  0.0259
 2608SOL     OW19456   2.050   0.740   4.037  0.0240 -0.2482 -0.0443
 2608SOL    HW119457   1.969   0.726   3.988  0.5345  2.0108 -1.5319
 2608SOL    HW219458   2.078   0.823   3.999 -1.8552  0.9712  1.2123
 2609SOL     OW19459   1.697   0.926  10.423 -0.3576  0.7111  0.7511
 2609SOL    HW119460   1.681   0.962  10.510 -0.4815 -0.5403  1.2424
 2609SOL    HW219461   1.717   1.005  10.373 -0.0900  0.9974  1.3174
 2610SOL     OW19462   0.992   1.439  13.155  0.1703 -0.0025 -0.4451
 2610SOL    HW119463   1.056   1.506  13.130 -1.3478  0.7257 -2.3753
 2610SOL    HW219464   0.982   1.398  13.069 -3.8493  0.5421 -0.2522
 2611SOL     OW19465   2.344   4.077   5.851 -0.3090 -0.3516 -0.4961
 2611SOL    HW119466   2.293   4.031   5.917 -0.9738  0.6097 -0.3452
 2611SOL    HW219467   2.297   4.048   5.773 -0.4730  0.3079 -0.6430
 2612SOL     OW19468   2.580   1.182   4.813 -0.0372 -0.1773  0.2230
 2612SOL    HW119469   2.539   1.269   4.810 -1.4138 -0.8365 -0.3232
 2612SOL    HW219470   2.509   1.129   4.850 -1.0431 -1.1452 -3.0437
 2613SOL     OW19471   1.865   3.148   0.053 -0.1717 -0.4400  0.1821
 2613SOL    HW119472   1.832   3.205  17.721  0.8014  0.7390  0.6768
 2613SOL    HW219473   1.897   3.213   0.116  1.4004  0.8194 -1.9065
 2614SOL     OW19474   2.562   1.860  13.310  0.2564 -0.6180 -0.3175
 2614SOL    HW119475   2.632   1.812  13.354  0.6167 -0.0250 -0.2461
 2614SOL    HW219476   2.545   1.803  13.235  1.2088 -2.5561  0.9440
 2615SOL     OW19477   3.877   0.555  11.996 -0.4227  0.2679 -0.3342
 2615SOL    HW119478   3.888   0.647  12.023  0.7798 -0.4901  1.7972
 2615SOL    HW219479   3.784   0.547  11.977 -0.3400 -0.0665 -0.5911
 2616SOL     OW19480   3.034   4.323   4.517 -0.2804 -0.1871 -0.3734
 2616SOL    HW119481   2.947   4.352   4.546 -0.2996  1.1177 -1.7347
 2616SOL    HW219482   3.021   4.228   4.514  1.6973 -0.3937 -2.2738
 2617SOL     OW19483   4.465   0.202   4.129  0.0260  0.7807  0.2459
 2617SOL    HW119484   4.543   0.146   4.132  0.0237  0.7651 -0.0369
 2617SOL    HW219485   4.472   0.244   4.215  2.3899  0.3851  0.2595
 2618SOL     OW19486   2.712   2.239  16.665 -0.3434 -0.5792 -0.1783
 2618SOL    HW119487   2.695   2.275  16.752  0.0563 -1.8137  0.4146
 2618SOL    HW219488   2.636   2.183  16.646 -2.0884  1.6246  0.3091
 2619SOL     OW19489   4.684   1.880   4.909  0.1014  0.6249 -0.1073
 2619SOL    HW119490   4.719   1.923   4.831 -1.6535  1.2835 -0.5421
 2619SOL    HW219491   0.003   1.925   4.974 -2.0557  0.7155  1.6260
 2620SOL     OW19492   0.681   2.975   3.293  0.1258  0.5059 -0.2360
 2620SOL    HW119493   0.708   3.051   3.240  0.4819 -1.3182 -2.6649
 2620SOL    HW219494   0.626   2.937   3.225 -1.1301  1.5732  0.1789
 2621SOL     OW19495   0.683   2.043   4.475 -0.0891 -0.1500 -0.2311
 2621SOL    HW119496   0.750   2.102   4.510 -2.1418  2.1453 -0.1545
 2621SOL    HW219497   0.734   1.962   4.481  0.0804 -0.1796 -2.0538
 2622SOL     OW19498   0.430   0.771  16.819  0.2573 -0.2039  0.8268
 2622SOL    HW119499   0.501   0.735  16.873  2.3604  2.7755  0.1220
 2622SOL    HW219500   0.448   0.733  16.733 -1.1120 -2.0819  1.3762
 2623SOL     OW19501   3.471   3.068   9.970 -0.8059  0.4114 -0.1537
 2623SOL    HW119502   3.403   3.005   9.949 -0.7488  0.0634  0.7017
 2623SOL    HW219503   3.431   3.146   9.931 -0.5631  0.3119 -0.5996
 2624SOL     OW19504   1.235   4.590   9.267  0.4099 -0.4637  0.3917
 2624SOL    HW119505   1.168   4.560   9.329  0.9928 -1.9798  0.2809
 2624SOL    HW219506   1.287   4.509   9.262  0.8468 -0.2233  0.9665
 2625SOL     OW19507   2.959   4.682   5.376  0.0342  0.5165 -0.0832
 2625SOL    HW119508   2.958   4.720   5.464 -0.9576  4.5086 -1.8061
 2625SOL    HW219509   2.989   4.592   5.387  1.4228  0.7675 -1.7955
 2626SOL     OW19510   0.198   1.658   7.188  0.1933  0.1193  0.2137
 2626SOL    HW119511   0.144   1.657   7.109  3.2025 -0.3259 -1.8256
 2626SOL    HW219512   0.279   1.662   7.136 -0.3623 -0.9313 -0.7285
 2627SOL     OW19513   3.118   0.840   3.659 -0.7743  0.1821  0.0591
 2627SOL    HW119514   3.134   0.776   3.729  0.1823  0.6567  0.2752
 2627SOL    HW219515   3.148   0.787   3.585 -1.3276 -1.7162  1.1948
 2628SOL     OW19516   3.856   4.592  12.431 -0.2906 -0.3616 -0.0512
 2628SOL    HW119517   3.853   4.662  12.365  1.9844  0.3049  0.5335
 2628SOL    HW219518   3.932   4.624  12.479 -1.4655  0.5785  1.1598
 2629SOL     OW19519   0.714   3.503   4.170 -0.2235  0.6646 -0.3302
 2629SOL    HW119520   0.619   3.519   4.169 -0.0900  1.3655 -1.2327
 2629SOL    HW219521   0.747   3.558   4.099  1.4466 -0.3032 -0.2895
 2630SOL     OW19522   4.095   2.205   0.195  0.2043 -0.1204 -0.5996
 2630SOL    HW119523   4.142   2.167   0.121 -1.8923  0.7417 -2.3708
 2630SOL    HW219524   4.156   2.186   0.266 -0.3162  0.9670  0.1392
 2631SOL     OW19525   2.408   0.919   5.880  0.1328 -0.2368  0.6109
 2631SOL    HW119526   2.385   0.837   5.836  0.7927  0.2677 -0.6535
 2631SOL    HW219527   2.374   0.992   5.828  0.8465 -1.5199 -1.6709
 2632SOL     OW19528   0.356   3.307   3.318 -0.7091 -0.0018 -0.4426
 2632SOL    HW119529   0.368   3.212   3.325  0.7088  0.3138  1.6784
 2632SOL    HW219530   0.432   3.332   3.371 -1.0220  1.4384 -0.6898
 2633SOL     OW19531   0.462   0.702  10.957 -0.1101 -0.4551  0.0009
 2633SOL    HW119532   0.527   0.632  10.970  2.1446  1.5541 -0.4526
 2633SOL    HW219533   0.389   0.640  10.947 -1.2709  0.5738  2.1893
 2634SOL     OW19534   3.567   2.941  16.775 -0.3756  0.5479 -0.1513
 2634SOL    HW119535   3.656   2.931  16.807  0.1536  0.7005 -1.5836
 2634SOL    HW219536   3.542   3.017  16.828  0.3817  0.3318  0.5122
 2635SOL     OW19537   3.523   3.458   3.020 -0.0293  0.0530 -0.4058
 2635SOL    HW119538   3.464   3.411   3.080  0.4830  0.3718  0.3570
 2635SOL    HW219539   3.572   3.508   3.085  0.1257  0.1278 -0.5825
 2636SOL     OW19540   2.001   4.044   6.707 -0.6967  0.1695  0.5281
 2636SOL    HW119541   2.066   4.112   6.720 -0.7497  0.1654  0.8035
 2636SOL    HW219542   2.008   3.995   6.789  1.1247  2.8871  1.9928
 2637SOL     OW19543   0.991   0.050  12.783 -0.1086 -0.1980  0.0080
 2637SOL    HW119544   0.972   0.043  12.690  1.0243  2.5608 -0.4489
 2637SOL    HW219545   1.073   0.099  12.793 -2.0159  3.1813 -0.7197
 2638SOL     OW19546   1.999   2.955   8.987 -0.2272  0.0567  0.1404
 2638SOL    HW119547   1.935   2.972   8.917  0.4304 -3.7715 -1.3691
 2638SOL    HW219548   1.945   2.893   9.036  1.4066  0.1878  2.0917
 2639SOL     OW19549   4.716   1.695   2.098 -0.4204 -0.8246  0.2784
 2639SOL    HW119550   4.704   1.640   2.176 -0.0509 -0.3634  0.6640
 2639SOL    HW219551   4.640   1.675   2.043  0.0286 -0.3009 -0.5257
 2640SOL     OW19552   2.499   1.696  12.381 -0.1479  0.0325 -0.5021
 2640SOL    HW119553   2.437   1.717  12.311 -0.5785  0.3861 -0.0144
 2640SOL    HW219554   2.572   1.654  12.336 -0.2524  0.1595 -0.7973
 2641SOL     OW19555   0.076   0.007   1.868  0.2475  0.1983  0.1141
 2641SOL    HW119556   0.055   4.695   1.949  0.0981 -1.3793 -0.8322
 2641SOL    HW219557   0.154   0.050   1.901  1.5813 -2.7003  0.7149
 2642SOL     OW19558   4.160   2.501   8.299  0.7247  0.8350  0.7770
 2642SOL    HW119559   4.142   2.410   8.272  1.4383 -0.1077  3.5115
 2642SOL    HW219560   4.122   2.480   8.384 -0.3737 -1.0907 -0.1777
 2643SOL     OW19561   0.802   3.485   1.730 -0.5652  0.1926 -0.4803
 2643SOL    HW119562   0.762   3.570   1.716  0.1713  0.2125 -2.4184
 2643SOL    HW219563   0.896   3.506   1.733 -0.5808  0.2749 -0.5788
 2644SOL     OW19564   4.424   2.174   6.790  0.3250 -0.0826 -0.1973
 2644SOL    HW119565   4.439   2.125   6.871 -0.1513  1.4432  0.8250
 2644SOL    HW219566   4.512   2.175   6.752  1.2577  0.0084  1.9719
 2645SOL     OW19567   2.583   0.185  16.073  0.8600 -0.1298 -0.3701
 2645SOL    HW119568   2.582   0.162  15.980 -0.1417 -0.3086 -0.3080
 2645SOL    HW219569   2.667   0.232  16.073  0.5807  0.3621 -1.8639
 2646SOL     OW19570   3.977   3.933   5.738  0.0989 -0.1579  0.4248
 2646SOL    HW119571   4.004   3.932   5.646 -0.9328 -0.1782  0.1274
 2646SOL    HW219572   4.053   3.969   5.784 -1.7369 -0.0019  3.3621
 2647SOL     OW19573   3.172   2.469   2.208 -0.2752  0.1462 -0.0218
 2647SOL    HW119574   3.203   2.557   2.228 -0.2653 -0.0151  0.6606
 2647SOL    HW219575   3.095   2.460   2.265  0.5867  0.8971  1.2526
 2648SOL     OW19576   2.141   1.163   9.065 -0.1399  0.1362  0.4745
 2648SOL    HW119577   2.117   1.205   8.982  2.0262  1.4606  0.5160
 2648SOL    HW219578   2.065   1.180   9.121  0.0717  0.1931  0.7471
 2649SOL     OW19579   2.406   2.688   8.991  0.1234 -0.0046  0.9129
 2649SOL    HW119580   2.372   2.757   8.933 -2.6587 -0.3663  2.1386
 2649SOL    HW219581   2.378   2.718   9.077 -0.5303  0.1581  0.6409
 2650SOL     OW19582   3.832   1.172   3.706 -0.0589  0.5493  0.2409
 2650SOL    HW119583   3.911   1.219   3.733  0.9942 -0.4040 -1.1807
 2650SOL    HW219584   3.780   1.193   3.783  0.6750 -0.9843  1.1473
 2651SOL     OW19585   1.350   4.319   9.293  0.2943 -0.0659 -0.0525
 2651SOL    HW119586   1.264   4.292   9.326  0.2479  0.1418 -0.0082
 2651SOL    HW219587   1.406   4.261   9.345 -0.8142 -2.1156 -1.1128
 2652SOL     OW19588   3.942   1.570   5.372 -1.0388 -0.1982  0.1694
 2652SOL    HW119589   3.887   1.546   5.298 -2.1250  0.9573  0.6074
 2652SOL    HW219590   4.033   1.589   5.347 -1.1416  0.0579 -0.0053
 2653SOL     OW19591   1.225   3.073   2.065 -0.5150 -0.4118  0.5002
 2653SOL    HW119592   1.155   3.043   2.122 -0.6946  0.4388  0.7342
 2653SOL    HW219593   1.178   3.100   1.986 -1.0010 -3.2062 -0.1349
 2654SOL     OW19594   1.354   0.143   4.045 -0.1231  0.5067  0.1791
 2654SOL    HW119595   1.428   0.143   4.106 -0.4681  3.2193  0.5771
 2654SOL    HW219596   1.280   0.107   4.095  1.9428  1.7941  4.1215
 2655SOL     OW19597   3.038   1.275   4.686 -0.1343  0.4140  0.0477
 2655SOL    HW119598   3.067   1.277   4.595 -0.1900 -2.7617 -0.0611
 2655SOL    HW219599   3.005   1.360   4.715  1.0280  0.4762  1.1735
 2656SOL     OW19600   1.238   2.748   4.789 -0.4590 -0.0326 -0.5274
 2656SOL    HW119601   1.256   2.761   4.882  1.9889 -2.5927 -0.6429
 2656SOL    HW219602   1.301   2.678   4.774 -0.7515  0.1037 -2.3899
 2657SOL     OW19603   3.653   0.372  16.074 -0.0684  0.0523 -0.2856
 2657SOL    HW119604   3.661   0.406  15.985 -1.1997 -0.7562 -0.6899
 2657SOL    HW219605   3.738   0.327  16.082  0.6334  1.2629 -1.0057
 2658SOL     OW19606   4.251   3.793   2.562 -0.3168  0.5973 -0.1497
 2658SOL    HW119607   4.216   3.861   2.504 -0.8867  0.0283 -0.4807
 2658SOL    HW219608   4.336   3.770   2.526 -0.9690 -1.1924 -0.5592
 2659SOL     OW19609   1.461   0.401   3.762  0.2052 -0.4547 -0.1254
 2659SOL    HW119610   1.469   0.433   3.851  0.7610 -0.6438 -0.1063
 2659SOL    HW219611   1.553   0.419   3.740  0.7889 -1.8935  1.1441
 2660SOL     OW19612   3.081   0.657   6.223  0.3540 -0.1303 -0.0494
 2660SOL    HW119613   3.034   0.738   6.246  0.9750  0.5524 -1.1707
 2660SOL    HW219614   3.069   0.654   6.128 -1.6271  2.0359  0.1152
 2661SOL     OW19615   1.946   2.235   5.819 -0.0449 -0.5554 -0.0901
 2661SOL    HW119616   1.891   2.310   5.799  0.5867  0.3068  1.4118
 2661SOL    HW219617   1.905   2.181   5.751 -0.6745  0.0289 -0.1740
 2662SOL     OW19618   1.435   1.709  11.257 -0.1282 -0.0692 -0.3258
 2662SOL    HW119619   1.458   1.689  11.348 -0.9555  2.9131  0.5391
 2662SOL    HW219620   1.413   1.623  11.221 -3.8291  1.0160 -0.6407
 2663SOL     OW19621   1.557   1.144   4.688  0.2285  0.7645 -0.1635
 2663SOL    HW119622   1.509   1.084   4.631  0.2903  1.6600 -1.1619
 2663SOL    HW219623   1.487   1.209   4.687 -1.1237 -0.7428 -1.4156
 2664SOL     OW19624   3.949   1.419   6.823 -0.2648  0.4943  0.1155
 2664SOL    HW119625   3.900   1.394   6.745  0.7796  1.1363 -0.7472
 2664SOL    HW219626   3.976   1.510   6.810  0.1689  0.2729 -0.5709
 2665SOL     OW19627   3.802   2.469   1.724  0.0840 -0.2319  0.0775
 2665SOL    HW119628   3.864   2.542   1.732  0.1800 -0.3242  0.1873
 2665SOL    HW219629   3.756   2.471   1.808  1.9517  1.0814  1.0678
 2666SOL     OW19630   4.009   4.721   9.668  0.4079 -0.1524  0.1444
 2666SOL    HW119631   3.944   4.671   9.717  0.9137  1.8498  2.8295
 2666SOL    HW219632   3.975   0.070   9.637  0.7362 -0.5912 -1.3898
 2667SOL     OW19633   4.451   3.666   0.873 -0.1193 -0.8016 -0.2101
 2667SOL    HW119634   4.408   3.636   0.953  0.4156 -0.5522  0.1696
 2667SOL    HW219635   4.533   3.703   0.906 -0.6800 -0.9093  1.2928
 2668SOL     OW19636   1.379   2.582  12.852 -0.0537 -0.5198 -0.3469
 2668SOL    HW119637   1.363   2.646  12.921 -1.3341  2.6104 -3.5806
 2668SOL    HW219638   1.464   2.614  12.822  0.1492  0.5501  1.3666
 2669SOL     OW19639   3.696   0.813   4.681 -0.0882  0.0792  0.4179
 2669SOL    HW119640   3.645   0.894   4.684  0.2238  0.2311  1.3983
 2669SOL    HW219641   3.641   0.765   4.619 -0.9862 -0.8286  1.9269
 2670SOL     OW19642   0.660   2.161  13.880 -0.3899  0.4579 -0.0538
 2670SOL    HW119643   0.617   2.106  13.946 -1.9847 -0.2807 -1.7038
 2670SOL    HW219644   0.717   2.105  13.828 -1.8900 -1.0879 -0.0391
 2671SOL     OW19645   1.909   2.338   3.325  0.4171 -0.3310 -0.3325
 2671SOL    HW119646   1.983   2.287   3.290  0.0186 -1.5136  0.5807
 2671SOL    HW219647   1.851   2.265   3.345 -0.3367  0.1931 -0.6333
 2672SOL     OW19648   3.456   3.400  10.267  0.4159  0.1300  0.2246
 2672SOL    HW119649   3.417   3.421  10.352 -0.1276 -1.1392  0.2894
 2672SOL    HW219650   3.549   3.420  10.278  0.3600  0.8775 -0.6541
 2673SOL     OW19651   0.445   1.022   4.408 -0.3684  0.5486  0.7251
 2673SOL    HW119652   0.456   1.111   4.441  1.5784  1.7240 -3.0352
 2673SOL    HW219653   0.433   1.031   4.313  1.6343  1.4059  0.5412
 2674SOL     OW19654   0.673   4.391   5.708 -0.0880 -0.1683 -0.5124
 2674SOL    HW119655   0.720   4.344   5.777  0.0607  1.6341  0.6455
 2674SOL    HW219656   0.671   4.327   5.638  0.3986 -0.4094 -0.3061
 2675SOL     OW19657   0.290   0.819   5.070 -0.7566  0.0956  0.3108
 2675SOL    HW119658   0.349   0.823   5.145 -2.0225  1.2424  1.2424
 2675SOL    HW219659   0.351   0.824   4.997 -1.1294 -0.8575 -0.0624
 2676SOL     OW19660   3.751   1.774   2.429 -0.0595 -0.1075 -0.2081
 2676SOL    HW119661   3.696   1.746   2.356 -2.8314 -0.3560  1.9483
 2676SOL    HW219662   3.829   1.785   2.375  0.8307 -2.0167  0.7230
 2677SOL     OW19663   3.697   0.581   7.046 -0.7728 -0.2679  0.3996
 2677SOL    HW119664   3.713   0.488   7.060 -1.4450 -0.4343  0.0583
 2677SOL    HW219665   3.692   0.581   6.951  0.1752  0.8623  0.3459
 2678SOL     OW19666   0.127   2.367  13.806 -0.5053  0.0536 -0.1557
 2678SOL    HW119667   0.155   2.393  13.894 -0.6389 -0.4120  0.0216
 2678SOL    HW219668   0.182   2.292  13.784 -1.1012  0.0948 -1.8215
 2679SOL     OW19669   1.031   2.800  13.656  0.0832  0.2341 -0.4357
 2679SOL    HW119670   1.002   2.782  13.745 -1.6092  1.0936 -0.8090
 2679SOL    HW219671   1.095   2.731  13.638  1.2281  1.5022 -1.1410
 2680SOL     OW19672   0.525   3.121   6.322 -0.4276  0.0012 -0.6498
 2680SOL    HW119673   0.494   3.047   6.374  1.8664 -1.4479 -1.3435
 2680SOL    HW219674   0.447   3.177   6.327  0.2203  0.7530  0.7963
 2681SOL     OW19675   3.004   1.692   3.894 -0.2537 -0.2211 -0.2985
 2681SOL    HW119676   3.064   1.627   3.857 -0.6280  0.9568 -2.9945
 2681SOL    HW219677   2.914   1.664   3.875  0.2411 -2.4311  0.6182
 2682SOL     OW19678   2.442   3.009  15.825  0.8498 -0.2364  0.1114
 2682SOL    HW119679   2.472   2.930  15.869 -2.4170 -2.1858 -1.1675
 2682SOL    HW219680   2.426   2.984  15.734  2.5547  0.9792 -0.5294
 2683SOL     OW19681   3.568   1.919   3.738  0.1084  0.0664 -0.1376
 2683SOL    HW119682   3.495   1.967   3.700 -2.0578 -1.0477  2.5813
 2683SOL    HW219683   3.565   1.957   3.827  1.4982  0.3139 -0.1872
 2684SOL     OW19684   1.513   1.331   4.081 -0.1733  0.2103 -0.4319
 2684SOL    HW119685   1.487   1.406   4.027  0.8480  0.7474 -0.1823
 2684SOL    HW219686   1.448   1.324   4.151 -0.8659  1.2111 -0.9557
 2685SOL     OW19687   0.358   1.391   8.275  0.0423  0.0495  1.4078
 2685SOL    HW119688   0.451   1.388   8.300  0.3048  2.2194  0.6367
 2685SOL    HW219689   0.306   1.426   8.347 -0.2903 -0.2418  1.3092
 2686SOL     OW19690   1.269   0.179   7.801 -0.9789 -0.2031 -0.2779
 2686SOL    HW119691   1.284   0.122   7.876 -1.8721  0.9348  0.7613
 2686SOL    HW219692   1.269   0.115   7.730  3.2355  0.6461 -1.0546
 2687SOL     OW19693   3.702   3.499   8.421 -0.2449 -0.7295  0.6144
 2687SOL    HW119694   3.659   3.414   8.410  1.0059 -1.1634 -0.9224
 2687SOL    HW219695   3.624   3.553   8.425  0.5559  0.2481  3.0915
 2688SOL     OW19696   3.007   1.933   2.065 -0.2370  0.2507  0.0867
 2688SOL    HW119697   3.090   1.941   2.018  0.1834 -1.9815  0.4600
 2688SOL    HW219698   3.020   1.863   2.129 -2.9586 -1.2898 -1.0254
 2689SOL     OW19699   3.334   4.540   9.522 -0.0385  0.1902 -0.1057
 2689SOL    HW119700   3.252   4.537   9.472  0.6245  0.9213 -1.2337
 2689SOL    HW219701   3.309   4.601   9.591  0.6669  3.6229 -2.9394
 2690SOL     OW19702   3.528   3.197   4.077 -0.0491  0.0974  0.0265
 2690SOL    HW119703   3.553   3.281   4.114  1.9248 -0.6968  0.5431
 2690SOL    HW219704   3.584   3.141   4.131  5.0346  2.1882 -3.0183
 2691SOL     OW19705   3.209   1.383   8.767  0.1871  0.7264 -0.5837
 2691SOL    HW119706   3.143   1.418   8.708 -0.9860 -3.4507 -1.6711
 2691SOL    HW219707   3.291   1.405   8.722  1.3624  0.2174  1.2757
 2692SOL     OW19708   3.746   1.013  12.246  0.0587  0.3791 -0.2606
 2692SOL    HW119709   3.782   1.091  12.289  2.4156 -1.3543  0.9146
 2692SOL    HW219710   3.655   1.041  12.241 -0.5073 -1.4786 -0.4632
 2693SOL     OW19711   4.291   1.814   4.930  0.2216  0.0648  0.0873
 2693SOL    HW119712   4.347   1.829   5.006 -0.5470 -1.1681  0.9097
 2693SOL    HW219713   4.277   1.720   4.943  1.3902 -0.1609 -0.3366
 2694SOL     OW19714   2.442   4.105   8.968  0.1136 -0.3777 -0.2634
 2694SOL    HW119715   2.358   4.148   8.947 -0.1436  0.1156  1.7813
 2694SOL    HW219716   2.446   4.116   9.063 -0.0547  2.1174 -0.5297
 2695SOL     OW19717   0.244   0.474   8.114  0.0671  0.2366 -0.3057
 2695SOL    HW119718   0.281   0.561   8.101 -0.0475  0.3080 -0.1557
 2695SOL    HW219719   0.321   0.423   8.089 -0.4901 -0.1191 -1.2935
 2696SOL     OW19720   1.550   0.019   8.906  0.1308 -0.7364 -0.2961
 2696SOL    HW119721   1.545   0.114   8.900  0.4311 -0.6712  0.5521
 2696SOL    HW219722   1.471   4.729   8.859  0.4547  1.1135 -1.8375
 2697SOL     OW19723   0.386   1.557  11.549  0.1933  0.2937 -0.6153
 2697SOL    HW119724   0.418   1.467  11.547  1.9494  0.8837  0.6395
 2697SOL    HW219725   0.353   1.563  11.638 -2.9401 -1.5742 -1.6612
 2698SOL     OW19726   4.368   2.651  12.918  0.0606  0.2549 -0.2053
 2698SOL    HW119727   4.384   2.669  12.825  0.4527 -0.9245 -0.3687
 2698SOL    HW219728   4.273   2.641  12.922 -0.0154  0.6634 -0.9364
 2699SOL     OW19729   0.002   0.920   8.626  0.2814 -0.4364  0.0303
 2699SOL    HW119730   4.643   0.907   8.609  0.1664  1.4836 -0.8129
 2699SOL    HW219731   0.028   1.001   8.582 -0.1290 -2.0523 -3.2238
 2700SOL     OW19732   4.062   4.222  16.084  0.4963  0.2825 -0.2197
 2700SOL    HW119733   4.115   4.276  16.025 -1.4023  0.8975 -1.3543
 2700SOL    HW219734   4.046   4.145  16.029  0.4427 -0.3732  0.7119
 2701SOL     OW19735   3.495   3.727  12.578 -0.2091  0.2545  0.6661
 2701SOL    HW119736   3.447   3.802  12.542 -2.6801 -3.2557 -3.2098
 2701SOL    HW219737   3.573   3.722  12.523 -0.6943  2.7723 -0.2679
 2702SOL     OW19738   3.666   1.748   6.941 -0.7703 -0.1616  0.2396
 2702SOL    HW119739   3.665   1.790   7.028 -1.3648 -0.0633  0.1870
 2702SOL    HW219740   3.634   1.658   6.952 -2.7284  0.5496  0.4102
 2703SOL     OW19741   3.451   0.470   7.767 -0.2037 -0.2719 -0.5763
 2703SOL    HW119742   3.406   0.460   7.851 -0.4241  0.2058 -0.6405
 2703SOL    HW219743   3.393   0.531   7.722  1.7615  3.4805  2.0322
 2704SOL     OW19744   0.314   3.736   6.499  0.3400 -0.0790 -0.0191
 2704SOL    HW119745   0.345   3.696   6.418 -1.5392  0.5208 -1.0522
 2704SOL    HW219746   0.250   3.798   6.463  3.1160  1.0437 -2.9972
 2705SOL     OW19747   4.698   0.804   8.284  0.3594  0.6779  0.2781
 2705SOL    HW119748   4.642   0.880   8.268 -1.8805 -0.6835  1.6324
 2705SOL    HW219749   0.025   0.843   8.346  0.7217  1.7419 -0.7735
 2706SOL     OW19750   4.115   0.451   5.015  0.2126 -0.2420  0.5095
 2706SOL    HW119751   4.052   0.437   4.944  0.4586 -0.4405  0.3270
 2706SOL    HW219752   4.089   0.536   5.049  1.2360  0.1327  0.3640
 2707SOL     OW19753   0.102   1.391   4.229 -0.3087 -0.1991 -0.0448
 2707SOL    HW119754   0.013   1.413   4.257  0.2465  3.2601 -0.9388
 2707SOL    HW219755   0.106   1.302   4.263 -0.6184  0.3019  1.2976
 2708SOL     OW19756   1.638   2.536   3.324 -0.0171  0.5023 -0.5169
 2708SOL    HW119757   1.560   2.591   3.312  0.4111  0.9752 -1.0962
 2708SOL    HW219758   1.703   2.606   3.320  2.7290 -1.9886  0.2972
 2709SOL     OW19759   2.682   2.907   3.262 -0.0436 -0.4191 -0.0629
 2709SOL    HW119760   2.624   2.959   3.318  1.1663  0.8327  0.0142
 2709SOL    HW219761   2.767   2.925   3.303 -0.0554  1.4281 -0.8522
 2710SOL     OW19762   4.159   3.599  14.573  0.6753 -0.4710  0.4033
 2710SOL    HW119763   4.087   3.558  14.621 -1.8314  2.9680 -0.4420
 2710SOL    HW219764   4.114   3.654  14.508  1.0292 -1.3553 -0.5824
 2711SOL     OW19765   4.005   3.537  15.956  0.7162 -0.2492  0.1786
 2711SOL    HW119766   3.952   3.573  15.885  2.6863 -2.2699 -2.2995
 2711SOL    HW219767   3.954   3.458  15.971 -0.7983  0.6435 -0.2607
 2712SOL     OW19768   1.330   0.701  12.152  0.3166 -0.5285 -0.7693
 2712SOL    HW119769   1.316   0.635  12.220  1.6854 -0.2776 -0.2386
 2712SOL    HW219770   1.348   0.641  12.080  1.2632  0.5572 -1.4375
 2713SOL     OW19771   1.154   1.505  16.587  0.1545  0.1411  0.0716
 2713SOL    HW119772   1.088   1.441  16.558  0.6117  0.5007 -1.7818
 2713SOL    HW219773   1.226   1.473  16.533  0.3989  1.4522 -0.3828
 2714SOL     OW19774   4.360   3.777  15.547  0.1990 -0.0859  0.0796
 2714SOL    HW119775   4.380   3.855  15.495  0.6959  0.1906  0.6848
 2714SOL    HW219776   4.332   3.716  15.479 -0.4324  3.0839 -2.5511
 2715SOL     OW19777   2.186   1.682  16.153 -0.6728  0.7416 -0.7274
 2715SOL    HW119778   2.146   1.670  16.239 -1.9415  1.4144 -1.2306
 2715SOL    HW219779   2.224   1.595  16.142 -0.7764  0.2257  3.0808
 2716SOL     OW19780   0.676   4.154   0.811 -0.0373 -0.0245 -0.6838
 2716SOL    HW119781   0.637   4.177   0.895  1.4478  1.8075 -0.5125
 2716SOL    HW219782   0.719   4.235   0.784 -0.2544  0.9343  1.8399
 2717SOL     OW19783   0.449   2.386  14.240 -0.0114 -0.1597  0.7257
 2717SOL    HW119784   0.462   2.423  14.152 -0.0874  2.1667  1.7077
 2717SOL    HW219785   0.424   2.294  14.239 -1.2696  0.1829 -0.6326
 2718SOL     OW19786   1.089   3.368  13.576  0.8720  0.1716 -0.2762
 2718SOL    HW119787   1.164   3.356  13.518  0.6104  3.8635 -1.3327
 2718SOL    HW219788   1.065   3.275  13.582  0.3858  0.2937 -0.2914
 2719SOL     OW19789   0.268   4.066  12.115  0.0682 -0.3230  0.6452
 2719SOL    HW119790   0.242   3.974  12.121  0.6745 -0.6298 -1.4760
 2719SOL    HW219791   0.301   4.058  12.026  2.6018 -0.9488  1.6311
 2720SOL     OW19792   0.122   0.315  10.601  0.2620 -0.2353 -0.3069
 2720SOL    HW119793   0.097   0.367  10.677 -1.1767 -1.4331  0.0302
 2720SOL    HW219794   0.035   0.293  10.568 -0.4907  4.4320 -1.3318
 2721SOL     OW19795   2.352   4.521   8.875 -0.2266  0.2110 -0.0625
 2721SOL    HW119796   2.448   4.516   8.885 -0.6035 -0.9123  2.7876
 2721SOL    HW219797   2.328   4.587   8.939 -0.3561 -0.3059  0.4186
 2722SOL     OW19798   2.479   3.794   9.693  0.1196 -0.1730  0.0059
 2722SOL    HW119799   2.422   3.730   9.650  1.2498 -0.9517 -0.3526
 2722SOL    HW219800   2.571   3.773   9.676  0.2022 -0.2486  0.5582
 2723SOL     OW19801   4.057   0.590  15.032 -0.2749  0.3086 -0.3766
 2723SOL    HW119802   4.100   0.591  15.118  0.4799  0.0276 -0.7520
 2723SOL    HW219803   4.135   0.577  14.978  1.7118  1.2636  2.2442
 2724SOL     OW19804   3.435   3.368   5.815 -0.1342  0.4818 -0.4728
 2724SOL    HW119805   3.484   3.422   5.876  0.2233  0.4325 -0.7137
 2724SOL    HW219806   3.349   3.411   5.820  0.3454  1.3943 -0.1637
 2725SOL     OW19807   1.464   0.577   8.629  1.0622 -0.4101 -0.0153
 2725SOL    HW119808   1.515   0.651   8.662 -0.6411  1.5291 -1.7436
 2725SOL    HW219809   1.433   0.619   8.548  1.6365  0.5602  0.2717
 2726SOL     OW19810   2.469   3.093   1.747 -0.0672 -0.2375  0.0753
 2726SOL    HW119811   2.384   3.063   1.715  0.2275 -1.5896  0.5783
 2726SOL    HW219812   2.482   3.168   1.689  2.5624 -0.6577  0.1033
 2727SOL     OW19813   0.069   1.122   8.438  0.0045 -0.3806  0.0690
 2727SOL    HW119814   0.065   1.141   8.344 -0.0712  2.4943  0.6483
 2727SOL    HW219815   0.102   1.206   8.471  0.3007 -1.1653  1.7615
 2728SOL     OW19816   0.838   4.184   8.388 -0.3078 -0.5728  1.0579
 2728SOL    HW119817   0.811   4.266   8.346 -0.2304 -1.0870  0.0030
 2728SOL    HW219818   0.764   4.126   8.373 -0.7202  0.3677 -0.5677
 2729SOL     OW19819   2.332   0.387   4.430 -0.7592  0.3996 -0.3234
 2729SOL    HW119820   2.277   0.346   4.363 -2.0079  1.6702 -0.0611
 2729SOL    HW219821   2.394   0.317   4.452 -1.8039  0.0444  1.4697
 2730SOL     OW19822   0.960   0.369   8.005 -0.1317 -0.3317  0.3518
 2730SOL    HW119823   0.919   0.443   7.960 -0.8619 -1.4355 -0.7926
 2730SOL    HW219824   0.881   0.315   8.007 -1.4436  1.5435  0.3096
 2731SOL     OW19825   3.433   1.045   9.306  0.1971 -0.3511  0.4459
 2731SOL    HW119826   3.498   0.981   9.277  1.7205  2.0715 -1.4313
 2731SOL    HW219827   3.487   1.097   9.366  1.4996 -4.2664  2.6924
 2732SOL     OW19828   1.407   3.727   9.522 -0.0507  0.1286 -0.1797
 2732SOL    HW119829   1.428   3.698   9.611 -2.8135  0.2999  0.5212
 2732SOL    HW219830   1.483   3.702   9.470  1.0449  0.3710  1.2940
 2733SOL     OW19831   2.073   2.902   5.667 -0.2216  0.1352 -0.0975
 2733SOL    HW119832   2.110   2.907   5.755 -1.2554  0.6822  0.3087
 2733SOL    HW219833   2.005   2.836   5.681  0.5003 -0.6664 -0.4018
 2734SOL     OW19834   3.847   0.199  11.337  0.3320 -0.3662 -0.6168
 2734SOL    HW119835   3.797   0.125  11.371  0.9361 -0.4553  0.0617
 2734SOL    HW219836   3.778   0.243  11.287 -0.1715 -0.8966 -0.3807
 2735SOL     OW19837   0.621   0.908   4.886 -0.2280  0.0765  0.8425
 2735SOL    HW119838   0.653   0.824   4.919 -0.8962  0.1405  1.6538
 2735SOL    HW219839   0.581   0.883   4.803 -0.5598 -0.7526  1.2492
 2736SOL     OW19840   3.909   0.223  15.347  0.7486  0.2001  0.3831
 2736SOL    HW119841   3.915   0.184  15.260  2.3628 -0.3794  0.7444
 2736SOL    HW219842   3.904   0.314  15.318 -0.5711 -0.9766 -3.0786
 2737SOL     OW19843   0.903   3.361   0.746  0.0162 -0.7242 -0.2085
 2737SOL    HW119844   0.935   3.372   0.836  0.3508 -0.0599 -0.4068
 2737SOL    HW219845   0.960   3.429   0.709 -0.5541  0.0163  0.2654
 2738SOL     OW19846   2.178   1.779   7.571 -0.1570  0.0044 -0.2846
 2738SOL    HW119847   2.267   1.749   7.553  1.6550  4.1688  1.9711
 2738SOL    HW219848   2.184   1.806   7.663 -0.2181 -2.0914  0.3344
 2739SOL     OW19849   2.547   2.716   1.081  0.1695  0.5942  1.1921
 2739SOL    HW119850   2.562   2.745   1.171  0.9081 -1.2584  1.6660
 2739SOL    HW219851   2.593   2.783   1.031 -0.5999 -1.1168 -1.7951
 2740SOL     OW19852   4.545   3.681   0.444  0.0735 -0.8371  0.2946
 2740SOL    HW119853   4.627   3.685   0.395  0.2687 -0.5037  0.6472
 2740SOL    HW219854   4.483   3.645   0.381  0.3812  0.8297 -0.9936
 2741SOL     OW19855   1.687   1.779   2.740 -0.3828 -0.2844 -0.1550
 2741SOL    HW119856   1.669   1.799   2.648 -4.3635 -0.7144  0.5174
 2741SOL    HW219857   1.767   1.728   2.731 -0.1686  0.1089 -0.4895
 2742SOL     OW19858   3.202   3.573   7.555 -0.4103 -0.5840 -0.1406
 2742SOL    HW119859   3.274   3.596   7.615  1.9556 -2.5059 -2.1941
 2742SOL    HW219860   3.207   3.478   7.572 -0.7940 -0.6244 -0.2604
 2743SOL     OW19861   1.733   4.232  11.915 -0.3714  0.1148 -0.3346
 2743SOL    HW119862   1.704   4.322  11.932 -1.9671 -0.3787 -0.5151
 2743SOL    HW219863   1.649   4.202  11.882  0.6181 -0.3027 -2.4870
 2744SOL     OW19864   2.414   4.400   0.854 -0.0164  0.1416 -0.4308
 2744SOL    HW119865   2.509   4.389   0.867 -0.2020 -0.6355  0.2647
 2744SOL    HW219866   2.395   4.316   0.811 -1.8425  1.3000 -1.8635
 2745SOL     OW19867   0.209   2.120   6.053  0.3050 -0.2973  0.3588
 2745SOL    HW119868   0.184   2.208   6.081  1.9112 -0.1396  1.2926
 2745SOL    HW219869   0.125   2.077   6.036  1.0541 -0.3745 -3.2184
 2746SOL     OW19870   4.067   0.693   6.648  0.0008  0.0286  0.0688
 2746SOL    HW119871   4.037   0.614   6.602  3.2437 -0.7349 -0.7650
 2746SOL    HW219872   4.160   0.671   6.656  0.8002  2.4831 -2.5778
 2747SOL     OW19873   0.076   2.902  15.873 -0.2733 -0.5167  0.8307
 2747SOL    HW119874   0.035   2.831  15.824 -0.3654 -0.1081  0.3175
 2747SOL    HW219875   0.160   2.870  15.908  1.3914  1.8548 -0.9741
 2748SOL     OW19876   1.196   3.769   5.509 -0.5140  0.4198 -0.2883
 2748SOL    HW119877   1.171   3.838   5.571 -0.4877  0.0272  0.1620
 2748SOL    HW219878   1.286   3.801   5.498 -1.1696  2.0179 -1.0850
 2749SOL     OW19879   1.130   3.457  13.850 -0.2395  0.7054 -0.0638
 2749SOL    HW119880   1.134   3.427  13.760 -2.1881  1.2797 -0.3576
 2749SOL    HW219881   1.036   3.477  13.855 -0.5877 -1.2968  1.1020
 2750SOL     OW19882   4.143   1.908  14.919 -0.3650  0.6956  0.2261
 2750SOL    HW119883   4.056   1.946  14.904 -0.6751  0.8561  2.5469
 2750SOL    HW219884   4.143   1.830  14.862 -0.1196 -0.0785  1.2977
 2751SOL     OW19885   1.610   2.727   1.885 -0.4749 -0.2792  0.6828
 2751SOL    HW119886   1.535   2.785   1.899 -0.7408 -0.6338  0.7316
 2751SOL    HW219887   1.641   2.730   1.975  0.5745  0.4113  0.2971
 2752SOL     OW19888   4.612   2.064   2.626 -0.2834 -0.3336 -0.0193
 2752SOL    HW119889   4.577   2.061   2.536  0.8506 -0.0265 -0.4701
 2752SOL    HW219890   4.570   2.141   2.663  1.7891  0.4777  0.6039
 2753SOL     OW19891   3.709   3.296   5.536  0.1679 -0.1027  0.0726
 2753SOL    HW119892   3.776   3.359   5.563 -0.4928  1.8455 -2.7899
 2753SOL    HW219893   3.740   3.273   5.449  2.2260 -0.9504  1.0445
 2754SOL     OW19894   4.215   0.921  10.469  0.0043  0.1898 -0.2153
 2754SOL    HW119895   4.256   1.003  10.497  2.2324 -1.6216  1.8181
 2754SOL    HW219896   4.278   0.853  10.490  0.0367  0.0338 -0.8236
 2755SOL     OW19897   1.546   1.934  12.418 -0.4986  0.6084 -0.0699
 2755SOL    HW119898   1.473   1.919  12.359 -2.3571  3.1101  1.5674
 2755SOL    HW219899   1.535   2.027  12.438 -0.6538  0.2454  1.5376
 2756SOL     OW19900   1.855   3.922   4.247  0.5953  0.1042  0.1955
 2756SOL    HW119901   1.937   3.872   4.250  1.0358  0.9109  1.8624
 2756SOL    HW219902   1.871   3.990   4.312 -1.0398  1.3688 -0.7229
 2757SOL     OW19903   3.885   3.976   6.756  0.7553  0.4190 -0.3382
 2757SOL    HW119904   3.823   4.041   6.723 -1.9539 -1.5218  0.9503
 2757SOL    HW219905   3.829   3.928   6.818 -2.5490  3.3088 -1.0688
 2758SOL     OW19906   3.733   4.251  13.930  0.4198 -0.1724 -0.0769
 2758SOL    HW119907   3.733   4.186  14.000  0.2517  0.9936  0.9944
 2758SOL    HW219908   3.743   4.338  13.970  1.2530 -0.6285  0.7028
 2759SOL     OW19909   0.462   0.018   4.732  0.2794 -0.3835  0.0685
 2759SOL    HW119910   0.391   4.723   4.789 -0.2473 -2.4325 -1.6424
 2759SOL    HW219911   0.516   4.674   4.734  1.5138  0.4638 -0.3079
 2760SOL     OW19912   2.591   3.277   6.996 -0.9824 -0.0342  0.1121
 2760SOL    HW119913   2.536   3.335   7.048 -1.2996 -0.8432  0.6773
 2760SOL    HW219914   2.668   3.272   7.053  0.0831  0.0517 -1.3214
 2761SOL     OW19915   2.625   4.734   0.410 -0.0171 -0.6036  0.1052
 2761SOL    HW119916   2.719   4.718   0.398 -0.2422 -2.9086  1.3840
 2761SOL    HW219917   2.593   4.647   0.432 -3.6707  1.0402  1.4369
 2762SOL     OW19918   3.519   4.639  17.170 -0.3391 -0.0516  0.1881
 2762SOL    HW119919   3.554   4.710  17.223 -0.5572  0.5883 -0.5275
 2762SOL    HW219920   3.431   4.671  17.154 -0.0940  0.8255  0.5918
 2763SOL     OW19921   3.055   0.266   2.484 -0.0113  0.2085 -0.1098
 2763SOL    HW119922   2.964   0.240   2.497  0.2507 -0.3684  0.6102
 2763SOL    HW219923   3.038   0.360   2.475 -0.6752  0.0732 -0.2407
 2764SOL     OW19924   3.163   0.740   5.248  0.1666  0.3255  0.4719
 2764SOL    HW119925   3.115   0.762   5.328 -2.3303 -1.1967 -0.5955
 2764SOL    HW219926   3.209   0.666   5.288  0.2871 -0.1502 -0.5637
 2765SOL     OW19927   3.727   2.014  15.134  0.2596  0.0481 -0.2347
 2765SOL    HW119928   3.806   2.051  15.175  0.3177  0.6398 -0.8851
 2765SOL    HW219929   3.666   2.074  15.177 -0.9161 -1.8056  0.6779
 2766SOL     OW19930   4.485   3.789   9.183 -0.5854 -0.1561  0.3924
 2766SOL    HW119931   4.418   3.856   9.192 -0.8788 -0.1937 -1.4035
 2766SOL    HW219932   4.521   3.781   9.271  1.6193  1.4471 -0.3955
 2767SOL     OW19933   4.402   3.833  13.393  0.0980 -0.2251 -0.4919
 2767SOL    HW119934   4.458   3.853  13.318 -0.8692 -0.9631 -1.4196
 2767SOL    HW219935   4.467   3.806  13.458  0.3607 -1.9553 -1.4684
 2768SOL     OW19936   1.130   3.493  17.717  0.0625 -0.0742  0.2753
 2768SOL    HW119937   1.188   3.552   0.027 -0.2802  1.2271 -0.9111
 2768SOL    HW219938   1.196   3.429  17.691 -1.5397 -1.1485 -1.1796
 2769SOL     OW19939   4.053   0.136   9.092 -0.0892  0.8161 -0.8565
 2769SOL    HW119940   4.026   0.124   9.000 -1.6240 -2.2042 -0.0078
 2769SOL    HW219941   4.109   0.062   9.113 -0.4677  0.3791 -1.3614
 2770SOL     OW19942   0.749   1.195   8.018  0.2090 -0.3938  0.4001
 2770SOL    HW119943   0.836   1.159   8.034  0.5682 -0.3273 -1.4273
 2770SOL    HW219944   0.692   1.139   8.071 -1.1618 -0.9868 -1.7123
 2771SOL     OW19945   0.958   2.277   1.653 -0.0185 -0.0334 -0.8516
 2771SOL    HW119946   1.000   2.362   1.636  3.3070 -1.2290  1.3431
 2771SOL    HW219947   0.866   2.301   1.645  0.0134 -0.3683 -2.0975
 2772SOL     OW19948   3.928   2.089  16.875  0.5182  0.3991  0.0688
 2772SOL    HW119949   3.903   2.074  16.784 -0.6819  1.3098  0.2603
 2772SOL    HW219950   3.857   2.050  16.926  0.1810 -1.1843 -1.6029
 2773SOL     OW19951   2.110   2.382   1.418 -0.1819  0.2527 -0.3709
 2773SOL    HW119952   2.184   2.322   1.431  1.6305  2.7947  1.1902
 2773SOL    HW219953   2.072   2.371   1.505  2.6059  0.4482  0.8696
 2774SOL     OW19954   2.599   0.046   9.296 -0.0688  0.0197  0.4498
 2774SOL    HW119955   2.626   0.135   9.320 -0.0625 -0.2349  1.3588
 2774SOL    HW219956   2.684   0.004   9.309 -1.4153 -4.1131 -4.1088
 2775SOL     OW19957   4.498   2.504   1.448  0.2861 -0.2312 -0.6652
 2775SOL    HW119958   4.542   2.424   1.417 -0.2842 -0.5849 -0.5640
 2775SOL    HW219959   4.522   2.492   1.540  1.5154 -1.2289 -1.0991
 2776SOL     OW19960   3.607   0.985   2.759  0.5043  0.3390  0.2551
 2776SOL    HW119961   3.573   1.073   2.776  0.4307  0.3965 -0.1910
 2776SOL    HW219962   3.535   0.955   2.704  1.6478 -0.1377 -0.9720
 2777SOL     OW19963   1.172   2.565   1.101 -0.3664  0.0371  0.1182
 2777SOL    HW119964   1.217   2.481   1.102  0.7445  0.6466  1.6868
 2777SOL    HW219965   1.127   2.552   1.185 -0.7980 -0.0753 -0.1331
 2778SOL     OW19966   3.192   3.449  15.668  0.3248 -0.6104  0.1240
 2778SOL    HW119967   3.103   3.452  15.703  0.6669 -2.1189  1.0883
 2778SOL    HW219968   3.247   3.483  15.738 -0.9951  1.1384  0.3158
 2779SOL     OW19969   1.685   3.623   4.318  0.3861  0.5755  0.6434
 2779SOL    HW119970   1.634   3.653   4.242  1.3368 -2.4994 -1.1853
 2779SOL    HW219971   1.663   3.685   4.388  0.0324 -0.3281  1.3314
 2780SOL     OW19972   4.684   2.385   1.839 -0.7769  0.1122 -0.0146
 2780SOL    HW119973   4.730   2.387   1.754  1.5163 -0.3016  1.2164
 2780SOL    HW219974   4.723   2.462   1.882 -0.5988 -1.2031  2.1492
 2781SOL     OW19975   1.616   0.546   1.422  0.6422  0.2623 -0.5681
 2781SOL    HW119976   1.650   0.490   1.492 -0.4317  0.0095 -0.2470
 2781SOL    HW219977   1.610   0.633   1.461 -0.6496 -0.3157  0.5169
 2782SOL     OW19978   0.095   1.458   3.120 -0.3837  0.2151 -0.0689
 2782SOL    HW119979   0.156   1.473   3.048 -0.1746 -0.7690 -0.1018
 2782SOL    HW219980   0.036   1.399   3.073  0.8105  0.3854 -1.7616
 2783SOL     OW19981   0.950   2.110  10.210  0.3804 -0.2754  0.2164
 2783SOL    HW119982   0.870   2.060  10.224 -0.8176  1.9010  1.1538
 2783SOL    HW219983   0.963   2.172  10.282 -1.0142  0.2266  0.0338
 2784SOL     OW19984   0.031   0.718   5.659  0.1601  0.1380  0.1813
 2784SOL    HW119985   4.710   0.796   5.654  2.1389  1.5206 -0.9372
 2784SOL    HW219986   0.096   0.753   5.720 -1.0307  1.0621  0.9029
 2785SOL     OW19987   2.247   0.605   6.159  0.7491  0.2263  0.2705
 2785SOL    HW119988   2.238   0.584   6.066  1.0399 -0.2557  0.3509
 2785SOL    HW219989   2.310   0.541   6.194 -2.6977 -2.6614  1.1670
 2786SOL     OW19990   0.945   0.235   2.495  0.0364 -0.7463  0.4515
 2786SOL    HW119991   0.866   0.242   2.441  1.5675 -3.0999 -2.0750
 2786SOL    HW219992   0.952   0.141   2.506  0.4936 -0.9998 -1.8263
 2787SOL     OW19993   4.399   4.599   7.969 -0.4336  0.1715 -0.6326
 2787SOL    HW119994   4.413   4.535   7.900 -1.3343  1.3412 -1.8945
 2787SOL    HW219995   4.487   4.588   8.004  0.2235 -0.3325 -2.4656
 2788SOL     OW19996   4.578   1.984   2.014  0.1957 -0.1956 -0.0545
 2788SOL    HW119997   4.541   1.896   2.026  1.1766 -0.5681  0.2504
 2788SOL    HW219998   4.499   2.037   2.026 -1.1733 -2.0849 -0.6435
 2789SOL     OW19999   3.051   1.646   3.207  0.0116 -0.2193 -0.1553
 2789SOL    HW120000   3.012   1.697   3.278  0.8704  1.2137 -0.6984
 2789SOL    HW220001   3.044   1.707   3.133 -2.3434 -0.0710  0.2024
 2790SOL     OW20002   2.822   4.684   3.984  0.1600  0.2022 -0.1177
 2790SOL    HW120003   2.832   0.024   3.925 -0.5231  1.7839  1.7734
 2790SOL    HW220004   2.851   4.715   4.070 -1.2565  1.8179 -0.2389
 2791SOL     OW20005   0.661   3.740  13.907 -0.7132  0.5147  0.2739
 2791SOL    HW120006   0.670   3.763  13.999 -0.2849 -0.5446  0.5005
 2791SOL    HW220007   0.609   3.812  13.871 -0.2301  0.2568 -0.9454
 2792SOL     OW20008   0.390   1.692   9.768 -0.0757 -0.1371 -0.2519
 2792SOL    HW120009   0.383   1.679   9.863 -0.0178  2.5229  0.1111
 2792SOL    HW220010   0.389   1.787   9.766 -0.4621 -0.1243  0.5710
 2793SOL     OW20011   0.404   3.538   8.358  0.3996 -0.2760 -0.3746
 2793SOL    HW120012   0.352   3.535   8.277 -0.4424  1.5163  0.0991
 2793SOL    HW220013   0.381   3.449   8.386  2.0979 -0.4432  0.4463
 2794SOL     OW20014   1.702   0.115   2.464 -0.1556  0.3067 -0.2473
 2794SOL    HW120015   1.659   0.109   2.550 -1.7738  0.4478 -1.0447
 2794SOL    HW220016   1.649   0.187   2.429 -0.4178  0.7188  1.0107
 2795SOL     OW20017   0.078   3.624   3.929 -0.7688 -0.1890 -0.0742
 2795SOL    HW120018   0.098   3.534   3.901 -2.0300 -0.6934  0.6693
 2795SOL    HW220019   0.094   3.666   3.844 -0.6871  2.2677  1.1518
 2796SOL     OW20020   0.907   3.054   7.890 -0.6794 -0.5535  0.4953
 2796SOL    HW120021   0.947   2.988   7.947 -0.2361 -2.0175 -1.4919
 2796SOL    HW220022   0.840   3.089   7.948 -2.1029  0.6501 -1.8705
 2797SOL     OW20023   4.659   1.689   7.772 -0.6453 -0.2563  1.1248
 2797SOL    HW120024   4.709   1.695   7.854  0.8164 -2.4715  0.3925
 2797SOL    HW220025   4.680   1.597   7.756 -2.0298 -0.4685  0.5778
 2798SOL     OW20026   0.341   2.794  15.979 -0.3824 -0.3111  0.2091
 2798SOL    HW120027   0.401   2.722  15.959 -1.9286 -1.1194 -1.5564
 2798SOL    HW220028   0.396   2.855  16.029  0.4342 -0.0110 -1.0355
 2799SOL     OW20029   1.221   3.005   9.258  0.3276  0.0953  0.0982
 2799SOL    HW120030   1.229   3.083   9.313 -1.4120 -0.2199  0.7638
 2799SOL    HW220031   1.216   3.039   9.169  1.2896 -0.1986 -0.0729
 2800SOL     OW20032   3.782   3.863   1.926  0.1136 -0.3537  0.4909
 2800SOL    HW120033   3.690   3.854   1.900  0.3363 -0.5058 -0.2339
 2800SOL    HW220034   3.812   3.911   1.849 -1.8299 -2.1166 -1.3736
 2801SOL     OW20035   1.744   2.766   5.027  0.0342 -0.1460  0.4164
 2801SOL    HW120036   1.769   2.781   4.935 -1.1947  0.1587  0.1333
 2801SOL    HW220037   1.656   2.730   5.017  0.2807  0.2190 -3.0690
 2802SOL     OW20038   3.928   3.540   4.263  0.1068 -0.0603 -0.1664
 2802SOL    HW120039   3.866   3.613   4.263  0.5591  0.3181  0.3798
 2802SOL    HW220040   3.918   3.513   4.355 -1.5285 -1.7410 -0.8421
 2803SOL     OW20041   4.036   3.549   4.941  0.6277 -0.0320  0.8448
 2803SOL    HW120042   4.026   3.643   4.958 -0.8581 -0.1556  0.6791
 2803SOL    HW220043   4.062   3.537   4.850  0.5620 -0.5675  0.8931
 2804SOL     OW20044   1.046   4.358   1.935 -0.2059  0.3370 -0.8614
 2804SOL    HW120045   1.059   4.298   2.008  1.3331  0.6110 -0.9008
 2804SOL    HW220046   0.976   4.414   1.967 -0.5068 -1.1412  1.0042
 2805SOL     OW20047   2.149   3.209  14.943  0.0766 -0.1793  0.7121
 2805SOL    HW120048   2.061   3.172  14.935 -0.0245  0.2130  0.0169
 2805SOL    HW220049   2.203   3.130  14.939 -0.0435 -0.1047 -2.4037
 2806SOL     OW20050   2.616   0.237   4.210  0.0713  0.3240  0.3221
 2806SOL    HW120051   2.535   0.201   4.174  1.0142 -1.0685 -0.4371
 2806SOL    HW220052   2.672   0.161   4.228 -1.6643 -1.0240 -0.0283
 2807SOL     OW20053   4.555   0.216  11.163  0.0840  0.0493 -0.1274
 2807SOL    HW120054   4.611   0.175  11.230 -0.6679 -0.0895  0.4153
 2807SOL    HW220055   4.579   0.169  11.083  0.4851 -0.1964  0.1367
 2808SOL     OW20056   2.956   0.648   8.625  0.1697  0.3911 -0.0451
 2808SOL    HW120057   2.940   0.740   8.607 -0.2535  0.4999  0.8656
 2808SOL    HW220058   2.959   0.653   8.721 -0.8694 -0.3041  0.0251
 2809SOL     OW20059   2.344   0.702   1.438  0.6377  0.3846 -0.4979
 2809SOL    HW120060   2.333   0.700   1.533  0.8211 -2.5240 -0.5513
 2809SOL    HW220061   2.435   0.672   1.433 -0.1523 -1.7348 -1.8354
 2810SOL     OW20062   4.721   3.210   2.876 -0.1551  0.2991  0.8370
 2810SOL    HW120063   4.672   3.177   2.952 -1.8250 -0.8511 -0.7477
 2810SOL    HW220064   0.068   3.166   2.898  0.7461  2.0359  0.9476
 2811SOL     OW20065   3.511   4.272   1.845  0.4763  0.4069  0.2826
 2811SOL    HW120066   3.472   4.184   1.840  0.5136  0.2601  2.2661
 2811SOL    HW220067   3.470   4.305   1.925 -1.1343  2.0190 -1.2111
 2812SOL     OW20068   3.151   2.546  12.532 -0.5328 -0.1016 -0.1885
 2812SOL    HW120069   3.207   2.561  12.456  0.9544 -1.8313  0.5474
 2812SOL    HW220070   3.064   2.532  12.494 -1.4620  0.5474  1.7067
 2813SOL     OW20071   3.695   4.711   3.636 -0.2665  0.5212 -0.3396
 2813SOL    HW120072   3.605   4.720   3.606 -0.3912  2.5821  0.6552
 2813SOL    HW220073   3.728   4.635   3.588  0.4764  1.1348 -0.8135
 2814SOL     OW20074   1.346   3.990   2.818 -0.3204 -0.3495 -0.5277
 2814SOL    HW120075   1.315   3.978   2.908 -0.4142 -0.0017 -0.5123
 2814SOL    HW220076   1.358   4.085   2.810  1.5533 -0.4022  1.6293
 2815SOL     OW20077   0.401   1.251   9.692  0.0645  0.2977  0.0124
 2815SOL    HW120078   0.314   1.290   9.702 -0.3642 -0.8424  0.6200
 2815SOL    HW220079   0.423   1.211   9.775 -0.1202  0.7333  0.2745
 2816SOL     OW20080   4.626   0.204   1.239 -0.1661  0.0208 -0.4369
 2816SOL    HW120081   4.553   0.145   1.257  0.5904 -0.9570 -0.6128
 2816SOL    HW220082   4.645   0.214   1.333 -1.0367  2.3081 -0.5082
 2817SOL     OW20083   0.786   2.754   8.657 -0.2459  0.4739  0.3019
 2817SOL    HW120084   0.828   2.668   8.649 -0.5096  0.3004  0.7922
 2817SOL    HW220085   0.835   2.798   8.726  0.4070  2.2097 -1.2649
 2818SOL     OW20086   0.498   2.295   9.426 -0.4784 -0.2545  0.1386
 2818SOL    HW120087   0.418   2.300   9.372 -1.3905 -1.3810  1.3943
 2818SOL    HW220088   0.558   2.248   9.369 -1.2954 -0.7805 -0.2935
 2819SOL     OW20089   1.548   2.707   7.474  0.5340 -0.2134 -0.3192
 2819SOL    HW120090   1.518   2.798   7.474 -1.4062 -0.8266  3.5590
 2819SOL    HW220091   1.637   2.715   7.509 -0.0680  1.3820  0.8416
 2820SOL     OW20092   3.426   0.300  17.173 -0.4877 -0.4657  0.0523
 2820SOL    HW120093   3.426   0.360  17.248  1.1875  0.6162 -0.8078
 2820SOL    HW220094   3.520   0.283  17.165 -0.5527 -0.3472 -0.9755
 2821SOL     OW20095   1.116   3.640  15.257  0.0976  0.0622 -0.1583
 2821SOL    HW120096   1.060   3.563  15.264  0.8747 -0.3326  1.8021
 2821SOL    HW220097   1.162   3.633  15.174 -0.9544  0.1674 -0.7589
 2822SOL     OW20098   0.017   3.633   7.881  0.2534  0.0778 -0.0480
 2822SOL    HW120099   0.012   3.550   7.833  1.0891 -0.8630  1.5241
 2822SOL    HW220100   0.098   3.620   7.929  0.0899  0.6271  0.3790
 2823SOL     OW20101   3.681   1.143   7.095  0.1311  0.7496  0.0466
 2823SOL    HW120102   3.760   1.194   7.112  0.8220 -0.5636  0.7568
 2823SOL    HW220103   3.668   1.136   7.001  2.6772  4.3286 -0.5907
 2824SOL     OW20104   4.031   3.101   3.060 -0.2251  0.2287  0.0909
 2824SOL    HW120105   3.959   3.143   3.013 -2.2754 -1.6776  1.5596
 2824SOL    HW220106   4.045   3.030   2.998 -3.2059  0.4542 -0.8500
 2825SOL     OW20107   3.123   0.168  11.342  0.0822 -0.8202 -0.2167
 2825SOL    HW120108   3.131   0.116  11.263  1.9108 -1.7283  0.5700
 2825SOL    HW220109   3.206   0.156  11.388 -0.9380  3.1340  2.6897
 2826SOL     OW20110   2.163   3.020   6.885  0.2784 -0.1017 -0.5254
 2826SOL    HW120111   2.094   3.050   6.944  0.0394  0.2176 -0.9644
 2826SOL    HW220112   2.243   3.044   6.933  0.3711 -0.1880 -0.6349
 2827SOL     OW20113   2.891   4.154   4.925 -0.4191 -0.3478  0.4188
 2827SOL    HW120114   2.930   4.111   4.849 -2.1471 -1.5486  0.2037
 2827SOL    HW220115   2.961   4.156   4.990 -0.6593  0.8624  0.6303
 2828SOL     OW20116   2.033   4.545  17.641  0.4731 -0.5983  0.7707
 2828SOL    HW120117   2.102   4.565  17.704  0.8754  0.8546 -0.1324
 2828SOL    HW220118   1.966   4.608  17.667 -1.3475 -1.0372 -2.8931
 2829SOL     OW20119   4.501   0.976  17.473  0.2519 -0.0354 -1.3196
 2829SOL    HW120120   4.588   1.006  17.500  0.0413  0.1157 -0.7982
 2829SOL    HW220121   4.454   0.981  17.557  1.1282 -3.2273 -0.6577
 2830SOL     OW20122   3.554   1.783   7.931  0.0415  0.2003  0.0810
 2830SOL    HW120123   3.467   1.785   7.971  1.5297 -0.4580  3.2752
 2830SOL    HW220124   3.602   1.720   7.984 -1.3965 -1.8714 -1.0773
 2831SOL     OW20125   0.817   1.410   4.882 -0.0418  0.1293 -0.0141
 2831SOL    HW120126   0.878   1.479   4.908 -0.3799 -0.3763  2.1355
 2831SOL    HW220127   0.871   1.334   4.860 -1.7621 -1.1515  0.2583
 2832SOL     OW20128   3.935   3.157  11.109  0.5446 -0.2927 -0.4236
 2832SOL    HW120129   3.870   3.169  11.039  0.1160  2.1079  0.3845
 2832SOL    HW220130   3.951   3.248  11.134  0.4474 -0.5508  0.5530
 2833SOL     OW20131   3.210   4.257  16.063 -0.6865 -0.0815 -0.1086
 2833SOL    HW120132   3.206   4.179  16.118  1.6953 -1.2792 -1.6669
 2833SOL    HW220133   3.138   4.244  16.001 -1.6783 -0.4256  1.1022
 2834SOL     OW20134   2.365   3.468   9.794  0.0535  0.6194 -0.0393
 2834SOL    HW120135   2.408   3.389   9.829  1.4747  0.8256 -1.2876
 2834SOL    HW220136   2.418   3.493   9.718 -0.3803 -2.6420 -1.4318
 2835SOL     OW20137   3.163   2.617   6.266 -0.1591  0.4953 -0.1644
 2835SOL    HW120138   3.109   2.542   6.291  0.6675  0.2095  0.7370
 2835SOL    HW220139   3.247   2.589   6.303 -1.5974 -0.9967  2.0176
 2836SOL     OW20140   1.721   1.215   9.421 -0.7086  0.0615  0.0446
 2836SOL    HW120141   1.645   1.217   9.479 -0.9720  1.7571 -0.3719
 2836SOL    HW220142   1.762   1.294   9.457 -0.5372  0.4307 -0.9670
 2837SOL     OW20143   0.151   3.506  16.363  0.0257  0.3906 -0.6723
 2837SOL    HW120144   0.205   3.561  16.306  1.0770  1.3864  1.2510
 2837SOL    HW220145   0.063   3.519  16.331 -0.0036  1.9486  0.0276
 2838SOL     OW20146   2.645   1.002   4.536 -0.0491  0.3020  0.3621
 2838SOL    HW120147   2.694   0.941   4.591  0.8414  0.5249 -0.1777
 2838SOL    HW220148   2.676   1.087   4.564  1.9569 -0.9204  1.8192
 2839SOL     OW20149   2.757   0.370   6.982  0.3997 -0.3330  0.3180
 2839SOL    HW120150   2.774   0.311   6.909  0.4803  0.9413 -0.7035
 2839SOL    HW220151   2.796   0.304   7.039  0.9251  0.3762  0.7909
 2840SOL     OW20152   4.043   0.073   3.271 -0.5806  0.9862 -0.0593
 2840SOL    HW120153   4.016   0.094   3.360  0.4622  1.8646  0.0420
 2840SOL    HW220154   4.062   4.714   3.270  1.9029  1.4932  1.1597
 2841SOL     OW20155   1.872   4.037   7.515 -0.2664  0.0090  0.1880
 2841SOL    HW120156   1.826   3.954   7.519  1.4282 -0.9113  0.7920
 2841SOL    HW220157   1.854   4.062   7.606  2.6436 -3.2668  1.6424
 2842SOL     OW20158   4.311   3.080  11.950 -0.1437  0.2802 -0.1193
 2842SOL    HW120159   4.307   3.125  12.035  0.1357  1.2310 -0.6077
 2842SOL    HW220160   4.389   3.118  11.910  0.0322 -1.2337 -1.2299
 2843SOL     OW20161   0.956   3.901  14.810  0.0911  0.1393  0.2658
 2843SOL    HW120162   0.924   3.931  14.726 -2.0985  0.0241  1.0591
 2843SOL    HW220163   1.051   3.913  14.803 -0.1642  0.2533 -2.9278
 2844SOL     OW20164   4.336   2.946   5.671  0.0025  0.1245  0.1871
 2844SOL    HW120165   4.280   3.014   5.634  2.4902  1.8110 -0.4282
 2844SOL    HW220166   4.392   3.001   5.725 -0.3881  0.5524  0.1497
 2845SOL     OW20167   4.343   0.902   3.710  0.0324 -0.0333 -0.0744
 2845SOL    HW120168   4.382   0.990   3.717  0.5606 -0.2674 -0.0639
 2845SOL    HW220169   4.260   0.916   3.756 -0.2163 -2.4294  0.1782
 2846SOL     OW20170   3.009   0.940   6.314 -0.3643 -0.4797 -0.2710
 2846SOL    HW120171   3.037   1.031   6.329 -0.2573 -0.4596 -0.5913
 2846SOL    HW220172   2.993   0.932   6.220 -0.9514 -0.4220 -0.1750
 2847SOL     OW20173   0.959   1.349  10.859  0.0617 -0.3930  0.3797
 2847SOL    HW120174   0.957   1.349  10.954 -1.8296  0.2638  0.3445
 2847SOL    HW220175   0.976   1.442  10.843 -1.0143 -0.5691 -1.8386
 2848SOL     OW20176   3.271   2.763   5.118  0.0616  0.3360 -0.2198
 2848SOL    HW120177   3.262   2.697   5.187  1.1995 -1.1885 -1.5425
 2848SOL    HW220178   3.320   2.835   5.158 -1.0821  0.0023  1.7778
 2849SOL     OW20179   0.920   1.210   7.336 -0.0857 -0.1816 -0.3288
 2849SOL    HW120180   0.924   1.135   7.277 -1.2565  0.0424 -0.6857
 2849SOL    HW220181   0.875   1.264   7.272 -0.5850 -1.8031 -1.3489
 2850SOL     OW20182   0.522   3.929   9.863  0.0396 -0.1641  1.0154
 2850SOL    HW120183   0.472   4.010   9.859  0.2623 -0.1628 -1.3567
 2850SOL    HW220184   0.603   3.950   9.910  0.7728 -0.4021 -0.1461
 2851SOL     OW20185   4.662   2.372   3.483 -0.4426  0.6211  0.1257
 2851SOL    HW120186   4.709   2.413   3.555 -0.4034 -0.0912  0.5045
 2851SOL    HW220187   4.724   2.375   3.410 -0.1669  2.2483  0.4346
 2852SOL     OW20188   1.995   1.141   8.617 -0.6529 -0.1081  0.1019
 2852SOL    HW120189   1.950   1.189   8.548  2.4290  1.1503 -1.0331
 2852SOL    HW220190   2.063   1.093   8.569  0.6813  0.3539  1.5329
 2853SOL     OW20191   0.409   2.828   7.272  0.2014  0.2767 -0.2123
 2853SOL    HW120192   0.480   2.867   7.222 -0.8560  0.0650 -1.9085
 2853SOL    HW220193   0.455   2.836   7.355 -0.6077 -1.6016  0.4177
 2854SOL     OW20194   0.828   0.151   5.625 -0.2272  0.5388 -0.7084
 2854SOL    HW120195   0.813   0.058   5.606  0.3346  0.0264  1.4265
 2854SOL    HW220196   0.908   0.143   5.676 -1.7386 -2.1176  1.2348
 2855SOL     OW20197   2.433   4.634   4.565  0.1001  0.1202  0.3919
 2855SOL    HW120198   2.497   4.569   4.593 -1.6795 -1.9498 -0.3247
 2855SOL    HW220199   2.361   4.609   4.624 -0.5565  2.3534  0.5052
 2856SOL     OW20200   3.709   0.097   3.086 -0.2925 -0.0216 -0.3801
 2856SOL    HW120201   3.642   0.062   3.026  1.4444  0.2965 -2.5147
 2856SOL    HW220202   3.737   0.177   3.041  1.6290  0.3902  1.5676
 2857SOL     OW20203   2.112   1.532   2.950 -0.2571 -0.5724 -0.1744
 2857SOL    HW120204   2.163   1.613   2.957 -0.6012 -0.3217 -0.5613
 2857SOL    HW220205   2.147   1.494   3.031  1.1131 -0.5089 -0.7353
 2858SOL     OW20206   4.023   3.360   7.708 -0.0455  0.3536  0.1186
 2858SOL    HW120207   4.114   3.334   7.720 -0.7085 -2.3725 -0.8000
 2858SOL    HW220208   3.990   3.366   7.798  0.4886  0.0584  0.3347
 2859SOL     OW20209   2.179   1.157   4.955 -0.0979  0.5360  0.3664
 2859SOL    HW120210   2.226   1.192   4.879 -0.2749  2.2099  1.0240
 2859SOL    HW220211   2.098   1.144   4.905 -0.3139 -0.9560  1.1165
 2860SOL     OW20212   3.430   1.500   5.902  0.0028 -0.2910  0.1955
 2860SOL    HW120213   3.418   1.494   5.807  2.1988 -0.9735 -0.0410
 2860SOL    HW220214   3.519   1.465   5.901  0.9934  2.2221  0.6355
 2861SOL     OW20215   2.986   4.275   8.720 -0.3510  0.5426  0.5659
 2861SOL    HW120216   3.025   4.312   8.641  0.0459  1.9295  1.4146
 2861SOL    HW220217   3.015   4.184   8.724 -0.4489  0.5736  1.9976
 2862SOL     OW20218   1.460   2.696   3.667 -0.0518  0.2042 -0.5277
 2862SOL    HW120219   1.513   2.698   3.587  0.8232  2.2661  0.0944
 2862SOL    HW220220   1.483   2.781   3.705  1.9491  0.0599 -1.3870
 2863SOL     OW20221   4.141   0.790   6.298  0.1563 -0.0279 -0.3584
 2863SOL    HW120222   4.047   0.773   6.300  0.3215 -0.4995  2.8474
 2863SOL    HW220223   4.143   0.827   6.210 -0.8380  0.4745 -0.1612
 2864SOL     OW20224   4.233   3.240   8.150  0.1299 -0.5018  0.7955
 2864SOL    HW120225   4.243   3.158   8.100 -0.0996 -0.1133  0.1194
 2864SOL    HW220226   4.321   3.256   8.183  0.8413 -0.7600 -0.9638
 2865SOL     OW20227   2.832   4.665  12.795 -0.2960  0.1766 -0.4336
 2865SOL    HW120228   2.882   0.010  12.812  0.4755 -0.6940  1.4065
 2865SOL    HW220229   2.798   4.687  12.708 -0.0765  1.9865 -0.0765
 2866SOL     OW20230   0.521   0.416   8.921  0.1165 -0.3732 -0.0196
 2866SOL    HW120231   0.578   0.387   8.850 -0.2146  1.1187 -0.8870
 2866SOL    HW220232   0.538   0.510   8.919  3.1325 -0.9329  0.0715
 2867SOL     OW20233   1.599   4.280   4.970 -0.0933  0.4387  0.3405
 2867SOL    HW120234   1.508   4.271   4.942  0.1359  2.4337 -1.0343
 2867SOL    HW220235   1.655   4.287   4.893 -0.9676 -0.4107 -0.3652
 2868SOL     OW20236   3.386   4.652   3.027  0.2867  0.0026 -0.0312
 2868SOL    HW120237   3.350   4.733   2.990 -0.7245  0.4482  1.9516
 2868SOL    HW220238   3.460   4.648   2.966 -0.8184 -0.9380 -1.3102
 2869SOL     OW20239   1.981   2.925   2.206 -0.2133 -0.2380  0.6833
 2869SOL    HW120240   1.952   2.888   2.290  1.2437 -0.8041  0.9415
 2869SOL    HW220241   1.900   2.915   2.156 -0.7929  0.9837  1.3779
 2870SOL     OW20242   4.673   1.473   8.462  0.2951  0.5016  0.3791
 2870SOL    HW120243   4.628   1.413   8.521  2.4742 -1.6014 -0.0785
 2870SOL    HW220244   4.631   1.471   8.376  1.1697 -1.1500 -0.0107
 2871SOL     OW20245   1.592   3.669   3.553  0.1006 -0.3407  0.2344
 2871SOL    HW120246   1.509   3.709   3.580  0.2523  0.0388  0.1343
 2871SOL    HW220247   1.642   3.653   3.633  0.1327  2.2255  0.7434
 2872SOL     OW20248   1.126   0.019   5.182 -0.5407 -0.2712  0.4329
 2872SOL    HW120249   1.052   0.077   5.164 -1.0881 -0.5428  1.7708
 2872SOL    HW220250   1.207   0.070   5.170 -1.0344  0.7619  1.4340
 2873SOL     OW20251   0.664   1.509  13.499  0.3522  0.1941 -0.0971
 2873SOL    HW120252   0.681   1.515  13.405  0.7218 -2.3431 -0.1992
 2873SOL    HW220253   0.585   1.455  13.498  0.0670  0.6452 -1.6902
 2874SOL     OW20254   3.934   2.417   0.574  0.2674  0.6672  0.2906
 2874SOL    HW120255   4.001   2.431   0.641  0.2048  0.8089  0.3263
 2874SOL    HW220256   3.936   2.506   0.538 -1.0596  1.4671  2.1374
 2875SOL     OW20257   0.206   3.414   5.833 -0.2075 -0.0442 -0.5999
 2875SOL    HW120258   0.282   3.470   5.812 -0.5708  0.4391 -0.6208
 2875SOL    HW220259   0.239   3.334   5.873 -1.0786  0.1900  0.5835
 2876SOL     OW20260   4.122   1.922   1.816  0.0129  0.0622 -0.1399
 2876SOL    HW120261   4.134   1.879   1.731  1.1418  1.1187 -0.5038
 2876SOL    HW220262   4.095   1.847   1.870 -0.9284  1.6946  1.6274
 2877SOL     OW20263   0.534   0.771   7.569  0.2314  0.1395 -0.1785
 2877SOL    HW120264   0.544   0.865   7.553  2.0710 -0.1099 -0.5126
 2877SOL    HW220265   0.626   0.753   7.590 -0.0699 -1.8947 -0.5918
 2878SOL     OW20266   4.153   1.879  10.679 -0.4437 -0.0477 -0.6379
 2878SOL    HW120267   4.176   1.910  10.766 -0.2093  1.6611 -1.3011
 2878SOL    HW220268   4.070   1.926  10.670  0.7590  1.8963 -1.6110
 2879SOL     OW20269   3.169   1.754  10.299  0.6237  0.1025  0.6493
 2879SOL    HW120270   3.236   1.687  10.286  2.0006  1.7984 -1.0147
 2879SOL    HW220271   3.105   1.735  10.230  1.4458  0.3805 -0.1929
 2880SOL     OW20272   1.540   0.587   6.479  0.2022 -0.5091 -0.3632
 2880SOL    HW120273   1.510   0.668   6.436  0.8208  0.7496  1.5427
 2880SOL    HW220274   1.460   0.536   6.469  1.5746 -2.2409 -2.3295
 2881SOL     OW20275   0.702   3.517   6.650  0.1724  0.2376  0.4682
 2881SOL    HW120276   0.642   3.544   6.720 -0.2816  1.4426 -0.3999
 2881SOL    HW220277   0.652   3.440   6.625  0.8417  0.5484 -1.8348
 2882SOL     OW20278   3.007   2.778  10.324  0.4140  0.0824 -0.2650
 2882SOL    HW120279   3.066   2.852  10.331  1.0319 -0.4433  0.0568
 2882SOL    HW220280   3.042   2.742  10.243 -0.8163  0.1051 -0.8076
 2883SOL     OW20281   2.173   0.530  11.645  0.0813  0.9056 -0.5900
 2883SOL    HW120282   2.222   0.548  11.565  0.5860  0.1887 -0.4389
 2883SOL    HW220283   2.114   0.457  11.625  0.9864  0.5621 -1.9848
 2884SOL     OW20284   2.112   4.038   5.215 -0.2436 -0.2723 -0.2633
 2884SOL    HW120285   2.108   4.123   5.260  0.4936  0.5013 -1.6343
 2884SOL    HW220286   2.157   4.065   5.135  3.5669 -1.5734  1.4202
 2885SOL     OW20287   1.566   4.271  12.624  0.0054  0.0437 -0.4356
 2885SOL    HW120288   1.641   4.248  12.679  1.2806  0.2273 -2.0907
 2885SOL    HW220289   1.516   4.326  12.684 -1.4395 -0.0310 -1.5907
 2886SOL     OW20290   1.514   0.339   4.967  0.0046 -0.0993 -0.0499
 2886SOL    HW120291   1.602   0.334   5.005 -0.4787  2.0632  1.3484
 2886SOL    HW220292   1.534   0.407   4.903 -0.5639  0.0002 -0.1207
 2887SOL     OW20293   3.031   0.767   7.308 -0.0436  0.1960 -0.1693
 2887SOL    HW120294   2.991   0.759   7.221 -1.6063 -1.0079  0.6678
 2887SOL    HW220295   2.957   0.795   7.362 -0.0682  0.6201 -0.4165
 2888SOL     OW20296   2.044   2.004  10.180  0.3779 -0.6135 -0.2112
 2888SOL    HW120297   2.069   2.074  10.240  0.5164 -0.6390 -0.2404
 2888SOL    HW220298   2.123   1.994  10.128  0.5903 -0.8233  0.1500
 2889SOL     OW20299   1.238   4.527   6.008  0.0894 -0.0073  0.5703
 2889SOL    HW120300   1.155   4.575   6.018  0.3496  1.1995 -3.0932
 2889SOL    HW220301   1.240   4.465   6.081 -2.1036 -0.6708  0.0845
 2890SOL     OW20302   0.267   2.671   1.897  0.3042  0.3575  0.5876
 2890SOL    HW120303   0.185   2.641   1.937  0.1938 -2.2799 -1.6204
 2890SOL    HW220304   0.327   2.644   1.967  0.6004 -0.0726  0.1668
 2891SOL     OW20305   0.313   3.865  14.115 -0.1393  0.0835 -0.7005
 2891SOL    HW120306   0.263   3.785  14.130  0.7409  0.2512  3.0181
 2891SOL    HW220307   0.400   3.825  14.116 -0.0362  0.3393  0.4491
 2892SOL     OW20308   0.869   3.242   3.042 -0.7627 -0.0919  0.4495
 2892SOL    HW120309   0.814   3.294   2.982  0.8689  0.3936 -0.6158
 2892SOL    HW220310   0.828   3.156   3.041 -3.5691  1.2350 -0.4931
 2893SOL     OW20311   0.021   2.600   1.984  0.3374  0.0735 -0.4504
 2893SOL    HW120312   4.681   2.658   1.969  0.8487  1.2500  1.6206
 2893SOL    HW220313   4.726   2.548   2.059 -0.2942  0.8145 -0.1893
 2894SOL     OW20314   1.801   0.171   1.118 -0.0724  0.3705 -0.2759
 2894SOL    HW120315   1.876   0.138   1.169  0.9720  2.8780 -0.1987
 2894SOL    HW220316   1.742   0.200   1.187  0.7255  1.2360  0.0338
 2895SOL     OW20317   2.733   2.405   6.526  0.0497  0.0134  0.6539
 2895SOL    HW120318   2.671   2.454   6.471 -1.2863 -0.2177  1.9805
 2895SOL    HW220319   2.709   2.441   6.611  1.0571  1.4709  0.3257
 2896SOL     OW20320   1.296   2.537   9.167  0.0346 -0.4375 -0.1615
 2896SOL    HW120321   1.355   2.467   9.139 -0.2038 -0.1651 -1.3679
 2896SOL    HW220322   1.352   2.614   9.155  0.6956 -0.8080  0.5872
 2897SOL     OW20323   3.117   1.498   5.645 -0.3733  0.3610  0.2625
 2897SOL    HW120324   3.098   1.473   5.555 -0.5050 -0.8007  0.6228
 2897SOL    HW220325   3.049   1.563   5.660  0.7600  1.8461 -1.0357
 2898SOL     OW20326   4.530   4.273   3.156 -0.8366 -0.2030  0.3195
 2898SOL    HW120327   4.544   4.181   3.133 -0.7953 -0.2748  0.6285
 2898SOL    HW220328   4.440   4.287   3.127 -0.7084 -0.0465 -0.0033
 2899SOL     OW20329   3.998   3.038   8.193 -0.0258  0.1535  0.2134
 2899SOL    HW120330   4.038   3.031   8.280 -0.0155  0.1818  0.2108
 2899SOL    HW220331   4.038   3.122   8.174  3.4497 -1.7469 -0.7413
 2900SOL     OW20332   0.546   2.254   4.872  0.5134  0.5404  0.8887
 2900SOL    HW120333   0.618   2.194   4.853  0.4132  1.3721 -2.0546
 2900SOL    HW220334   0.464   2.205   4.870 -0.7354  2.7251 -1.1089
 2901SOL     OW20335   3.252   1.119  12.005  0.1256  0.5397  0.0789
 2901SOL    HW120336   3.160   1.114  12.032  0.7036  0.3147  2.0078
 2901SOL    HW220337   3.273   1.035  11.965 -0.8883  0.0414  0.5752
 2902SOL     OW20338   2.228   2.778   6.721 -0.0487 -0.2597 -0.5983
 2902SOL    HW120339   2.198   2.853   6.772 -3.5712 -2.5126  0.6830
 2902SOL    HW220340   2.153   2.730   6.685  0.5637 -0.9121 -1.0020
 2903SOL     OW20341   4.303   3.633  15.313  0.2339  0.2252  0.1082
 2903SOL    HW120342   4.377   3.601  15.261 -0.3578 -0.1757 -0.4777
 2903SOL    HW220343   4.227   3.591  15.272 -0.5044  1.5828  0.1014
 2904SOL     OW20344   3.472   0.391  10.587  0.6841 -0.7941  0.2497
 2904SOL    HW120345   3.379   0.396  10.606  0.3966 -1.2720 -0.9937
 2904SOL    HW220346   3.504   0.472  10.626 -0.9138  0.1873 -0.4861
 2905SOL     OW20347   0.010   1.580   8.146 -0.3016 -0.1882  0.1815
 2905SOL    HW120348   0.087   1.544   8.189 -1.2408 -2.4307 -0.0248
 2905SOL    HW220349   0.044   1.666   8.123 -0.2079 -0.5585 -1.0511
 2906SOL     OW20350   0.439   2.873   5.010 -0.2083 -0.1286  0.7567
 2906SOL    HW120351   0.392   2.943   4.965  0.3530  1.7536  3.0757
 2906SOL    HW220352   0.470   2.915   5.090 -0.4700  0.3572  0.6032
 2907SOL     OW20353   3.613   4.303   9.245 -0.6990  0.4999  0.6461
 2907SOL    HW120354   3.698   4.291   9.288 -0.8336  1.0211  1.0561
 2907SOL    HW220355   3.555   4.290   9.319 -0.7460 -1.2590  0.3062
 2908SOL     OW20356   3.292   1.032   3.620  0.6502  0.1183  0.3297
 2908SOL    HW120357   3.311   1.029   3.526  2.0620  0.7296  0.5994
 2908SOL    HW220358   3.233   0.960   3.639  0.0059  0.3710 -0.6953
 2909SOL     OW20359   3.090   2.033   4.990  0.3372  0.1971  0.5121
 2909SOL    HW120360   3.077   2.049   4.897 -0.1723 -0.2807  0.5002
 2909SOL    HW220361   3.055   1.945   5.006 -0.6122  0.1268 -2.0253
 2910SOL     OW20362   2.027   1.316   7.562  0.6322 -0.0429 -0.0716
 2910SOL    HW120363   1.947   1.291   7.607 -0.5191  0.3677 -1.9051
 2910SOL    HW220364   2.006   1.408   7.547 -1.0500 -0.0632  2.1993
 2911SOL     OW20365   3.171   3.560   5.061 -0.6911 -0.2367 -0.1666
 2911SOL    HW120366   3.180   3.650   5.091 -2.8313 -0.3983  1.0000
 2911SOL    HW220367   3.189   3.573   4.968 -1.1737 -1.2375 -0.4092
 2912SOL     OW20368   2.125   3.062   3.806  0.2377  0.3474 -0.2058
 2912SOL    HW120369   2.200   3.119   3.791 -0.3449  1.0656 -0.3475
 2912SOL    HW220370   2.114   3.078   3.900  1.0751 -0.2991  0.0078
 2913SOL     OW20371   1.616   0.809   4.046 -0.2011 -0.4960 -0.2730
 2913SOL    HW120372   1.631   0.855   4.128  2.0618 -0.6683 -0.5851
 2913SOL    HW220373   1.549   0.750   4.078  0.3242 -0.7171  0.4094
 2914SOL     OW20374   3.123   4.121   5.086 -0.1353  0.0825 -0.3650
 2914SOL    HW120375   3.194   4.159   5.034 -0.5433  1.2036 -0.1050
 2914SOL    HW220376   3.167   4.109   5.170  2.2717 -2.8448 -1.9983
 2915SOL     OW20377   1.976   4.325  10.007 -0.0450  0.6309 -0.0164
 2915SOL    HW120378   2.039   4.255  10.025 -0.2250  0.8431  1.4331
 2915SOL    HW220379   1.954   4.362  10.093 -0.2902  2.0682 -0.6992
 2916SOL     OW20380   0.656   0.864   6.262 -0.2649 -0.4612  0.5874
 2916SOL    HW120381   0.571   0.843   6.300 -0.7756 -1.5315 -1.1117
 2916SOL    HW220382   0.714   0.789   6.276  0.1893 -0.4023 -0.9179
 2917SOL     OW20383   2.215   3.025   1.656  0.2630  0.3130 -0.2239
 2917SOL    HW120384   2.175   2.979   1.730  2.6629 -1.9191 -0.3329
 2917SOL    HW220385   2.189   2.964   1.587 -1.0969  2.7885 -1.8811
 2918SOL     OW20386   0.471   4.149   2.483 -0.1827 -0.0140  0.6099
 2918SOL    HW120387   0.527   4.132   2.559  2.9535 -0.5457 -1.8250
 2918SOL    HW220388   0.526   4.153   2.405 -0.9384 -1.7268 -0.0034
 2919SOL     OW20389   0.108   3.768   4.851 -0.2083  0.1142  0.4938
 2919SOL    HW120390   0.142   3.720   4.776 -2.3573  1.0183 -1.0633
 2919SOL    HW220391   0.178   3.761   4.916 -0.8278  0.6864  1.2246
 2920SOL     OW20392   3.840   1.042   4.505 -0.5859 -1.0710  0.6749
 2920SOL    HW120393   3.785   1.010   4.578  0.6345 -0.9435  1.6480
 2920SOL    HW220394   3.898   0.969   4.484  2.0383  2.0990 -3.0752
 2921SOL     OW20395   1.402   0.921   8.191 -0.1162 -0.5874  0.2663
 2921SOL    HW120396   1.430   0.841   8.147  0.6979 -0.6275  0.8524
 2921SOL    HW220397   1.438   0.985   8.130  0.6501  0.0236  1.3654
 2922SOL     OW20398   3.522   3.879   1.045 -0.3703  0.6222  0.4956
 2922SOL    HW120399   3.584   3.813   1.015 -1.4940 -0.6818  1.0231
 2922SOL    HW220400   3.556   3.952   0.993  1.1251 -1.1559 -1.0205
 2923SOL     OW20401   2.749   3.155  11.075  0.1346 -0.4091 -0.5320
 2923SOL    HW120402   2.727   3.132  11.165  0.1790 -0.4258 -0.5257
 2923SOL    HW220403   2.718   3.074  11.033  1.2702 -1.2479  0.2305
 2924SOL     OW20404   3.526   0.086   2.396 -0.5961 -0.1106 -0.2097
 2924SOL    HW120405   3.610   0.062   2.436 -0.3706 -0.2627 -0.7736
 2924SOL    HW220406   3.459   0.060   2.458  1.6753  1.0886  2.7685
 2925SOL     OW20407   0.226   0.022   5.347  0.8020  0.2818  0.9873
 2925SOL    HW120408   0.192   0.110   5.331 -1.7121 -0.7692  0.5334
 2925SOL    HW220409   0.220   0.016   5.443 -1.9190  1.1212  0.8825
 2926SOL     OW20410   4.615   0.444  17.570  0.0878 -0.2228  0.3289
 2926SOL    HW120411   4.635   0.409  17.483  1.2291 -0.5519  0.7176
 2926SOL    HW220412   4.536   0.494  17.552 -1.2345 -2.2428  0.5426
 2927SOL     OW20413   1.621   0.057   8.113 -0.4808  0.4784 -0.3713
 2927SOL    HW120414   1.556   0.064   8.183  0.6634  0.5816  0.6781
 2927SOL    HW220415   1.693   0.111   8.144 -0.3102  0.2150 -0.3024
 2928SOL     OW20416   3.846   3.629   9.393  0.5937  0.5487 -0.3946
 2928SOL    HW120417   3.850   3.713   9.439 -1.0361  2.0220 -2.9903
 2928SOL    HW220418   3.903   3.643   9.317 -0.5254  0.1339 -1.3018
 2929SOL     OW20419   3.870   1.167   5.832  0.3298 -0.4720 -0.3834
 2929SOL    HW120420   3.776   1.159   5.849  0.2632 -0.4972 -0.7781
 2929SOL    HW220421   3.887   1.173   5.738 -0.0956 -1.4529 -0.5212
 2930SOL     OW20422   3.889   1.247   6.430  0.0541  0.7111  0.1326
 2930SOL    HW120423   3.976   1.278   6.405  0.8119 -1.5290 -0.0689
 2930SOL    HW220424   3.839   1.310   6.379 -0.5739 -0.3120 -0.5043
 2931SOL     OW20425   0.341   3.191   7.856 -0.6946  0.3191  0.2796
 2931SOL    HW120426   0.314   3.239   7.935  0.4469 -0.9357  1.4433
 2931SOL    HW220427   0.296   3.106   7.859  0.8811 -0.5307  0.2330
 2932SOL     OW20428   2.133   1.850   2.580  0.0543  0.3103 -0.2655
 2932SOL    HW120429   2.070   1.786   2.547  0.5354  0.6697 -1.9016
 2932SOL    HW220430   2.211   1.797   2.594  0.9666  1.3684 -1.3601
 2933SOL     OW20431   1.241   1.880   3.532  1.0273 -0.4008 -0.0278
 2933SOL    HW120432   1.181   1.950   3.507 -2.3710 -2.6334  1.9134
 2933SOL    HW220433   1.213   1.868   3.622  0.2976  0.4846 -0.1414
 2934SOL     OW20434   2.236   4.648   7.441  0.2053 -0.2079  0.1332
 2934SOL    HW120435   2.161   4.669   7.386 -1.7652 -0.3031  2.7661
 2934SOL    HW220436   2.206   4.692   7.521 -0.7726 -1.8782  0.6924
 2935SOL     OW20437   0.424   0.577   4.850 -0.0264  0.7837 -0.3432
 2935SOL    HW120438   0.471   0.584   4.934  1.1892 -0.9389 -0.8717
 2935SOL    HW220439   0.452   0.498   4.804 -0.7977 -0.2106  0.8908
 2936SOL     OW20440   1.918   1.468   4.842 -0.0485  0.7672  0.0073
 2936SOL    HW120441   1.862   1.411   4.789 -1.3563  1.0167  1.1227
 2936SOL    HW220442   1.885   1.555   4.823 -0.6931  0.4110 -0.5062
 2937SOL     OW20443   1.357   3.585   1.740  0.7229  0.0483 -0.0146
 2937SOL    HW120444   1.449   3.594   1.714  1.0411  0.8880  1.4217
 2937SOL    HW220445   1.311   3.625   1.666  2.3711 -0.0045 -1.0547
 2938SOL     OW20446   2.638   4.678   5.098 -0.1329 -1.0849  0.2982
 2938SOL    HW120447   2.647   0.012   5.032  3.1118 -1.7747  0.0414
 2938SOL    HW220448   2.732   4.661   5.104  0.2606  1.1935  0.8277
 2939SOL     OW20449   2.097   2.801   9.362 -0.2635  0.0511 -0.1607
 2939SOL    HW120450   2.063   2.881   9.402 -0.6333 -0.6195  0.8703
 2939SOL    HW220451   2.032   2.782   9.295  1.0097 -3.0946 -0.5243
 2940SOL     OW20452   0.404   4.534  11.576 -0.6574 -0.2682 -0.4360
 2940SOL    HW120453   0.449   4.450  11.571  0.3953  0.3303 -1.0369
 2940SOL    HW220454   0.444   4.586  11.507 -0.9219 -1.0575 -1.1851
 2941SOL     OW20455   1.302   1.638   4.266  0.2999 -0.0717 -0.4371
 2941SOL    HW120456   1.321   1.617   4.174 -1.0392 -0.4337 -0.6370
 2941SOL    HW220457   1.263   1.723   4.242  0.9813  0.8049  1.6128
 2942SOL     OW20458   3.846   2.692  10.680  0.1467  0.4728  0.0147
 2942SOL    HW120459   3.941   2.698  10.667  0.3187  0.1061  1.1747
 2942SOL    HW220460   3.828   2.738  10.761 -0.6831  0.3097 -0.0832
 2943SOL     OW20461   2.378   0.183   4.074  0.0860 -0.2844  0.1469
 2943SOL    HW120462   2.304   0.122   4.082 -1.1397  0.9697 -1.4264
 2943SOL    HW220463   2.386   0.176   3.979 -0.8298 -1.4542  0.1533
 2944SOL     OW20464   2.327   3.941   2.402  0.4026 -0.5806 -0.1606
 2944SOL    HW120465   2.418   3.913   2.402  0.6657  0.2206 -1.6879
 2944SOL    HW220466   2.336   4.037   2.396 -2.3831 -0.3454 -0.5448
 2945SOL     OW20467   2.693   4.209   7.821 -0.4902  0.0205  0.1986
 2945SOL    HW120468   2.767   4.148   7.823 -0.9837 -0.5767  0.4483
 2945SOL    HW220469   2.728   4.280   7.875  0.0711  0.7600 -1.1471
 2946SOL     OW20470   0.576   1.608   1.136 -0.2794  0.0506 -0.5675
 2946SOL    HW120471   0.572   1.694   1.094 -1.5071 -0.6206 -1.8329
 2946SOL    HW220472   0.646   1.565   1.088  0.3684  0.6332 -0.1422
 2947SOL     OW20473   3.610   0.843  12.009  0.1462 -0.0877  0.6215
 2947SOL    HW120474   3.602   0.935  12.036  1.4128 -0.0813  1.0069
 2947SOL    HW220475   3.704   0.827  12.023  0.5084  0.8432 -0.6749
 2948SOL     OW20476   0.881   3.046   2.752 -0.3466 -0.6065  0.3886
 2948SOL    HW120477   0.827   3.028   2.828 -3.3775 -0.3690 -1.7068
 2948SOL    HW220478   0.876   3.142   2.749 -0.1533 -0.6219 -0.4646
 2949SOL     OW20479   4.328   3.261  17.177  0.3428 -0.1122 -0.3932
 2949SOL    HW120480   4.330   3.282  17.084  1.1670 -2.0216 -0.8155
 2949SOL    HW220481   4.262   3.320  17.214  2.2070  2.3796 -1.1107
 2950SOL     OW20482   1.989   3.672   6.888 -0.1011 -0.1724  0.1508
 2950SOL    HW120483   2.063   3.674   6.827  0.1802  1.2164  0.5538
 2950SOL    HW220484   1.989   3.766   6.904  1.8640 -0.0422 -0.6482
 2951SOL     OW20485   0.782   1.240  10.446 -0.4461 -0.2098 -0.1823
 2951SOL    HW120486   0.693   1.210  10.429 -1.5472  2.1104  1.3771
 2951SOL    HW220487   0.824   1.162  10.482 -0.3655  0.7824  1.8824
 2952SOL     OW20488   3.727   3.919   1.320 -0.2002 -0.0468 -0.0729
 2952SOL    HW120489   3.735   3.826   1.296  0.4623  0.0992 -0.4010
 2952SOL    HW220490   3.818   3.946   1.330 -0.1210 -0.3415 -0.0104
 2953SOL     OW20491   3.957   1.197   7.477  0.3121  0.1274 -0.7164
 2953SOL    HW120492   3.944   1.137   7.404 -2.4133  0.6402 -0.6403
 2953SOL    HW220493   3.915   1.158   7.554  0.1636  1.5015 -0.1074
 2954SOL     OW20494   3.526   2.003   8.383  0.0332 -0.2388 -0.3025
 2954SOL    HW120495   3.473   1.994   8.304  0.9313  2.5555 -1.2051
 2954SOL    HW220496   3.616   2.004   8.353  0.2693  0.0835  0.4098
 2955SOL     OW20497   1.045   3.863   9.719 -0.3655 -0.8552  0.3965
 2955SOL    HW120498   0.983   3.791   9.730  0.1558 -1.4955 -0.8075
 2955SOL    HW220499   1.129   3.820   9.734 -0.0237 -0.4954 -0.4738
 2956SOL     OW20500   2.129   0.898  12.675  0.1814 -0.3687 -1.1993
 2956SOL    HW120501   2.068   0.962  12.638 -0.0118 -0.7430 -1.5268
 2956SOL    HW220502   2.204   0.955  12.660 -0.9216  1.2808 -0.4168
 2957SOL     OW20503   0.271   4.589   8.297 -0.5283  0.4012  0.4146
 2957SOL    HW120504   0.359   4.625   8.296 -0.8509  1.1999  0.9592
 2957SOL    HW220505   0.221   4.649   8.241 -1.5528  0.3821  1.2962
 2958SOL     OW20506   0.158   1.416   6.830 -0.1026 -0.2375  0.0444
 2958SOL    HW120507   0.177   1.507   6.805 -1.5739 -0.1780 -0.8529
 2958SOL    HW220508   0.078   1.421   6.882  1.5483  1.9701  2.4129
 2959SOL     OW20509   2.585   4.373   4.606 -0.4719  0.3728  0.2134
 2959SOL    HW120510   2.589   4.356   4.512  1.1437  0.0509  0.3495
 2959SOL    HW220511   2.676   4.392   4.628 -1.4409  1.9096  2.8163
 2960SOL     OW20512   3.275   0.040   5.769  0.3358  0.1596 -0.1461
 2960SOL    HW120513   3.317   0.078   5.846 -1.9878 -1.4605  1.9041
 2960SOL    HW220514   3.294   4.685   5.794  0.2120 -0.3272 -1.7793
 2961SOL     OW20515   3.076   1.160   7.334  0.8989 -0.0037  0.3189
 2961SOL    HW120516   3.070   1.129   7.244 -0.5335  1.0275  0.0659
 2961SOL    HW220517   3.099   1.253   7.330 -0.1239  0.2069 -0.6903
 2962SOL     OW20518   1.769   3.336   0.933 -0.0287 -0.1975 -0.0321
 2962SOL    HW120519   1.761   3.249   0.894  2.8064 -1.5242  2.3058
 2962SOL    HW220520   1.683   3.374   0.917  0.5533  0.3330 -1.8079
 2963SOL     OW20521   1.905   2.437  15.056 -0.0604 -0.0248 -0.2250
 2963SOL    HW120522   1.979   2.486  15.021 -0.1081 -0.7937 -1.4048
 2963SOL    HW220523   1.947   2.357  15.087  0.3860 -0.0887 -1.0056
 2964SOL     OW20524   2.285   4.496  14.849  0.3454  0.9513 -0.2449
 2964SOL    HW120525   2.375   4.511  14.880  0.8682  0.6381 -1.6129
 2964SOL    HW220526   2.258   4.587  14.833 -0.0165  1.0782  1.1148
 2965SOL     OW20527   0.420   0.269   6.374 -0.1151 -0.0220 -0.3919
 2965SOL    HW120528   0.357   0.204   6.343  1.0883 -1.5287  0.3281
 2965SOL    HW220529   0.485   0.266   6.303 -0.7312 -2.5587 -0.8649
 2966SOL     OW20530   3.886   0.448   9.070 -0.1871 -0.6411  0.2256
 2966SOL    HW120531   3.840   0.409   8.997 -0.1508 -0.9100  0.3490
 2966SOL    HW220532   3.975   0.433   9.038 -1.3505 -0.4980 -3.0965
 2967SOL     OW20533   0.009   3.307   5.593  0.2299 -0.1870  0.8557
 2967SOL    HW120534   4.715   3.385   5.545  1.5864  1.1417  2.1876
 2967SOL    HW220535   4.661   3.268   5.620 -0.0888  1.0528  1.6772
 2968SOL     OW20536   1.779   2.590   9.496 -0.2110 -0.1858 -0.5919
 2968SOL    HW120537   1.725   2.652   9.446  1.4140  1.6035 -0.1413
 2968SOL    HW220538   1.799   2.638   9.576  0.9930 -0.9901 -0.4236
 2969SOL     OW20539   0.666   1.130   5.173  0.0055 -0.2483  0.0484
 2969SOL    HW120540   0.592   1.079   5.139 -0.6002  1.1501 -0.7288
 2969SOL    HW220541   0.716   1.055   5.205 -0.4476 -0.7042 -0.3040
 2970SOL     OW20542   2.566   2.722   8.127 -0.1248  0.1932  0.4227
 2970SOL    HW120543   2.594   2.798   8.177 -0.0461 -0.4109  1.3048
 2970SOL    HW220544   2.653   2.684   8.115 -0.5350 -0.9285  0.9344
 2971SOL     OW20545   3.904   3.391   7.936  0.1779  0.0904  0.5893
 2971SOL    HW120546   3.954   3.412   8.015  1.2918  2.1808 -0.6796
 2971SOL    HW220547   3.859   3.475   7.933  0.4671  0.2087 -0.4387
 2972SOL     OW20548   3.687   2.542   1.485 -0.2596  0.0821 -0.0859
 2972SOL    HW120549   3.704   2.508   1.573  0.5423 -1.3257 -0.7869
 2972SOL    HW220550   3.753   2.611   1.477 -1.0279  1.0408  1.8049
 2973SOL     OW20551   3.388   4.239   7.858 -0.1323  0.2791  0.2717
 2973SOL    HW120552   3.376   4.157   7.810  0.0811 -1.1009  2.5736
 2973SOL    HW220553   3.469   4.230   7.908 -1.3354  0.7796  2.2937
 2974SOL     OW20554   2.638   0.589   6.220 -0.3045  0.3941  0.0551
 2974SOL    HW120555   2.615   0.669   6.267  0.2797 -0.8445  2.4031
 2974SOL    HW220556   2.693   0.549   6.287 -0.3710 -0.3317 -0.3263
 2975SOL     OW20557   4.443   3.161   6.241 -0.5280 -0.0025 -0.3348
 2975SOL    HW120558   4.404   3.248   6.250  2.1078  1.1827 -0.3366
 2975SOL    HW220559   4.486   3.145   6.325 -1.2939 -0.1982  0.0225
 2976SOL     OW20560   3.502   4.204   6.864 -0.1022  0.0998 -0.3179
 2976SOL    HW120561   3.494   4.282   6.810  0.1280 -0.4944 -1.2114
 2976SOL    HW220562   3.581   4.226   6.913 -0.1657  2.1105 -1.1359
 2977SOL     OW20563   3.097   2.692   2.768  0.1034 -0.0315  0.1796
 2977SOL    HW120564   3.010   2.676   2.804  0.3848 -0.3020  0.7460
 2977SOL    HW220565   3.144   2.714   2.849 -1.2779 -2.6507  1.6845
 2978SOL     OW20566   3.253   1.962  15.011  0.0610 -0.3351 -0.2145
 2978SOL    HW120567   3.164   1.929  15.024 -0.2028  0.7654  0.9019
 2978SOL    HW220568   3.235   2.056  15.008 -0.8423 -0.4999  0.0136
 2979SOL     OW20569   2.408   4.333   4.820  0.1802  0.0517  0.3182
 2979SOL    HW120570   2.476   4.346   4.885 -0.7777  0.9663  1.1498
 2979SOL    HW220571   2.467   4.326   4.745  0.2346  0.6151  0.3037
 2980SOL     OW20572   3.738   1.947   6.425 -0.3427 -0.2321 -0.1223
 2980SOL    HW120573   3.662   1.890   6.436 -0.6067  0.1746  0.1522
 2980SOL    HW220574   3.744   1.942   6.329 -1.3734 -1.6653 -0.1056
 2981SOL     OW20575   1.598   2.859   5.479 -0.5559  0.0283  1.0155
 2981SOL    HW120576   1.594   2.773   5.437  0.6565  1.0729 -1.1886
 2981SOL    HW220577   1.555   2.845   5.564  0.3157 -1.5010  1.2035
 2982SOL     OW20578   0.178   4.703   1.499  0.7265 -0.3498 -0.0006
 2982SOL    HW120579   0.219   4.620   1.472 -0.1464 -0.3981 -1.1569
 2982SOL    HW220580   0.213   4.704   1.589 -2.0216 -2.9352  1.1012
 2983SOL     OW20581   3.548   3.223  17.581  0.1447 -0.4754  0.2002
 2983SOL    HW120582   3.476   3.283  17.561  0.5056 -0.6217 -1.5275
 2983SOL    HW220583   3.557   3.235  17.676  2.9544 -1.1386  0.0088
 2984SOL     OW20584   0.335   0.900   3.834  0.2755 -0.0163 -0.5009
 2984SOL    HW120585   0.353   0.958   3.759  0.2244 -0.1046 -0.5820
 2984SOL    HW220586   0.396   0.933   3.900 -0.7502 -0.6780  0.7610
 2985SOL     OW20587   1.797   2.852   4.434  0.0217 -0.3104 -0.0450
 2985SOL    HW120588   1.759   2.937   4.410  0.2745 -0.0701  0.3993
 2985SOL    HW220589   1.860   2.839   4.363 -0.2137  0.4513 -0.3962
 2986SOL     OW20590   0.192   3.659   3.052  0.2830  0.2054  0.5986
 2986SOL    HW120591   0.266   3.603   3.025  0.4956  0.9505 -0.3501
 2986SOL    HW220592   0.131   3.595   3.088 -0.1353 -0.3780 -1.1181
 2987SOL     OW20593   0.508   0.697   2.356 -0.3314 -0.1591 -0.0986
 2987SOL    HW120594   0.556   0.733   2.281 -0.2536 -1.1558 -0.5307
 2987SOL    HW220595   0.526   0.763   2.423 -0.2256  2.6209 -2.8680
 2988SOL     OW20596   0.518   4.662  11.354 -0.3480  0.1735 -0.0534
 2988SOL    HW120597   0.589   4.659  11.290  0.1640  0.6648  0.4759
 2988SOL    HW220598   0.474   0.006  11.321 -1.5022 -1.2149 -1.7917
 2989SOL     OW20599   2.284   0.611   2.831 -0.1723 -0.4560  0.8976
 2989SOL    HW120600   2.360   0.576   2.878  1.3345  0.1438 -1.0968
 2989SOL    HW220601   2.227   0.534   2.838 -1.8571  0.3882 -3.1082
 2990SOL     OW20602   1.822   1.204   3.830 -0.1120 -0.6192 -0.4608
 2990SOL    HW120603   1.853   1.191   3.919  0.3372 -0.2657 -0.5654
 2990SOL    HW220604   1.764   1.128   3.829 -1.7193  0.5616  3.1927
 2991SOL     OW20605   0.248   2.678   5.436 -0.4034 -0.6944  0.0432
 2991SOL    HW120606   0.294   2.594   5.429 -0.3822 -0.7239  0.5327
 2991SOL    HW220607   0.166   2.658   5.391 -1.3506  2.0947  0.5603
 2992SOL     OW20608   4.677   0.241   0.009  0.6570 -0.1940  0.1849
 2992SOL    HW120609   4.711   0.179  17.683  0.4938  0.4870 -0.5579
 2992SOL    HW220610   4.649   0.307  17.684  2.2850 -0.5886 -0.9232
 2993SOL     OW20611   2.462   2.728   2.781 -0.3753  0.2539 -0.0899
 2993SOL    HW120612   2.376   2.757   2.810 -0.9660 -2.1581  0.5496
 2993SOL    HW220613   2.459   2.633   2.789 -2.5528  0.2403 -1.1521
 2994SOL     OW20614   3.988   1.456   2.251 -0.5256 -0.5446  0.5436
 2994SOL    HW120615   3.952   1.462   2.163 -2.4985 -1.8944  1.2447
 2994SOL    HW220616   4.079   1.439   2.229 -1.1886 -2.5243 -0.6716
 2995SOL     OW20617   1.410   0.513   9.305  0.2942 -0.2902 -0.5760
 2995SOL    HW120618   1.326   0.473   9.327  0.7332 -1.0159 -0.2120
 2995SOL    HW220619   1.467   0.440   9.331 -0.4713 -1.5951 -2.5840
 2996SOL     OW20620   4.255   3.019   9.995 -0.5017 -0.6273  0.5402
 2996SOL    HW120621   4.169   2.993   9.963  0.3229 -1.5704 -0.8916
 2996SOL    HW220622   4.229   3.044  10.084 -2.4696  1.6013 -0.6600
 2997SOL     OW20623   0.831   3.723   4.710  0.1166 -0.4138  0.7586
 2997SOL    HW120624   0.760   3.730   4.773 -0.4744 -1.1671  0.1857
 2997SOL    HW220625   0.782   3.684   4.637  0.9844  2.2184 -1.2513
 2998SOL     OW20626   2.733   2.183   6.933 -0.3921 -0.2267  0.4396
 2998SOL    HW120627   2.655   2.187   6.879  0.2020  0.3852 -0.3751
 2998SOL    HW220628   2.711   2.221   7.018 -0.5900 -0.0392  0.3045
 2999SOL     OW20629   1.495   1.713  16.233 -0.1136 -0.6562 -0.6690
 2999SOL    HW120630   1.524   1.637  16.284 -2.9426 -0.8523  0.6225
 2999SOL    HW220631   1.573   1.752  16.193 -1.0394  0.8478 -0.9823
 3000SOL     OW20632   2.060   1.008  13.176  0.0827  0.3764  0.2257
 3000SOL    HW120633   2.062   1.083  13.236  1.2186  0.6038 -0.0919
 3000SOL    HW220634   1.972   0.974  13.192  0.6518 -0.8741  0.6596
 3001SOL     OW20635   3.290   0.557  11.444 -0.6706 -0.3029  0.0847
 3001SOL    HW120636   3.209   0.516  11.475 -1.4371  1.0966 -0.1133
 3001SOL    HW220637   3.333   0.571  11.529  1.0635  2.0613 -1.2041
 3002SOL     OW20638   4.584   2.788  13.907 -0.0432 -0.4544  0.1561
 3002SOL    HW120639   4.570   2.715  13.848 -0.5534  0.3917 -0.7523
 3002SOL    HW220640   4.679   2.798  13.896  0.1327 -1.2119  1.0232
 3003SOL     OW20641   4.233   0.098   7.428 -0.4176 -0.2988  0.1294
 3003SOL    HW120642   4.303   0.095   7.493 -0.3631 -0.0246  0.0864
 3003SOL    HW220643   4.173   0.147   7.485  0.9767  2.0616 -0.3973
 3004SOL     OW20644   2.311   1.894   8.329  0.0528 -0.2429 -0.2134
 3004SOL    HW120645   2.324   1.904   8.423 -1.0575  1.9606 -0.2926
 3004SOL    HW220646   2.216   1.906   8.329 -0.0213 -0.8517  1.2736
 3005SOL     OW20647   1.552   1.419   1.576  0.2163 -0.0352 -0.0198
 3005SOL    HW120648   1.466   1.405   1.536  0.2219 -0.1239 -0.0007
 3005SOL    HW220649   1.597   1.343   1.540 -1.2726 -0.6550 -0.5516
 3006SOL     OW20650   1.734   1.184   6.259  0.0376 -0.0918 -0.1361
 3006SOL    HW120651   1.811   1.153   6.211 -1.2319 -2.2578 -0.7782
 3006SOL    HW220652   1.763   1.266   6.298 -1.2922 -0.3483  1.3810
 3007SOL     OW20653   0.145   0.627   6.865  0.0490 -0.4009 -0.3536
 3007SOL    HW120654   0.203   0.600   6.935  0.2228  1.2597  0.1420
 3007SOL    HW220655   0.214   0.646   6.802  1.0029 -1.3782  0.3930
 3008SOL     OW20656   0.489   4.304   6.043  0.2021 -0.4629 -0.6546
 3008SOL    HW120657   0.426   4.251   6.092 -2.5222  2.1670 -1.3528
 3008SOL    HW220658   0.463   4.394   6.060 -1.2740 -1.2047  1.0570
 3009SOL     OW20659   4.278   2.028  15.920 -0.3158  0.2902  0.1720
 3009SOL    HW120660   4.240   2.115  15.934 -0.8762  0.2999 -1.4482
 3009SOL    HW220661   4.337   2.030  15.995 -0.6634 -0.9326  0.4750
 3010SOL     OW20662   3.754   2.338  10.187 -0.1298 -0.1241 -0.0915
 3010SOL    HW120663   3.676   2.392  10.174 -1.2939 -1.9378 -0.6922
 3010SOL    HW220664   3.745   2.291  10.103  0.6624 -2.3231  1.0604
 3011SOL     OW20665   2.050   3.964   0.078  0.2723 -0.2138 -0.3604
 3011SOL    HW120666   1.995   3.998   0.148 -0.6326 -0.7428 -0.8125
 3011SOL    HW220667   2.093   4.045   0.050 -0.4832 -0.3028 -1.8012
 3012SOL     OW20668   3.006   2.793  17.721 -0.3444  0.0403  0.8129
 3012SOL    HW120669   2.967   2.707  17.708  2.4075 -0.9072 -1.1167
 3012SOL    HW220670   3.069   2.772   0.051 -1.8819 -2.2350  1.5309
 3013SOL     OW20671   3.496   4.463  16.409  0.4154 -0.0188 -0.1831
 3013SOL    HW120672   3.450   4.496  16.331 -1.5904 -1.2207  0.5134
 3013SOL    HW220673   3.450   4.381  16.427  0.7119  0.0529  0.8450
 3014SOL     OW20674   0.189   3.802  12.126 -0.0630 -0.2925 -0.6843
 3014SOL    HW120675   0.179   3.732  12.190 -0.5883 -0.0077 -0.4550
 3014SOL    HW220676   0.146   3.752  12.057  1.9597 -0.0134 -2.1429
 3015SOL     OW20677   0.151   3.354   8.003  0.6956 -0.1783 -0.6105
 3015SOL    HW120678   0.068   3.343   8.049  0.7843  0.4271 -0.3068
 3015SOL    HW220679   0.175   3.442   8.032 -1.0374  0.6760 -1.7572
 3016SOL     OW20680   1.088   4.555  12.333  0.6340  0.5403 -0.3499
 3016SOL    HW120681   1.172   4.525  12.368 -0.2319 -1.5975 -0.1332
 3016SOL    HW220682   1.039   4.473  12.325  0.2143  0.6756  0.9445
 3017SOL     OW20683   0.559   0.810  17.514  0.2682  0.3867  0.2470
 3017SOL    HW120684   0.598   0.823  17.427 -0.5197 -1.7491 -0.4229
 3017SOL    HW220685   0.643   0.812  17.559  1.0163  0.3488 -1.1493
 3018SOL     OW20686   3.433   0.364   8.818  0.6994  0.1960  0.3907
 3018SOL    HW120687   3.378   0.317   8.755  1.4530 -1.6552  1.0854
 3018SOL    HW220688   3.378   0.356   8.896  1.0314 -0.5179  0.5542
 3019SOL     OW20689   3.974   4.265   9.119  0.6811 -0.1267  0.1093
 3019SOL    HW120690   4.038   4.336   9.127  1.1677 -0.8435  2.4908
 3019SOL    HW220691   3.898   4.306   9.076 -0.3965  0.1323  2.2942
 3020SOL     OW20692   0.754   1.266   7.127 -0.3208 -0.4499 -0.3372
 3020SOL    HW120693   0.719   1.204   7.064  0.2011 -0.9563 -0.1315
 3020SOL    HW220694   0.674   1.317   7.141  2.0492  3.0181  0.4127
 3021SOL     OW20695   3.456   1.760   8.649  0.6554  0.3079  0.5108
 3021SOL    HW120696   3.363   1.773   8.630  0.2730 -2.5868  0.3964
 3021SOL    HW220697   3.489   1.850   8.657  2.3935 -0.2328 -0.5707
 3022SOL     OW20698   0.412   1.476   3.978 -0.0231 -0.0355 -0.5072
 3022SOL    HW120699   0.355   1.432   3.915  1.6321 -2.3660 -0.4021
 3022SOL    HW220700   0.355   1.522   4.039 -0.1641 -0.7062 -0.1368
 3023SOL     OW20701   3.451   4.218   3.762 -0.6066  0.0804  0.3916
 3023SOL    HW120702   3.439   4.311   3.779 -1.2047  0.2434 -0.8738
 3023SOL    HW220703   3.428   4.202   3.670  1.8339 -0.4469 -0.1285
 3024SOL     OW20704   4.248   0.542   6.345  0.4592 -0.1228 -0.2470
 3024SOL    HW120705   4.340   0.561   6.365  0.5859 -0.2885 -0.6782
 3024SOL    HW220706   4.207   0.629   6.348  1.2542  0.2154  0.9634
 3025SOL     OW20707   0.543   4.375   4.026  0.1151  0.2449 -0.6416
 3025SOL    HW120708   0.555   4.441   3.958 -2.5284 -0.5315 -1.8474
 3025SOL    HW220709   0.503   4.424   4.097  0.1460 -0.7072  0.0428
 3026SOL     OW20710   3.636   1.208   6.161 -0.6411  0.3710 -0.7832
 3026SOL    HW120711   3.551   1.228   6.200  0.7611  0.4899  2.1568
 3026SOL    HW220712   3.664   1.295   6.130 -0.9500  0.2505 -1.4107
 3027SOL     OW20713   3.977   1.231  11.395  0.1234  0.1662  0.5689
 3027SOL    HW120714   4.012   1.256  11.480  3.3292 -0.1554 -0.6539
 3027SOL    HW220715   3.916   1.303  11.384 -0.4946 -0.4675 -0.1688
 3028SOL     OW20716   0.208   2.396   6.073  0.0859 -0.0924 -0.2878
 3028SOL    HW120717   0.288   2.441   6.046 -0.1373 -0.2963 -1.2946
 3028SOL    HW220718   0.147   2.470   6.067  1.5409  1.1756  0.5892
 3029SOL     OW20719   1.137   3.291  13.120  0.5095 -0.1596  0.0706
 3029SOL    HW120720   1.068   3.358  13.130 -0.7315 -1.2120 -1.5107
 3029SOL    HW220721   1.146   3.277  13.026  1.5800  0.2037  0.1247
 3030SOL     OW20722   4.220   4.248   0.511 -0.0365  0.4402  0.3899
 3030SOL    HW120723   4.278   4.205   0.574 -0.6991  0.9400  1.3341
 3030SOL    HW220724   4.143   4.192   0.519  1.4272 -1.7583 -0.7218
 3031SOL     OW20725   1.134   4.355  17.310  0.7940 -0.1170 -0.2772
 3031SOL    HW120726   1.135   4.288  17.379 -1.2814  2.8918  2.6947
 3031SOL    HW220727   1.042   4.377  17.323  1.3603  2.0310  0.1411
 3032SOL     OW20728   0.737   4.233   5.950  0.2936  0.4114 -0.0495
 3032SOL    HW120729   0.756   4.143   5.976  0.2559  0.0985 -1.1164
 3032SOL    HW220730   0.645   4.242   5.975  0.2053 -0.4722 -0.0535
 3033SOL     OW20731   3.291   1.654   9.295  0.1685  0.3019  0.5127
 3033SOL    HW120732   3.249   1.675   9.211  1.4903 -2.1824 -0.7914
 3033SOL    HW220733   3.370   1.612   9.259 -0.4175  0.6440 -1.1892
 3034SOL     OW20734   4.706   1.756   8.424 -0.0266 -0.1793 -0.0989
 3034SOL    HW120735   4.677   1.668   8.449 -0.1580 -0.4754 -1.2918
 3034SOL    HW220736   4.723   1.801   8.506  0.1549 -4.0736  1.9819
 3035SOL     OW20737   1.298   4.125  12.767 -1.0969 -0.0221 -0.1164
 3035SOL    HW120738   1.394   4.118  12.766 -1.0305  0.7528  1.6188
 3035SOL    HW220739   1.283   4.162  12.854 -1.5278 -0.9985  0.2315
 3036SOL     OW20740   1.301   0.955   4.247  0.3290  0.5010  0.1217
 3036SOL    HW120741   1.339   1.041   4.233 -2.2820  1.2183 -2.6495
 3036SOL    HW220742   1.216   0.963   4.204  0.3547  2.5173  0.4622
 3037SOL     OW20743   3.471   1.409  15.901  0.3850 -0.9273  0.6680
 3037SOL    HW120744   3.389   1.454  15.879  1.9235  1.5227  0.0082
 3037SOL    HW220745   3.505   1.406  15.811 -0.4618 -0.9471  0.3437
 3038SOL     OW20746   3.535   0.201   7.020 -0.0298  0.1797  0.1834
 3038SOL    HW120747   3.459   0.191   7.078  0.1787 -0.2790  0.3854
 3038SOL    HW220748   3.491   0.260   6.960  3.2052  2.1499 -0.2512
 3039SOL     OW20749   2.645   3.216  12.181 -0.4454 -0.0003  0.0358
 3039SOL    HW120750   2.581   3.154  12.216 -0.3950  1.1849  2.2231
 3039SOL    HW220751   2.724   3.162  12.181 -1.1436 -1.0039  0.4770
 3040SOL     OW20752   2.711   1.884  12.618  0.1976 -0.0689  0.3292
 3040SOL    HW120753   2.685   1.857  12.706 -0.8335  1.8695  0.6123
 3040SOL    HW220754   2.778   1.949  12.640 -0.1498  0.7938 -1.1888
 3041SOL     OW20755   1.845   0.744   4.672 -0.0159  0.6227  0.0676
 3041SOL    HW120756   1.864   0.653   4.693  2.8776  1.5232  1.3868
 3041SOL    HW220757   1.761   0.725   4.630 -0.2218 -0.5785  1.0168
 3042SOL     OW20758   3.500   1.897   1.785  0.4987  0.5033  0.1008
 3042SOL    HW120759   3.527   1.984   1.756 -0.0751  1.0001  1.0817
 3042SOL    HW220760   3.516   1.900   1.879 -1.0416  2.2530  0.3005
 3043SOL     OW20761   3.766   4.281   0.494  0.1706 -0.2609  0.2339
 3043SOL    HW120762   3.852   4.276   0.454  0.3906  1.2353  0.5211
 3043SOL    HW220763   3.737   4.194   0.467  1.8956 -0.4474 -0.9782
 3044SOL     OW20764   3.304   3.287   0.594  0.2418 -0.8753  0.1876
 3044SOL    HW120765   3.273   3.373   0.625  1.7527 -0.0484 -0.5862
 3044SOL    HW220766   3.339   3.301   0.506  1.5572  0.2282  0.8908
 3045SOL     OW20767   4.226   1.675   3.723  0.0506 -0.6010 -0.1820
 3045SOL    HW120768   4.181   1.696   3.641  1.1996  0.3244 -0.5827
 3045SOL    HW220769   4.171   1.612   3.769 -1.1565  0.1466 -0.5932
 3046SOL     OW20770   2.979   2.216   2.032  0.2595 -0.1150 -0.3442
 3046SOL    HW120771   2.961   2.129   2.068 -0.6166 -0.6692 -2.1346
 3046SOL    HW220772   2.894   2.256   2.054  1.4334  2.1990 -0.0550
 3047SOL     OW20773   0.019   3.641   4.556  0.4286 -0.1176  0.6194
 3047SOL    HW120774   0.099   3.679   4.594 -0.9438  3.3296  0.1107
 3047SOL    HW220775   0.018   3.554   4.596  3.1657 -1.0069 -1.2978
 3048SOL     OW20776   3.622   1.652   2.174  0.3738  0.2627 -0.0105
 3048SOL    HW120777   3.584   1.590   2.236  1.4033 -2.7338 -2.3532
 3048SOL    HW220778   3.571   1.646   2.093  1.2947  1.9021 -0.7115
 3049SOL     OW20779   2.472   2.252   0.038  0.0375 -0.0425  0.0656
 3049SOL    HW120780   2.392   2.302   0.021  1.1616  1.4993 -0.6735
 3049SOL    HW220781   2.442   2.165   0.065  0.7812  0.0588  1.2117
 3050SOL     OW20782   1.028   1.601   8.174 -0.0660 -0.3122  0.2589
 3050SOL    HW120783   1.097   1.535   8.180  0.0746 -0.1509  0.3809
 3050SOL    HW220784   0.959   1.548   8.133  0.6418  0.8831 -2.4710
 3051SOL     OW20785   4.703   0.296   2.770 -0.3511 -0.3302  0.7476
 3051SOL    HW120786   0.052   0.282   2.726 -0.2235  1.2894  0.4629
 3051SOL    HW220787   4.723   0.345   2.850  2.3680 -0.7956  0.3565
 3052SOL     OW20788   3.274   2.974   1.546  0.0929  0.4597  0.2910
 3052SOL    HW120789   3.212   2.959   1.617  1.2073  0.0654  1.1952
 3052SOL    HW220790   3.230   2.928   1.475 -1.4798  2.7780 -0.2393
 3053SOL     OW20791   1.308   1.320   5.562 -0.3394 -0.1413  0.4956
 3053SOL    HW120792   1.322   1.267   5.640 -0.4848 -1.0482 -0.0944
 3053SOL    HW220793   1.214   1.332   5.572 -0.3081  0.4280  0.1314
 3054SOL     OW20794   2.976   1.157   8.752 -0.0298  0.0663 -0.8543
 3054SOL    HW120795   2.903   1.110   8.793  0.7997  0.4891  1.1342
 3054SOL    HW220796   2.939   1.240   8.723 -0.0082 -0.0252 -1.1420
 3055SOL     OW20797   3.721   0.364  15.812  0.1569 -0.0537 -0.0402
 3055SOL    HW120798   3.740   0.270  15.818 -0.4787 -0.2133 -0.4942
 3055SOL    HW220799   3.709   0.379  15.719 -2.1180  0.5046  0.3364
 3056SOL     OW20800   1.976   4.483   7.921  0.4019 -0.0463  0.1749
 3056SOL    HW120801   1.988   4.513   8.011 -0.6591  0.8448  0.0074
 3056SOL    HW220802   1.882   4.465   7.920  0.5004 -0.6235  1.1586
 3057SOL     OW20803   4.313   4.575   5.809 -1.0020 -0.4733  0.0214
 3057SOL    HW120804   4.277   4.600   5.724  3.0264 -0.6037 -1.6864
 3057SOL    HW220805   4.235   4.543   5.854  0.4330 -3.0679  0.6757
 3058SOL     OW20806   3.923   2.985   2.298 -0.1161  0.4831  0.2539
 3058SOL    HW120807   3.903   3.045   2.370 -1.1924  1.9977 -1.2812
 3058SOL    HW220808   3.991   3.037   2.254 -0.7847  2.5466  1.6627
 3059SOL     OW20809   0.253   1.754  14.037 -0.6715 -0.2216  0.4158
 3059SOL    HW120810   0.196   1.696  14.088  0.4175 -0.0942  1.7759
 3059SOL    HW220811   0.237   1.729  13.946 -1.7445 -0.7439  0.7384
 3060SOL     OW20812   2.425   2.807   7.582  0.1681  0.6820 -0.2019
 3060SOL    HW120813   2.474   2.726   7.597  1.5371  2.0425  2.6175
 3060SOL    HW220814   2.475   2.860   7.644  0.5427  0.2389 -0.1257
 3061SOL     OW20815   0.596   4.020  13.164 -0.0585 -0.2254 -0.0579
 3061SOL    HW120816   0.672   4.019  13.222 -0.3107  2.8837  0.3314
 3061SOL    HW220817   0.529   4.044  13.229  0.2989 -0.3522  0.3591
 3062SOL     OW20818   4.163   3.105   4.198  0.0089  1.0077 -0.0131
 3062SOL    HW120819   4.222   3.062   4.135  0.6450  0.6691  0.8039
 3062SOL    HW220820   4.144   3.039   4.264  1.0526 -0.3652 -1.0605
 3063SOL     OW20821   1.492   0.086   9.828  0.4353  0.0190  0.2952
 3063SOL    HW120822   1.557   0.053   9.891 -0.6904  1.2029  2.0724
 3063SOL    HW220823   1.464   0.167   9.869  0.4033  0.7235 -1.1244
 3064SOL     OW20824   4.175   0.733   0.281 -0.6424 -0.2555  0.0851
 3064SOL    HW120825   4.247   0.672   0.289  1.6393  2.3346 -0.5266
 3064SOL    HW220826   4.119   0.697   0.349  1.8099 -1.1439  1.6042
 3065SOL     OW20827   2.835   1.945   8.104  0.0959 -0.4541 -0.5458
 3065SOL    HW120828   2.802   1.977   8.020  0.5928  1.5406  0.0160
 3065SOL    HW220829   2.803   2.006   8.169 -0.4855 -0.5495 -0.7444
 3066SOL     OW20830   4.653   0.394   8.049  0.4220  0.3246  0.4476
 3066SOL    HW120831   4.646   0.440   8.132  0.3712 -1.9412  1.7111
 3066SOL    HW220832   0.005   0.356   8.063  0.2026 -0.0926  0.6757
 3067SOL     OW20833   0.050   2.185   7.353 -0.0790  0.0900  0.2299
 3067SOL    HW120834   0.022   2.185   7.261  1.7538  2.8857 -0.3230
 3067SOL    HW220835   4.703   2.215   7.393  0.5776  1.3360  0.6293
 3068SOL     OW20836   4.080   1.129  11.821  0.2562  0.3503  0.7832
 3068SOL    HW120837   4.102   1.216  11.787  3.1642 -0.3730  0.7650
 3068SOL    HW220838   4.030   1.157  11.897  0.6306 -2.9487  2.2584
 3069SOL     OW20839   4.368   2.684  16.143  0.1550  0.5740  0.4288
 3069SOL    HW120840   4.448   2.670  16.194  0.2331 -2.7860 -0.5771
 3069SOL    HW220841   4.310   2.648  16.210  0.5559  0.7367  0.8666
 3070SOL     OW20842   4.154   2.590   3.467 -0.3656  0.7013 -0.0292
 3070SOL    HW120843   4.194   2.675   3.446  0.7006  0.4739  1.1237
 3070SOL    HW220844   4.061   2.613   3.476 -0.2228  0.3676  2.2010
 3071SOL     OW20845   2.355   4.302  13.410 -0.4813 -0.2927 -0.1214
 3071SOL    HW120846   2.345   4.283  13.503  1.4431 -0.1054  0.1229
 3071SOL    HW220847   2.448   4.293  13.392 -0.0791  2.5644  0.4467
 3072SOL     OW20848   4.244   4.655   4.768 -0.3851 -0.0271  0.3919
 3072SOL    HW120849   4.268   4.570   4.805 -0.1535  0.4043  1.2381
 3072SOL    HW220850   4.316   4.708   4.803 -1.3493  0.7346  1.2410
 3073SOL     OW20851   1.142   1.896  13.419  0.1383 -0.1183 -0.1339
 3073SOL    HW120852   1.055   1.855  13.413 -0.6267  1.7082 -1.4181
 3073SOL    HW220853   1.165   1.877  13.510  2.9521  3.3158 -0.1492
 3074SOL     OW20854   4.238   2.248   6.216  0.1606  0.1635 -0.2370
 3074SOL    HW120855   4.196   2.183   6.273 -0.8438  2.4685  1.6357
 3074SOL    HW220856   4.191   2.229   6.135  1.3428 -0.4056 -0.7842
 3075SOL     OW20857   2.764   2.777  15.866  0.1428 -0.0196  0.0817
 3075SOL    HW120858   2.674   2.746  15.872  0.1829 -0.7648 -2.9406
 3075SOL    HW220859   2.773   2.844  15.933 -0.1593 -0.5417  0.6433
 3076SOL     OW20860   1.817   0.730  15.385  0.1035 -1.0154  0.2209
 3076SOL    HW120861   1.739   0.783  15.369  0.1824 -1.5517 -1.9624
 3076SOL    HW220862   1.801   0.661  15.322 -0.8340  1.5731 -2.3615
 3077SOL     OW20863   2.273   0.763   7.811  0.5563  0.8062 -0.0180
 3077SOL    HW120864   2.219   0.733   7.737 -0.4505  0.0556  1.0143
 3077SOL    HW220865   2.336   0.815   7.762  1.2483 -0.4115 -0.4358
 3078SOL     OW20866   0.096   2.146   1.919 -0.0222  0.5744  0.0509
 3078SOL    HW120867   0.044   2.093   1.980  1.8710 -0.1347  1.0663
 3078SOL    HW220868   0.034   2.214   1.893 -0.5483 -0.6098 -1.7899
 3079SOL     OW20869   2.660   3.307   8.136  0.0931 -0.3338 -0.2994
 3079SOL    HW120870   2.620   3.224   8.109  1.2858 -0.3855 -1.9223
 3079SOL    HW220871   2.602   3.360   8.081 -0.9460 -0.1453  0.9764
 3080SOL     OW20872   4.606   3.043  16.028 -0.4199 -0.5510  0.3457
 3080SOL    HW120873   4.663   3.060  16.103  0.8421 -0.2466 -0.6818
 3080SOL    HW220874   4.665   3.011  15.960 -0.1454  0.2775  0.2034
 3081SOL     OW20875   3.831   3.946  16.369  0.4685 -0.2980 -0.2130
 3081SOL    HW120876   3.759   3.933  16.431  1.3872 -0.5357  0.7931
 3081SOL    HW220877   3.806   3.895  16.292 -3.0771 -0.3843  0.9890
 3082SOL     OW20878   3.967   1.787   1.385  0.3658  0.7680  0.3176
 3082SOL    HW120879   3.875   1.764   1.393  0.1331  1.4211 -0.4535
 3082SOL    HW220880   3.969   1.878   1.413  0.7751  0.7656  0.2987
 3083SOL     OW20881   2.244   4.003   2.935  0.0489 -0.1690  0.3224
 3083SOL    HW120882   2.181   4.072   2.913 -0.0642 -0.8158 -1.3591
 3083SOL    HW220883   2.185   3.931   2.956 -0.7184 -0.1803 -1.8220
 3084SOL     OW20884   3.656   0.266   8.190 -0.1928  0.2736  0.1729
 3084SOL    HW120885   3.722   0.335   8.183 -0.4401  0.4799 -0.1400
 3084SOL    HW220886   3.626   0.280   8.280 -0.2110 -0.7319  0.3232
 3085SOL     OW20887   3.291   0.427   3.055 -0.0731 -0.6035  0.4251
 3085SOL    HW120888   3.309   0.341   3.017 -1.4970  0.1836 -2.0240
 3085SOL    HW220889   3.377   0.446   3.093 -0.6691 -0.3808  1.6405
 3086SOL     OW20890   0.535   4.553   1.113 -0.1232  0.2742  0.4520
 3086SOL    HW120891   0.558   4.645   1.100 -1.5388  0.4407 -0.8011
 3086SOL    HW220892   0.441   4.551   1.100 -0.1894 -1.0042  1.1219
 3087SOL     OW20893   4.573   3.270   5.132  0.3685 -0.4056 -0.1632
 3087SOL    HW120894   4.644   3.326   5.100  0.8003 -0.7068  0.2671
 3087SOL    HW220895   4.578   3.198   5.069 -0.1814  2.0310 -3.0170
 3088SOL     OW20896   1.602   3.737   4.529  0.2707 -0.4953 -0.8343
 3088SOL    HW120897   1.522   3.723   4.581  0.4420 -0.4513 -0.5565
 3088SOL    HW220898   1.646   3.802   4.585 -0.7565 -0.8963  0.4534
 3089SOL     OW20899   3.922   2.405  13.863 -0.4964  0.5106 -0.4545
 3089SOL    HW120900   3.827   2.400  13.865 -0.5012  0.4334 -1.0076
 3089SOL    HW220901   3.927   2.493  13.901  0.9291  1.2451 -2.3134
 3090SOL     OW20902   2.106   3.663   2.708 -0.4284  0.7265  0.8621
 3090SOL    HW120903   2.033   3.610   2.678  0.5453  0.3239 -0.8434
 3090SOL    HW220904   2.146   3.606   2.774  0.8834  1.7549  0.9664
 3091SOL     OW20905   1.382   2.018  16.037 -0.0682  0.1641 -0.0701
 3091SOL    HW120906   1.452   2.035  15.975 -0.8864  2.8681 -0.2405
 3091SOL    HW220907   1.311   2.002  15.975 -1.6182  5.8952  0.2308
 3092SOL     OW20908   0.608   0.206   4.901  0.1053 -0.1282  0.3672
 3092SOL    HW120909   0.663   0.257   4.842  0.9096 -1.9848 -0.4475
 3092SOL    HW220910   0.556   0.162   4.834  0.0814  3.0359 -1.7197
 3093SOL     OW20911   0.779   3.944  17.323 -0.0018 -0.0237 -0.3198
 3093SOL    HW120912   0.792   3.876  17.389  1.8140  0.0335 -0.6191
 3093SOL    HW220913   0.850   4.004  17.346  1.1604 -1.7543  0.6472
 3094SOL     OW20914   4.158   3.265   4.420 -0.3233 -0.0105 -0.2566
 3094SOL    HW120915   4.182   3.228   4.335  1.1028  0.2595  0.0186
 3094SOL    HW220916   4.234   3.313   4.454  0.5031  0.2816 -2.4904
 3095SOL     OW20917   3.812   3.112   6.953  0.8021 -0.3835 -0.5704
 3095SOL    HW120918   3.785   3.020   6.946 -2.4771  0.7848 -3.2817
 3095SOL    HW220919   3.826   3.112   7.048 -0.8499 -1.5217 -0.3265
 3096SOL     OW20920   3.245   2.216  17.100  0.6908 -0.2700 -0.1308
 3096SOL    HW120921   3.231   2.248  17.189 -0.4528  1.3324 -0.8895
 3096SOL    HW220922   3.279   2.127  17.111  0.4276 -0.5475 -1.4794
 3097SOL     OW20923   0.667   1.520   6.977  0.4296  0.3315 -0.7399
 3097SOL    HW120924   0.579   1.498   6.945 -0.0737  3.1284 -1.2648
 3097SOL    HW220925   0.642   1.580   7.047 -0.6508  1.1368 -1.8221
 3098SOL     OW20926   2.903   0.257  17.647  0.0692 -0.5337  0.2266
 3098SOL    HW120927   2.822   0.241  17.696  0.1137 -1.1954  0.0801
 3098SOL    HW220928   2.959   0.299  17.712  1.0841 -1.3651 -0.1001
 3099SOL     OW20929   1.935   3.290   3.929 -0.0990 -0.2144 -0.5187
 3099SOL    HW120930   1.972   3.342   3.858  1.5275  1.7137  1.7515
 3099SOL    HW220931   1.856   3.341   3.949  0.2884  0.5500 -0.9306
 3100SOL     OW20932   2.068   3.466   3.761  0.5723 -0.2887  0.2383
 3100SOL    HW120933   2.049   3.526   3.833 -1.3912 -0.0058 -0.5295
 3100SOL    HW220934   2.160   3.487   3.746 -0.0604  2.3717  0.1868
 3101SOL     OW20935   0.049   4.683  10.832  0.0546 -0.0131 -0.1587
 3101SOL    HW120936   0.100   0.024  10.863  0.9519 -0.3329 -0.8553
 3101SOL    HW220937   0.007   4.662  10.916  0.3884  0.2078  0.0673
 3102SOL     OW20938   3.661   4.547   5.742 -0.3882  0.0258  0.8120
 3102SOL    HW120939   3.741   4.593   5.766  0.9158 -0.4039 -2.6460
 3102SOL    HW220940   3.621   4.551   5.829 -0.6342 -1.1838  0.7580
 3103SOL     OW20941   0.166   1.020   6.052 -0.4025 -0.0774  0.2649
 3103SOL    HW120942   0.139   0.930   6.070 -0.4455  0.5223  3.2184
 3103SOL    HW220943   0.241   1.006   5.995 -1.3569 -1.0933 -0.7467
 3104SOL     OW20944   1.502   1.134   8.502  0.3286  0.0332 -0.3611
 3104SOL    HW120945   1.542   1.215   8.534  2.2792 -0.5737 -1.2330
 3104SOL    HW220946   1.574   1.095   8.452  1.4870  0.5785  0.8922
 3105SOL     OW20947   4.556   3.073   9.364 -0.2755 -0.4329 -0.0302
 3105SOL    HW120948   4.593   3.099   9.448  2.8843 -1.3660 -1.1541
 3105SOL    HW220949   4.612   3.093   9.289  1.7492  0.0294  1.6270
 3106SOL     OW20950   4.287   0.443   2.999 -0.4405 -0.1206  0.3274
 3106SOL    HW120951   4.222   0.479   2.939  0.7017 -0.4646 -1.0931
 3106SOL    HW220952   4.271   0.351   2.977 -2.2899 -0.1383  1.7044
 3107SOL     OW20953   3.117   1.414  13.282 -0.0762  0.1548  0.5937
 3107SOL    HW120954   3.130   1.374  13.196  0.8356  0.5252  0.5625
 3107SOL    HW220955   3.191   1.475  13.285 -0.8493  1.2813 -2.8805
 3108SOL     OW20956   0.959   3.991   3.489 -0.2688  0.2309 -0.6787
 3108SOL    HW120957   0.892   3.966   3.552 -0.8198  1.7439 -0.6682
 3108SOL    HW220958   1.022   4.041   3.540  0.7579 -1.1767 -0.5733
 3109SOL     OW20959   4.289   0.548   2.412 -0.5132  0.4569  0.3769
 3109SOL    HW120960   4.374   0.523   2.449 -0.6304  0.9481  0.9930
 3109SOL    HW220961   4.269   0.624   2.467  0.8990 -0.8458  2.7034
 3110SOL     OW20962   2.668   3.845  13.065 -0.1737 -0.2167  0.1620
 3110SOL    HW120963   2.624   3.926  13.094 -1.3391 -0.9828  0.5547
 3110SOL    HW220964   2.671   3.793  13.145  1.3093 -0.1142  0.1714
 3111SOL     OW20965   4.390   3.612   6.119  0.1878 -0.0326 -0.5093
 3111SOL    HW120966   4.333   3.672   6.167  1.6762  0.8837  0.1184
 3111SOL    HW220967   4.416   3.670   6.047  2.9871 -0.8385 -0.1739
 3112SOL     OW20968   1.433   4.638   1.635  0.1084  0.3364  0.4654
 3112SOL    HW120969   1.356   4.626   1.580 -1.4483 -0.7169  2.8856
 3112SOL    HW220970   1.497   4.641   1.564 -0.8295  1.2653 -0.3268
 3113SOL     OW20971   4.038   3.731   8.801 -0.1873 -0.1557  0.3804
 3113SOL    HW120972   3.986   3.725   8.721  0.2475  1.1784 -0.0110
 3113SOL    HW220973   4.100   3.798   8.773  0.0284 -1.4332 -2.1746
 3114SOL     OW20974   3.458   2.041   4.913 -0.9216 -0.3455  0.3089
 3114SOL    HW120975   3.540   2.011   4.875 -1.7216  0.1769 -1.8334
 3114SOL    HW220976   3.489   2.114   4.967 -0.6478  0.5780 -1.1073
 3115SOL     OW20977   3.934   3.161   3.875 -0.0823  0.3986 -0.3279
 3115SOL    HW120978   4.017   3.194   3.839 -0.0802  0.3809 -0.3389
 3115SOL    HW220979   3.937   3.190   3.967  1.6672 -2.5355  0.5627
 3116SOL     OW20980   3.949   2.216  10.972 -0.2595  0.3439 -0.3012
 3116SOL    HW120981   3.995   2.286  10.924 -0.1872 -0.7752 -1.8898
 3116SOL    HW220982   3.903   2.176  10.898 -1.9682  0.8231  0.5204
 3117SOL     OW20983   0.838   0.306   0.806  0.7390  0.1332 -0.1467
 3117SOL    HW120984   0.780   0.237   0.838  1.9974 -0.4197  0.9285
 3117SOL    HW220985   0.792   0.381   0.845 -0.5138 -0.2817 -0.8109
 3118SOL     OW20986   2.114   1.587  16.421  0.1079 -0.2577  0.3429
 3118SOL    HW120987   2.106   1.623  16.509 -0.6046 -2.1716  1.0637
 3118SOL    HW220988   2.194   1.535  16.430  1.2963  1.8010  1.5771
 3119SOL     OW20989   3.853   4.046   3.734 -0.0320  0.7060 -0.0240
 3119SOL    HW120990   3.863   3.963   3.781 -1.1023  0.7321  0.2603
 3119SOL    HW220991   3.766   4.019   3.703 -0.5346 -0.4363  2.3565
 3120SOL     OW20992   0.530   2.712   8.527 -0.0605 -0.2603 -0.3140
 3120SOL    HW120993   0.609   2.714   8.580  0.6709 -0.7233 -1.3896
 3120SOL    HW220994   0.497   2.622   8.531 -3.0673  0.8954  1.7891
 3121SOL     OW20995   4.296   3.352   1.271 -0.2103 -0.3652 -0.1500
 3121SOL    HW120996   4.213   3.308   1.259  2.1361 -4.4901 -1.2082
 3121SOL    HW220997   4.335   3.280   1.321  0.5262  0.3569  0.3347
 3122SOL     OW20998   3.018   0.108   0.510  0.2010 -0.8210  0.1750
 3122SOL    HW120999   3.013   0.048   0.436  1.3653 -1.3689  0.5404
 3122SOL    HW221000   2.974   0.186   0.477 -0.0232 -0.7352  0.6857
 3123SOL     OW21001   3.432   1.709   3.614  0.3178 -0.3239 -0.3971
 3123SOL    HW121002   3.449   1.799   3.643  0.5100  0.1370 -1.9133
 3123SOL    HW221003   3.346   1.728   3.577  0.3185  1.4843  0.5290
 3124SOL     OW21004   3.387   4.293   9.442  0.1348  0.5359 -0.6555
 3124SOL    HW121005   3.360   4.380   9.471 -2.7545  0.7914 -4.0773
 3124SOL    HW221006   3.422   4.243   9.516  0.4211  0.0699 -1.1072
 3125SOL     OW21007   3.557   3.277   8.378 -0.1532  0.1753  0.0531
 3125SOL    HW121008   3.484   3.308   8.433 -2.3950 -1.1463 -2.1718
 3125SOL    HW221009   3.599   3.204   8.424 -0.1533  1.4908  2.1384
 3126SOL     OW21010   1.538   1.705  15.113  0.3693  0.0510  0.4255
 3126SOL    HW121011   1.442   1.711  15.109  0.4620  1.0397 -0.3125
 3126SOL    HW221012   1.550   1.639  15.044  0.3548 -1.4969  1.9083
 3127SOL     OW21013   3.499   2.604   3.626  0.4721 -0.0119 -0.4122
 3127SOL    HW121014   3.510   2.641   3.714  1.0757 -0.2155 -0.3954
 3127SOL    HW221015   3.518   2.511   3.642 -2.6701 -0.5851 -0.1501
 3128SOL     OW21016   2.629   3.508  16.688 -0.2161  0.3483  0.3823
 3128SOL    HW121017   2.544   3.493  16.729 -0.3884  1.3910  0.3998
 3128SOL    HW221018   2.669   3.567  16.752 -0.3809  2.1319 -1.1538
 3129SOL     OW21019   1.863   3.705   9.094  0.1618  0.1986 -0.3515
 3129SOL    HW121020   1.868   3.800   9.106 -1.3187 -0.0070  1.8748
 3129SOL    HW221021   1.860   3.680   9.187  0.8845 -0.4085 -0.4888
 3130SOL     OW21022   4.734   3.284   7.093 -0.4587 -0.0501 -0.3985
 3130SOL    HW121023   4.684   3.340   7.033  0.3076 -0.6603 -1.6113
 3130SOL    HW221024   0.004   3.351   7.161 -1.8865  0.2694 -0.6036
 3131SOL     OW21025   1.137   1.013  15.376 -0.7586 -0.3511  0.3652
 3131SOL    HW121026   1.083   1.093  15.377 -3.8529 -2.4704  2.5573
 3131SOL    HW221027   1.226   1.049  15.375 -0.3182 -1.4364  0.5850
 3132SOL     OW21028   3.270   0.224   4.966  0.5082 -0.1769  0.1659
 3132SOL    HW121029   3.242   0.209   4.876  0.4271 -0.4894  0.2430
 3132SOL    HW221030   3.365   0.229   4.953  0.3710 -0.7778 -1.0547
 3133SOL     OW21031   2.282   4.280   7.783 -0.2001  0.1438  0.5316
 3133SOL    HW121032   2.334   4.201   7.771 -0.2427  0.2599 -0.4520
 3133SOL    HW221033   2.326   4.350   7.736 -1.0194 -1.3755 -2.5110
 3134SOL     OW21034   2.969   1.239   6.062  0.3317  0.4605 -0.0704
 3134SOL    HW121035   2.964   1.145   6.041 -0.7841  0.1470  1.5665
 3134SOL    HW221036   3.013   1.237   6.147  1.5038 -0.3988 -0.6911
 3135SOL     OW21037   0.290   3.945   5.249  0.6916  0.7264 -0.2339
 3135SOL    HW121038   0.262   4.035   5.270 -0.5222  0.5414 -1.0501
 3135SOL    HW221039   0.312   3.906   5.334 -0.0135  1.9966  0.5534
 3136SOL     OW21040   3.948   1.787  15.404  0.5952  0.1426 -0.0817
 3136SOL    HW121041   3.981   1.874  15.380 -1.0467  0.6955 -0.3076
 3136SOL    HW221042   4.025   1.729  15.402  0.4619  0.0051 -1.8899
 3137SOL     OW21043   3.398   4.691   6.264 -0.3659  0.2755 -0.4163
 3137SOL    HW121044   3.319   4.666   6.216 -0.8421  0.1372  0.4336
 3137SOL    HW221045   3.357   4.702   6.350  1.1109  1.2904  0.1536
 3138SOL     OW21046   0.137   0.261   5.343 -0.1116  0.1361 -1.2858
 3138SOL    HW121047   0.078   0.283   5.270 -0.3027 -2.4241 -1.9047
 3138SOL    HW221048   0.139   0.344   5.390  0.2972 -0.0850 -0.9152
 3139SOL     OW21049   3.380   3.889  16.427  0.8571  0.4764 -0.4725
 3139SOL    HW121050   3.382   3.794  16.420 -1.9943  0.5480 -2.4406
 3139SOL    HW221051   3.467   3.902  16.464  1.5860 -1.4726 -1.5135
 3140SOL     OW21052   1.170   1.875   2.259  0.0489 -0.4235  0.2625
 3140SOL    HW121053   1.254   1.846   2.294 -0.5467  1.3276  3.1649
 3140SOL    HW221054   1.163   1.968   2.283 -0.8710 -0.6551  0.8754
 3141SOL     OW21055   1.012   3.071  13.628  0.2318  0.4620 -0.3272
 3141SOL    HW121056   0.998   2.977  13.627  0.5581  0.3808  3.5561
 3141SOL    HW221057   1.107   3.072  13.621  0.0766  1.2991 -2.2965
 3142SOL     OW21058   2.450   0.442   2.960 -0.0158 -0.2702 -0.3405
 3142SOL    HW121059   2.450   0.369   2.897  0.0818  0.9701 -1.7634
 3142SOL    HW221060   2.541   0.468   2.966 -0.2540  0.1120  1.5573
 3143SOL     OW21061   4.106   0.595   4.535 -0.1034 -0.8608  0.9205
 3143SOL    HW121062   4.122   0.539   4.459 -0.7116  0.6495 -0.3173
 3143SOL    HW221063   4.050   0.544   4.594 -2.3910  1.2832  0.6280
 3144SOL     OW21064   1.654   4.620   7.239  0.9106 -0.4107  0.5397
 3144SOL    HW121065   1.685   4.531   7.218 -0.6619 -0.0292 -3.3477
 3144SOL    HW221066   1.700   4.626   7.323  2.3071  0.0939 -0.2508
 3145SOL     OW21067   2.333   2.661  12.548  0.6405 -0.6302 -0.2748
 3145SOL    HW121068   2.316   2.755  12.547  0.5500 -0.6435 -0.0898
 3145SOL    HW221069   2.264   2.623  12.494  1.1151 -0.6719 -0.8549
 3146SOL     OW21070   3.531   0.584  14.845  0.0134 -0.0657 -0.1658
 3146SOL    HW121071   3.613   0.542  14.873  0.0078 -0.0258 -0.0896
 3146SOL    HW221072   3.562   0.664  14.802  0.1840 -2.0905 -3.7460
 3147SOL     OW21073   0.010   0.191   1.501  0.1060  0.3940 -0.5530
 3147SOL    HW121074   0.070   0.118   1.516  0.8672  0.6372 -2.5053
 3147SOL    HW221075   0.052   0.267   1.542 -0.8333 -0.0388  1.2294
 3148SOL     OW21076   0.653   0.888   7.903  0.1237 -0.0303 -0.2680
 3148SOL    HW121077   0.572   0.925   7.936 -0.1329 -0.6911 -0.1517
 3148SOL    HW221078   0.668   0.932   7.820  1.7621  1.1982  0.6728
 3149SOL     OW21079   4.566   2.104   7.711  0.0157 -0.2368 -0.5804
 3149SOL    HW121080   4.587   2.071   7.799 -1.2278 -0.6411 -0.4402
 3149SOL    HW221081   4.493   2.053   7.677 -0.3543 -0.1414  0.0584
 3150SOL     OW21082   3.230   1.510  15.835 -0.8076 -0.0746 -0.3060
 3150SOL    HW121083   3.141   1.478  15.827 -0.5824 -0.4064 -1.4263
 3150SOL    HW221084   3.215   1.602  15.856 -2.5127 -0.3903 -0.1359
 3151SOL     OW21085   1.847   1.810   2.463  0.2645 -0.1919  0.3558
 3151SOL    HW121086   1.895   1.729   2.445 -1.6413 -1.7914  2.5406
 3151SOL    HW221087   1.907   1.862   2.409 -0.4399  1.3787  1.0941
 3152SOL     OW21088   4.300   1.599   8.058 -0.0568 -0.5697  0.0417
 3152SOL    HW121089   4.263   1.587   7.970 -2.4990 -0.3499  1.0329
 3152SOL    HW221090   4.340   1.515   8.079  1.5752  0.0357 -0.6891
 3153SOL     OW21091   3.219   2.655  12.105 -0.3261 -0.1868 -0.0054
 3153SOL    HW121092   3.245   2.603  12.028 -0.3978 -1.2970  0.7178
 3153SOL    HW221093   3.246   2.600  12.178 -0.0843  1.1227  0.8784
 3154SOL     OW21094   0.831   0.155   3.238  0.0942  0.4686  0.0960
 3154SOL    HW121095   0.921   0.185   3.228  0.5020 -0.1416  1.8935
 3154SOL    HW221096   0.788   0.191   3.160  0.3652 -2.2533 -1.2867
 3155SOL     OW21097   4.493   1.232   2.105  0.5671 -0.0612  0.2778
 3155SOL    HW121098   4.577   1.186   2.097  2.3991  2.8685  2.6033
 3155SOL    HW221099   4.428   1.164   2.094  0.7285 -0.2786  0.6809
 3156SOL     OW21100   4.238   0.142   9.698 -0.1001 -0.0243 -0.5315
 3156SOL    HW121101   4.198   0.225   9.723  0.2986 -0.2412  0.7979
 3156SOL    HW221102   4.167   0.078   9.699  0.1382 -0.2924 -0.6162
 3157SOL     OW21103   3.001   2.338   2.805  0.0507 -0.9304 -0.2720
 3157SOL    HW121104   3.095   2.354   2.819 -0.0987 -0.8697  0.6670
 3157SOL    HW221105   2.982   2.402   2.736  0.2115 -1.0839 -0.4580
 3158SOL     OW21106   0.866   2.530   4.527 -0.2415 -0.8223 -0.7898
 3158SOL    HW121107   0.784   2.578   4.533  0.8082  0.9252 -0.3753
 3158SOL    HW221108   0.887   2.546   4.435  2.1744  0.2932 -0.0570
 3159SOL     OW21109   1.656   2.792   9.354  0.2610 -0.0809 -0.1949
 3159SOL    HW121110   1.575   2.785   9.304  0.1027  2.2485 -0.2736
 3159SOL    HW221111   1.643   2.887   9.360 -0.8492 -0.2171 -0.4623
 3160SOL     OW21112   3.672   2.722   8.029 -0.2708  0.4015  0.7053
 3160SOL    HW121113   3.679   2.740   8.123 -0.6482 -1.8478  1.1519
 3160SOL    HW221114   3.716   2.801   7.998  0.3321 -0.2446 -0.0766
 3161SOL     OW21115   4.076   3.855  10.597 -0.4016 -0.0329 -0.6830
 3161SOL    HW121116   4.127   3.866  10.517  0.5007 -0.2624 -0.1347
 3161SOL    HW221117   4.098   3.927  10.655  0.4404 -1.4142  0.7314
 3162SOL     OW21118   1.590   1.453   9.221  0.3281  0.0561  0.2261
 3162SOL    HW121119   1.661   1.401   9.258  0.7335  0.5030  0.0865
 3162SOL    HW221120   1.616   1.539   9.255  2.3031 -0.7348  0.7146
 3163SOL     OW21121   3.862   1.677   8.550 -0.4165 -0.1715 -0.1837
 3163SOL    HW121122   3.868   1.739   8.477  1.5183  0.6623  0.6858
 3163SOL    HW221123   3.940   1.627   8.525  1.6562  2.9209  0.0255
 3164SOL     OW21124   0.714   4.381   8.795  0.0468  0.7409  0.1674
 3164SOL    HW121125   0.698   4.350   8.884  1.6299 -1.1861 -0.2099
 3164SOL    HW221126   0.653   4.329   8.743  0.1822  1.8257 -1.0836
 3165SOL     OW21127   1.486   2.268   7.934  0.0285 -0.3413  0.1119
 3165SOL    HW121128   1.470   2.360   7.952 -0.0697 -0.0357 -1.5604
 3165SOL    HW221129   1.401   2.224   7.935 -0.5004  0.7082  1.5413
 3166SOL     OW21130   0.744   3.734   2.316  0.9191 -0.7659 -0.3667
 3166SOL    HW121131   0.784   3.664   2.265  2.0693  1.1321 -2.0901
 3166SOL    HW221132   0.822   3.761   2.366  1.1800 -2.0383 -0.0793
 3167SOL     OW21133   4.634   1.858   7.178  0.0344  0.5839 -0.9945
 3167SOL    HW121134   4.717   1.904   7.167 -0.2657  0.9591 -1.6986
 3167SOL    HW221135   4.656   1.767   7.158 -0.3387  0.1574  0.5395
 3168SOL     OW21136   2.154   2.316   7.178  0.4551  0.6230  0.6868
 3168SOL    HW121137   2.098   2.261   7.123  2.8733  0.3874 -1.5273
 3168SOL    HW221138   2.177   2.250   7.243 -2.1731  0.3878  1.3853
 3169SOL     OW21139   1.163   0.200   6.201  0.4995  0.3228  0.3568
 3169SOL    HW121140   1.241   0.251   6.220  0.9298 -0.2166  0.0335
 3169SOL    HW221141   1.188   0.151   6.123  1.6749  0.9084  0.3762
 3170SOL     OW21142   2.190   1.041   7.851 -0.0838 -0.2858 -0.3860
 3170SOL    HW121143   2.265   0.998   7.893  0.7538  2.0804  0.5176
 3170SOL    HW221144   2.122   0.975   7.862  0.9197 -0.9919  1.6994
 3171SOL     OW21145   3.165   1.083   5.261 -0.5503 -0.3315 -0.4583
 3171SOL    HW121146   3.106   1.081   5.337  1.7280 -0.9353  1.2727
 3171SOL    HW221147   3.113   1.130   5.195 -0.4691  0.5401  0.1037
 3172SOL     OW21148   0.273   0.704   7.938  0.2149 -0.2469  0.0009
 3172SOL    HW121149   0.178   0.694   7.948 -0.1077  2.2794 -0.5949
 3172SOL    HW221150   0.286   0.795   7.963  0.4256 -0.0169 -0.9559
 3173SOL     OW21151   4.686   2.838  12.441 -0.4152 -0.8801  0.3804
 3173SOL    HW121152   4.674   2.779  12.515  0.3471 -0.0981  1.1306
 3173SOL    HW221153   4.725   2.920  12.473 -1.7279 -0.7348  1.5995
 3174SOL     OW21154   2.915   1.015   4.670  0.2287 -0.2078 -0.3693
 3174SOL    HW121155   2.945   1.068   4.597  1.0321  1.0805  0.8865
 3174SOL    HW221156   2.977   1.050   4.734  1.1054  0.8024 -1.7695
 3175SOL     OW21157   3.867   3.088  12.162 -0.2236  0.1106  0.3322
 3175SOL    HW121158   3.891   3.180  12.158 -1.4859  0.4128 -0.1300
 3175SOL    HW221159   3.772   3.084  12.175 -0.2895  0.3845 -0.0748
 3176SOL     OW21160   0.072   1.496  11.405 -0.1626  0.0157  0.0866
 3176SOL    HW121161   0.037   1.515  11.318  0.4877  0.1043 -0.1572
 3176SOL    HW221162   0.160   1.535  11.403  0.9013 -2.4039  1.1650
 3177SOL     OW21163   3.508   3.809  11.785 -0.5463  0.1839  0.5487
 3177SOL    HW121164   3.436   3.864  11.816 -0.3173  1.3753 -1.0455
 3177SOL    HW221165   3.544   3.870  11.721 -1.5283 -2.2087 -2.2936
 3178SOL     OW21166   3.355   1.383   7.614  0.0448 -0.2013 -0.2235
 3178SOL    HW121167   3.399   1.455   7.660  0.9585 -1.2997  0.6089
 3178SOL    HW221168   3.409   1.356   7.540  0.2698  1.0561 -0.5279
 3179SOL     OW21169   0.264   3.997   4.794  0.9395  0.4776  0.4136
 3179SOL    HW121170   0.215   3.915   4.788  0.3001  1.0776 -2.6144
 3179SOL    HW221171   0.313   3.994   4.876  1.2775  2.3478  0.2926
 3180SOL     OW21172   4.273   1.319  13.450  0.2441 -0.2321  0.0546
 3180SOL    HW121173   4.204   1.259  13.423  1.4920 -1.6570  0.0765
 3180SOL    HW221174   4.349   1.278  13.409  0.4477  0.3773 -0.1880
 3181SOL     OW21175   0.492   1.669   6.685  0.8640 -0.2878  0.2205
 3181SOL    HW121176   0.488   1.598   6.749  1.1381 -0.3959  0.1172
 3181SOL    HW221177   0.584   1.691   6.699  0.3194  2.8545 -1.0238
 3182SOL     OW21178   2.027   3.992   6.424  0.0572  0.5490 -0.0854
 3182SOL    HW121179   1.989   3.988   6.512 -0.4425 -1.5739 -0.4222
 3182SOL    HW221180   2.119   3.977   6.445  0.3027  1.5102 -0.4662
 3183SOL     OW21181   0.179   4.228  11.484 -0.0348 -0.2427 -0.0722
 3183SOL    HW121182   0.100   4.247  11.432  0.3404  1.0628 -0.1679
 3183SOL    HW221183   0.154   4.248  11.574 -0.6683 -1.0616 -0.0634
 3184SOL     OW21184   1.801   1.971   8.697 -0.3092  0.1546 -0.1611
 3184SOL    HW121185   1.766   1.930   8.776 -0.1623  2.4264  1.0920
 3184SOL    HW221186   1.728   1.965   8.636 -1.2829 -0.8532  1.0913
 3185SOL     OW21187   4.115   0.375   9.374 -0.6074  0.3920 -0.3582
 3185SOL    HW121188   4.098   0.396   9.282  0.0550  0.8780 -0.3655
 3185SOL    HW221189   4.144   0.459   9.410  0.4275 -0.9535  1.9603
 3186SOL     OW21190   2.452   1.864   5.640  0.4075 -0.2824  0.3429
 3186SOL    HW121191   2.394   1.791   5.618 -0.0622  1.0358 -2.7327
 3186SOL    HW221192   2.392   1.916   5.693  0.2657  0.6781 -0.7656
 3187SOL     OW21193   1.787   1.096   1.026  0.4815  0.3918  0.5810
 3187SOL    HW121194   1.784   1.016   0.973 -2.1615  1.1893 -0.4884
 3187SOL    HW221195   1.696   1.105   1.054  1.4195  0.5575  3.6376
 3188SOL     OW21196   0.464   0.635   1.210 -0.3027  0.1761  0.6262
 3188SOL    HW121197   0.497   0.545   1.212 -0.8052 -0.0098  0.4218
 3188SOL    HW221198   0.546   0.682   1.198 -0.0519 -0.8153 -1.6579
 3189SOL     OW21199   1.421   3.985   5.725 -0.1768 -0.6024  0.0362
 3189SOL    HW121200   1.459   3.924   5.662  1.4634 -0.4961  0.9252
 3189SOL    HW221201   1.352   3.930   5.764  0.3376 -1.2038  0.0947
 3190SOL     OW21202   1.243   1.349   1.485  0.6648 -0.1228  0.0990
 3190SOL    HW121203   1.243   1.259   1.452 -2.1244 -1.1545  2.9289
 3190SOL    HW221204   1.198   1.337   1.569 -0.2748  0.1837 -0.3600
 3191SOL     OW21205   2.526   2.156   6.408  0.1940 -0.1360 -0.7544
 3191SOL    HW121206   2.599   2.212   6.381 -0.5711  1.2677  0.1135
 3191SOL    HW221207   2.471   2.233   6.421 -0.5897 -0.7122 -0.6876
 3192SOL     OW21208   1.529   0.426   4.443  0.2865 -0.3627  0.0324
 3192SOL    HW121209   1.593   0.357   4.461  0.6514  0.3948  1.6191
 3192SOL    HW221210   1.467   0.421   4.516 -0.3200 -3.9581 -0.7502
 3193SOL     OW21211   0.503   1.630  14.333  0.1205  0.5733 -0.2788
 3193SOL    HW121212   0.435   1.569  14.305 -0.9741  2.6920 -2.2258
 3193SOL    HW221213   0.568   1.622  14.264 -0.5875  1.6883 -1.0910
 3194SOL     OW21214   2.637   3.058   6.510  0.2292  0.0331  0.1160
 3194SOL    HW121215   2.581   2.985   6.534 -1.5885  1.5685  0.5783
 3194SOL    HW221216   2.707   3.035   6.571  2.7101 -0.6310 -2.9474
 3195SOL     OW21217   1.020   2.750  12.979 -0.3136 -0.0768  0.3086
 3195SOL    HW121218   0.948   2.734  12.918  0.8495  0.7872 -1.2942
 3195SOL    HW221219   1.021   2.678  13.042  0.1715 -1.0509 -0.8092
 3196SOL     OW21220   3.767   1.236   1.298  0.6299  0.2190  0.2997
 3196SOL    HW121221   3.806   1.215   1.383 -1.0044  0.2440  1.0618
 3196SOL    HW221222   3.801   1.319   1.266  0.7196  0.0942  0.0724
 3197SOL     OW21223   3.166   3.680   4.516 -0.3566 -0.5120  0.3133
 3197SOL    HW121224   3.086   3.645   4.477 -0.2003  0.0677 -0.5200
 3197SOL    HW221225   3.228   3.668   4.443  0.0518  0.9746  0.4150
 3198SOL     OW21226   0.469   0.377  11.503 -0.4969 -0.2389  0.8922
 3198SOL    HW121227   0.442   0.442  11.567 -0.6382  2.2510 -1.7079
 3198SOL    HW221228   0.560   0.353  11.520 -0.6246 -2.3038 -1.2312
 3199SOL     OW21229   4.044   3.119   3.334  0.3137 -0.6335  0.0261
 3199SOL    HW121230   4.023   3.100   3.243  0.8694 -2.6371  0.3207
 3199SOL    HW221231   4.136   3.093   3.329  0.3743 -0.4833  0.3470
 3200SOL     OW21232   3.537   0.177   2.722 -0.6365 -0.2747 -1.1553
 3200SOL    HW121233   3.577   0.260   2.750 -4.6911  0.8547  1.2930
 3200SOL    HW221234   3.452   0.216   2.698 -1.3070 -1.1693 -0.2006
 3201SOL     OW21235   4.053   3.992   4.392 -0.4514 -0.7799  0.6808
 3201SOL    HW121236   4.057   4.088   4.398  2.3221 -0.8761  0.0735
 3201SOL    HW221237   3.960   3.973   4.403  0.0140 -1.8976  2.6481
 3202SOL     OW21238   0.697   1.991  10.321 -0.2846 -0.1040  0.4638
 3202SOL    HW121239   0.662   2.031  10.400 -1.3416  0.0780 -0.0960
 3202SOL    HW221240   0.694   1.897  10.341 -0.1590  0.1514  1.6668
 3203SOL     OW21241   1.007   0.329   6.388 -0.8140 -0.0476  0.3145
 3203SOL    HW121242   1.061   0.330   6.468 -1.5785  0.0184  0.8241
 3203SOL    HW221243   1.063   0.267   6.340  0.5137  1.7084 -0.4059
 3204SOL     OW21244   1.204   0.585  13.873  0.0728 -0.1577  0.3717
 3204SOL    HW121245   1.167   0.554  13.956  0.6615 -2.4451 -0.2141
 3204SOL    HW221246   1.287   0.538  13.867 -1.2071 -2.2401 -0.9267
 3205SOL     OW21247   1.374   4.016  15.146 -0.6276 -0.3534  0.1131
 3205SOL    HW121248   1.375   3.923  15.125  1.1412  0.1808 -2.1500
 3205SOL    HW221249   1.350   4.018  15.239 -2.1847 -0.5365 -0.2809
 3206SOL     OW21250   0.173   0.911   4.056  0.2214  0.0172 -0.2693
 3206SOL    HW121251   0.082   0.883   4.043  0.3013 -0.8562  1.0465
 3206SOL    HW221252   0.206   0.897   3.967  0.0602 -0.5995 -0.2352
 3207SOL     OW21253   3.107   1.936   3.891 -0.1254  0.4304  0.1297
 3207SOL    HW121254   3.054   1.857   3.884 -2.2357  1.9308 -0.8485
 3207SOL    HW221255   3.097   1.976   3.805  1.0712  0.5353  0.0513
 3208SOL     OW21256   2.214   3.107   7.543 -0.2266  0.0580 -0.2439
 3208SOL    HW121257   2.201   3.051   7.466  3.2791  0.0342 -0.8130
 3208SOL    HW221258   2.135   3.082   7.590  0.7433 -1.5779  0.5352
 3209SOL     OW21259   2.744   2.303   9.443  0.4093 -0.1730 -0.2038
 3209SOL    HW121260   2.707   2.266   9.363  0.9772 -1.4918  0.1596
 3209SOL    HW221261   2.837   2.289   9.425  0.7104  1.8626 -0.2369
 3210SOL     OW21262   4.405   1.252   2.925  0.1114 -0.4156  0.3729
 3210SOL    HW121263   4.334   1.191   2.947  1.2675 -2.3871 -1.3251
 3210SOL    HW221264   4.481   1.194   2.915 -1.7332 -2.8467  0.2911
 3211SOL     OW21265   4.336   3.430   5.075  0.1625  0.4124  0.8202
 3211SOL    HW121266   4.354   3.464   4.987 -0.9791 -0.9191  0.0876
 3211SOL    HW221267   4.411   3.373   5.092  0.7676  1.2797  1.0741
 3212SOL     OW21268   2.533   4.202  11.095  0.3502 -0.4003 -0.2406
 3212SOL    HW121269   2.496   4.247  11.171  1.6182  2.6180 -1.4310
 3212SOL    HW221270   2.606   4.263  11.088  0.1697  0.0755  1.8631
 3213SOL     OW21271   3.174   4.719  15.023  0.3729 -0.7804  0.2182
 3213SOL    HW121272   3.259   0.028  15.028 -0.5320  1.0785 -0.7367
 3213SOL    HW221273   3.167   4.688  15.114  1.4861 -0.9085  0.2548
 3214SOL     OW21274   1.051   2.433   1.308  0.0131 -0.4259  0.0146
 3214SOL    HW121275   1.087   2.344   1.310  2.3577  0.5294  0.7399
 3214SOL    HW221276   0.965   2.420   1.270  0.6418 -1.1960 -1.1539
 3215SOL     OW21277   0.624   0.322  17.481  0.2304  1.2172 -0.2942
 3215SOL    HW121278   0.666   0.319  17.395  0.6998 -0.8313 -0.0059
 3215SOL    HW221279   0.691   0.294  17.543 -1.0823  1.6010  1.3174
 3216SOL     OW21280   2.889   2.101  12.655 -0.0295 -0.4146 -0.2493
 3216SOL    HW121281   2.930   2.154  12.722  0.7931 -0.9547 -0.3212
 3216SOL    HW221282   2.814   2.158  12.639  1.6970  1.6890 -0.9061
 3217SOL     OW21283   2.825   2.660   6.242  0.2461 -0.1744  0.6501
 3217SOL    HW121284   2.899   2.703   6.285 -0.3986  0.6748  0.9083
 3217SOL    HW221285   2.830   2.569   6.272 -2.3636 -0.2751  0.7677
 3218SOL     OW21286   3.357   3.937   3.118  0.5320 -0.1313 -0.2299
 3218SOL    HW121287   3.329   4.023   3.151  2.6068  0.5002 -0.1497
 3218SOL    HW221288   3.323   3.875   3.183 -0.3098 -1.1944 -1.6829
 3219SOL     OW21289   0.620   1.866   6.997  0.2109  0.4449 -0.1529
 3219SOL    HW121290   0.676   1.836   6.925 -1.1002 -0.5986 -0.7540
 3219SOL    HW221291   0.655   1.812   7.067 -0.4489 -0.0421 -0.1948
 3220SOL     OW21292   1.281   1.620   3.491  0.1514 -1.0020  0.0807
 3220SOL    HW121293   1.192   1.626   3.456  1.3876 -1.9840 -3.2095
 3220SOL    HW221294   1.305   1.713   3.488 -0.2631 -0.9004 -0.0800
 3221SOL     OW21295   1.674   1.156   1.469  0.1255 -0.4439  0.1086
 3221SOL    HW121296   1.690   1.113   1.385 -1.1225 -0.1576 -0.2730
 3221SOL    HW221297   1.748   1.217   1.477 -0.7298  0.5918  0.0853
 3222SOL     OW21298   3.470   3.054   6.094  0.1414 -0.7541 -0.1401
 3222SOL    HW121299   3.447   3.122   6.031 -1.5697 -1.5566 -0.3747
 3222SOL    HW221300   3.404   3.059   6.163 -0.6453 -0.8734 -0.8832
 3223SOL     OW21301   3.193   1.446   4.334 -0.3461  0.0986 -0.2985
 3223SOL    HW121302   3.208   1.481   4.246  1.5152  0.7339  0.2884
 3223SOL    HW221303   3.283   1.448   4.367 -1.4972  2.4506  2.6510
 3224SOL     OW21304   4.223   3.360   1.831 -0.4416 -0.0875  0.4287
 3224SOL    HW121305   4.256   3.353   1.920  2.8013  0.7090 -0.7274
 3224SOL    HW221306   4.248   3.272   1.805  0.2250  0.6082 -1.2698
 3225SOL     OW21307   3.893   1.131   5.197  0.2810 -0.1713 -0.8888
 3225SOL    HW121308   3.958   1.199   5.215 -0.6700 -0.1807  2.6921
 3225SOL    HW221309   3.831   1.145   5.269  2.3163 -1.3740  1.0711
 3226SOL     OW21310   1.896   3.383   0.183 -0.3637 -0.4805  0.1380
 3226SOL    HW121311   1.984   3.419   0.192 -0.0320 -2.0535  3.1532
 3226SOL    HW221312   1.879   3.362   0.275  1.9362 -1.2922  0.4026
 3227SOL     OW21313   3.570   3.239   8.774 -0.2509  0.6758 -0.3577
 3227SOL    HW121314   3.655   3.256   8.732  0.3981 -0.6979  0.3989
 3227SOL    HW221315   3.580   3.282   8.859 -0.8226 -0.9139  0.5028
 3228SOL     OW21316   1.668   0.987  10.677  0.0581 -0.3422  0.5863
 3228SOL    HW121317   1.622   0.962  10.757 -2.6686  0.8278 -0.6202
 3228SOL    HW221318   1.756   0.991  10.713  0.4222 -0.1515 -0.3233
 3229SOL     OW21319   3.710   2.259  14.486  0.9242 -0.4245 -0.2668
 3229SOL    HW121320   3.775   2.276  14.418  0.8423 -0.9779 -0.4853
 3229SOL    HW221321   3.643   2.324  14.465  0.3334 -1.4669 -1.6910
 3230SOL     OW21322   3.591   2.306  17.027  0.0276  0.8661  0.8284
 3230SOL    HW121323   3.572   2.218  17.058 -1.1896  0.4807 -1.0173
 3230SOL    HW221324   3.507   2.341  17.057 -1.6874 -2.8651  0.3459
 3231SOL     OW21325   3.189   1.351  15.023  0.2432  0.1607 -0.5234
 3231SOL    HW121326   3.221   1.260  15.019 -1.5076 -0.4444 -0.7057
 3231SOL    HW221327   3.252   1.390  15.084  0.9559 -0.6117 -0.7506
 3232SOL     OW21328   3.288   0.143   8.601  0.5019  0.3413  0.3030
 3232SOL    HW121329   3.260   0.057   8.632  1.4872  0.4755  1.5512
 3232SOL    HW221330   3.208   0.190   8.622  0.4609  0.5337 -0.2838
 3233SOL     OW21331   3.437   2.128   5.488 -0.0258  0.1782 -0.2312
 3233SOL    HW121332   3.442   2.032   5.490  1.8137  0.2975  0.7230
 3233SOL    HW221333   3.434   2.146   5.394 -1.2049  2.2704  0.2142
 3234SOL     OW21334   2.610   3.389   9.340  0.0358 -0.2255 -0.0055
 3234SOL    HW121335   2.521   3.417   9.320  0.5383  1.1295 -0.3265
 3234SOL    HW221336   2.639   3.457   9.401 -0.4112  0.1652 -0.2343
 3235SOL     OW21337   0.626   2.110   1.605  0.3071  0.1974  0.0732
 3235SOL    HW121338   0.694   2.057   1.563  2.1023 -1.0863  4.5039
 3235SOL    HW221339   0.678   2.187   1.627 -1.3441  1.3378  0.0210
 3236SOL     OW21340   3.338   3.183  13.394 -0.0870 -0.3553  0.1914
 3236SOL    HW121341   3.272   3.241  13.432 -2.2384 -1.3202 -2.0773
 3236SOL    HW221342   3.401   3.242  13.353  0.3185 -1.4202 -0.7401
 3237SOL     OW21343   4.508   1.164   8.434  0.5761 -0.4812  0.0766
 3237SOL    HW121344   4.533   1.178   8.525 -0.5318 -1.3377  0.5117
 3237SOL    HW221345   4.457   1.241   8.409  1.6661  0.4844  0.8192
 3238SOL     OW21346   0.884   3.971  14.544  0.1728 -0.1968  0.5124
 3238SOL    HW121347   0.795   3.942  14.527  0.6669 -0.8039 -1.0239
 3238SOL    HW221348   0.892   4.045  14.484 -0.4759 -2.6195 -2.5143
 3239SOL     OW21349   4.275   4.470  17.261  0.2003  0.4955  0.3476
 3239SOL    HW121350   4.212   4.398  17.250  0.4029  0.2990  0.4715
 3239SOL    HW221351   4.348   4.419  17.295  1.4057  0.7397 -1.8858
 3240SOL     OW21352   0.779   4.571   4.232  0.1908 -0.5729  0.7402
 3240SOL    HW121353   0.685   4.572   4.250  0.4435  0.0025  2.0250
 3240SOL    HW221354   0.805   4.487   4.270 -0.3450  0.0015  2.3827
 3241SOL     OW21355   2.564   4.616   4.014 -0.0147 -0.2139 -0.1376
 3241SOL    HW121356   2.652   4.632   3.980  0.6268 -1.8298  0.7374
 3241SOL    HW221357   2.535   4.542   3.961 -0.2905 -1.7345  2.1104
 3242SOL     OW21358   3.827   4.444   8.976  0.2204 -0.4396  0.6161
 3242SOL    HW121359   3.732   4.427   8.978  0.0962  0.5221  2.4569
 3242SOL    HW221360   3.825   4.506   8.904  1.7124 -0.0160  0.9434
 3243SOL     OW21361   1.282   2.845  11.297 -0.1660  0.6063  0.4552
 3243SOL    HW121362   1.213   2.820  11.358  0.6037  1.9159  1.8636
 3243SOL    HW221363   1.339   2.768  11.297 -0.3817  0.4488 -1.3911
 3244SOL     OW21364   1.065   1.701   5.935  0.0955  0.2804  0.5670
 3244SOL    HW121365   0.978   1.736   5.919  0.3413  0.5914 -0.0686
 3244SOL    HW221366   1.118   1.780   5.930 -0.6318  0.8101  1.2834
 3245SOL     OW21367   4.608   1.022  17.709  0.7183  0.1490 -0.3412
 3245SOL    HW121368   4.702   1.014  17.697  0.9659  0.4989  1.3493
 3245SOL    HW221369   4.590   0.946   0.027 -0.6267 -0.8271 -2.0726
 3246SOL     OW21370   2.565   4.576  14.007  0.0473  0.8416  0.3595
 3246SOL    HW121371   2.501   4.508  13.985 -0.5270  1.2084  0.8948
 3246SOL    HW221372   2.560   4.578  14.103 -1.9934 -0.2302  0.2791
 3247SOL     OW21373   2.972   0.408   5.185 -0.0775 -0.3480 -0.4927
 3247SOL    HW121374   2.954   0.481   5.245  1.1053 -0.7622  0.3742
 3247SOL    HW221375   2.926   0.332   5.220 -1.2242  2.0212  3.1461
 3248SOL     OW21376   1.348   4.711   7.646  0.4599  0.3160 -0.3702
 3248SOL    HW121377   1.384   0.010   7.564 -2.3632  1.5967 -1.0834
 3248SOL    HW221378   1.388   4.624   7.657  1.1643  0.5844 -0.7844
 3249SOL     OW21379   3.962   0.725   6.880 -0.4560  0.3925  0.0765
 3249SOL    HW121380   4.000   0.704   6.795  0.9260  0.9508  0.5636
 3249SOL    HW221381   3.869   0.718   6.857 -0.0014 -1.5595 -1.0859
 3250SOL     OW21382   2.587   3.492  17.093  0.1044 -0.2537  0.5448
 3250SOL    HW121383   2.603   3.404  17.059 -1.4684 -0.4432  0.2971
 3250SOL    HW221384   2.578   3.537  17.008  2.2608 -0.0049  0.4440
 3251SOL     OW21385   4.220   3.909   1.053 -0.0489  0.2266  0.2087
 3251SOL    HW121386   4.184   3.986   1.097  0.4251  0.4886  0.1439
 3251SOL    HW221387   4.316   3.911   1.062  0.1809 -0.8650 -2.0197
 3252SOL     OW21388   4.545   1.249   7.127  0.5923  0.5684 -0.1229
 3252SOL    HW121389   4.562   1.181   7.062  1.8319 -1.0845  1.9376
 3252SOL    HW221390   4.460   1.227   7.165  0.2837 -0.8403 -1.6529
 3253SOL     OW21391   1.942   3.703   0.682 -0.1526 -0.0882 -0.2272
 3253SOL    HW121392   1.855   3.717   0.646 -0.7382  1.6142  1.8428
 3253SOL    HW221393   1.953   3.785   0.731 -0.5659  0.0500 -0.3701
 3254SOL     OW21394   2.028   1.245   6.849  0.3591  0.4998  0.2170
 3254SOL    HW121395   2.100   1.188   6.821  0.6780  0.4272  1.1998
 3254SOL    HW221396   2.015   1.278   6.760  3.6634  0.2019 -0.3703
 3255SOL     OW21397   1.688   4.533  11.945 -0.1750  0.5847  0.3651
 3255SOL    HW121398   1.734   4.614  11.926 -1.2614  1.2596  0.5806
 3255SOL    HW221399   1.595   4.558  11.947 -0.3625 -0.3220  3.5524
 3256SOL     OW21400   2.889   4.019   5.364 -0.1012 -0.4321  0.3780
 3256SOL    HW121401   2.823   4.086   5.349  0.4033  0.1564  0.7828
 3256SOL    HW221402   2.897   3.981   5.277 -2.7286  1.2672 -0.5836
 3257SOL     OW21403   1.650   1.251   7.871  0.3804  0.0408  0.4170
 3257SOL    HW121404   1.602   1.333   7.868 -1.3560 -0.9608  0.8609
 3257SOL    HW221405   1.591   1.199   7.926 -0.1663 -0.1736 -0.3746
 3258SOL     OW21406   1.860   3.473   2.630 -0.0178  0.4620  0.1799
 3258SOL    HW121407   1.850   3.559   2.671  0.2570 -1.0829  3.5310
 3258SOL    HW221408   1.772   3.442   2.610  0.4366  0.2081 -1.4227
 3259SOL     OW21409   0.334   0.354  11.080  0.0637 -0.1425 -0.5925
 3259SOL    HW121410   0.421   0.364  11.042  0.4485  0.4369  0.4812
 3259SOL    HW221411   0.336   0.427  11.142  0.7612 -2.3165  1.9269
 3260SOL     OW21412   2.633   3.942  15.737 -0.1606 -0.0475  0.4108
 3260SOL    HW121413   2.703   3.969  15.797  0.7079 -2.0480  0.2948
 3260SOL    HW221414   2.606   3.866  15.788 -1.4500 -0.8342 -1.4564
 3261SOL     OW21415   1.839   0.895   1.325  0.9271 -0.0759  0.4241
 3261SOL    HW121416   1.932   0.875   1.335  0.7348 -1.0980  0.1537
 3261SOL    HW221417   1.836   0.911   1.231  0.1392  0.6318  0.5729
 3262SOL     OW21418   1.136   3.869   6.645  0.3986  0.1273  0.5884
 3262SOL    HW121419   1.057   3.820   6.667  0.5500 -0.6090 -0.4935
 3262SOL    HW221420   1.145   3.861   6.550  1.4403 -1.0308  0.7798
 3263SOL     OW21421   2.801   1.478   8.917  0.1692 -0.0364 -0.2991
 3263SOL    HW121422   2.708   1.496   8.928  0.5145  0.4027  1.7225
 3263SOL    HW221423   2.793   1.420   8.841 -2.4900  0.4734 -0.3759
 3264SOL     OW21424   0.797   0.425   5.692  0.0607 -0.5931 -0.0378
 3264SOL    HW121425   0.784   0.332   5.675  2.8403 -0.5936 -2.2148
 3264SOL    HW221426   0.756   0.471   5.619 -1.2418 -1.2099  0.2993
 3265SOL     OW21427   3.994   1.722   8.804 -0.1664 -0.1102  0.3321
 3265SOL    HW121428   3.981   1.648   8.864  0.6704 -1.2637 -0.9179
 3265SOL    HW221429   3.954   1.688   8.723 -0.3157  0.8186  0.0161
 3266SOL     OW21430   4.623   1.667   9.036 -0.3446  0.3128  0.0356
 3266SOL    HW121431   4.614   1.699   9.126  0.0360  0.2910  0.0792
 3266SOL    HW221432   4.598   1.745   8.986 -2.3680 -0.7616 -0.6324
 3267SOL     OW21433   3.384   2.775   6.671  0.0086 -0.7559  0.4602
 3267SOL    HW121434   3.371   2.786   6.765  1.0063  0.3525  0.4559
 3267SOL    HW221435   3.463   2.827   6.658 -1.7487  1.5600 -0.8728
 3268SOL     OW21436   1.733   2.311  15.466 -0.1584  0.5073  0.5134
 3268SOL    HW121437   1.813   2.364  15.458  1.9792 -2.7610  0.4018
 3268SOL    HW221438   1.681   2.391  15.474 -0.6765  0.4807 -2.3029
 3269SOL     OW21439   2.585   0.583   2.622 -0.4562  0.2353 -0.0123
 3269SOL    HW121440   2.562   0.491   2.610 -0.6789  0.3506 -0.4750
 3269SOL    HW221441   2.675   0.565   2.650  0.1450 -1.5919 -3.1081
 3270SOL     OW21442   1.724   1.910  12.624  0.5377 -0.1775 -0.2484
 3270SOL    HW121443   1.689   1.840  12.680 -0.1984 -0.4385 -1.0412
 3270SOL    HW221444   1.660   1.912  12.554  0.0135 -0.0277  0.2359
 3271SOL     OW21445   2.525   1.750  17.431  0.5448 -0.1261  0.0737
 3271SOL    HW121446   2.444   1.705  17.453 -0.0576  0.6352 -0.6084
 3271SOL    HW221447   2.558   1.681  17.373  1.9566  0.1360  0.5483
 3272SOL     OW21448   4.431   2.219   4.043  0.6583  0.3127  0.9825
 3272SOL    HW121449   4.405   2.285   4.107 -1.5928 -0.4874  0.8926
 3272SOL    HW221450   4.359   2.157   4.046 -0.1702  1.2110 -0.5793
 3273SOL     OW21451   0.105   2.747  14.939 -0.0356  0.1424 -0.2474
 3273SOL    HW121452   0.184   2.792  14.907  1.1981 -0.8295  1.4375
 3273SOL    HW221453   0.097   2.768  15.032  1.6396  1.9445 -0.5108
 3274SOL     OW21454   2.721   1.588   3.500  0.1398  0.0088 -0.4600
 3274SOL    HW121455   2.659   1.563   3.431 -1.5613  0.2299  0.9710
 3274SOL    HW221456   2.754   1.502   3.527 -1.7408 -1.2862 -2.2605
 3275SOL     OW21457   0.499   3.672  10.234 -0.4298  0.0388 -0.4565
 3275SOL    HW121458   0.534   3.672  10.323  0.1235 -1.8035 -0.6777
 3275SOL    HW221459   0.467   3.762  10.228  1.2526  0.6533 -0.1052
 3276SOL     OW21460   1.230   4.468   6.286 -0.0515  0.1869 -0.0777
 3276SOL    HW121461   1.276   4.509   6.360 -2.0162 -0.5157  1.5312
 3276SOL    HW221462   1.187   4.549   6.261 -1.0722 -0.2524  0.2280
 3277SOL     OW21463   0.608   3.077   4.784 -0.0402  0.0345 -0.1004
 3277SOL    HW121464   0.658   2.997   4.771 -0.5281 -0.4751  1.1607
 3277SOL    HW221465   0.529   3.043   4.826 -0.4867  2.0877  0.7204
 3278SOL     OW21466   3.427   2.903   8.575  0.3801  0.1127  0.0447
 3278SOL    HW121467   3.481   2.919   8.653  0.0959  4.1757 -0.5952
 3278SOL    HW221468   3.354   2.963   8.591 -0.5034 -1.0046  0.2307
 3279SOL     OW21469   1.345   4.041  13.859 -0.6742 -0.0068  0.4058
 3279SOL    HW121470   1.272   4.100  13.842  1.4309  2.1591 -1.1307
 3279SOL    HW221471   1.373   4.011  13.773  1.8556  3.1448  0.1146
 3280SOL     OW21472   2.360   4.246   2.413 -0.0157  0.3068  0.1861
 3280SOL    HW121473   2.376   4.269   2.321  0.2518 -0.5501  0.0222
 3280SOL    HW221474   2.317   4.322   2.454 -1.0303  0.0897 -0.4742
 3281SOL     OW21475   3.790   1.481   6.321 -0.2073 -0.6549  0.5010
 3281SOL    HW121476   3.861   1.545   6.317 -0.6619 -0.2640 -1.3298
 3281SOL    HW221477   3.745   1.516   6.244 -0.0915 -0.2711  0.6100
 3282SOL     OW21478   0.514   4.395   9.980 -0.1377  0.2007  0.0621
 3282SOL    HW121479   0.586   4.458   9.991 -0.8048  1.3474 -2.1498
 3282SOL    HW221480   0.513   4.359  10.069  1.0625  2.3086  0.9298
 3283SOL     OW21481   2.504   2.747  15.958 -0.5989  0.4361  0.0549
 3283SOL    HW121482   2.489   2.654  15.940 -2.3126  0.3683  1.9246
 3283SOL    HW221483   2.482   2.753  16.051 -2.4913  0.7814 -0.4123
 3284SOL     OW21484   0.818   0.895   5.218 -0.3986 -0.4764 -0.1531
 3284SOL    HW121485   0.750   0.862   5.276  0.2724 -0.3704  0.6805
 3284SOL    HW221486   0.900   0.850   5.237 -0.8628 -1.7408 -1.1679
 3285SOL     OW21487   2.343   1.321   8.585  0.0984  0.1954  0.2554
 3285SOL    HW121488   2.312   1.409   8.610 -1.2479 -0.8983  2.4120
 3285SOL    HW221489   2.319   1.261   8.655  0.1858 -1.2238 -0.9457
 3286SOL     OW21490   1.686   3.401   5.229  0.1165  0.4037 -0.3442
 3286SOL    HW121491   1.610   3.414   5.172  0.7687  0.0254 -1.3056
 3286SOL    HW221492   1.669   3.311   5.255  1.2796  0.6543  1.2731
 3287SOL     OW21493   1.628   0.474   4.743 -0.7407 -0.0330 -0.1571
 3287SOL    HW121494   1.595   0.510   4.660 -1.5199 -0.1720  0.0876
 3287SOL    HW221495   1.722   0.461   4.731 -0.4384  2.0989 -0.1653
 3288SOL     OW21496   4.291   4.581   2.491 -0.1516  0.0626  0.4526
 3288SOL    HW121497   4.354   4.626   2.546 -0.4107  1.4732 -0.4057
 3288SOL    HW221498   4.353   4.533   2.436 -0.7827  1.0811 -1.1594
 3289SOL     OW21499   1.220   4.293  17.587 -0.3717 -0.0346  0.1969
 3289SOL    HW121500   1.246   4.379  17.620 -0.5922  0.8209 -1.8477
 3289SOL    HW221501   1.126   4.304  17.598  0.0048  3.3782 -0.0668
 3290SOL     OW21502   3.302   4.085   7.532  0.0805  0.4545 -0.0691
 3290SOL    HW121503   3.255   4.044   7.459  0.9021 -0.0813 -0.2951
 3290SOL    HW221504   3.327   4.018   7.596  1.3361 -0.4812 -1.5302
 3291SOL     OW21505   3.119   3.728   1.831  0.7677 -0.3479 -0.2026
 3291SOL    HW121506   3.132   3.731   1.737  0.3944 -1.2425 -0.2793
 3291SOL    HW221507   3.025   3.743   1.840  0.5355 -2.0252  0.1187
 3292SOL     OW21508   1.374   3.178  17.164  0.2569  0.1700  0.0753
 3292SOL    HW121509   1.311   3.151  17.097  1.3591 -0.0026 -0.8924
 3292SOL    HW221510   1.440   3.109  17.170 -0.4012 -0.5362 -0.7069
 3293SOL     OW21511   3.695   1.521   8.740 -0.2429  0.3511 -0.0524
 3293SOL    HW121512   3.778   1.489   8.774  0.1135 -0.1708 -1.4012
 3293SOL    HW221513   3.739   1.572   8.672 -0.8046  0.6323 -0.2066
 3294SOL     OW21514   0.510   0.719   4.233 -0.1580 -0.3354  0.2717
 3294SOL    HW121515   0.484   0.681   4.149 -0.0738  1.4421 -0.5729
 3294SOL    HW221516   0.497   0.810   4.205  3.3034  0.0485 -0.1855
 3295SOL     OW21517   4.602   2.011   5.207  0.1316 -0.2254  0.1748
 3295SOL    HW121518   4.615   1.939   5.269 -1.3054 -2.3059 -1.9042
 3295SOL    HW221519   4.531   1.973   5.155 -1.9933 -0.4543  3.2561
 3296SOL     OW21520   0.987   1.866   5.170 -0.1769 -1.1073 -0.1766
 3296SOL    HW121521   0.993   1.954   5.134  1.3584 -1.5284 -0.9435
 3296SOL    HW221522   0.905   1.837   5.130 -2.1700  0.4224  2.8707
 3297SOL     OW21523   3.180   4.267  17.547  0.2326  1.3250  0.2830
 3297SOL    HW121524   3.255   4.243  17.603  0.0565 -0.4509 -0.2410
 3297SOL    HW221525   3.102   4.241  17.597  1.7596 -2.8823  0.4857
 3298SOL     OW21526   0.261   1.450   6.059  0.1203  0.1822 -0.1168
 3298SOL    HW121527   0.300   1.379   6.008  1.1307  1.2280 -0.8005
 3298SOL    HW221528   0.230   1.400   6.134 -0.3691  1.2565  0.4067
 3299SOL     OW21529   1.551   0.826   2.817 -0.2840  0.5611 -0.3006
 3299SOL    HW121530   1.597   0.909   2.828  0.9382  0.0619 -1.6759
 3299SOL    HW221531   1.563   0.808   2.723  0.4927  2.9608 -0.6613
 3300SOL     OW21532   0.354   3.936  10.279 -0.3911 -0.4973 -0.2911
 3300SOL    HW121533   0.287   3.931  10.211 -0.2269  1.6694 -0.5892
 3300SOL    HW221534   0.297   3.954  10.354  0.9142 -2.7469  1.2593
 3301SOL     OW21535   3.128   3.202   4.970 -0.2741 -0.2272  0.1006
 3301SOL    HW121536   3.208   3.252   4.952  0.7613 -1.9834 -0.2237
 3301SOL    HW221537   3.100   3.230   5.057  2.7850 -0.7386  1.2599
 3302SOL     OW21538   1.536   4.148   9.006 -0.1569  0.1103  0.3033
 3302SOL    HW121539   1.594   4.150   8.930  0.4113 -0.6633  0.7177
 3302SOL    HW221540   1.553   4.060   9.039  0.8802  0.1049 -0.2604
 3303SOL     OW21541   1.141   3.433   2.013 -0.1242 -0.3857  0.0040
 3303SOL    HW121542   1.121   3.346   1.978  1.1878 -1.2008  1.2922
 3303SOL    HW221543   1.177   3.407   2.098 -0.4764 -3.2600 -0.7235
 3304SOL     OW21544   3.244   0.302   0.632  0.3071 -0.2725  0.1158
 3304SOL    HW121545   3.188   0.352   0.691 -0.5410 -1.5693  0.3954
 3304SOL    HW221546   3.247   0.357   0.553 -0.3577 -3.3622 -2.0816
 3305SOL     OW21547   3.184   3.911   2.361  0.0283 -0.4641 -0.0231
 3305SOL    HW121548   3.116   3.855   2.326 -0.2032  1.2963 -2.3405
 3305SOL    HW221549   3.130   3.978   2.403 -2.1914 -1.6854 -0.9823
 3306SOL     OW21550   0.474   3.373  10.636  0.0377  0.5025 -0.2962
 3306SOL    HW121551   0.556   3.342  10.675 -0.3185 -0.0620  0.0027
 3306SOL    HW221552   0.501   3.464  10.624 -0.4593  1.1925  3.9524
 3307SOL     OW21553   0.698   3.250   4.581 -0.1086 -0.0043  0.0389
 3307SOL    HW121554   0.617   3.278   4.539  0.2911  0.2565 -0.5422
 3307SOL    HW221555   0.668   3.197   4.656 -0.0956 -1.2102 -0.7991
 3308SOL     OW21556   0.386   1.936   9.891 -0.3402 -0.6325  0.4128
 3308SOL    HW121557   0.420   1.972   9.973 -2.2378  2.0250 -0.0037
 3308SOL    HW221558   0.350   2.015   9.851  0.0135 -0.4625  0.4280
 3309SOL     OW21559   2.685   4.021   4.522 -0.0795 -0.1222 -0.5838
 3309SOL    HW121560   2.691   3.926   4.536  1.2667  0.0336 -0.1779
 3309SOL    HW221561   2.624   4.039   4.593  0.7832  1.6184 -0.2874
 3310SOL     OW21562   2.650   3.433   8.369 -0.2402 -0.1753 -0.2287
 3310SOL    HW121563   2.583   3.498   8.345  0.9402  0.0562 -2.8952
 3310SOL    HW221564   2.677   3.391   8.287  1.8888 -1.6011  1.2387
 3311SOL     OW21565   2.953   4.696   5.056  0.0846  0.5153  0.0063
 3311SOL    HW121566   2.948   4.601   5.061 -0.8091  0.6590  1.7929
 3311SOL    HW221567   2.973   4.706   5.149  1.0692 -2.3410  0.1020
 3312SOL     OW21568   0.475   0.154   5.531  0.1152 -0.3929 -0.1097
 3312SOL    HW121569   0.483   0.074   5.478  0.1643 -0.7191  0.3906
 3312SOL    HW221570   0.381   0.168   5.520 -0.0020 -2.8140 -2.1164
 3313SOL     OW21571   2.480   3.302   2.067  0.0060  0.3260  0.0325
 3313SOL    HW121572   2.530   3.316   2.147  1.2470 -1.2359 -0.4761
 3313SOL    HW221573   2.520   3.222   2.032 -0.7462  1.0865 -2.6022
 3314SOL     OW21574   3.340   1.799   9.849  0.3302 -0.1637  0.2377
 3314SOL    HW121575   3.433   1.802   9.830  0.3774  3.7117  1.1689
 3314SOL    HW221576   3.325   1.707   9.825 -0.6491 -0.0233  0.3025
 3315SOL     OW21577   2.262   3.486   6.097 -0.2682 -0.4432 -0.0345
 3315SOL    HW121578   2.353   3.459   6.104 -0.0887  0.0918 -0.2662
 3315SOL    HW221579   2.212   3.408   6.074 -0.7926 -0.2703  0.5425
 3316SOL     OW21580   2.421   1.164  10.960  0.0100  0.1520 -0.0261
 3316SOL    HW121581   2.470   1.218  11.022 -1.8089  1.9163 -0.1122
 3316SOL    HW221582   2.341   1.155  11.012  1.6557  1.9767  2.8647
 3317SOL     OW21583   4.511   1.643   4.186  0.6167  0.3477 -0.2958
 3317SOL    HW121584   4.537   1.557   4.155 -2.0580 -1.0315  1.3449
 3317SOL    HW221585   4.433   1.630   4.240  0.3385 -2.4233 -1.3749
 3318SOL     OW21586   2.502   1.216  14.309  0.2007 -0.2917 -0.1846
 3318SOL    HW121587   2.561   1.142  14.328 -0.8018 -0.4958  2.2124
 3318SOL    HW221588   2.557   1.291  14.333  0.6087  0.0587 -2.2921
 3319SOL     OW21589   3.214   1.296   1.332  0.2313  0.2583  0.2279
 3319SOL    HW121590   3.136   1.350   1.340  0.5008  0.6261  0.3805
 3319SOL    HW221591   3.269   1.337   1.266 -1.5835 -0.0136 -1.4246
 3320SOL     OW21592   4.233   0.976  16.197  0.0729 -0.3424  0.1721
 3320SOL    HW121593   4.154   0.946  16.243 -0.3404  1.5749  0.7314
 3320SOL    HW221594   4.233   1.067  16.227  2.0123 -0.4271  0.4079
 3321SOL     OW21595   4.437   0.937   5.544  0.2933  0.5124  0.0841
 3321SOL    HW121596   4.519   0.919   5.590  1.1086  0.9244 -1.1979
 3321SOL    HW221597   4.397   1.004   5.600 -0.2014  1.0571 -0.9252
 3322SOL     OW21598   3.054   3.719   6.466 -1.1540 -0.1502 -0.5153
 3322SOL    HW121599   3.022   3.629   6.465 -1.2349 -0.1280  1.3069
 3322SOL    HW221600   3.092   3.726   6.378 -3.1690  2.2439 -1.1919
 3323SOL     OW21601   1.209   3.744   0.225 -0.8331  0.4478  0.0430
 3323SOL    HW121602   1.272   3.791   0.280 -0.5987 -2.1879  2.0361
 3323SOL    HW221603   1.268   3.734   0.149 -1.7821 -2.0872 -0.3599
 3324SOL     OW21604   2.708   3.426  15.920  0.3159 -0.7922  0.5329
 3324SOL    HW121605   2.732   3.428  16.013  3.6551 -4.3174 -0.2587
 3324SOL    HW221606   2.633   3.366  15.919  1.2377 -1.9464  0.9414
 3325SOL     OW21607   2.713   3.693  13.287  0.1171 -0.0217 -0.3344
 3325SOL    HW121608   2.783   3.686  13.351  0.2545 -0.6699 -0.5619
 3325SOL    HW221609   2.636   3.683  13.343 -0.1056 -2.7712 -1.1667
 3326SOL     OW21610   1.878   1.833   6.520  0.6454 -0.1825  0.3999
 3326SOL    HW121611   1.922   1.860   6.600  0.9008  2.2127 -0.5362
 3326SOL    HW221612   1.888   1.915   6.470  0.6856  0.4514  1.4603
 3327SOL     OW21613   2.308   3.570   9.484  0.0665 -0.0478 -0.1779
 3327SOL    HW121614   2.294   3.476   9.474  1.4080 -0.3553  0.8354
 3327SOL    HW221615   2.244   3.602   9.421  1.6330  0.2229 -1.6234
 3328SOL     OW21616   1.476   2.310   1.399  0.0177 -0.3763 -0.4833
 3328SOL    HW121617   1.462   2.353   1.483 -1.2653 -0.1677 -0.8041
 3328SOL    HW221618   1.499   2.226   1.438 -1.9554 -0.5100  0.4017
 3329SOL     OW21619   1.615   0.222  12.852  0.2817 -0.5560 -0.2820
 3329SOL    HW121620   1.581   0.133  12.838 -1.7623  0.0274  0.9369
 3329SOL    HW221621   1.568   0.263  12.779  0.3639 -1.1529 -0.6706
 3330SOL     OW21622   3.312   0.483   5.790  0.0753 -0.3425  0.3432
 3330SOL    HW121623   3.336   0.558   5.735 -2.5613 -0.6932 -1.2704
 3330SOL    HW221624   3.340   0.407   5.738  0.9009  0.8969 -1.0408
 3331SOL     OW21625   0.136   1.961   7.116 -0.1338 -0.6392 -0.6517
 3331SOL    HW121626   0.212   1.968   7.174 -0.3683  0.9232 -0.5233
 3331SOL    HW221627   0.179   1.909   7.049 -1.6413 -2.4603 -0.1832
 3332SOL     OW21628   2.132   3.687   8.107 -0.0189  0.3154 -0.1217
 3332SOL    HW121629   2.109   3.705   8.015 -0.1774 -1.6041 -0.4616
 3332SOL    HW221630   2.228   3.684   8.105 -0.1060 -2.2726 -1.4759
 3333SOL     OW21631   1.644   1.850   7.527  0.6049  0.2453 -0.7753
 3333SOL    HW121632   1.558   1.814   7.506  0.2607  1.7225 -1.8788
 3333SOL    HW221633   1.678   1.882   7.443  0.1189 -0.1756 -1.1295
 3334SOL     OW21634   4.205   3.389   6.559 -0.3175 -0.2209  0.2105
 3334SOL    HW121635   4.249   3.376   6.475 -0.5242  0.1607  0.0444
 3334SOL    HW221636   4.196   3.297   6.584 -2.4822 -0.0075  0.1758
 3335SOL     OW21637   2.264   1.133  11.685 -0.1216  0.3259 -0.3958
 3335SOL    HW121638   2.357   1.146  11.667  0.2410  0.2456  1.4952
 3335SOL    HW221639   2.225   1.178  11.609 -1.5097  0.7199  0.5573
 3336SOL     OW21640   2.436   2.967  14.006  0.0984 -0.1300  0.2869
 3336SOL    HW121641   2.520   2.931  14.032 -1.4326 -1.9652  2.7615
 3336SOL    HW221642   2.456   3.059  14.023 -1.8754  0.7513 -2.1711
 3337SOL     OW21643   3.194   2.217   4.219 -0.3526 -0.4274 -0.0484
 3337SOL    HW121644   3.189   2.259   4.305 -0.5667  2.4775 -1.4777
 3337SOL    HW221645   3.159   2.286   4.163 -2.6131 -0.2043  1.6912
 3338SOL     OW21646   3.559   4.646   7.897 -0.1154  0.0352 -0.5292
 3338SOL    HW121647   3.548   4.646   7.993 -2.0397  0.1626 -0.7605
 3338SOL    HW221648   3.478   4.615   7.857  0.3858  0.4439 -1.8616
 3339SOL     OW21649   1.144   0.085   9.186 -0.1411  0.0393 -0.8544
 3339SOL    HW121650   1.155   0.103   9.092 -1.4268 -0.7111 -1.1482
 3339SOL    HW221651   1.209   0.015   9.192  1.3373  1.5584  0.8140
 3340SOL     OW21652   3.465   2.160  12.107 -0.2875  0.5877  0.0237
 3340SOL    HW121653   3.520   2.189  12.180  1.3032 -1.2169 -0.4541
 3340SOL    HW221654   3.462   2.246  12.066  2.5465  1.2840  1.3287
 3341SOL     OW21655   4.503   1.546   5.431  0.3996 -0.1273  0.0721
 3341SOL    HW121656   4.450   1.484   5.482  0.4080  1.5850  2.1821
 3341SOL    HW221657   4.522   1.494   5.353 -0.8561  0.3987 -0.5700
 3342SOL     OW21658   4.677   3.206   8.941  0.2159 -0.5104 -0.3821
 3342SOL    HW121659   4.695   3.126   8.992  1.5048 -0.4821 -0.7876
 3342SOL    HW221660   4.588   3.189   8.911  0.2905 -1.9545  0.2125
 3343SOL     OW21661   3.065   3.089  15.450 -0.8026 -0.1042 -0.1108
 3343SOL    HW121662   2.986   3.106  15.502  0.1945  0.4050  1.2238
 3343SOL    HW221663   3.015   3.067  15.372  2.8462  1.1459 -2.7995
 3344SOL     OW21664   2.780   0.086   8.773 -0.6940  0.8883  0.0887
 3344SOL    HW121665   2.770   0.139   8.852  2.6658  1.4193  0.1737
 3344SOL    HW221666   2.716   0.131   8.718 -0.7096  0.7854  0.0224
 3345SOL     OW21667   1.988   1.408   6.627  0.4636 -0.2257 -0.1921
 3345SOL    HW121668   2.043   1.484   6.609  1.0983 -0.7264 -0.3667
 3345SOL    HW221669   2.006   1.341   6.561 -0.6498  0.1593 -0.8912
 3346SOL     OW21670   3.931   3.614   8.282 -0.2081  0.4073  0.1685
 3346SOL    HW121671   3.847   3.579   8.312  0.1948 -0.2462  0.5502
 3346SOL    HW221672   3.982   3.556   8.225  1.1800  1.3595  0.4501
 3347SOL     OW21673   3.797   1.012  10.947  0.4643  0.2854 -0.3607
 3347SOL    HW121674   3.739   0.963  10.888 -0.4481 -0.7731  1.4113
 3347SOL    HW221675   3.803   0.942  11.012  1.9509  0.4363 -0.3319
 3348SOL     OW21676   4.671   0.675   1.835  0.2670  0.3666  0.1569
 3348SOL    HW121677   4.601   0.632   1.885 -0.4640  0.9692 -0.3457
 3348SOL    HW221678   0.000   0.702   1.900  0.5981 -0.1194  0.0361
 3349SOL     OW21679   1.796   0.913  17.519 -0.1431 -0.4638 -0.2577
 3349SOL    HW121680   1.744   0.992  17.531 -2.5724 -1.9668 -0.9003
 3349SOL    HW221681   1.863   0.906  17.587 -0.3431  1.5772  0.1465
 3350SOL     OW21682   1.516   3.405   6.393 -0.1273  0.1634 -0.5586
 3350SOL    HW121683   1.443   3.450   6.351  1.1394  1.3852 -1.4757
 3350SOL    HW221684   1.588   3.427   6.334  0.5244 -0.6677 -0.0715
 3351SOL     OW21685   1.686   1.873   8.162 -0.7274  0.3051  0.1945
 3351SOL    HW121686   1.598   1.912   8.159 -0.8929  0.0345  1.4810
 3351SOL    HW221687   1.724   1.919   8.087 -3.3528  1.3548 -0.5026
 3352SOL     OW21688   4.668   1.367   1.759 -0.1481 -0.0955  0.3069
 3352SOL    HW121689   0.005   1.427   1.779 -0.1254 -0.2817  0.7895
 3352SOL    HW221690   4.704   1.283   1.786  1.2699 -0.5679 -3.0221
 3353SOL     OW21691   0.852   3.132  15.395 -0.0780  0.3233  0.2792
 3353SOL    HW121692   0.927   3.119  15.452  0.7156  0.6668 -0.6762
 3353SOL    HW221693   0.802   3.202  15.437 -0.4737  0.2397 -0.0509
 3354SOL     OW21694   3.708   1.209   3.167 -0.2586  0.5482 -0.2574
 3354SOL    HW121695   3.762   1.226   3.244  0.6033 -3.3245 -0.0173
 3354SOL    HW221696   3.728   1.287   3.116 -0.8498  0.5454 -0.4969
 3355SOL     OW21697   2.351   3.061  15.149 -0.5086 -0.4051  0.6749
 3355SOL    HW121698   2.383   3.089  15.063 -1.8037 -0.5125  0.1488
 3355SOL    HW221699   2.263   3.027  15.129  0.2280 -1.3005 -1.1329
 3356SOL     OW21700   2.990   4.269   6.303 -0.2108 -0.2970 -0.1642
 3356SOL    HW121701   2.928   4.336   6.274  0.4384  0.5025  0.2945
 3356SOL    HW221702   3.025   4.291   6.389 -0.4676 -1.2382  0.1907
 3357SOL     OW21703   3.657   0.377   6.675  0.1427 -0.0675 -0.9578
 3357SOL    HW121704   3.630   0.290   6.704  3.2322 -1.3345 -1.9649
 3357SOL    HW221705   3.708   0.340   6.603  1.9186  0.5838 -0.0297
 3358SOL     OW21706   3.110   3.276   8.986  0.7513  0.3219  0.1273
 3358SOL    HW121707   3.197   3.252   8.957  1.6161 -1.1998  3.9810
 3358SOL    HW221708   3.110   3.363   8.946  0.6749  0.6371  0.8061
 3359SOL     OW21709   2.375   0.192   3.478 -0.4219 -0.8003 -0.5642
 3359SOL    HW121710   2.376   0.236   3.393  0.7867  0.0486 -0.1111
 3359SOL    HW221711   2.304   0.130   3.465 -0.7208 -0.5411 -0.1680
 3360SOL     OW21712   3.415   2.910   8.298 -0.2492 -0.1629  0.0968
 3360SOL    HW121713   3.432   2.822   8.264  2.1587  0.4603 -0.3216
 3360SOL    HW221714   3.451   2.907   8.387  2.7690  1.8491 -1.0239
 3361SOL     OW21715   4.609   0.318   4.834  0.4162 -0.1170 -0.0532
 3361SOL    HW121716   4.701   0.336   4.812  0.3674  1.9300  1.4679
 3361SOL    HW221717   4.600   0.394   4.891  0.9076 -0.2512  0.2099
 3362SOL     OW21718   0.921   4.061  10.941  0.7672  0.2230 -0.3000
 3362SOL    HW121719   0.934   4.147  10.900 -2.9605  1.9943  2.2110
 3362SOL    HW221720   1.012   4.045  10.967 -0.0697 -1.9885  1.2670
 3363SOL     OW21721   2.861   0.130   7.815  0.0544 -0.2103  0.2064
 3363SOL    HW121722   2.880   0.058   7.875  0.4661  1.8570  2.6022
 3363SOL    HW221723   2.891   0.094   7.732 -0.7068 -0.8700  0.2190
 3364SOL     OW21724   0.969   3.481   7.688  0.1270  0.0237 -0.1554
 3364SOL    HW121725   0.934   3.426   7.619  2.6520 -1.1544 -0.5134
 3364SOL    HW221726   0.999   3.559   7.642 -0.0027  0.0579 -0.1818
 3365SOL     OW21727   2.705   4.007   5.058  0.0231  0.3490  0.5564
 3365SOL    HW121728   2.759   4.081   5.029 -0.8415  1.7748  2.5439
 3365SOL    HW221729   2.768   3.936   5.068  0.6865  0.9028  0.2772
 3366SOL     OW21730   1.270   1.752   7.195  0.1119 -0.1305 -0.6298
 3366SOL    HW121731   1.212   1.706   7.256  0.8865 -0.8423 -0.4324
 3366SOL    HW221732   1.307   1.672   7.159 -1.4171 -1.8798  1.6589
 3367SOL     OW21733   3.694   4.459   2.111 -0.3537  0.0155 -0.6321
 3367SOL    HW121734   3.731   4.421   2.031  1.7998 -2.1863  1.3937
 3367SOL    HW221735   3.729   4.547   2.098  2.6535 -0.7581  2.0282
 3368SOL     OW21736   4.118   0.445  11.970 -0.5046  0.6996  0.0251
 3368SOL    HW121737   4.031   0.485  11.976 -0.7589  0.1151  0.2327
 3368SOL    HW221738   4.118   0.394  11.889 -3.3992 -0.7459  0.9576
 3369SOL     OW21739   3.679   3.780  12.913  0.1849 -0.0944  0.8474
 3369SOL    HW121740   3.599   3.832  12.907 -0.0199 -0.7836 -2.7664
 3369SOL    HW221741   3.732   3.843  12.865  0.6011 -2.2395 -1.4906
 3370SOL     OW21742   0.368   0.059   9.207 -0.3702 -0.0568 -0.0436
 3370SOL    HW121743   0.450   0.056   9.158 -1.4089  0.6889 -1.8385
 3370SOL    HW221744   0.385   4.729   9.275  2.5909  1.0111  0.2263
 3371SOL     OW21745   1.332   3.446  13.450 -0.2660 -0.3804  0.2724
 3371SOL    HW121746   1.427   3.448  13.464  0.1824 -0.0815 -2.8293
 3371SOL    HW221747   1.327   3.404  13.364  2.0503 -1.3753  0.6301
 3372SOL     OW21748   2.617   4.707   7.267  0.5575 -0.7158  0.3861
 3372SOL    HW121749   2.708   4.678   7.261  0.7244 -0.3751  1.2507
 3372SOL    HW221750   2.617   0.039   7.199  1.9300 -0.2016  0.8915
 3373SOL     OW21751   0.923   0.012   6.453 -0.2857 -0.0135 -0.3882
 3373SOL    HW121752   0.932   0.077   6.523 -1.4585  2.2468 -2.3027
 3373SOL    HW221753   0.924   4.671   6.511  1.3920  0.5087  0.2518
 3374SOL     OW21754   3.508   4.577   8.723 -0.1586  0.0674  0.5945
 3374SOL    HW121755   3.438   4.558   8.660  1.2282  1.5648 -1.4066
 3374SOL    HW221756   3.456   4.575   8.803 -1.9789 -0.4979 -0.5943
 3375SOL     OW21757   0.122   4.393  13.909  0.6533 -0.6899  0.1043
 3375SOL    HW121758   0.194   4.351  13.957 -0.2194 -1.5117  0.7018
 3375SOL    HW221759   0.137   4.358  13.821  0.0855 -1.4437  0.3061
 3376SOL     OW21760   2.673   4.463  10.163  0.6485  0.3026 -0.1714
 3376SOL    HW121761   2.749   4.445  10.108  0.0588  1.6599 -1.4559
 3376SOL    HW221762   2.615   4.464  10.086 -0.8835 -0.8050  0.9684
 3377SOL     OW21763   3.372   1.086  12.797 -0.2168 -0.0277  0.2413
 3377SOL    HW121764   3.362   1.121  12.708  1.3835  1.3744  0.6178
 3377SOL    HW221765   3.279   1.083  12.821  0.1254 -1.6187  1.3258
 3378SOL     OW21766   2.730   2.419   0.707  0.5340  0.0578  0.6223
 3378SOL    HW121767   2.796   2.371   0.656  0.0170 -1.4427  1.3561
 3378SOL    HW221768   2.666   2.351   0.731 -0.0944  0.3543 -0.2283
 3379SOL     OW21769   4.249   4.207   2.942 -0.2435 -0.2403 -0.0229
 3379SOL    HW121770   4.316   4.172   2.883  0.0176  0.3233 -0.0613
 3379SOL    HW221771   4.175   4.152   2.914 -0.6083 -0.4872  1.4417
 3380SOL     OW21772   4.023   0.543   8.766 -0.1226 -0.1507  0.8064
 3380SOL    HW121773   3.966   0.587   8.703 -1.3558 -0.2050  1.8731
 3380SOL    HW221774   4.045   0.461   8.721  0.1706  0.7924 -0.7511
 3381SOL     OW21775   3.830   4.253  13.537  0.3287 -0.1968  0.1110
 3381SOL    HW121776   3.899   4.265  13.603 -0.6251 -0.4875  1.1756
 3381SOL    HW221777   3.761   4.208  13.587 -0.1005  2.6944  2.1465
 3382SOL     OW21778   3.065   0.988   3.160 -0.5134 -0.1683  0.4144
 3382SOL    HW121779   3.130   0.963   3.095  0.4092  0.4076  1.1198
 3382SOL    HW221780   3.062   0.907   3.211 -0.5934 -1.8003 -2.1630
 3383SOL     OW21781   4.717   4.112   6.803 -0.4202 -0.9740 -0.0352
 3383SOL    HW121782   0.061   4.075   6.763  0.5533 -0.3263  1.2929
 3383SOL    HW221783   4.654   4.039   6.804  1.7630 -2.8647  0.4495
 3384SOL     OW21784   2.377   1.075   2.787 -0.1932 -0.5901  0.1838
 3384SOL    HW121785   2.366   1.095   2.694  2.1431  0.6453  0.1557
 3384SOL    HW221786   2.381   0.979   2.783  0.3509 -0.6195  1.6849
 3385SOL     OW21787   2.290   1.580  17.459 -0.1997 -0.3005  0.5833
 3385SOL    HW121788   2.231   1.529  17.515  0.0426 -0.3573  0.7909
 3385SOL    HW221789   2.245   1.570  17.376  0.5872 -1.0300  0.2469
 3386SOL     OW21790   1.253   3.407   9.118  0.1172 -0.5957  0.2705
 3386SOL    HW121791   1.240   3.313   9.126 -4.6998  0.0446  0.1941
 3386SOL    HW221792   1.163   3.438   9.106  0.2343 -0.8602 -1.2650
 3387SOL     OW21793   1.240   0.654   6.529  0.6822  0.1353 -0.1382
 3387SOL    HW121794   1.241   0.657   6.433 -0.1830  0.3977 -0.1394
 3387SOL    HW221795   1.260   0.744   6.551 -0.5450 -0.1994  2.2757
 3388SOL     OW21796   1.665   3.426   3.377  0.3311  0.0606 -0.5601
 3388SOL    HW121797   1.620   3.507   3.400  0.2674 -0.7529  2.2726
 3388SOL    HW221798   1.683   3.441   3.284 -0.4591 -1.2532 -0.9172
 3389SOL     OW21799   0.822   1.684  12.279  0.3313 -0.4495 -0.5445
 3389SOL    HW121800   0.894   1.700  12.340 -1.8250  0.3441  1.8325
 3389SOL    HW221801   0.853   1.604  12.236 -1.0313 -1.3401  0.1325
 3390SOL     OW21802   2.834   2.657   2.891 -0.4638  0.9767  0.4758
 3390SOL    HW121803   2.789   2.671   2.808  1.3659  2.0683 -0.3122
 3390SOL    HW221804   2.804   2.567   2.905  0.5340  0.5617 -0.1042
 3391SOL     OW21805   0.714   2.628   6.508  0.3593  0.1995 -0.3304
 3391SOL    HW121806   0.711   2.602   6.600  1.3030 -0.5092 -0.5072
 3391SOL    HW221807   0.776   2.702   6.513  0.3004  0.2448 -0.2617
 3392SOL     OW21808   1.675   4.721  12.205  0.1270  0.3197  0.2964
 3392SOL    HW121809   1.659   0.079  12.221 -1.5790  0.1383 -0.3360
 3392SOL    HW221810   1.599   4.701  12.150 -1.3015  2.6005  1.4593
 3393SOL     OW21811   1.086   4.178   4.031 -0.0773  0.0854 -0.2778
 3393SOL    HW121812   1.067   4.115   3.962  1.4552 -0.9940  0.2957
 3393SOL    HW221813   1.065   4.261   3.987  2.2890  1.1534  0.5653
 3394SOL     OW21814   4.530   2.739   1.930 -0.1811  0.5501  0.6705
 3394SOL    HW121815   4.482   2.723   1.849 -0.8106  3.2974  0.4906
 3394SOL    HW221816   4.471   2.708   1.999 -1.2520  1.2317  0.0641
 3395SOL     OW21817   3.551   4.396  15.361 -0.3444 -0.1440 -0.3035
 3395SOL    HW121818   3.623   4.440  15.406 -1.5482  1.1395  0.3449
 3395SOL    HW221819   3.569   4.436  15.276 -0.3209 -0.2372 -0.3423
 3396SOL     OW21820   2.061   3.301   7.060  0.3725 -0.0829 -0.0587
 3396SOL    HW121821   1.987   3.241   7.049  0.5416 -0.4645  0.8793
 3396SOL    HW221822   2.077   3.306   7.154  0.2546  3.7555 -0.2420
 3397SOL     OW21823   0.395   4.717  17.735 -0.1149 -0.2956  0.0422
 3397SOL    HW121824   0.441   0.026   0.068  0.4676  0.3441 -0.7233
 3397SOL    HW221825   0.409   0.039  17.659  2.2395 -1.6865 -0.5723
 3398SOL     OW21826   4.623   4.522   3.105 -0.6404 -0.2765 -0.0487
 3398SOL    HW121827   4.591   4.434   3.125  0.4422 -0.6384  0.0919
 3398SOL    HW221828   4.561   4.573   3.157  0.5461  0.4720  0.6471
 3399SOL     OW21829   3.590   4.669   8.170  0.2248 -0.2657 -0.0554
 3399SOL    HW121830   3.612   0.010   8.225  0.9573 -1.0002  0.6771
 3399SOL    HW221831   3.606   4.592   8.225  0.2911 -0.8056 -0.8493
 3400SOL     OW21832   0.771   2.393  11.649 -0.0279 -0.0225 -0.3144
 3400SOL    HW121833   0.747   2.399  11.557  0.1985  0.0726 -0.3671
 3400SOL    HW221834   0.686   2.407  11.692  1.3957  3.2459  1.3911
 3401SOL     OW21835   3.400   4.615   0.398 -0.2126  0.0601 -0.1801
 3401SOL    HW121836   3.360   4.668   0.467 -1.4275 -0.7446 -0.2549
 3401SOL    HW221837   3.486   4.588   0.431  0.9090  1.0554 -2.2822
 3402SOL     OW21838   1.405   1.707   8.073  0.9420  0.2014  0.6005
 3402SOL    HW121839   1.419   1.793   8.113  0.9690  0.7532 -0.5874
 3402SOL    HW221840   1.352   1.723   7.996  1.3285  0.4966  0.3947
 3403SOL     OW21841   4.702   0.347  12.075 -0.1419  0.0250  0.1119
 3403SOL    HW121842   4.626   0.349  12.134 -0.1047  0.2190  0.1538
 3403SOL    HW221843   4.703   0.253  12.056  2.0745  0.5554 -2.3947
 3404SOL     OW21844   4.534   1.890   1.697  0.5421 -0.1732 -0.2730
 3404SOL    HW121845   4.574   1.904   1.783 -2.1954  0.1756  0.9681
 3404SOL    HW221846   4.575   1.811   1.663 -0.2159 -0.0786 -1.3998
 3405SOL     OW21847   1.838   1.348  11.620  0.0997 -0.3044 -0.2041
 3405SOL    HW121848   1.911   1.304  11.576  1.7588  0.7133  1.5627
 3405SOL    HW221849   1.850   1.437  11.585  0.4093 -0.9472 -1.7245
 3406SOL     OW21850   0.193   4.070   3.784 -0.0353 -0.1731 -0.0977
 3406SOL    HW121851   0.246   4.150   3.775 -0.7069  0.0300 -2.3381
 3406SOL    HW221852   0.167   4.077   3.876 -0.8863  1.2200 -0.4411
 3407SOL     OW21853   1.762   4.027   1.659  0.2110  0.5731  0.2486
 3407SOL    HW121854   1.714   3.964   1.606  1.6149  0.1103 -0.4850
 3407SOL    HW221855   1.715   4.024   1.742 -2.1402  1.3141 -1.0562
 3408SOL     OW21856   1.880   0.247  10.673 -0.4286  0.2656 -1.3559
 3408SOL    HW121857   1.825   0.261  10.596 -0.8019 -0.9439 -1.3022
 3408SOL    HW221858   1.949   0.184  10.652 -1.3976 -1.0668 -0.4869
 3409SOL     OW21859   3.606   2.097   4.543  1.1501 -0.3659 -0.1853
 3409SOL    HW121860   3.603   2.002   4.535 -0.6661 -0.5113  2.2086
 3409SOL    HW221861   3.621   2.125   4.452  0.2458  2.2308  0.4796
 3410SOL     OW21862   2.074   3.119   8.027 -0.2605  0.4248  0.1164
 3410SOL    HW121863   2.105   3.070   8.102  0.9502  1.6978  0.4419
 3410SOL    HW221864   2.132   3.195   8.020 -0.6219  0.8008  1.2432
 3411SOL     OW21865   0.932   0.585  14.903 -0.1457  0.1377  0.8386
 3411SOL    HW121866   0.842   0.556  14.911 -0.9218  3.1176  2.9152
 3411SOL    HW221867   0.984   0.505  14.909 -1.8980 -0.9418  1.5098
 3412SOL     OW21868   3.681   2.493   6.602  0.3818  0.9794  0.7168
 3412SOL    HW121869   3.620   2.508   6.674 -1.5158  0.1709 -0.7079
 3412SOL    HW221870   3.754   2.552   6.617  0.8609  0.5131  0.2049
 3413SOL     OW21871   1.794   3.046   6.187  0.2640  0.3000 -0.4338
 3413SOL    HW121872   1.716   3.097   6.209  1.1837  1.3608  0.3751
 3413SOL    HW221873   1.785   2.976   6.251 -0.0340 -0.2883 -1.1153
 3414SOL     OW21874   2.036   4.394   3.445 -0.1163 -0.3617 -0.4544
 3414SOL    HW121875   2.001   4.305   3.453 -0.0928 -0.5065 -1.9756
 3414SOL    HW221876   2.093   4.398   3.522 -1.3964  1.2365  0.3936
 3415SOL     OW21877   0.917   0.843   7.747 -0.0167  0.1364 -0.0268
 3415SOL    HW121878   0.908   0.914   7.809  2.7462  0.8090 -0.3631
 3415SOL    HW221879   1.006   0.863   7.716 -0.2316 -1.7390 -1.8722
 3416SOL     OW21880   4.697   0.610   0.326 -0.0572 -0.0599 -0.4588
 3416SOL    HW121881   0.041   0.594   0.274 -1.3999 -1.4007 -2.1002
 3416SOL    HW221882   4.733   0.565   0.403 -4.2783 -0.0191  1.5053
 3417SOL     OW21883   3.638   3.766   6.012 -0.1317  0.1340  0.4523
 3417SOL    HW121884   3.679   3.747   6.097  0.2758  1.2862  0.5122
 3417SOL    HW221885   3.589   3.845   6.036  0.7331  0.2749  1.7843
 3418SOL     OW21886   2.752   1.498   2.227  0.2544  0.3620  0.2649
 3418SOL    HW121887   2.664   1.467   2.207  0.5743 -0.4381  0.0928
 3418SOL    HW221888   2.800   1.418   2.251  2.4583  1.1587 -1.4761
 3419SOL     OW21889   3.052   3.818  14.826  0.1840  1.1106  0.5539
 3419SOL    HW121890   3.147   3.808  14.832 -0.0099 -1.1599  0.1466
 3419SOL    HW221891   3.035   3.911  14.841  1.1256  1.4457 -0.4458
 3420SOL     OW21892   2.739   0.915   9.212  0.1660 -0.5029 -0.1883
 3420SOL    HW121893   2.814   0.892   9.267  0.5920  1.9153  0.2062
 3420SOL    HW221894   2.757   1.003   9.180  1.8167 -1.0413 -0.7250
 3421SOL     OW21895   3.018   4.204   7.323  0.8843  0.3371  0.4151
 3421SOL    HW121896   3.022   4.245   7.237  1.1926 -1.3383 -0.3740
 3421SOL    HW221897   3.084   4.134   7.318 -0.4945 -0.8251 -1.2088
 3422SOL     OW21898   4.352   4.475   5.195 -0.2216  0.5669  0.0403
 3422SOL    HW121899   4.322   4.563   5.170 -1.4661  0.4957  1.2772
 3422SOL    HW221900   4.314   4.431   5.119  1.1704 -0.8025  0.1537
 3423SOL     OW21901   4.191   1.525   8.949 -0.0505 -0.0124  0.7104
 3423SOL    HW121902   4.246   1.510   9.026  1.6977  2.5614 -0.0471
 3423SOL    HW221903   4.109   1.536   8.997 -0.6280 -1.7807  0.1546
 3424SOL     OW21904   2.588   4.547   9.716 -0.3811 -0.1453  0.5386
 3424SOL    HW121905   2.551   4.602   9.647 -1.8988  0.5850  1.9541
 3424SOL    HW221906   2.614   4.479   9.653  0.8166  0.3620  0.4931
 3425SOL     OW21907   4.300   2.400  12.671  0.1412 -0.7245 -0.3749
 3425SOL    HW121908   4.254   2.474  12.710  0.9599 -0.4255  0.0082
 3425SOL    HW221909   4.383   2.435  12.641 -1.1152  2.6380  0.0397
 3426SOL     OW21910   1.899   0.335   1.867  0.7444  0.1465  0.2948
 3426SOL    HW121911   1.858   0.421   1.858 -0.3862 -0.4569 -0.2117
 3426SOL    HW221912   1.827   0.272   1.866  2.5324 -1.8959 -0.6137
 3427SOL     OW21913   4.171   3.894  11.205  0.0836 -0.0862 -0.5794
 3427SOL    HW121914   4.220   3.871  11.126 -0.3277  1.6359 -1.3207
 3427SOL    HW221915   4.249   3.928  11.250 -0.1158 -0.3540 -0.0346
 3428SOL     OW21916   0.033   0.881   5.073 -0.2683 -0.4777 -0.6369
 3428SOL    HW121917   0.045   0.938   4.996 -0.5111  1.2903  0.6169
 3428SOL    HW221918   0.124   0.863   5.096  0.3276  1.9359 -1.0643
 3429SOL     OW21919   4.568   4.735   5.450  0.0731  0.2862  0.0013
 3429SOL    HW121920   4.586   0.070   5.513 -0.0578 -0.3242  0.7151
 3429SOL    HW221921   4.489   0.028   5.403  0.0887 -1.7886 -1.2510
 3430SOL     OW21922   0.087   1.370   3.505 -0.1177  0.4245  0.4229
 3430SOL    HW121923   0.075   1.276   3.518 -0.2903  0.4968  0.7820
 3430SOL    HW221924   0.149   1.371   3.432  0.9344  2.4564  1.3365
 3431SOL     OW21925   0.738   3.483  16.499 -0.5594 -0.2359  0.2496
 3431SOL    HW121926   0.651   3.496  16.461 -1.7471 -1.1307  2.6695
 3431SOL    HW221927   0.712   3.487  16.591 -0.1255  1.9652  0.2696
 3432SOL     OW21928   1.164   2.643   3.601 -0.3823  0.5592  0.6773
 3432SOL    HW121929   1.251   2.607   3.619 -0.4568 -1.9443 -4.0107
 3432SOL    HW221930   1.107   2.567   3.592  0.1985  0.2919 -0.7666
 3433SOL     OW21931   1.528   4.626   5.842 -0.3675 -0.1387 -0.2551
 3433SOL    HW121932   1.503   4.618   5.934 -1.0090 -0.8313 -0.4915
 3433SOL    HW221933   1.622   4.613   5.850 -0.3077  1.2952  1.3943
 3434SOL     OW21934   4.645   4.197   0.809  0.4390  0.4165 -0.7580
 3434SOL    HW121935   4.623   4.252   0.884  3.0736  0.5991 -0.1258
 3434SOL    HW221936   4.655   4.266   0.743 -1.5438  0.2704 -1.2404
 3435SOL     OW21937   2.581   3.679   7.767  0.1895  0.1494  0.2143
 3435SOL    HW121938   2.631   3.741   7.713 -0.4395  0.7634  0.3364
 3435SOL    HW221939   2.652   3.617   7.782  0.1279 -0.0902 -0.4943
 3436SOL     OW21940   4.729   1.300  15.041 -0.0933 -0.6364 -0.0738
 3436SOL    HW121941   4.721   1.312  14.946  1.3289  3.8664  0.3976
 3436SOL    HW221942   0.083   1.268  15.053  0.9094  2.3864  0.5125
 3437SOL     OW21943   3.028   2.715   4.655  0.3660 -0.1430  0.2264
 3437SOL    HW121944   3.030   2.765   4.736  2.4499  2.0049 -1.1460
 3437SOL    HW221945   3.029   2.780   4.585  0.5815 -0.0739  0.2942
 3438SOL     OW21946   2.795   1.495   5.117  0.1192  0.0564  0.1078
 3438SOL    HW121947   2.708   1.534   5.107  0.2549  0.6055  1.0224
 3438SOL    HW221948   2.793   1.421   5.056  0.0492  1.0617 -1.1095
 3439SOL     OW21949   3.946   3.512  12.500  0.3804  0.0215  0.3429
 3439SOL    HW121950   3.921   3.532  12.590 -2.2888  0.8639 -0.5849
 3439SOL    HW221951   3.870   3.548  12.455  0.4638  1.0188  1.0012
 3440SOL     OW21952   1.532   4.462   4.356 -0.3639 -0.2350 -0.1057
 3440SOL    HW121953   1.609   4.513   4.331  0.2236 -1.7078 -1.3106
 3440SOL    HW221954   1.472   4.473   4.282  0.6507  1.1546 -0.7120
 3441SOL     OW21955   1.416   2.082   2.112  0.3641  0.0491  0.1701
 3441SOL    HW121956   1.394   1.997   2.074 -0.5328  0.4985 -0.3270
 3441SOL    HW221957   1.327   2.117   2.118  0.0852 -0.4807 -0.9372
 3442SOL     OW21958   2.764   0.468   4.688  0.4215 -0.3747 -0.1511
 3442SOL    HW121959   2.710   0.390   4.677  1.7086 -1.3207  0.1856
 3442SOL    HW221960   2.719   0.537   4.639 -0.5838  0.3884  1.8514
 3443SOL     OW21961   3.581   0.216   4.333  0.2943  0.1778  0.4551
 3443SOL    HW121962   3.655   0.156   4.335  0.3920  0.3172  1.1123
 3443SOL    HW221963   3.545   0.238   4.420 -0.9222  2.0687 -0.5103
 3444SOL     OW21964   3.066   1.400  10.766 -1.0925  0.2004  0.2559
 3444SOL    HW121965   3.025   1.313  10.763  0.0606 -0.2566 -1.9382
 3444SOL    HW221966   3.097   1.409  10.856 -3.3726 -1.1879  1.1844
 3445SOL     OW21967   0.703   3.825  14.161 -0.1079 -0.6227  0.0290
 3445SOL    HW121968   0.788   3.785  14.181 -0.0681  0.1175  1.3042
 3445SOL    HW221969   0.689   3.858  14.250  0.0429  0.0752 -0.2082
 3446SOL     OW21970   4.451   0.109  14.454 -0.1855 -0.1365 -0.1749
 3446SOL    HW121971   4.389   0.144  14.517 -1.7034 -3.0066 -0.0740
 3446SOL    HW221972   4.509   0.185  14.448 -0.6428  0.2353  0.1513
 3447SOL     OW21973   3.125   3.745   6.209  0.2812  0.1511  0.5969
 3447SOL    HW121974   3.175   3.676   6.166 -0.2288 -0.6359  1.2672
 3447SOL    HW221975   3.055   3.749   6.145  0.8800 -3.0331 -0.2509
 3448SOL     OW21976   0.344   4.461   1.412  0.6252  0.5387  0.1638
 3448SOL    HW121977   0.404   4.395   1.377 -1.9366 -1.0783 -1.1419
 3448SOL    HW221978   0.284   4.475   1.338  0.9476 -0.4487 -0.2835
 3449SOL     OW21979   2.548   0.740  12.488 -0.0113  0.3346 -0.8556
 3449SOL    HW121980   2.502   0.818  12.456  0.0659  1.5795  2.0640
 3449SOL    HW221981   2.483   0.671  12.477 -0.0241 -0.1254  2.3508
 3450SOL     OW21982   2.634   1.711   4.103  0.0866  0.9315  0.1304
 3450SOL    HW121983   2.607   1.705   4.194 -0.3541 -1.5940 -0.1637
 3450SOL    HW221984   2.681   1.794   4.105 -1.2704  1.6909  0.7257
 3451SOL     OW21985   1.911   1.415   6.228  0.6944 -0.4113  0.0697
 3451SOL    HW121986   1.948   1.483   6.284 -1.0761  0.3098  0.3745
 3451SOL    HW221987   1.941   1.338   6.277 -0.1110 -0.7860 -0.0171
 3452SOL     OW21988   1.903   4.576  16.333  0.1248  0.3876  0.7082
 3452SOL    HW121989   1.835   4.581  16.266 -0.7138  0.6378  1.5689
 3452SOL    HW221990   1.972   4.528  16.288 -1.8486 -0.7479 -1.1105
 3453SOL     OW21991   3.041   1.094   7.916  0.1012 -0.2280 -0.3564
 3453SOL    HW121992   3.110   1.052   7.968 -0.5800 -0.3410  0.4410
 3453SOL    HW221993   3.096   1.119   7.841  0.4477 -0.1074 -0.0641
 3454SOL     OW21994   1.548   1.276  14.269 -0.6079  0.3553  0.4006
 3454SOL    HW121995   1.517   1.256  14.181 -0.1436 -1.7061  0.7018
 3454SOL    HW221996   1.568   1.183  14.283  2.1462  0.6330 -1.7740
 3455SOL     OW21997   0.974   1.135   7.724  0.2824  0.0570 -0.3688
 3455SOL    HW121998   0.909   1.200   7.751  0.5386  0.1778 -0.0388
 3455SOL    HW221999   0.992   1.180   7.642  0.3781 -1.3556 -1.1235
 3456SOL     OW22000   2.412   3.783   4.691  0.2002  0.4884 -0.0591
 3456SOL    HW122001   2.417   3.702   4.741 -1.0466  0.7942  0.5622
 3456SOL    HW222002   2.451   3.749   4.610 -1.2350 -1.5638  0.1137
 3457SOL     OW22003   4.674   0.113  13.938 -0.9413 -0.8682  0.7287
 3457SOL    HW122004   4.616   0.157  13.876 -0.6434 -0.8517  0.4585
 3457SOL    HW222005   4.664   0.021  13.914 -0.1206 -0.8184  0.1861
 3458SOL     OW22006   0.320   4.086   4.117 -0.0339  0.3935 -0.2425
 3458SOL    HW122007   0.387   4.143   4.080 -0.7858  2.3364  1.3525
 3458SOL    HW222008   0.240   4.138   4.103 -1.3219 -1.3624  0.6330
 3459SOL     OW22009   1.277   3.149   6.130  0.2947  0.5989 -0.0933
 3459SOL    HW122010   1.255   3.203   6.205 -0.5662  0.9122 -0.5726
 3459SOL    HW222011   1.220   3.172   6.056 -0.1452  1.7241  0.5993
 3460SOL     OW22012   4.604   1.788   6.127  0.2612  0.9434 -0.2128
 3460SOL    HW122013   4.672   1.737   6.170 -0.9706  0.2051  0.8389
 3460SOL    HW222014   4.572   1.732   6.056 -2.1341  1.0159  0.8224
 3461SOL     OW22015   3.527   4.703  15.904  0.0527  0.4933  0.5828
 3461SOL    HW122016   3.573   0.036  15.856 -2.2570  1.6519 -0.0108
 3461SOL    HW222017   3.539   4.631  15.841  1.1214  0.3952  0.9101
 3462SOL     OW22018   1.206   2.890   3.280 -0.2531  0.1943 -0.1312
 3462SOL    HW122019   1.120   2.850   3.288 -0.8750  1.3352 -1.1531
 3462SOL    HW222020   1.182   2.958   3.216 -0.5734 -0.4038 -0.6480
 3463SOL     OW22021   4.638   3.947  17.162 -0.1082 -0.2716  0.5229
 3463SOL    HW122022   4.662   3.879  17.099 -2.5037  1.1956 -1.9186
 3463SOL    HW222023   4.722   3.994  17.166 -1.3059  1.9655 -1.1093
 3464SOL     OW22024   3.357   0.861   5.963  0.1315 -0.2024 -0.3960
 3464SOL    HW122025   3.267   0.883   5.938 -0.0017  1.4106  1.5017
 3464SOL    HW222026   3.358   0.844   6.058 -0.1614  1.4877 -0.0927
 3465SOL     OW22027   1.356   3.810   7.126 -0.5729 -0.0350  0.5848
 3465SOL    HW122028   1.440   3.765   7.126  0.3611  1.7637  3.0894
 3465SOL    HW222029   1.346   3.817   7.031  0.3362  0.5491  0.5385
 3466SOL     OW22030   0.264   2.392   4.011  0.3409  0.2390 -0.2911
 3466SOL    HW122031   0.283   2.391   3.917 -0.0875  0.2068 -0.3755
 3466SOL    HW222032   0.287   2.301   4.029  0.9785  0.1907 -1.2958
 3467SOL     OW22033   3.132   1.732   1.579 -0.2724 -0.1142  0.3008
 3467SOL    HW122034   3.152   1.793   1.507 -2.8321 -1.1084 -1.2876
 3467SOL    HW222035   3.108   1.797   1.645 -0.6227 -0.3953  0.4523
 3468SOL     OW22036   3.553   2.455  12.161 -0.2181 -0.0877  0.4173
 3468SOL    HW122037   3.587   2.398  12.092 -0.2632  3.3373 -2.4829
 3468SOL    HW222038   3.591   2.538  12.132 -0.1524 -0.1291  0.3849
 3469SOL     OW22039   3.458   4.390   4.719  0.1084 -0.1498 -0.7984
 3469SOL    HW122040   3.391   4.417   4.656 -1.9833 -1.7226  0.7459
 3469SOL    HW222041   3.504   4.474   4.725  0.2257 -0.2090 -0.8750
 3470SOL     OW22042   4.619   3.080   4.950 -0.2169  0.9652 -0.0050
 3470SOL    HW122043   4.708   3.113   4.932  0.4775  0.5794  2.8435
 3470SOL    HW222044   4.649   2.990   4.965  0.3449  1.0556 -0.5759
 3471SOL     OW22045   1.492   2.678   6.186  0.7316 -0.0100  0.5981
 3471SOL    HW122046   1.454   2.760   6.154  1.5523  0.7470  1.5556
 3471SOL    HW222047   1.458   2.673   6.275  0.4271  0.2519  0.4954
 3472SOL     OW22048   3.540   3.923  13.956 -0.2715 -0.3682  0.2029
 3472SOL    HW122049   3.504   3.966  13.878  1.0302 -0.2949 -0.3566
 3472SOL    HW222050   3.471   3.939  14.020 -1.4512  0.9911 -1.4040
 3473SOL     OW22051   1.278   4.165  14.946  0.0992  0.2148  0.1626
 3473SOL    HW122052   1.302   4.097  14.883  2.9292  2.5539 -1.2766
 3473SOL    HW222053   1.277   4.110  15.025  1.7681 -1.7633 -1.1981
 3474SOL     OW22054   3.964   2.804   5.578  0.0817 -0.3647 -0.6701
 3474SOL    HW122055   3.968   2.793   5.483  1.4913  1.5081 -0.8275
 3474SOL    HW222056   3.983   2.890   5.615  2.5690 -0.9346 -0.6643
 3475SOL     OW22057   0.686   0.750   2.718 -0.4060  0.1141 -0.1921
 3475SOL    HW122058   0.776   0.780   2.724 -0.2574 -0.2601 -0.6089
 3475SOL    HW222059   0.694   0.680   2.782 -1.5713  0.8153  0.7297
 3476SOL     OW22060   1.966   3.610  13.357 -0.6771  0.3603  0.3478
 3476SOL    HW122061   1.906   3.551  13.405  0.3931 -1.1466 -0.1812
 3476SOL    HW222062   2.049   3.579  13.394 -0.4027  0.6098 -0.0675
 3477SOL     OW22063   4.510   2.897   9.647 -0.0103  0.1698 -0.0938
 3477SOL    HW122064   4.514   2.810   9.686 -0.6699 -0.4091 -1.3249
 3477SOL    HW222065   4.603   2.922   9.647  0.0555 -0.0727  0.2014
 3478SOL     OW22066   3.694   2.585   2.815  0.1466 -0.4158  0.2334
 3478SOL    HW122067   3.778   2.632   2.814 -1.3686  2.2352 -1.3668
 3478SOL    HW222068   3.728   2.496   2.817 -0.1342 -0.5029  0.9200
 3479SOL     OW22069   2.473   1.189   4.034  0.1148 -0.3348  0.5708
 3479SOL    HW122070   2.512   1.159   4.116  1.0432 -2.5141 -0.6887
 3479SOL    HW222071   2.477   1.283   4.051 -0.0210 -0.1188 -0.5664
 3480SOL     OW22072   4.007   4.266   9.496  0.2245  0.5353 -0.1256
 3480SOL    HW122073   3.965   4.233   9.416 -0.2002 -2.3737  1.3048
 3480SOL    HW222074   3.993   4.187   9.548 -0.1487 -0.1245 -1.2027
 3481SOL     OW22075   3.569   1.154   8.756  0.2796 -0.3834  0.3216
 3481SOL    HW122076   3.539   1.242   8.736  0.1790 -0.6871 -0.8738
 3481SOL    HW222077   3.498   1.124   8.813 -0.3426  0.1726 -0.1621
 3482SOL     OW22078   0.822   2.167   7.678  0.1875 -0.4135  0.2784
 3482SOL    HW122079   0.834   2.088   7.626 -1.6366  0.8275 -2.0349
 3482SOL    HW222080   0.737   2.206   7.655 -0.3967 -1.5045  0.6089
 3483SOL     OW22081   4.394   1.389   1.788  0.5842 -0.0122  0.0076
 3483SOL    HW122082   4.488   1.400   1.773  0.7659 -0.6152  0.7195
 3483SOL    HW222083   4.371   1.482   1.784 -0.4142 -0.3400 -1.9407
 3484SOL     OW22084   3.799   2.426  10.758 -0.5009 -0.3376 -0.4007
 3484SOL    HW122085   3.782   2.519  10.743 -1.3347 -0.5336 -0.6566
 3484SOL    HW222086   3.869   2.444  10.821  0.4611 -1.8617 -1.0348
 3485SOL     OW22087   3.882   3.986   4.110  0.4039  0.1726  0.0332
 3485SOL    HW122088   3.811   3.932   4.075  0.0093  1.2953 -0.9115
 3485SOL    HW222089   3.850   4.075   4.094  2.2016  0.7279 -0.4037
 3486SOL     OW22090   2.985   4.069   2.050 -0.0915 -0.2227 -0.2865
 3486SOL    HW122091   2.925   4.073   2.125  0.9950  0.6948  0.5346
 3486SOL    HW222092   2.922   4.054   1.979 -0.2792  1.1439 -0.3941
 3487SOL     OW22093   3.722   3.559   6.946 -0.1601  0.4273 -0.5249
 3487SOL    HW122094   3.702   3.486   6.888  0.6439 -0.1417 -0.0781
 3487SOL    HW222095   3.640   3.562   6.995 -1.7951 -1.7587 -3.1750
 3488SOL     OW22096   2.757   0.671   1.450 -0.2917  0.5553  0.1174
 3488SOL    HW122097   2.750   0.648   1.357  2.3204  1.9261 -0.4078
 3488SOL    HW222098   2.802   0.755   1.449  1.5273 -0.4060  1.0572
 3489SOL     OW22099   0.524   4.628   2.898 -0.3928  0.1887  0.3016
 3489SOL    HW122100   0.468   4.551   2.890 -1.1423  0.9770 -2.0457
 3489SOL    HW222101   0.606   4.594   2.862 -0.8572  0.2291 -0.7950
 3490SOL     OW22102   2.168   0.133   8.044 -0.2281 -0.0719  0.1666
 3490SOL    HW122103   2.244   0.188   8.024 -0.1217 -0.1941  0.2303
 3490SOL    HW222104   2.127   0.189   8.110 -0.4622 -0.0111 -0.0344
 3491SOL     OW22105   0.457   3.434   5.575  0.2941  0.0401 -0.0910
 3491SOL    HW122106   0.511   3.422   5.497 -0.8899  2.2741 -1.2545
 3491SOL    HW222107   0.484   3.355   5.622  2.5603  0.6023 -0.4426
 3492SOL     OW22108   2.606   3.941   2.348 -0.1721 -0.8398 -0.2263
 3492SOL    HW122109   2.604   3.968   2.440  0.4639  0.8870 -0.7185
 3492SOL    HW222110   2.674   4.002   2.318 -1.6662 -0.8425 -3.6504
 3493SOL     OW22111   0.517   4.647   4.321  0.1902 -0.3122 -0.3194
 3493SOL    HW122112   0.461   4.602   4.257  1.6357 -0.3172 -1.5833
 3493SOL    HW222113   0.453   4.673   4.387  0.3909  0.6014 -0.4936
 3494SOL     OW22114   3.611   2.565   8.621  0.3496  0.5971 -0.1591
 3494SOL    HW122115   3.604   2.588   8.528  1.0938  1.4610 -0.0030
 3494SOL    HW222116   3.660   2.482   8.619  0.3894  0.5926  1.2024
 3495SOL     OW22117   1.991   4.574   4.548  0.0363  0.3797  0.1823
 3495SOL    HW122118   2.022   4.609   4.631 -0.8537  1.7433 -0.0621
 3495SOL    HW222119   2.074   4.553   4.505 -0.1999  1.9655 -1.0527
 3496SOL     OW22120   1.983   1.621   4.517  0.0211  0.0096 -0.7526
 3496SOL    HW122121   1.981   1.658   4.605 -0.8498  0.5250 -0.9943
 3496SOL    HW222122   1.894   1.588   4.509  0.4856 -1.7084  0.9779
 3497SOL     OW22123   4.453   1.124   3.261  0.3719 -0.2915  0.0728
 3497SOL    HW122124   4.368   1.140   3.220 -0.5645 -1.5456  1.5036
 3497SOL    HW222125   4.483   1.045   3.216  0.3962  0.2967 -0.9332
 3498SOL     OW22126   1.183   2.600   0.124  0.3208 -0.3941 -0.2906
 3498SOL    HW122127   1.165   2.689   0.094  1.2396  0.1198  0.6712
 3498SOL    HW222128   1.235   2.611   0.204  0.4049  0.4547 -0.4571
 3499SOL     OW22129   1.394   1.389  10.223 -0.3567  0.1879 -0.4046
 3499SOL    HW122130   1.442   1.440  10.158 -0.4242 -0.0713 -0.6557
 3499SOL    HW222131   1.439   1.417  10.302 -0.2055 -1.6702  0.1710
 3500SOL     OW22132   2.242   2.493   6.129  0.4174 -0.3554  0.0657
 3500SOL    HW122133   2.223   2.399   6.122  0.3507 -0.2504 -1.0309
 3500SOL    HW222134   2.280   2.514   6.044  0.5014  0.0717  0.2078
 3501SOL     OW22135   4.289   1.621   4.376  0.0211  0.3375 -0.1799
 3501SOL    HW122136   4.257   1.654   4.459  3.5549 -0.1227  1.3500
 3501SOL    HW222137   4.291   1.528   4.399 -0.6772  0.3844  0.0788
 3502SOL     OW22138   1.868   0.837   3.120 -0.3414 -0.8258 -0.1185
 3502SOL    HW122139   1.803   0.844   3.190  1.2077 -0.2232  1.2616
 3502SOL    HW222140   1.878   0.746   3.091  1.7953 -0.2882 -1.0611
 3503SOL     OW22141   4.619   0.465   1.175  0.3321 -0.2210 -0.8163
 3503SOL    HW122142   4.711   0.491   1.184 -0.1096  0.2607  2.2292
 3503SOL    HW222143   4.616   0.375   1.209 -0.1136 -0.5174 -1.6253
 3504SOL     OW22144   2.891   3.192   6.398  0.9996  0.1464 -0.0878
 3504SOL    HW122145   2.861   3.141   6.473 -0.8947 -1.4364 -1.9241
 3504SOL    HW222146   2.826   3.170   6.332 -2.0720  2.6730  2.0466
 3505SOL     OW22147   3.619   0.014  12.563 -0.3763 -0.1753  0.1478
 3505SOL    HW122148   3.687   0.081  12.572  0.0242 -0.8509  2.0130
 3505SOL    HW222149   3.672   4.679  12.525  1.5795  0.8004  1.0838
 3506SOL     OW22150   3.943   2.808  13.000  0.4271 -0.2577  0.6557
 3506SOL    HW122151   3.979   2.768  12.922 -0.1086 -1.1793  0.8813
 3506SOL    HW222152   3.995   2.761  13.065 -2.4532  0.5159  3.5718
 3507SOL     OW22153   2.896   2.988   5.926  0.5581 -0.7087 -0.4319
 3507SOL    HW122154   2.965   2.935   5.967 -0.0246 -0.9746  0.2068
 3507SOL    HW222155   2.891   3.067   5.980 -1.0187  1.5612 -3.8803
 3508SOL     OW22156   0.514   2.719  16.900  0.0615  0.7029  0.1595
 3508SOL    HW122157   0.546   2.791  16.955  1.7193  0.6458 -0.7320
 3508SOL    HW222158   0.585   2.656  16.916  0.6548  1.4559  0.5293
 3509SOL     OW22159   3.811   4.669   6.035  0.3578  0.2241  0.2022
 3509SOL    HW122160   3.803   0.030   6.034 -0.1189  0.1634 -2.0023
 3509SOL    HW222161   3.841   4.654   6.124 -0.1288 -2.5956 -0.1164
 3510SOL     OW22162   3.442   3.100  13.687 -0.0782 -0.1548  0.0704
 3510SOL    HW122163   3.401   3.183  13.712 -1.1795 -0.5576 -0.4294
 3510SOL    HW222164   3.362   3.047  13.686  0.6588 -1.2713  0.5257
 3511SOL     OW22165   3.095   2.189  11.689  0.6828  0.1068 -0.5205
 3511SOL    HW122166   3.014   2.165  11.645 -1.1020  1.1233  2.2620
 3511SOL    HW222167   3.066   2.205  11.778  0.3735 -0.3028 -0.5485
 3512SOL     OW22168   0.737   0.423   2.230 -0.2833  0.0994  0.1654
 3512SOL    HW122169   0.769   0.428   2.140  1.9506 -1.8147  0.8601
 3512SOL    HW222170   0.823   0.421   2.272  0.7224  0.0464 -1.9387
 3513SOL     OW22171   0.629   4.157   2.263 -0.1996 -0.3106  0.4889
 3513SOL    HW122172   0.601   4.230   2.207  1.9922 -0.1339 -0.3761
 3513SOL    HW222173   0.714   4.188   2.295  0.0996 -1.3624  0.7083
 3514SOL     OW22174   2.502   3.418   3.707  0.1305  0.4879  0.1397
 3514SOL    HW122175   2.491   3.431   3.613 -0.5589 -0.5335  0.0692
 3514SOL    HW222176   2.497   3.323   3.719  2.8686  0.5632  1.7807
 3515SOL     OW22177   0.704   0.110   0.538 -0.1869 -0.0362  0.1262
 3515SOL    HW122178   0.789   0.126   0.497 -0.2162  2.4288  1.0471
 3515SOL    HW222179   0.736   0.062   0.615 -0.3644  1.3571  1.0783
 3516SOL     OW22180   2.698   4.041   9.822  0.2080 -0.5839  0.5741
 3516SOL    HW122181   2.680   3.962   9.872 -1.8946  0.0330  0.7755
 3516SOL    HW222182   2.613   4.084   9.832  0.4452 -0.4008  1.8146
 3517SOL     OW22183   4.650   0.368   5.228 -0.3347 -0.4632  0.1347
 3517SOL    HW122184   4.581   0.397   5.287  0.3403 -2.3688  1.8595
 3517SOL    HW222185   4.681   0.449   5.187  1.4660  0.1998  2.8385
 3518SOL     OW22186   4.310   3.048   6.023  0.0014  0.4460 -0.2127
 3518SOL    HW122187   4.351   3.107   5.960  0.1547 -0.2076 -0.7287
 3518SOL    HW222188   4.352   3.078   6.104 -0.1246  1.9305 -0.7021
 3519SOL     OW22189   1.943   1.899  12.847 -0.3488 -0.1170  0.1076
 3519SOL    HW122190   1.895   1.902  12.764  1.8978 -0.1683 -1.1828
 3519SOL    HW222191   1.868   1.909  12.905 -1.2187  2.2762 -1.4348
 3520SOL     OW22192   2.431   3.255   8.514  0.6503  0.6141 -0.1187
 3520SOL    HW122193   2.419   3.191   8.444 -0.1004 -0.4305  0.9700
 3520SOL    HW222194   2.525   3.244   8.528  0.5604  0.5411  0.4194
 3521SOL     OW22195   4.479   3.394   8.501  0.4666  0.7243 -0.7696
 3521SOL    HW122196   4.456   3.427   8.588  0.4302 -0.0502 -0.4925
 3521SOL    HW222197   4.567   3.362   8.520 -0.3844 -1.2289 -0.0967
 3522SOL     OW22198   4.118   2.522   4.581 -0.3834 -0.1590  0.4980
 3522SOL    HW122199   4.031   2.563   4.574 -0.7732 -1.1293 -0.3606
 3522SOL    HW222200   4.113   2.443   4.527 -1.2630 -0.7003  1.3818
 3523SOL     OW22201   0.922   3.289   4.407 -0.1222 -0.4476 -0.3124
 3523SOL    HW122202   0.840   3.291   4.456  1.4848 -0.0959  2.3597
 3523SOL    HW222203   0.949   3.197   4.412  2.1341  0.3061  1.3091
 3524SOL     OW22204   0.019   3.253  15.765 -0.0806 -0.0740  0.0294
 3524SOL    HW122205   0.038   3.230  15.856  0.5084  0.8081  0.1316
 3524SOL    HW222206   4.660   3.235  15.763 -0.1378  0.5721 -3.0243
 3525SOL     OW22207   1.164   0.764  10.556 -0.2572 -0.0042 -0.6578
 3525SOL    HW122208   1.206   0.832  10.609 -1.7458 -0.1400  0.7272
 3525SOL    HW222209   1.236   0.746  10.496  1.3839 -0.0487  1.3213
 3526SOL     OW22210   4.626   3.940  14.595  0.2502 -0.4112 -0.0893
 3526SOL    HW122211   4.632   3.952  14.500 -1.9554 -0.1321 -0.1981
 3526SOL    HW222212   4.676   4.007  14.640 -0.3698 -0.2359  0.3423
 3527SOL     OW22213   1.760   0.295   8.479  0.0022  0.0932  0.0574
 3527SOL    HW122214   1.735   0.205   8.460 -0.8666  0.3259  0.0786
 3527SOL    HW222215   1.846   0.304   8.438  0.1695 -1.6139  0.0520
 3528SOL     OW22216   4.382   0.435  11.981 -0.0978 -0.0883  0.1015
 3528SOL    HW122217   4.289   0.422  11.968 -0.0441 -1.0035  0.5576
 3528SOL    HW222218   4.368   0.427  12.076 -0.5388 -0.3278  0.0153
 3529SOL     OW22219   4.082   2.302   3.417 -0.8219 -0.1826  0.6604
 3529SOL    HW122220   4.029   2.244   3.363  0.6027  1.1049 -2.1667
 3529SOL    HW222221   4.013   2.360   3.450 -0.4027  1.2412 -0.9602
 3530SOL     OW22222   2.536   2.453   1.099  0.5884 -0.1463  0.3387
 3530SOL    HW122223   2.460   2.448   1.157  0.5564 -0.2909  0.2836
 3530SOL    HW222224   2.545   2.548   1.108 -0.3319 -0.0232  0.0247
 3531SOL     OW22225   4.603   1.454  17.503 -0.0318 -0.2570  0.0302
 3531SOL    HW122226   4.522   1.451  17.553  0.0372  3.5513  0.3811
 3531SOL    HW222227   4.673   1.489  17.558  0.1149 -1.3080  0.5277
 3532SOL     OW22228   4.005   0.211  14.242  0.5114  0.3114 -0.0952
 3532SOL    HW122229   3.915   0.212  14.276  0.5688  1.7537  0.0107
 3532SOL    HW222230   4.034   0.295  14.278  1.7708  0.0784 -0.5612
 3533SOL     OW22231   0.751   1.367   6.568 -0.0392 -0.7997 -0.0769
 3533SOL    HW122232   0.830   1.371   6.514 -1.4545  1.9286 -1.9320
 3533SOL    HW222233   0.698   1.408   6.500  1.9352 -0.5510 -1.4643
 3534SOL     OW22234   0.132   3.708   8.485  0.5408  0.1169 -0.4123
 3534SOL    HW122235   0.171   3.645   8.546 -0.7368  0.2479  0.5433
 3534SOL    HW222236   0.044   3.670   8.489  0.4818  0.2829 -0.1455
 3535SOL     OW22237   2.822   4.287   9.736  0.0838 -1.1947  0.0580
 3535SOL    HW122238   2.791   4.327   9.655  1.2226 -1.8874 -0.7279
 3535SOL    HW222239   2.783   4.200   9.739  0.4393 -1.4405 -2.3917
 3536SOL     OW22240   0.093   2.005   6.430 -0.0768 -0.0036  0.1610
 3536SOL    HW122241   0.154   2.078   6.438  2.3646 -1.7994 -2.2226
 3536SOL    HW222242   0.156   1.948   6.387  1.3979  1.1778  0.7702
 3537SOL     OW22243   0.746   0.450   7.077  0.0481 -0.2491  0.8258
 3537SOL    HW122244   0.838   0.475   7.064 -0.3038  0.8884  0.5089
 3537SOL    HW222245   0.711   0.539   7.075  0.7749 -0.0498 -2.2575
 3538SOL     OW22246   0.166   4.337   3.321  0.2458 -0.1028  0.8445
 3538SOL    HW122247   0.160   4.275   3.394 -0.5113  4.8163  4.9749
 3538SOL    HW222248   0.256   4.365   3.336  0.9466 -1.1832 -1.4286
 3539SOL     OW22249   2.320   0.077  11.814  0.7562 -1.1200 -0.0626
 3539SOL    HW122250   2.261   0.051  11.743 -2.7205 -3.0681  3.5803
 3539SOL    HW222251   2.289   0.017  11.882 -0.1988  1.7029  1.9924
 3540SOL     OW22252   3.839   2.717   3.478 -0.1809 -0.0885 -0.1698
 3540SOL    HW122253   3.835   2.736   3.572 -1.4248  0.6316 -0.3728
 3540SOL    HW222254   3.873   2.803   3.451 -1.0472 -0.1766 -1.5190
 3541SOL     OW22255   2.831   3.229   3.861 -0.2372  0.4144 -0.6998
 3541SOL    HW122256   2.742   3.224   3.895 -1.0667  3.3760 -2.4590
 3541SOL    HW222257   2.878   3.261   3.938 -1.5421  3.5256 -1.1881
 3542SOL     OW22258   2.942   2.815   5.201  0.9190 -0.7319 -0.1960
 3542SOL    HW122259   3.017   2.858   5.241  0.9414  0.4874 -1.5425
 3542SOL    HW222260   2.929   2.735   5.251 -1.8904  0.3158  0.7484
 3543SOL     OW22261   1.548   2.968   6.629 -0.1183 -0.1310  0.3286
 3543SOL    HW122262   1.564   2.983   6.722  2.1637  2.3013 -0.4533
 3543SOL    HW222263   1.631   2.941   6.590  0.5602  1.2481  0.8029
 3544SOL     OW22264   3.032   3.345   8.358  0.4711 -0.2089  0.1600
 3544SOL    HW122265   3.000   3.257   8.340 -0.1799  0.5732 -2.4821
 3544SOL    HW222266   2.949   3.389   8.377  1.2912  0.9909  1.0218
 3545SOL     OW22267   1.132   1.621   4.992  0.0943  0.1928 -0.2523
 3545SOL    HW122268   1.201   1.568   5.032  0.9719 -0.1319 -2.2150
 3545SOL    HW222269   1.074   1.627   5.068  1.2017 -0.0361  0.6192
 3546SOL     OW22270   4.401   1.546   9.365  0.2159  0.2764  0.7313
 3546SOL    HW122271   4.370   1.496   9.441 -2.3705  0.1475 -0.4315
 3546SOL    HW222272   4.487   1.545   9.408  0.2849  1.4280  0.6045
 3547SOL     OW22273   4.459   4.439   4.614 -0.1099  0.1171  0.4222
 3547SOL    HW122274   4.491   4.472   4.698 -1.2659  0.0445  0.8876
 3547SOL    HW222275   4.525   4.422   4.546 -1.0876 -1.4253 -0.1306
 3548SOL     OW22276   2.268   3.912   0.284  0.2921  0.7232 -0.4715
 3548SOL    HW122277   2.220   3.905   0.202 -0.7598  0.8851  0.1269
 3548SOL    HW222278   2.353   3.952   0.262  1.1745 -1.9516 -1.8594
 3549SOL     OW22279   4.196   2.658   9.163 -0.4074 -0.3257  0.7016
 3549SOL    HW122280   4.164   2.578   9.121 -2.4726  0.5900  0.5054
 3549SOL    HW222281   4.150   2.645   9.246 -1.1552 -0.2380  0.3006
 3550SOL     OW22282   3.753   0.112   4.637  0.2397  0.0441 -0.2189
 3550SOL    HW122283   3.706   0.049   4.692 -1.7715  0.8009 -1.0737
 3550SOL    HW222284   3.681   0.155   4.591  0.7892  1.0718 -0.1034
 3551SOL     OW22285   4.674   1.812   3.796 -0.2908 -0.6574 -0.5889
 3551SOL    HW122286   4.615   1.746   3.761 -1.9838  1.0519 -0.9581
 3551SOL    HW222287   4.659   1.893   3.747  0.5605  1.2615  2.2875
 3552SOL     OW22288   4.459   3.297   4.556  0.7271 -0.1324  0.0437
 3552SOL    HW122289   4.467   3.214   4.602 -1.8754 -2.2866 -3.3623
 3552SOL    HW222290   4.473   3.272   4.464  1.1234  2.5820 -0.6444
 3553SOL     OW22291   3.331   3.032  12.811  0.3039  0.0126 -0.0622
 3553SOL    HW122292   3.426   3.032  12.827  0.0401  1.8438  1.5388
 3553SOL    HW222293   3.325   3.127  12.796  1.2817  0.2125  0.7988
 3554SOL     OW22294   2.089   2.527   8.543  0.0219 -0.5263  0.6079
 3554SOL    HW122295   2.031   2.555   8.614 -0.2995  0.0746  0.0987
 3554SOL    HW222296   2.166   2.580   8.558 -1.3472  1.4945  0.4796
 3555SOL     OW22297   0.999   4.620   4.955  0.0385  0.0473  0.2838
 3555SOL    HW122298   0.985   4.535   4.996  0.6008  0.3132  1.0306
 3555SOL    HW222299   1.073   4.652   5.007  0.7588 -0.2294 -0.5757
 3556SOL     OW22300   3.518   4.425   7.546  0.1474  0.3564  0.0105
 3556SOL    HW122301   3.554   4.508   7.516  0.6248  0.8535  1.9791
 3556SOL    HW222302   3.587   4.385   7.599 -0.7725 -0.0864  0.8657
 3557SOL     OW22303   2.387   3.214  12.677  0.3556 -0.0849 -0.2760
 3557SOL    HW122304   2.443   3.280  12.637  1.1311  0.9358  2.5140
 3557SOL    HW222305   2.428   3.210  12.764  0.9553  1.3433 -0.4925
 3558SOL     OW22306   3.742   1.006  11.730 -0.4364  0.1246 -0.3696
 3558SOL    HW122307   3.753   1.038  11.820  0.1169 -1.8508  0.2758
 3558SOL    HW222308   3.648   1.021  11.718 -0.5442 -1.1172 -1.0999
 3559SOL     OW22309   2.294   2.352   9.834 -0.0698 -0.6397 -0.3564
 3559SOL    HW122310   2.337   2.431   9.865  0.6892 -1.7874  1.5282
 3559SOL    HW222311   2.370   2.302   9.805  1.4352  1.2197  0.4778
 3560SOL     OW22312   4.149   3.651   2.996  0.3141  0.3050  0.4216
 3560SOL    HW122313   4.136   3.611   2.910 -0.1517  0.5770  0.3614
 3560SOL    HW222314   4.081   3.718   3.001 -0.6608 -0.7108  0.8675
 3561SOL     OW22315   2.396   1.826   3.250  0.1065  0.0207  0.0448
 3561SOL    HW122316   2.439   1.855   3.170 -0.5918 -0.6981 -0.5934
 3561SOL    HW222317   2.322   1.788   3.203 -1.5167  0.7570  2.0193
 3562SOL     OW22318   4.485   4.696   8.929 -0.1888 -0.7669 -0.0766
 3562SOL    HW122319   4.514   4.612   8.893 -0.8805 -0.4877 -1.2998
 3562SOL    HW222320   4.513   0.014   8.854  0.4594  0.8424  1.2873
 3563SOL     OW22321   2.147   4.331  15.044  0.0529  0.0773 -0.9633
 3563SOL    HW122322   2.172   4.370  14.961 -1.1928 -0.3793 -1.5461
 3563SOL    HW222323   2.157   4.404  15.105 -2.4394 -0.2964 -0.1148
 3564SOL     OW22324   2.376   1.363  14.861  0.4958 -0.0597 -0.1099
 3564SOL    HW122325   2.292   1.381  14.904 -0.2373 -0.9076 -1.1755
 3564SOL    HW222326   2.356   1.410  14.780  0.8640 -1.0585 -0.7743
 3565SOL     OW22327   0.538   2.471  11.521  0.0868  0.0540  0.1895
 3565SOL    HW122328   0.505   2.474  11.431  2.1669 -1.3729 -0.6047
 3565SOL    HW222329   0.481   2.402  11.556  0.6393 -0.6194 -0.2400
 3566SOL     OW22330   1.517   1.556  10.706  0.0590  0.8028  0.0343
 3566SOL    HW122331   1.500   1.650  10.712  0.7307  0.9939 -1.1219
 3566SOL    HW222332   1.554   1.549  10.794  0.9025 -1.3245 -0.4934
 3567SOL     OW22333   3.314   4.272   9.177  0.2265 -0.1687 -0.0704
 3567SOL    HW122334   3.327   4.257   9.271 -0.2904 -0.4352 -0.0392
 3567SOL    HW222335   3.305   4.182   9.145  1.3873 -0.4772  0.4724
 3568SOL     OW22336   2.805   1.073   4.218  0.1290 -0.4474 -0.6098
 3568SOL    HW122337   2.711   1.054   4.212  0.1934 -0.5037 -1.4047
 3568SOL    HW222338   2.817   1.104   4.129  0.8139 -0.6381 -0.5824
 3569SOL     OW22339   1.123   1.539   2.218 -0.2893  0.1680 -0.0671
 3569SOL    HW122340   1.217   1.533   2.201 -0.5166  0.1285 -1.3762
 3569SOL    HW222341   1.097   1.452   2.248 -0.7420 -0.4961 -2.3249
 3570SOL     OW22342   1.814   4.607   7.485 -0.0415  0.2886 -0.8833
 3570SOL    HW122343   1.849   4.643   7.567 -2.1497 -1.1366  0.6741
 3570SOL    HW222344   1.891   4.578   7.436  0.9554 -0.0940  0.8876
 3571SOL     OW22345   2.358   3.573   3.866  0.0258 -0.2863 -0.5866
 3571SOL    HW122346   2.313   3.507   3.919  0.0607 -0.3775 -0.6711
 3571SOL    HW222347   2.410   3.515   3.811  0.3328  0.7870 -1.4370
 3572SOL     OW22348   3.227   3.072   2.646  0.5598 -0.2243 -0.8799
 3572SOL    HW122349   3.137   3.095   2.670  1.2684  1.2549  0.3221
 3572SOL    HW222350   3.258   3.161   2.629 -0.2966  0.0980 -0.7759
 3573SOL     OW22351   3.559   3.472   2.761 -0.5314  0.1200 -0.0930
 3573SOL    HW122352   3.559   3.563   2.729  0.4291  0.7994  1.8635
 3573SOL    HW222353   3.536   3.471   2.854 -0.3256 -1.7866 -0.0537
 3574SOL     OW22354   3.436   2.294   3.976 -0.3222 -0.3805  0.2448
 3574SOL    HW122355   3.466   2.362   4.036  0.2687 -0.8094  0.4392
 3574SOL    HW222356   3.342   2.312   3.984 -0.4445 -2.5035  3.4972
 3575SOL     OW22357   3.472   1.050   7.955 -0.0317  0.6420 -0.5502
 3575SOL    HW122358   3.549   1.041   8.010 -0.1869  1.0080 -0.2655
 3575SOL    HW222359   3.487   1.017   7.867  0.2994  0.3910 -0.3984
 3576SOL     OW22360   0.713   2.240  11.407  0.2545 -0.3522  0.2309
 3576SOL    HW122361   0.799   2.204  11.429  1.2579  2.4203  0.8456
 3576SOL    HW222362   0.655   2.197  11.471 -1.3142  0.3327 -0.7232
 3577SOL     OW22363   2.477   2.275  11.290 -0.2736  0.0422  0.0154
 3577SOL    HW122364   2.397   2.262  11.239 -0.2624  0.1579 -0.0333
 3577SOL    HW222365   2.455   2.246  11.379  0.8950  0.6310  0.5025
 3578SOL     OW22366   3.062   4.086   6.103  0.2557 -0.0635  0.1581
 3578SOL    HW122367   3.017   4.144   6.165 -0.0369  0.7386 -0.8010
 3578SOL    HW222368   3.123   4.048   6.167  0.6927  0.1999 -0.1019
 3579SOL     OW22369   2.892   0.908   0.526 -0.3229 -0.3860 -0.2480
 3579SOL    HW122370   2.957   0.847   0.492  1.0546  0.7070  0.4604
 3579SOL    HW222371   2.940   0.943   0.601  0.5084 -2.7203  0.2804
 3580SOL     OW22372   1.984   4.112   3.491 -0.6805 -0.1722 -0.0720
 3580SOL    HW122373   2.063   4.077   3.532 -0.2209  0.4494 -0.4308
 3580SOL    HW222374   1.962   4.037   3.436 -3.1054 -0.7160  1.6342
 3581SOL     OW22375   4.270   3.180   5.562 -0.4680 -0.2820  0.1274
 3581SOL    HW122376   4.321   3.172   5.482 -0.2223  0.9774  0.1583
 3581SOL    HW222377   4.202   3.231   5.517 -2.1127 -2.2748  0.3513
 3582SOL     OW22378   3.087   1.831   5.542 -0.1277  0.8060  0.5785
 3582SOL    HW122379   3.045   1.762   5.594 -0.5016 -0.6268 -1.6165
 3582SOL    HW222380   3.075   1.910   5.594  0.4922  1.1840  0.1396
 3583SOL     OW22381   3.387   3.895   1.295  0.0486  0.0526  0.2651
 3583SOL    HW122382   3.441   3.909   1.217  0.2878 -0.7093  0.2878
 3583SOL    HW222383   3.309   3.853   1.258  0.1350  0.2461 -0.1342
 3584SOL     OW22384   0.414   2.845   4.031  0.0068  0.0420 -0.4598
 3584SOL    HW122385   0.473   2.814   3.962  1.8477  0.8056  0.7789
 3584SOL    HW222386   0.481   2.885   4.086 -0.5966 -0.0913  0.3736
 3585SOL     OW22387   4.724   1.181   9.066 -0.1528  0.1962  0.1683
 3585SOL    HW122388   0.029   1.137   8.991 -2.0817  0.9844 -1.3054
 3585SOL    HW222389   0.060   1.181   9.130  0.4685 -2.1129 -0.5186
 3586SOL     OW22390   0.370   4.604   3.353 -0.5763 -0.2980 -0.1674
 3586SOL    HW122391   0.314   4.681   3.347  0.7559  0.8988  2.4522
 3586SOL    HW222392   0.436   4.643   3.296 -0.5465  1.0251  0.7737
 3587SOL     OW22393   4.721   4.676   6.433 -0.7380  0.0244  0.2775
 3587SOL    HW122394   4.668   0.015   6.462 -1.3936  0.8879 -3.0221
 3587SOL    HW222395   0.047   4.730   6.383 -0.4793 -1.4673 -1.0363
 3588SOL     OW22396   0.757   2.072   5.287 -0.0020 -0.0042 -0.0721
 3588SOL    HW122397   0.672   2.045   5.253  1.1186 -1.1642 -1.9360
 3588SOL    HW222398   0.765   2.149   5.230 -0.0393 -0.5128 -0.7628
 3589SOL     OW22399   2.988   4.273   9.132 -0.0829 -0.0028 -0.6256
 3589SOL    HW122400   3.048   4.203   9.107  1.2172  2.0215 -3.2506
 3589SOL    HW222401   2.970   4.255   9.224  2.7318 -0.3243 -0.1223
 3590SOL     OW22402   3.434   1.535   6.280 -0.5468 -0.0832 -0.1295
 3590SOL    HW122403   3.423   1.594   6.205  1.2462 -2.2711 -2.1210
 3590SOL    HW222404   3.474   1.596   6.342  2.4945  0.3897 -2.5374
 3591SOL     OW22405   1.254   4.020  17.337  0.1336 -0.4347  0.2710
 3591SOL    HW122406   1.302   4.069  17.270 -0.7378  0.8391  0.5675
 3591SOL    HW222407   1.216   3.953  17.280  0.0085  1.0554 -1.3960
 3592SOL     OW22408   3.729   3.595  12.683 -0.2345 -0.1563  0.0195
 3592SOL    HW122409   3.674   3.669  12.712  0.2648  1.2268 -2.5715
 3592SOL    HW222410   3.814   3.631  12.708 -0.2630 -1.4062  1.9395
 3593SOL     OW22411   2.785   1.370   5.364 -0.2461  0.3163  0.0773
 3593SOL    HW122412   2.716   1.408   5.419  0.5714 -0.3689  1.5849
 3593SOL    HW222413   2.791   1.420   5.283  0.7663  0.7232  0.4060
 3594SOL     OW22414   2.070   3.008   3.034  0.0067 -0.0553 -0.9145
 3594SOL    HW122415   2.132   2.966   2.975 -1.1586 -0.7705 -1.6238
 3594SOL    HW222416   1.999   2.945   3.042  1.7144 -1.8752 -0.2562
 3595SOL     OW22417   1.953   0.300   7.905 -0.3321  0.0158  0.1110
 3595SOL    HW122418   1.957   0.204   7.905  3.1605  0.1591 -1.8248
 3595SOL    HW222419   1.979   0.307   7.813 -0.3674  1.7188  0.2387
 3596SOL     OW22420   3.155   4.011   5.594  0.1725  0.2232  0.2429
 3596SOL    HW122421   3.067   3.974   5.599  0.3887 -0.0884  1.6766
 3596SOL    HW222422   3.187   3.984   5.508 -3.4557 -1.7506 -0.5040
 3597SOL     OW22423   0.866   1.943  16.094 -0.1789  0.6221  0.0946
 3597SOL    HW122424   0.856   1.987  16.179  1.8779 -1.2042  1.3008
 3597SOL    HW222425   0.939   1.993  16.058 -0.4324  0.6100 -0.4218
 3598SOL     OW22426   2.426   1.517   2.978 -0.3657  0.2288 -0.2706
 3598SOL    HW122427   2.394   1.427   2.987 -2.6144  0.6541 -4.1030
 3598SOL    HW222428   2.455   1.524   2.887  2.1713 -1.5883  0.4098
 3599SOL     OW22429   3.098   2.061   5.701  0.0063 -0.2910 -0.3707
 3599SOL    HW122430   3.010   2.098   5.692 -0.1964 -0.5102  0.7711
 3599SOL    HW222431   3.091   2.000   5.774 -1.3261 -1.0307 -1.1130
 3600SOL     OW22432   3.305   0.921   4.767  0.1219 -0.3427  0.0711
 3600SOL    HW122433   3.249   0.929   4.690  0.8318  0.4286 -0.3640
 3600SOL    HW222434   3.251   0.899   4.842 -2.0403  0.2659 -1.2998
 3601SOL     OW22435   0.035   2.561  13.624 -0.2165 -0.3424 -0.5214
 3601SOL    HW122436   0.063   2.512  13.546  0.2184  1.3272 -1.4199
 3601SOL    HW222437   0.075   2.501  13.687  1.0393  1.2494  0.2128
 3602SOL     OW22438   3.319   1.933   6.933 -0.2899 -0.1258 -0.3293
 3602SOL    HW122439   3.320   1.840   6.957  1.3116 -0.0733 -0.1753
 3602SOL    HW222440   3.361   1.919   6.848  0.7146  3.2093 -0.3740
 3603SOL     OW22441   1.926   2.852   5.946 -0.1209  0.2908 -0.2529
 3603SOL    HW122442   1.833   2.859   5.925 -0.2666  1.6569  0.8299
 3603SOL    HW222443   1.923   2.869   6.040 -2.3882 -2.6747  0.1922
 3604SOL     OW22444   4.579   2.432   6.732  0.2685  0.3833 -0.4793
 3604SOL    HW122445   4.585   2.343   6.696 -2.7173  0.0302 -0.0555
 3604SOL    HW222446   4.649   2.426   6.797  2.0835 -2.1025 -2.6626
 3605SOL     OW22447   1.959   4.119   0.273  0.0990 -0.1284  0.1953
 3605SOL    HW122448   2.042   4.166   0.281 -1.3765  2.8284 -1.4358
 3605SOL    HW222449   1.894   4.185   0.246  0.5042  0.7042  1.3001
 3606SOL     OW22450   3.987   1.105   8.125 -0.0766 -0.2389 -0.6270
 3606SOL    HW122451   3.957   1.034   8.182 -0.5167  0.8864  0.5429
 3606SOL    HW222452   4.057   1.055   8.084  0.4954 -0.5102  0.6883
 3607SOL     OW22453   1.303   4.730   8.783 -0.3735  0.5317 -0.1590
 3607SOL    HW122454   1.245   4.667   8.826 -0.9990  0.9198 -0.4349
 3607SOL    HW222455   1.253   0.068   8.819 -1.1767 -0.4549  0.7277
 3608SOL     OW22456   3.618   3.078   0.502  0.1726 -0.3519  0.0823
 3608SOL    HW122457   3.596   3.161   0.460  0.6074 -0.2738  0.0009
 3608SOL    HW222458   3.549   3.083   0.568 -0.4418 -0.3225 -0.5614
 3609SOL     OW22459   1.649   2.377   7.416 -0.0514  0.0443 -0.0846
 3609SOL    HW122460   1.567   2.387   7.464 -0.9201 -3.3821 -0.8588
 3609SOL    HW222461   1.653   2.450   7.355 -0.9561 -0.7059 -1.0454
 3610SOL     OW22462   2.865   4.651   3.341  0.6432 -0.1340  0.1195
 3610SOL    HW122463   2.883   4.707   3.417 -1.7617 -0.7025  1.1161
 3610SOL    HW222464   2.953   4.654   3.303  0.3164  0.8948 -0.5559
 3611SOL     OW22465   3.905   2.257   8.935 -0.3454  0.7574 -0.6044
 3611SOL    HW122466   3.969   2.255   8.864 -0.3308  1.0355 -0.6022
 3611SOL    HW222467   3.884   2.166   8.954  0.6107  0.4660 -0.9272
 3612SOL     OW22468   3.189   4.271   6.815  0.1560  0.2611 -0.1978
 3612SOL    HW122469   3.118   4.271   6.751 -0.2646  3.1417  0.2723
 3612SOL    HW222470   3.230   4.186   6.801  3.3061  1.7950 -0.2875
 3613SOL     OW22471   3.061   1.659   4.488 -0.1983  0.2757 -0.0565
 3613SOL    HW122472   3.030   1.686   4.402  0.5149  1.4230  0.0521
 3613SOL    HW222473   3.108   1.579   4.466 -0.0268  0.2751  0.3161
 3614SOL     OW22474   4.561   2.886   2.736 -0.3753 -0.1155  0.8049
 3614SOL    HW122475   4.512   2.821   2.685  4.3639 -2.4696 -0.7716
 3614SOL    HW222476   4.494   2.950   2.759 -0.9062 -0.4514  0.1969
 3615SOL     OW22477   2.627   0.772   3.497  0.5629  0.1328  0.0774
 3615SOL    HW122478   2.684   0.849   3.500 -0.2601  0.8140 -1.6656
 3615SOL    HW222479   2.643   0.720   3.576  0.9425  1.7913  1.1111
 3616SOL     OW22480   3.581   4.151  16.632  0.2572  0.1147  0.5093
 3616SOL    HW122481   3.632   4.185  16.706 -0.4965  1.8936  0.2167
 3616SOL    HW222482   3.498   4.185  16.664  0.3697  0.3273  0.5812
 3617SOL     OW22483   3.575   3.449   1.863 -0.0459 -0.3922 -0.0594
 3617SOL    HW122484   3.535   3.500   1.793 -0.3693 -0.9621 -0.2868
 3617SOL    HW222485   3.665   3.482   1.859  0.1504 -0.9739 -0.4188
 3618SOL     OW22486   0.560   3.340   8.940  0.1506 -0.1451  0.0224
 3618SOL    HW122487   0.614   3.418   8.931 -0.8287  0.3854 -1.2844
 3618SOL    HW222488   0.606   3.274   8.886 -0.1082  0.0128 -0.3914
 3619SOL     OW22489   3.286   3.857   8.554  0.1906  0.0048  0.4023
 3619SOL    HW122490   3.247   3.774   8.528  0.9184  0.3820 -1.8451
 3619SOL    HW222491   3.347   3.868   8.481 -2.2177 -1.0864 -1.7682
 3620SOL     OW22492   2.263   3.740   7.088 -0.2851 -0.3392  0.4216
 3620SOL    HW122493   2.242   3.812   7.148  0.4892 -0.8769  1.3574
 3620SOL    HW222494   2.357   3.749   7.075 -0.1914 -3.9993 -1.4321
 3621SOL     OW22495   1.670   0.955   0.535  0.0474  0.1242 -0.4431
 3621SOL    HW122496   1.693   0.983   0.623  0.7408 -0.7939 -0.3285
 3621SOL    HW222497   1.729   0.879   0.533  1.6063  1.2150  4.2173
 3622SOL     OW22498   3.662   0.058   8.874  0.1862  0.2141 -0.4748
 3622SOL    HW122499   3.568   0.041   8.878  0.4217 -0.2133  3.3869
 3622SOL    HW222500   3.683   0.019   8.959  3.7298  1.9491 -0.5222
 3623SOL     OW22501   3.555   3.334   0.398  0.2657  0.0172  0.1178
 3623SOL    HW122502   3.584   3.403   0.458  0.6125  0.9429 -1.0946
 3623SOL    HW222503   3.553   3.386   0.317  1.8665  0.3568  0.2947
 3624SOL     OW22504   1.341   3.046   5.324  0.0802  0.0233 -0.4281
 3624SOL    HW122505   1.406   2.991   5.281  0.1217 -0.3422  0.1063
 3624SOL    HW222506   1.303   3.084   5.245  1.0464  4.3690  1.1847
 3625SOL     OW22507   1.796   1.973   1.795 -0.2902 -0.9119  0.2616
 3625SOL    HW122508   1.880   1.928   1.787  0.4429  0.3318  0.8040
 3625SOL    HW222509   1.814   2.052   1.743 -1.5397 -1.9853 -1.7883
 3626SOL     OW22510   0.023   4.724  14.789 -0.2736 -0.0972  0.4161
 3626SOL    HW122511   0.049   0.043  14.714  0.6143  0.0199  0.8033
 3626SOL    HW222512   4.663   4.726  14.775 -0.0983  1.0539 -0.5862
 3627SOL     OW22513   0.875   4.094   6.568  0.0445  0.2891  0.5106
 3627SOL    HW122514   0.835   4.169   6.525  0.7369  0.6308  0.4501
 3627SOL    HW222515   0.862   4.019   6.510  1.1688  0.2230  0.3340
 3628SOL     OW22516   3.165   2.897   5.486 -0.1551  0.4092 -0.2025
 3628SOL    HW122517   3.118   2.919   5.566  0.3067  2.7046 -0.5398
 3628SOL    HW222518   3.148   2.803   5.487  1.6362  0.0744 -1.1807
 3629SOL     OW22519   3.640   4.280  11.700  0.3739  0.4522  0.1844
 3629SOL    HW122520   3.601   4.364  11.675  0.3055  0.6631  1.0133
 3629SOL    HW222521   3.676   4.291  11.788  0.3332 -0.1670  0.2794
 3630SOL     OW22522   1.983   3.511  16.663 -0.0733  0.3298  0.3854
 3630SOL    HW122523   1.929   3.575  16.616 -0.5152 -0.3536 -0.0238
 3630SOL    HW222524   1.910   3.455  16.689 -0.8601  1.5775  0.9059
 3631SOL     OW22525   0.698   1.588  15.731  0.3997 -0.0621 -0.0432
 3631SOL    HW122526   0.648   1.597  15.813  1.3871 -1.9497  0.7853
 3631SOL    HW222527   0.647   1.644  15.673 -0.7294  0.6728  1.6337
 3632SOL     OW22528   0.016   1.521   7.353 -0.3847  0.4219 -0.2538
 3632SOL    HW122529   0.065   1.498   7.432  2.7685  0.4815 -2.1929
 3632SOL    HW222530   0.093   1.545   7.301 -0.1836 -0.9482 -0.5994
 3633SOL     OW22531   0.278   2.965   8.645 -0.1687 -0.0427 -0.3253
 3633SOL    HW122532   0.345   2.934   8.707 -0.5702 -0.7791 -0.2640
 3633SOL    HW222533   0.199   2.924   8.680  0.0745  0.1207  0.4193
 3634SOL     OW22534   2.650   2.927   0.941 -0.4170 -0.3011 -0.1188
 3634SOL    HW122535   2.621   2.928   0.849 -2.7300 -1.3361  0.6114
 3634SOL    HW222536   2.744   2.947   0.937 -0.2314 -0.9672  1.1246
 3635SOL     OW22537   1.804   4.409  13.019 -0.1836 -0.7813  0.2878
 3635SOL    HW122538   1.767   4.460  13.091  2.8642 -0.1122  1.3710
 3635SOL    HW222539   1.898   4.416  13.035 -0.2836 -2.1038  1.5350
 3636SOL     OW22540   1.154   3.372   4.729 -0.6791  0.4827 -0.1634
 3636SOL    HW122541   1.249   3.382   4.735 -0.8965  1.6536  1.1353
 3636SOL    HW222542   1.129   3.461   4.753  0.2453  0.5655  0.5143
 3637SOL     OW22543   2.886   2.441   9.844  0.5002  0.1888  0.2173
 3637SOL    HW122544   2.811   2.389   9.814  1.2977 -1.8464  1.7457
 3637SOL    HW222545   2.883   2.446   9.940 -0.3866  0.3912  0.1816
 3638SOL     OW22546   1.240   1.574   5.369 -0.0609  0.3367  0.2476
 3638SOL    HW122547   1.280   1.551   5.453  1.2326 -0.0490 -0.4757
 3638SOL    HW222548   1.150   1.544   5.384 -0.9292  1.8704 -1.9420
 3639SOL     OW22549   4.423   3.935   5.515  0.0464 -0.3766 -0.0935
 3639SOL    HW122550   4.514   3.954   5.537 -0.2894  1.9841 -0.7993
 3639SOL    HW222551   4.382   3.998   5.573 -1.5645 -0.8995 -0.6663
 3640SOL     OW22552   1.343   3.584   8.629 -0.1813  0.2390 -0.2162
 3640SOL    HW122553   1.272   3.635   8.669 -2.9882 -3.3108 -0.6897
 3640SOL    HW222554   1.340   3.498   8.671 -0.5698  0.6040  0.5075
 3641SOL     OW22555   4.507   1.360   6.859  0.3592 -0.2345  0.7277
 3641SOL    HW122556   4.414   1.364   6.881  0.4215 -1.0332  1.1446
 3641SOL    HW222557   4.515   1.265   6.873 -2.9340 -0.9634 -2.4756
 3642SOL     OW22558   2.235   1.186   3.671  1.0259  0.5697 -0.3416
 3642SOL    HW122559   2.330   1.197   3.664  1.2722 -1.4011 -0.0574
 3642SOL    HW222560   2.220   1.180   3.765 -0.1881 -2.3254 -0.7328
 3643SOL     OW22561   3.908   0.941   8.330  0.2998 -0.0468  0.1515
 3643SOL    HW122562   3.826   0.972   8.368 -0.4168 -1.2903 -0.3717
 3643SOL    HW222563   3.959   0.928   8.410 -1.1564  0.1488  1.1245
 3644SOL     OW22564   2.514   1.259   2.931  0.0301 -0.6729 -0.2941
 3644SOL    HW122565   2.593   1.289   2.886  1.9022 -0.9720  2.7531
 3644SOL    HW222566   2.469   1.192   2.880 -0.4466 -0.1313 -0.5765
 3645SOL     OW22567   4.665   3.788   2.919 -0.0655 -0.1193 -0.2742
 3645SOL    HW122568   4.582   3.772   2.875  1.4260 -3.3991 -1.8695
 3645SOL    HW222569   4.675   3.701   2.957 -0.2249 -1.0559 -2.4107
 3646SOL     OW22570   3.794   4.502   7.938 -0.3763 -0.1639 -0.2225
 3646SOL    HW122571   3.725   4.559   7.905  0.4650  1.7566  1.3366
 3646SOL    HW222572   3.864   4.557   7.973 -1.2218  0.6000  0.2527
 3647SOL     OW22573   3.473   2.243   3.248 -0.0212  0.1788 -0.0795
 3647SOL    HW122574   3.522   2.257   3.329 -0.9609 -0.5772  0.6177
 3647SOL    HW222575   3.390   2.289   3.264 -1.0374 -2.8655  3.4202
 3648SOL     OW22576   4.464   2.604   8.318  0.0152 -0.0215  0.3408
 3648SOL    HW122577   4.476   2.673   8.252  1.2910 -2.0480 -1.5283
 3648SOL    HW222578   4.374   2.579   8.300  0.6084 -1.9960  0.1104
 3649SOL     OW22579   0.300   0.486   8.723  0.2309 -0.0017 -0.1623
 3649SOL    HW122580   0.340   0.573   8.723 -2.5868  1.3165  0.6910
 3649SOL    HW222581   0.287   0.477   8.818  0.2797 -0.2094 -0.1755
 3650SOL     OW22582   3.607   0.732   8.520 -0.4084  0.5068 -0.4519
 3650SOL    HW122583   3.575   0.716   8.608  0.2557  1.7478  0.0214
 3650SOL    HW222584   3.531   0.781   8.488 -1.6227  1.2613  3.6293
 3651SOL     OW22585   4.487   0.186   9.583 -0.1623  0.3770  0.3276
 3651SOL    HW122586   4.406   0.159   9.627 -1.7740 -0.1276 -3.0177
 3651SOL    HW222587   4.544   0.147   9.650  2.3164  2.9490 -0.2910
 3652SOL     OW22588   1.456   2.238   6.874  0.4140  0.8945 -0.2142
 3652SOL    HW122589   1.509   2.171   6.830  2.3086 -0.4164  4.1508
 3652SOL    HW222590   1.372   2.191   6.876  0.3480  1.0712  0.7314
 3653SOL     OW22591   1.412   2.417   3.437 -0.5062  0.3289 -0.4302
 3653SOL    HW122592   1.498   2.454   3.451  0.1580 -0.6077 -2.1006
 3653SOL    HW222593   1.405   2.349   3.505 -1.8287  1.7463  0.8571
 3654SOL     OW22594   1.746   2.234   9.052  0.0003  0.3779 -0.0488
 3654SOL    HW122595   1.770   2.240   8.959  1.6715 -1.2941  0.2664
 3654SOL    HW222596   1.778   2.145   9.067  1.0815  0.8003  0.1852
 3655SOL     OW22597   3.370   2.594   1.653 -0.5460  0.2662 -0.7318
 3655SOL    HW122598   3.290   2.646   1.655 -0.2201  0.7773 -0.7634
 3655SOL    HW222599   3.359   2.532   1.581 -2.1953  1.7586 -1.7534
 3656SOL     OW22600   0.143   1.628   3.719  0.1345 -0.5170  0.8396
 3656SOL    HW122601   0.081   1.620   3.647  1.1988  1.6596 -0.3161
 3656SOL    HW222602   0.086   1.677   3.777  0.2340  0.2231  0.3189
 3657SOL     OW22603   1.455   2.839   7.883  0.2115  0.2354  0.1753
 3657SOL    HW122604   1.390   2.790   7.933  0.6765  0.6703  1.1912
 3657SOL    HW222605   1.532   2.816   7.935 -0.7085 -0.3605  1.2633
 3658SOL     OW22606   2.199   4.484   9.805 -0.1221 -0.4528  0.4235
 3658SOL    HW122607   2.239   4.440   9.730  1.7252 -1.0621  1.7676
 3658SOL    HW222608   2.109   4.453   9.800 -0.5306  1.1894 -2.0821
 3659SOL     OW22609   2.228   2.402   9.264  0.4331 -0.0384 -0.8402
 3659SOL    HW122610   2.165   2.471   9.245 -0.3897 -0.4258  0.4954
 3659SOL    HW222611   2.185   2.326   9.225 -2.7994  2.3636 -1.9397
 3660SOL     OW22612   0.398   2.013  13.979 -0.1081  0.3495  0.2210
 3660SOL    HW122613   0.328   2.030  13.915 -1.0245  0.8409  1.3579
 3660SOL    HW222614   0.360   1.934  14.017 -2.5063  0.0945 -2.6958
 3661SOL     OW22615   3.936   3.281   3.525 -0.1106  0.6320  0.8204
 3661SOL    HW122616   3.889   3.332   3.459 -2.2392 -0.2247  1.6816
 3661SOL    HW222617   3.974   3.214   3.468  1.7564 -0.3413  3.2499
 3662SOL     OW22618   4.059   1.045  10.890 -0.2314  0.0187 -0.2354
 3662SOL    HW122619   4.075   1.071  10.799  0.8083 -2.8627 -0.8747
 3662SOL    HW222620   3.965   1.032  10.879 -0.5363  1.8671  0.0508
 3663SOL     OW22621   0.317   0.435   2.018 -0.6200 -0.1313 -0.3279
 3663SOL    HW122622   0.403   0.397   2.035 -1.0443 -1.2239 -0.6138
 3663SOL    HW222623   0.318   0.421   1.924 -2.0575  0.5583 -0.4501
 3664SOL     OW22624   2.335   1.424  14.195  0.0727  0.0180  0.4987
 3664SOL    HW122625   2.280   1.448  14.269 -1.5875 -3.2500  0.3335
 3664SOL    HW222626   2.393   1.356  14.229  1.7862  2.0910  1.6818
 3665SOL     OW22627   4.333   1.621  13.498 -0.0175 -0.2232 -0.5696
 3665SOL    HW122628   4.311   1.539  13.453 -0.0126 -0.6820  0.2652
 3665SOL    HW222629   4.380   1.586  13.573  0.8311  2.5519  0.1857
 3666SOL     OW22630   4.590   2.084   2.349 -0.2152 -0.1782  0.0498
 3666SOL    HW122631   4.496   2.094   2.332 -0.3545 -0.8861  0.3868
 3666SOL    HW222632   4.611   2.000   2.307  0.7905  0.1732 -0.1540
 3667SOL     OW22633   1.276   3.934   1.316  0.1155 -0.0467 -0.0355
 3667SOL    HW122634   1.195   3.985   1.322 -0.4094 -0.9427  0.5374
 3667SOL    HW222635   1.342   3.999   1.342 -0.1736  0.5538 -0.8088
 3668SOL     OW22636   1.816   3.076   8.043 -0.7747  0.8328 -0.4057
 3668SOL    HW122637   1.911   3.086   8.041 -0.6065 -0.0210  3.3415
 3668SOL    HW222638   1.788   3.166   8.023 -0.7480  1.0920  0.7078
 3669SOL     OW22639   3.963   3.883  10.919  0.2846  0.1066  0.0820
 3669SOL    HW122640   4.005   3.962  10.884 -0.4709  0.6580  0.4246
 3669SOL    HW222641   4.039   3.825  10.918  0.0492 -0.2023  0.3470
 3670SOL     OW22642   0.039   1.024   6.553 -0.5533 -0.0045  0.5057
 3670SOL    HW122643   0.019   1.114   6.577  0.5531  0.1914  0.7022
 3670SOL    HW222644   0.044   1.051   6.461 -1.7716 -1.4824 -0.0023
 3671SOL     OW22645   0.157   0.195  10.950  0.2343 -0.0784  0.5070
 3671SOL    HW122646   0.210   0.273  10.968 -0.5740  0.6488 -0.2697
 3671SOL    HW222647   0.195   0.134  11.014 -1.0728 -0.0748  1.2906
 3672SOL     OW22648   1.166   1.234   4.693 -0.3833  0.6398  0.4398
 3672SOL    HW122649   1.093   1.282   4.655  2.3134  2.3424 -2.5925
 3672SOL    HW222650   1.231   1.302   4.712 -0.6341  0.9059  0.3530
 3673SOL     OW22651   4.176   1.223   8.367 -0.4704  0.3352  0.6476
 3673SOL    HW122652   4.086   1.232   8.398 -0.7159 -1.2578  0.3968
 3673SOL    HW222653   4.229   1.226   8.446  0.2120 -0.5041  0.2230
 3674SOL     OW22654   3.734   0.684   5.533  0.1805 -0.2628  0.3540
 3674SOL    HW122655   3.747   0.771   5.571  0.0844  0.5421 -1.4206
 3674SOL    HW222656   3.766   0.716   5.448 -0.4615 -0.1339  0.1560
 3675SOL     OW22657   4.113   1.587   2.829 -0.1776 -0.2872 -0.3183
 3675SOL    HW122658   4.170   1.512   2.807 -1.9482 -1.6193 -0.3638
 3675SOL    HW222659   4.061   1.549   2.899  1.2992 -1.3778  0.1947
 3676SOL     OW22660   4.522   1.652   8.707  0.2836  0.4702 -0.1189
 3676SOL    HW122661   4.466   1.709   8.760  0.9644  0.1777  0.9181
 3676SOL    HW222662   4.465   1.577   8.690  0.8507  0.3212 -1.3602
 3677SOL     OW22663   4.014   0.737  14.434 -0.0359 -0.3427  0.3289
 3677SOL    HW122664   4.102   0.775  14.434  0.0954 -0.5965 -3.3487
 3677SOL    HW222665   4.024   0.646  14.463  1.8150 -0.4003 -0.4729
 3678SOL     OW22666   2.530   0.780  12.782  0.5907 -0.5769 -0.2147
 3678SOL    HW122667   2.525   0.710  12.716  0.3881  0.0476 -0.8553
 3678SOL    HW222668   2.623   0.774  12.806  0.6623  0.2094 -0.3063
 3679SOL     OW22669   2.845   3.556   3.882  0.4234 -0.0418  0.1034
 3679SOL    HW122670   2.900   3.485   3.914  1.3955  0.7339  0.1383
 3679SOL    HW222671   2.849   3.615   3.958 -0.0932 -0.7220  0.6474
 3680SOL     OW22672   1.064   1.057   1.175  0.2164 -0.2438  0.1192
 3680SOL    HW122673   1.040   1.149   1.175 -1.6958 -0.7453  1.4528
 3680SOL    HW222674   0.978   1.017   1.190  0.0784 -0.2091 -0.5866
 3681SOL     OW22675   4.069   0.960  14.734  0.1224 -0.0769  0.0544
 3681SOL    HW122676   3.992   1.014  14.716  1.2306  1.0625 -1.1989
 3681SOL    HW222677   4.051   0.920  14.819  0.9677 -0.2202  0.1663
 3682SOL     OW22678   3.215   1.729   9.030 -0.6606  0.5845  0.5534
 3682SOL    HW122679   3.208   1.813   8.985 -1.7487 -0.4833 -1.2877
 3682SOL    HW222680   3.126   1.702   9.012  0.1819 -0.7943 -1.5738
 3683SOL     OW22681   1.955   3.942   9.925 -0.4205 -0.2804 -1.2761
 3683SOL    HW122682   2.008   4.020   9.910  0.0564 -0.3844 -0.1627
 3683SOL    HW222683   1.920   3.960  10.012  1.5378 -0.5791 -0.4178
 3684SOL     OW22684   0.998   0.168  17.284  0.3359  0.7724  0.0833
 3684SOL    HW122685   1.004   0.149  17.190 -1.5708  0.2585  0.0630
 3684SOL    HW222686   0.976   0.261  17.283 -0.5160  0.5634 -0.5127
 3685SOL     OW22687   1.774   2.622   6.249  0.1254  0.5848  0.1376
 3685SOL    HW122688   1.679   2.635   6.239  0.5411  3.5128  0.0322
 3685SOL    HW222689   1.793   2.627   6.156 -1.2304  0.4200 -0.1448
 3686SOL     OW22690   3.903   4.610   7.580 -0.2089 -0.2803  0.0196
 3686SOL    HW122691   3.878   4.523   7.612 -0.0126  0.0030  0.9235
 3686SOL    HW222692   3.820   4.657   7.569  0.3806  0.7598  0.0198
 3687SOL     OW22693   3.542   0.468   4.200  0.2510  0.1094 -0.2139
 3687SOL    HW122694   3.482   0.404   4.161  0.4592 -1.2117  1.6130
 3687SOL    HW222695   3.586   0.417   4.268  1.5236 -0.4659 -1.4687
 3688SOL     OW22696   0.663   3.587   7.301  0.4300 -0.4677  0.2947
 3688SOL    HW122697   0.576   3.551   7.287 -0.7722  1.9329  1.4908
 3688SOL    HW222698   0.712   3.505   7.292  1.5510  0.5817 -2.9755
 3689SOL     OW22699   3.027   3.279   5.767 -0.0662 -0.0511 -0.1288
 3689SOL    HW122700   3.057   3.268   5.677 -1.6496 -0.8905 -0.5436
 3689SOL    HW222701   2.950   3.334   5.755  0.1330  0.3727  0.5515
 3690SOL     OW22702   1.715   4.405   7.936  0.4344 -0.0215  0.0947
 3690SOL    HW122703   1.661   4.484   7.927 -0.9379 -0.8627  0.9306
 3690SOL    HW222704   1.714   4.381   8.029 -1.9776  0.3858  0.1764
 3691SOL     OW22705   4.250   0.953   8.327  0.2155  0.2487  0.2299
 3691SOL    HW122706   4.217   0.908   8.405 -0.5093  0.9632  0.3428
 3691SOL    HW222707   4.241   1.045   8.353 -1.1471  0.5988 -1.4824
 3692SOL     OW22708   4.208   4.115   8.628 -0.3378 -0.1344  0.2129
 3692SOL    HW122709   4.195   4.132   8.534 -0.5028 -0.3837  0.1916
 3692SOL    HW222710   4.258   4.196   8.645 -0.0323 -0.1834 -0.4536
 3693SOL     OW22711   1.234   0.054   8.033 -0.7532 -0.6010  0.3668
 3693SOL    HW122712   1.181   0.114   8.085  1.7449  1.6781  0.2615
 3693SOL    HW222713   1.265   4.723   8.095 -0.5137 -1.0831 -0.2617
 3694SOL     OW22714   1.692   2.161   2.912  0.2686  0.1934 -0.1373
 3694SOL    HW122715   1.673   2.212   2.990 -0.8805  1.6919 -1.3737
 3694SOL    HW222716   1.787   2.156   2.915  0.2783  1.7187  1.4568
 3695SOL     OW22717   1.249   0.921   6.603 -0.4212  0.4917  0.1829
 3695SOL    HW122718   1.156   0.941   6.608 -0.9394 -1.6430 -1.0353
 3695SOL    HW222719   1.270   0.962   6.519  3.5537 -0.0809  0.8809
 3696SOL     OW22720   0.854   1.110   4.837 -0.0627 -0.3634  0.4387
 3696SOL    HW122721   0.937   1.076   4.870  0.2746 -0.3118 -0.3820
 3696SOL    HW222722   0.783   1.063   4.883 -0.3175 -3.0308 -2.7024
 3697SOL     OW22723   0.579   4.127   6.739  0.2825 -0.0261 -0.3917
 3697SOL    HW122724   0.507   4.065   6.725  0.6436 -0.2381 -1.2736
 3697SOL    HW222725   0.653   4.074   6.766  1.6125  2.7228  1.3767
 3698SOL     OW22726   1.317   2.111  16.498  0.2891 -0.0663  0.2077
 3698SOL    HW122727   1.336   2.048  16.428 -2.2441 -0.8729  0.2307
 3698SOL    HW222728   1.230   2.148  16.480  0.6334  0.7993  0.3515
 3699SOL     OW22729   4.060   1.402   1.946 -0.5556 -0.6271 -0.7831
 3699SOL    HW122730   3.984   1.369   1.898 -0.9828  0.6108 -0.9714
 3699SOL    HW222731   4.124   1.333   1.934  0.3744 -0.1540  1.2946
 3700SOL     OW22732   3.017   0.268   8.633 -0.1765 -0.1401  0.1628
 3700SOL    HW122733   2.952   0.198   8.634  1.8695 -2.0479 -2.0056
 3700SOL    HW222734   2.970   0.327   8.692 -0.8997  1.4502 -2.0010
 3701SOL     OW22735   1.816   3.918   7.189 -0.0208  0.4268  0.2588
 3701SOL    HW122736   1.740   3.973   7.170  0.4585  0.1915 -2.3555
 3701SOL    HW222737   1.788   3.893   7.277  0.1852 -1.5620 -0.2364
 3702SOL     OW22738   0.926   0.553  16.002  0.5952  0.0866 -0.0283
 3702SOL    HW122739   0.846   0.563  16.052 -0.2689  0.3467 -1.4448
 3702SOL    HW222740   0.950   0.645  16.004  0.2713  0.0890  3.2496
 3703SOL     OW22741   0.868   0.178   6.705  0.2535 -0.0084  0.4976
 3703SOL    HW122742   0.798   0.143   6.760 -1.5027  1.2875 -0.8860
 3703SOL    HW222743   0.938   0.181   6.770  0.7869 -0.3950 -0.0607
 3704SOL     OW22744   1.630   3.317   7.028 -0.7507 -0.4545 -1.1717
 3704SOL    HW122745   1.694   3.388   7.019 -1.3561  0.0411 -1.5666
 3704SOL    HW222746   1.632   3.286   7.118  2.5668  1.6901 -0.5030
 3705SOL     OW22747   2.453   0.142   4.456  0.3318 -0.4843  0.1433
 3705SOL    HW122748   2.457   0.056   4.497  0.0589 -0.0953  0.9839
 3705SOL    HW222749   2.448   0.111   4.365  0.1479 -0.7434  0.2438
 3706SOL     OW22750   4.140   3.345   2.386 -0.2671 -0.3134  0.2825
 3706SOL    HW122751   4.125   3.429   2.342  0.2663  0.7248  2.0695
 3706SOL    HW222752   4.218   3.375   2.433  0.3880  1.4448 -1.9505
 3707SOL     OW22753   4.098   2.362   0.791 -0.4929  0.0358 -0.0358
 3707SOL    HW122754   4.142   2.432   0.839  0.0623 -0.6036  0.3817
 3707SOL    HW222755   4.176   2.309   0.779  0.1841  0.3839  2.7819
 3708SOL     OW22756   1.393   3.507   1.383 -0.4599 -0.7387 -0.2296
 3708SOL    HW122757   1.479   3.529   1.419 -1.1704  1.7050 -0.0041
 3708SOL    HW222758   1.342   3.586   1.402  2.0189  0.7097  0.4107
 3709SOL     OW22759   4.296   4.586   7.634 -0.6452 -0.2188 -0.4828
 3709SOL    HW122760   4.336   4.661   7.589 -0.9609 -0.9364 -1.9785
 3709SOL    HW222761   4.221   4.625   7.679  0.3799  1.8980 -0.6435
 3710SOL     OW22762   1.879   1.468   8.494 -0.1164 -0.0046  0.0555
 3710SOL    HW122763   1.905   1.406   8.427  1.2687  0.7077 -0.0651
 3710SOL    HW222764   1.844   1.538   8.439  2.5999  0.4381 -1.1111
 3711SOL     OW22765   0.189   4.359  17.213  0.1169 -0.4155 -0.2702
 3711SOL    HW122766   0.158   4.421  17.147 -1.9783  0.3458  1.4593
 3711SOL    HW222767   0.197   4.425  17.281  0.7194  0.0256 -0.7715
 3712SOL     OW22768   4.070   0.620   3.961  0.3336  0.3238 -0.2862
 3712SOL    HW122769   4.003   0.673   3.917  1.0382  0.4137 -1.2676
 3712SOL    HW222770   4.048   0.539   3.915 -0.2310  1.3851 -1.8923
 3713SOL     OW22771   0.149   0.881   2.491 -0.5490 -0.3360  0.3428
 3713SOL    HW122772   0.087   0.924   2.550 -0.9269  0.9031 -0.9577
 3713SOL    HW222773   0.232   0.904   2.531 -0.5908  0.0138  0.2277
 3714SOL     OW22774   4.219   0.999  15.095  0.3202 -0.2673 -0.2286
 3714SOL    HW122775   4.139   0.960  15.060 -0.2571  0.5520  0.1755
 3714SOL    HW222776   4.189   1.029  15.180  4.3825 -0.3337  1.2563
 3715SOL     OW22777   4.424   2.673  12.662 -0.4788  0.3933  0.2790
 3715SOL    HW122778   4.519   2.680  12.646 -0.3845  0.5442  0.8843
 3715SOL    HW222779   4.387   2.670  12.574 -1.9533 -0.4597  0.9495
 3716SOL     OW22780   0.912   1.068   1.478  0.6673  0.0479 -0.3814
 3716SOL    HW122781   0.839   1.123   1.448  0.8503  0.1720 -0.6024
 3716SOL    HW222782   0.981   1.128   1.507  0.6545 -0.2122  0.1648
 3717SOL     OW22783   2.928   3.938  12.995  0.2326  0.4469  0.1571
 3717SOL    HW122784   2.930   4.032  13.010 -4.1452  0.6507 -0.5128
 3717SOL    HW222785   2.838   3.910  13.011  0.1679  0.9868  0.7287
 3718SOL     OW22786   4.317   3.785   3.593  0.3403 -0.4760 -0.8245
 3718SOL    HW122787   4.394   3.731   3.578  0.4167 -0.4462 -0.5249
 3718SOL    HW222788   4.245   3.724   3.573  0.9520 -2.5264  3.2326
 3719SOL     OW22789   2.767   2.753   8.412  0.3341  0.5325 -0.2144
 3719SOL    HW122790   2.828   2.799   8.470  1.2572  0.7788 -1.3698
 3719SOL    HW222791   2.795   2.785   8.326 -0.7555  2.6094  0.2004
 3720SOL     OW22792   1.072   3.197   4.944  0.0010  0.5224  0.1639
 3720SOL    HW122793   1.036   3.259   4.881  3.4071  0.2119 -2.0865
 3720SOL    HW222794   1.134   3.142   4.896  0.2551 -0.0672  1.1502
 3721SOL     OW22795   4.320   2.001   7.613 -0.2881  0.6637  0.8685
 3721SOL    HW122796   4.338   1.908   7.625  3.8595  1.2724 -0.4889
 3721SOL    HW222797   4.251   2.015   7.678 -0.3720  0.2710  0.8623
 3722SOL     OW22798   0.462   1.844  10.755 -0.2635  0.1286  0.1836
 3722SOL    HW122799   0.375   1.821  10.790 -0.1916 -1.0001 -0.3591
 3722SOL    HW222800   0.518   1.844  10.833  0.5351  2.4566 -0.3952
 3723SOL     OW22801   3.064   2.054   3.636 -0.5159  0.5876  0.4610
 3723SOL    HW122802   3.018   2.063   3.552  0.5035  1.2119 -0.0296
 3723SOL    HW222803   3.128   2.124   3.620 -0.2147  0.7579  2.4521
 3724SOL     OW22804   3.326   4.307   4.981  0.0937 -0.7288  0.2508
 3724SOL    HW122805   3.405   4.318   4.928 -0.3851 -1.9208 -0.7143
 3724SOL    HW222806   3.320   4.398   5.012 -3.6171  0.0421 -2.7711
 3725SOL     OW22807   0.580   2.589  16.398  0.8775 -0.5242  0.4502
 3725SOL    HW122808   0.510   2.533  16.363  0.8680  0.0537 -0.4612
 3725SOL    HW222809   0.621   2.522  16.453  1.6474 -1.6268 -1.4796
 3726SOL     OW22810   4.673   2.463   4.435  0.4080  0.9521  0.2799
 3726SOL    HW122811   4.729   2.502   4.368 -0.3874  0.3676 -0.7112
 3726SOL    HW222812   4.687   2.522   4.509  0.0638  0.4303  0.7657
 3727SOL     OW22813   3.408   3.124   3.799  0.3243  0.0459  0.6087
 3727SOL    HW122814   3.498   3.143   3.773 -0.4755  0.3669 -1.9248
 3727SOL    HW222815   3.416   3.050   3.860 -1.0953  0.5012  1.3538
 3728SOL     OW22816   1.237   1.019   2.957  0.3883 -0.1061 -0.0694
 3728SOL    HW122817   1.298   1.004   3.029  1.6889 -0.8176 -1.3060
 3728SOL    HW222818   1.176   1.072   3.007  0.5402  0.9566 -0.9995
 3729SOL     OW22819   0.512   4.168   7.649 -0.4368 -0.5932  0.4861
 3729SOL    HW122820   0.481   4.257   7.631  1.5548 -0.3111 -1.5149
 3729SOL    HW222821   0.604   4.184   7.631 -0.2097 -1.4172  0.9005
 3730SOL     OW22822   1.980   3.808   8.297 -0.0798  0.2154 -0.0404
 3730SOL    HW122823   2.029   3.758   8.231  0.0571 -0.3857  0.5168
 3730SOL    HW222824   2.033   3.886   8.306 -0.4530  0.7027 -1.9554
 3731SOL     OW22825   3.404   2.059   8.096  0.2858 -0.1528 -0.1386
 3731SOL    HW122826   3.315   2.027   8.100  0.1929  0.3049  1.3997
 3731SOL    HW222827   3.409   2.094   8.007 -2.4572  0.5083 -0.0099
 3732SOL     OW22828   2.540   4.430  17.023  0.4439 -0.3742 -0.1417
 3732SOL    HW122829   2.521   4.459  17.112 -0.7860 -0.9323 -0.2150
 3732SOL    HW222830   2.633   4.417  17.040  0.3312 -1.2129 -0.1724
 3733SOL     OW22831   2.688   0.534   2.998 -0.1948  0.2801 -0.2446
 3733SOL    HW122832   2.665   0.570   3.083  0.1394 -0.1141  0.0172
 3733SOL    HW222833   2.698   0.617   2.951 -0.2194  0.9967  1.0395
 3734SOL     OW22834   3.408   1.457   9.561 -0.2636 -0.5559 -0.3706
 3734SOL    HW122835   3.461   1.529   9.596 -0.2482 -0.6815 -0.1373
 3734SOL    HW222836   3.321   1.476   9.595 -0.2856  2.5948 -2.1997
 3735SOL     OW22837   3.256   3.962   6.287  0.3044  0.9780 -0.1324
 3735SOL    HW122838   3.197   3.896   6.251  0.2272 -0.2850  2.2471
 3735SOL    HW222839   3.245   3.957   6.382 -1.2444  1.4598 -0.2912
 3736SOL     OW22840   1.677   2.287  11.536 -0.1672  0.1507  0.4631
 3736SOL    HW122841   1.752   2.227  11.527 -1.1733 -1.0322 -0.0740
 3736SOL    HW222842   1.691   2.334  11.618 -1.8486  1.2377  0.1178
 3737SOL     OW22843   1.956   4.115   8.510  0.4268 -0.8309  0.0723
 3737SOL    HW122844   1.910   4.036   8.537 -0.1750 -0.2769  0.6699
 3737SOL    HW222845   2.047   4.098   8.532  0.5853 -2.2780 -1.7316
 3738SOL     OW22846   0.458   1.027   3.594 -0.1548  0.1105 -0.1844
 3738SOL    HW122847   0.524   1.095   3.605  1.0499 -1.0863 -0.0494
 3738SOL    HW222848   0.395   1.067   3.533  0.3351  0.4915 -0.4343
 3739SOL     OW22849   4.511   0.542   6.493 -0.0182 -0.2460 -0.5462
 3739SOL    HW122850   4.582   0.532   6.556  0.9367 -0.9449 -1.7200
 3739SOL    HW222851   4.524   0.634   6.471 -1.3490 -0.3419 -1.6844
 3740SOL     OW22852   1.745   2.167  12.744  1.0295  0.0656 -0.2993
 3740SOL    HW122853   1.658   2.127  12.737  1.6125 -1.4967  1.3832
 3740SOL    HW222854   1.807   2.106  12.704 -0.1582 -0.4476 -1.3867
 3741SOL     OW22855   0.058   0.464   6.039  0.6303  0.2913  0.4046
 3741SOL    HW122856   0.001   0.393   6.005 -0.1619  1.9787 -1.8199
 3741SOL    HW222857   0.051   0.433   6.129  1.5055 -2.4197 -0.4288
 3742SOL     OW22858   4.553   3.498  14.071 -0.3594  0.5422  0.1025
 3742SOL    HW122859   4.596   3.563  14.127  1.6585 -0.0444 -0.7827
 3742SOL    HW222860   4.614   3.496  13.998 -0.7564  0.6822 -0.2315
 3743SOL     OW22861   3.195   1.531   8.047  0.4985  0.2876 -0.3215
 3743SOL    HW122862   3.199   1.527   8.143 -0.0542  0.4380 -0.2924
 3743SOL    HW222863   3.256   1.462   8.019  0.1544 -0.1756  0.0754
 3744SOL     OW22864   0.598   0.696   7.124 -0.2531 -0.2316  0.1343
 3744SOL    HW122865   0.677   0.748   7.142 -1.0751  1.1961 -0.3915
 3744SOL    HW222866   0.527   0.750   7.159 -0.7059 -0.1020 -0.9861
 3745SOL     OW22867   3.776   4.603   7.230  0.1593  0.6988  0.2514
 3745SOL    HW122868   3.712   4.645   7.287 -0.0328  0.1748  0.4180
 3745SOL    HW222869   3.849   4.664   7.239 -0.7774  1.5894  1.8049
 3746SOL     OW22870   0.987   1.811   1.636  0.1413  0.1369  0.5913
 3746SOL    HW122871   0.992   1.887   1.578  0.1644 -1.0965 -1.0482
 3746SOL    HW222872   1.028   1.746   1.578  3.4762  2.3978  0.3817
 3747SOL     OW22873   2.566   0.501   4.318 -0.2838  0.1431 -0.1935
 3747SOL    HW122874   2.476   0.487   4.349  0.2072  0.7577  1.4751
 3747SOL    HW222875   2.584   0.414   4.283 -0.1796  0.1023 -0.0395
 3748SOL     OW22876   3.921   0.377   6.862 -0.3045  0.1639 -0.4242
 3748SOL    HW122877   3.908   0.413   6.774  1.3509  0.6487 -0.4727
 3748SOL    HW222878   3.981   0.306   6.838  2.1648  1.8428  0.8017
 3749SOL     OW22879   2.862   2.948   7.164  0.2720  0.0846  0.2897
 3749SOL    HW122880   2.896   2.881   7.223  2.8882 -0.5261 -1.9308
 3749SOL    HW222881   2.935   2.967   7.106  0.9054  1.8600  1.6576
 3750SOL     OW22882   4.706   1.554   2.764  0.4269 -0.3828 -0.2614
 3750SOL    HW122883   4.692   1.628   2.704 -1.2992 -0.5316 -0.0595
 3750SOL    HW222884   4.623   1.532   2.807 -0.2794 -0.5631 -1.6992
 3751SOL     OW22885   3.899   2.638   6.032  0.5368 -0.1899 -0.5535
 3751SOL    HW122886   3.852   2.555   6.035  2.2475 -1.1697 -1.0639
 3751SOL    HW222887   3.822   2.694   6.017  0.7453  0.0224 -0.8211
 3752SOL     OW22888   0.728   0.175   4.624  0.6243 -0.0947 -0.3182
 3752SOL    HW122889   0.701   0.103   4.567  0.9349  0.5170 -1.2487
 3752SOL    HW222890   0.795   0.126   4.671  1.4800  2.3224  0.9701
 3753SOL     OW22891   3.868   2.617   6.969  0.2678  0.3830 -0.1972
 3753SOL    HW122892   3.899   2.526   6.965 -1.9988 -0.4205  0.4635
 3753SOL    HW222893   3.952   2.662   6.971  0.1344  0.6192  0.0139
 3754SOL     OW22894   4.709   0.129   9.269  0.0044 -0.2062 -0.4230
 3754SOL    HW122895   4.671   0.044   9.293 -3.2847  1.0632 -1.1010
 3754SOL    HW222896   4.630   0.180   9.254  0.6694  0.9282 -0.0162
 3755SOL     OW22897   1.588   3.002   5.122  0.1885  0.1306 -0.1863
 3755SOL    HW122898   1.551   2.918   5.094  0.1114  0.1493 -0.1390
 3755SOL    HW222899   1.661   3.014   5.061  1.1626 -2.0285  0.5596
 3756SOL     OW22900   1.606   3.202   3.804  0.4676  0.1420 -0.3758
 3756SOL    HW122901   1.565   3.155   3.732 -1.1849  0.4445  0.3589
 3756SOL    HW222902   1.665   3.265   3.763 -0.6316  0.7936 -0.9382
 3757SOL     OW22903   3.157   3.484   0.669 -0.3946 -0.1255 -0.8684
 3757SOL    HW122904   3.157   3.570   0.627  0.8465  1.2148  1.8748
 3757SOL    HW222905   3.106   3.498   0.748 -1.2335  1.0802 -1.6299
 3758SOL     OW22906   0.069   2.206   9.492  0.2517 -0.4784 -0.0903
 3758SOL    HW122907   0.024   2.137   9.444  0.9316 -1.0001  0.0237
 3758SOL    HW222908   0.143   2.214   9.432 -0.8737  0.4233 -1.3403
 3759SOL     OW22909   3.412   3.626   7.718 -0.1932 -0.3801  0.2676
 3759SOL    HW122910   3.498   3.622   7.677  0.1125 -1.9633  1.0601
 3759SOL    HW222911   3.411   3.539   7.758 -1.7036  0.4317  2.0257
 3760SOL     OW22912   1.774   3.845   8.665 -0.0356 -0.2228  0.3187
 3760SOL    HW122913   1.782   3.779   8.595 -1.6469 -0.1498  0.0743
 3760SOL    HW222914   1.749   3.792   8.740 -3.8107 -0.6440 -1.2380
 3761SOL     OW22915   1.951   3.416   6.363  0.2820  0.8925  0.2154
 3761SOL    HW122916   2.042   3.407   6.392  1.1366 -0.8785 -2.8812
 3761SOL    HW222917   1.926   3.472   6.436  0.1272 -1.2283  1.7987
 3762SOL     OW22918   4.559   4.476   4.896  0.1643 -0.1746 -0.5360
 3762SOL    HW122919   4.507   4.402   4.927 -0.0635  1.1512  2.2199
 3762SOL    HW222920   4.605   4.498   4.977 -0.0770  1.1428 -0.7720
 3763SOL     OW22921   4.434   1.494   5.139  0.2990  0.2071 -0.3894
 3763SOL    HW122922   4.482   1.543   5.073  0.2902  0.4870 -0.1876
 3763SOL    HW222923   4.359   1.465   5.088 -0.6190  1.4705  0.2494
 3764SOL     OW22924   0.426   1.818   3.167 -0.3861 -0.2003  0.5958
 3764SOL    HW122925   0.331   1.824   3.158 -0.2865  0.1737 -0.1497
 3764SOL    HW222926   0.426   1.772   3.251 -2.7357 -0.3210  0.5140
 3765SOL     OW22927   0.888   4.598   6.699  0.1378 -0.7113  0.3127
 3765SOL    HW122928   0.866   4.631   6.785  0.6240 -0.3193  0.2891
 3765SOL    HW222929   0.955   4.534   6.724  0.4857 -0.2639  0.5149
 3766SOL     OW22930   2.947   3.838  14.578 -0.0479  0.0499 -0.2546
 3766SOL    HW122931   3.028   3.872  14.540  0.0184  0.4648  0.2570
 3766SOL    HW222932   2.992   3.802  14.655  0.2650  2.1173  0.5219
 3767SOL     OW22933   0.647   1.272   3.225  0.0474  0.1236 -0.0007
 3767SOL    HW122934   0.564   1.292   3.181  0.4928 -0.2865 -1.0191
 3767SOL    HW222935   0.667   1.188   3.183  1.6886  0.6453 -0.2368
 3768SOL     OW22936   0.097   2.195   6.898  0.1738 -0.9521 -0.3280
 3768SOL    HW122937   0.177   2.197   6.845  0.8675  0.3010  0.7596
 3768SOL    HW222938   0.119   2.121   6.955  0.7789 -0.2993  0.2941
 3769SOL     OW22939   1.529   4.682   9.196  0.1421 -0.8644 -0.0770
 3769SOL    HW122940   1.555   4.597   9.162  1.3762  0.0937 -1.5462
 3769SOL    HW222941   1.544   0.007   9.122  1.6680 -0.3216  0.6836
 3770SOL     OW22942   1.062   2.168   6.345  0.5330 -0.5524 -0.2347
 3770SOL    HW122943   1.068   2.084   6.390  0.0190  0.5064  1.8311
 3770SOL    HW222944   1.133   2.213   6.390 -0.7357 -1.0143  2.2078
 3771SOL     OW22945   3.140   2.541   5.632  0.2093  0.3755 -0.3901
 3771SOL    HW122946   3.177   2.454   5.644 -0.8600 -0.0956 -0.4749
 3771SOL    HW222947   3.216   2.596   5.653  0.4034 -0.0927  0.1434
 3772SOL     OW22948   0.833   0.162   7.825  0.3394  0.4441  0.3305
 3772SOL    HW122949   0.817   0.250   7.791  0.6152 -1.1408 -3.7793
 3772SOL    HW222950   0.929   0.169   7.829  0.3641 -0.2674  0.9314
 3773SOL     OW22951   1.091   1.396  12.659  0.4838  0.3591  0.0811
 3773SOL    HW122952   1.149   1.323  12.636  0.1234  0.6832 -1.8653
 3773SOL    HW222953   1.009   1.368  12.619  0.2317 -0.3633  1.1130
 3774SOL     OW22954   2.823   1.762  10.479 -0.4508 -0.1100  0.1913
 3774SOL    HW122955   2.841   1.668  10.480 -0.3926 -0.1399 -3.5789
 3774SOL    HW222956   2.913   1.795  10.474 -0.8649  0.6950 -1.9762
 3775SOL     OW22957   3.962   4.295   8.450  0.0959  0.2353 -0.0352
 3775SOL    HW122958   3.873   4.273   8.478  0.0661  1.4869  0.8789
 3775SOL    HW222959   3.996   4.322   8.535  0.9293 -2.0513  0.3525
 3776SOL     OW22960   1.928   4.279   7.403 -0.2653 -0.1019 -0.0728
 3776SOL    HW122961   1.904   4.188   7.422  0.1630 -0.3818 -0.9072
 3776SOL    HW222962   1.969   4.304   7.486  1.6444 -1.0972 -0.7369
 3777SOL     OW22963   2.150   0.595   2.101  0.6335  0.7427  0.1025
 3777SOL    HW122964   2.062   0.558   2.096 -0.4307  2.9664  2.1011
 3777SOL    HW222965   2.206   0.540   2.047 -1.3683 -0.4278 -0.8064
 3778SOL     OW22966   2.363   4.102   1.976  0.2462  0.2453 -0.2371
 3778SOL    HW122967   2.379   4.077   1.885  0.4045  0.1624 -0.1857
 3778SOL    HW222968   2.412   4.036   2.026 -0.8623 -1.2572 -1.1275
 3779SOL     OW22969   4.633   2.175   5.487 -0.0520 -0.5148  0.3407
 3779SOL    HW122970   4.540   2.200   5.493 -0.5829 -2.3993 -0.3004
 3779SOL    HW222971   4.641   2.109   5.556  0.6757  0.8813  1.6060
 3780SOL     OW22972   2.729   4.661   2.490  0.3385  0.5663 -0.0700
 3780SOL    HW122973   2.681   4.641   2.410 -3.3500  0.8302  2.0662
 3780SOL    HW222974   2.655   4.637   2.547  0.5437  0.0130 -0.0352
 3781SOL     OW22975   1.256   3.263   3.424 -0.5260  0.2429  0.8188
 3781SOL    HW122976   1.238   3.339   3.369 -0.1409 -0.1092  0.2112
 3781SOL    HW222977   1.337   3.240   3.379 -1.3426 -1.4353  0.2029
 3782SOL     OW22978   1.643   2.367   2.064 -0.2763 -0.0292 -0.3932
 3782SOL    HW122979   1.586   2.378   1.987 -0.7153 -0.2389 -0.0947
 3782SOL    HW222980   1.579   2.395   2.129 -0.4498 -0.9656 -0.1762
 3783SOL     OW22981   1.561   0.847   3.631  0.3473  0.1780 -0.0932
 3783SOL    HW122982   1.580   0.884   3.545 -1.8093 -0.6975 -0.9313
 3783SOL    HW222983   1.627   0.779   3.643 -0.3604 -0.4008  0.4869
 3784SOL     OW22984   0.851   4.692   8.849 -0.4998  0.1488  0.4695
 3784SOL    HW122985   0.873   4.625   8.914  1.0142  2.0477  1.9040
 3784SOL    HW222986   0.794   4.635   8.798  0.0348  0.2686 -0.2666
 3785SOL     OW22987   0.496   2.134   7.518 -0.5614 -0.4987 -0.1850
 3785SOL    HW122988   0.511   2.199   7.586 -0.2785 -0.6633 -0.0937
 3785SOL    HW222989   0.466   2.188   7.444 -0.8613 -0.3683  0.0340
 3786SOL     OW22990   2.547   1.274   1.457  0.9770 -0.2210  0.1269
 3786SOL    HW122991   2.553   1.180   1.439 -0.3640  0.0225 -1.6274
 3786SOL    HW222992   2.457   1.303   1.443  1.7008  1.5582 -0.7269
 3787SOL     OW22993   3.101   3.941   9.395 -0.1673 -0.1089  0.0526
 3787SOL    HW122994   3.158   3.942   9.318  1.5183  0.6412  1.3260
 3787SOL    HW222995   3.027   3.892   9.359 -0.8335  1.1306 -0.2617
 3788SOL     OW22996   1.475   2.311   2.807  0.2023  0.5771  0.4219
 3788SOL    HW122997   1.433   2.246   2.750  2.3476  1.1892 -1.8647
 3788SOL    HW222998   1.552   2.266   2.842 -0.8913  1.2304  3.5863
 3789SOL     OW22999   2.846   4.047   3.493 -0.0553 -0.0949  0.1336
 3789SOL    HW123000   2.785   4.121   3.485 -2.1242 -1.7293  0.9234
 3789SOL    HW223001   2.796   3.987   3.548  0.7489  0.6236  1.6377
 3790SOL     OW23002   1.725   1.117   4.335 -0.4646  0.0026  0.3483
 3790SOL    HW123003   1.743   1.040   4.389 -0.5279 -0.7954 -0.7759
 3790SOL    HW223004   1.693   1.074   4.256 -3.0528  0.0542  1.3502
 3791SOL     OW23005   0.135   1.349   2.701 -0.0604  0.1069 -0.4589
 3791SOL    HW123006   0.078   1.418   2.736  0.4939  0.9298 -1.1820
 3791SOL    HW223007   0.215   1.391   2.671 -0.4207  0.2257 -1.2572
 3792SOL     OW23008   1.720   0.343   8.061 -0.0315  0.1890  0.4082
 3792SOL    HW123009   1.674   0.328   7.978 -0.4457 -0.2362  0.7135
 3792SOL    HW223010   1.811   0.322   8.041 -0.0120  1.1615 -0.5223
 3793SOL     OW23011   3.168   4.127  12.233  0.0599  0.2202 -0.4010
 3793SOL    HW123012   3.076   4.137  12.207  0.0455  0.5221 -0.2330
 3793SOL    HW223013   3.153   4.081  12.316 -1.9832  1.2630 -0.1807
 3794SOL     OW23014   3.519   3.967   9.412  0.4787  0.3483 -0.2745
 3794SOL    HW123015   3.506   3.973   9.318 -0.1692  1.0667 -0.1345
 3794SOL    HW223016   3.614   3.959   9.420  0.6911 -0.1691 -3.6020
 3795SOL     OW23017   2.763   3.310   5.221  0.4071  0.8503  0.1145
 3795SOL    HW123018   2.807   3.239   5.268  1.5019  0.3702 -1.6078
 3795SOL    HW223019   2.675   3.308   5.259  0.5297  0.7790  0.3958
 3796SOL     OW23020   0.787   0.701   3.860 -0.5438  0.1857  0.2923
 3796SOL    HW123021   0.718   0.690   3.794  0.3702  0.2346 -0.6658
 3796SOL    HW223022   0.864   0.655   3.829 -0.2494 -1.5623  3.6060
 3797SOL     OW23023   1.250   4.246  12.988  0.1667  0.4624  0.2323
 3797SOL    HW123024   1.261   4.241  13.083  2.3840 -0.3849 -0.0872
 3797SOL    HW223025   1.160   4.278  12.979  0.4548  1.1679 -0.1588
 3798SOL     OW23026   4.071   3.938   0.763 -0.2586 -0.4587  0.0622
 3798SOL    HW123027   4.066   3.843   0.775  1.8569 -0.3708  1.7887
 3798SOL    HW223028   4.152   3.942   0.814  0.1649  1.5090 -0.7343
 3799SOL     OW23029   4.716   4.375   6.707  0.1326 -0.7851  0.1942
 3799SOL    HW123030   4.660   4.406   6.635 -0.6395  0.4550  1.3317
 3799SOL    HW223031   4.692   4.282   6.702 -0.2954 -0.6814  0.3104
 3800SOL     OW23032   3.507   2.236   8.579  0.3514  0.2012  0.2822
 3800SOL    HW123033   3.516   2.160   8.522 -0.9630  1.3769 -1.4926
 3800SOL    HW223034   3.598   2.265   8.584 -0.1542  1.3655  2.9634
 3801SOL     OW23035   4.398   1.644   5.981 -0.1741 -0.7514  0.0770
 3801SOL    HW123036   4.349   1.570   5.944 -3.9138  1.1255  1.2073
 3801SOL    HW223037   4.439   1.681   5.902 -1.6782  0.4634 -0.1555
 3802SOL     OW23038   2.755   3.993   3.143  0.1992 -0.5259 -0.1516
 3802SOL    HW123039   2.666   3.996   3.178  0.1772 -3.1942  0.0381
 3802SOL    HW223040   2.736   3.954   3.058  1.6615  0.1983 -0.8120
 3803SOL     OW23041   1.079   3.539   0.651 -0.2298 -0.0227  0.2971
 3803SOL    HW123042   1.035   3.621   0.675 -1.0857  0.1357 -1.8132
 3803SOL    HW223043   1.168   3.575   0.652  0.4156 -1.5222 -1.9011
 3804SOL     OW23044   0.819   3.825  11.060 -0.3184  0.4348 -0.4285
 3804SOL    HW123045   0.758   3.789  10.995 -1.6580 -0.6423  1.4240
 3804SOL    HW223046   0.857   3.899  11.013  2.6001 -1.7324 -1.5417
 3805SOL     OW23047   2.185   4.439   8.411 -0.2918 -0.3045  0.7394
 3805SOL    HW123048   2.111   4.396   8.453 -0.6048 -1.0891 -0.6141
 3805SOL    HW223049   2.262   4.405   8.457 -0.1051 -2.1698 -0.9384
 3806SOL     OW23050   2.812   3.669   4.752 -0.3994 -0.1465 -0.2228
 3806SOL    HW123051   2.718   3.653   4.762 -0.5652 -0.4004 -2.1684
 3806SOL    HW223052   2.843   3.582   4.725  1.2902  0.8826 -1.6175
 3807SOL     OW23053   1.913   2.351   6.198 -0.3962 -0.0724  0.1087
 3807SOL    HW123054   1.997   2.311   6.175 -0.2973 -0.1001  0.5206
 3807SOL    HW223055   1.929   2.444   6.181  0.6443 -0.1219  0.8390
 3808SOL     OW23056   4.384   0.064  17.441 -0.2197 -0.4252 -0.2520
 3808SOL    HW123057   4.348   0.011  17.370  3.4203 -1.7910 -1.0749
 3808SOL    HW223058   4.476   0.046  17.422 -0.9260 -2.9657 -1.2941
 3809SOL     OW23059   4.720   2.577   2.500  0.2603  0.1534 -0.9300
 3809SOL    HW123060   0.061   2.635   2.492 -0.3197  0.9887 -0.3155
 3809SOL    HW223061   0.017   2.494   2.464  0.1292  0.2494 -1.2654
 3810SOL     OW23062   4.644   4.388   0.603 -0.3551  0.0827  0.5115
 3810SOL    HW123063   4.575   4.414   0.542  0.6108 -2.5539 -1.6832
 3810SOL    HW223064   4.719   4.415   0.552 -0.2395 -1.4213 -0.1022
 3811SOL     OW23065   2.797   3.636  12.941 -0.3782 -0.8396 -0.3059
 3811SOL    HW123066   2.796   3.712  12.998  1.2926 -0.5054 -0.6997
 3811SOL    HW223067   2.716   3.592  12.966  0.0942 -0.9077  1.0986
 3812SOL     OW23068   3.966   3.847   6.120 -0.3043  0.0378 -0.2529
 3812SOL    HW123069   3.896   3.799   6.164 -0.1590 -1.3694 -1.5694
 3812SOL    HW223070   3.927   3.934   6.112 -1.6431 -0.2693  3.1554
 3813SOL     OW23071   3.327   3.240   4.441  0.9069  0.8553 -0.5809
 3813SOL    HW123072   3.302   3.164   4.494  0.1482 -0.3482 -2.6628
 3813SOL    HW223073   3.296   3.213   4.355 -0.3788  3.0717 -0.8024
 3814SOL     OW23074   3.379   1.677   7.006 -0.2904  0.1636 -0.3140
 3814SOL    HW123075   3.444   1.607   6.997 -1.2407 -0.6732 -0.5792
 3814SOL    HW223076   3.301   1.623   6.998  0.0763 -0.3781 -0.1791
 3815SOL     OW23077   2.233   3.640   1.565 -0.1116  0.0479  0.3513
 3815SOL    HW123078   2.279   3.583   1.626  5.0623  2.1004 -1.5880
 3815SOL    HW223079   2.297   3.709   1.545 -0.7321  0.6152  0.3121
 3816SOL     OW23080   2.823   4.695   0.815 -0.4178  0.3796  0.0587
 3816SOL    HW123081   2.870   4.614   0.797 -0.5477  0.5144 -0.8992
 3816SOL    HW223082   2.892   0.025   0.806  0.0444 -0.0767  0.3335
 3817SOL     OW23083   0.950   1.262   0.435 -0.3000  0.0829 -0.2260
 3817SOL    HW123084   0.919   1.179   0.471 -1.0049  0.3241 -0.2759
 3817SOL    HW223085   0.908   1.268   0.349 -1.8982  0.2652  0.5534
 3818SOL     OW23086   4.718   2.422  16.418  0.0888 -0.1240 -0.1052
 3818SOL    HW123087   0.049   2.467  16.471  0.3079 -1.5845  0.8314
 3818SOL    HW223088   4.716   2.479  16.341 -0.0764 -0.7651 -0.5777
 3819SOL     OW23089   0.648   3.468   0.684  0.1828  0.2825  1.0643
 3819SOL    HW123090   0.578   3.430   0.737 -1.3529  1.2165 -0.3097
 3819SOL    HW223091   0.721   3.409   0.707 -1.2550 -1.6957  0.5996
 3820SOL     OW23092   0.491   0.570   8.457 -0.3876  0.4561  0.2348
 3820SOL    HW123093   0.445   0.613   8.385  1.1740  0.4124 -0.7820
 3820SOL    HW223094   0.517   0.651   8.502  0.8492 -0.8496  1.8611
 3821SOL     OW23095   1.986   0.002   8.454 -0.5718 -0.0642 -0.3454
 3821SOL    HW123096   1.935   4.684   8.516 -0.8483 -0.3896 -0.8477
 3821SOL    HW223097   2.070   0.014   8.497 -0.2514 -2.8594 -0.2001
 3822SOL     OW23098   0.881   2.124   7.271 -0.1340 -0.0863  0.6149
 3822SOL    HW123099   0.841   2.200   7.311 -2.9679 -0.6178 -1.1992
 3822SOL    HW223100   0.974   2.143   7.256 -0.6191  0.7707 -1.3087
 3823SOL     OW23101   0.375   0.951  15.737 -0.2457 -0.2688  0.1959
 3823SOL    HW123102   0.383   1.034  15.690  4.3686 -0.4280  0.6884
 3823SOL    HW223103   0.444   0.967  15.801  0.1894 -0.5937 -0.1922
 3824SOL     OW23104   4.313   0.713   4.038  0.0618  0.1557  0.3606
 3824SOL    HW123105   4.322   0.620   4.058 -1.0790  0.2787  1.4380
 3824SOL    HW223106   4.228   0.707   3.993 -0.7081  1.8359  1.5873
 3825SOL     OW23107   3.982   0.093   3.543  0.3529  0.8425 -0.3300
 3825SOL    HW123108   4.040   0.164   3.518 -0.4719  2.0165  1.0673
 3825SOL    HW223109   3.926   0.124   3.615 -0.4805  0.3530 -0.7551
 3826SOL     OW23110   1.888   0.148   8.702 -0.0402 -0.2227 -0.2218
 3826SOL    HW123111   1.830   0.216   8.671  2.6876  2.5353  0.7243
 3826SOL    HW223112   1.841   0.067   8.683 -1.8290  0.5869  0.8095
 3827SOL     OW23113   4.594   1.409   7.605 -0.0161  0.5658  0.4644
 3827SOL    HW123114   4.684   1.388   7.581 -0.0915 -0.0035  0.6793
 3827SOL    HW223115   4.577   1.329   7.655  2.5401 -0.2554 -0.0024
 3828SOL     OW23116   3.278   1.728   7.245 -0.2920 -0.3003 -0.2913
 3828SOL    HW123117   3.327   1.708   7.165  0.5459 -0.2871  0.2179
 3828SOL    HW223118   3.194   1.721   7.200  0.2804 -1.5477 -1.1814
 3829SOL     OW23119   2.825   3.082  15.598  0.5656 -0.3846  0.4537
 3829SOL    HW123120   2.753   3.134  15.562 -0.2497 -1.7770  0.0927
 3829SOL    HW223121   2.804   3.083  15.692 -2.9254 -0.8202 -0.3358
 3830SOL     OW23122   1.461   0.657   3.234 -0.8262 -0.2674  0.6179
 3830SOL    HW123123   1.392   0.704   3.283 -0.7180  0.5518 -0.0121
 3830SOL    HW223124   1.446   0.686   3.144 -0.0303  2.0596  1.2206
 3831SOL     OW23125   4.079   1.514   8.506  0.7052  0.2261  0.1543
 3831SOL    HW123126   4.142   1.515   8.578  0.4116  2.9020  0.3734
 3831SOL    HW223127   4.137   1.509   8.430  0.9908  0.1513  0.3791
 3832SOL     OW23128   3.109   3.225  12.189  0.1251  0.0132 -0.2467
 3832SOL    HW123129   3.043   3.185  12.246  0.6498 -1.0892 -0.4181
 3832SOL    HW223130   3.047   3.277  12.137 -1.0634 -0.6574  0.4872
 3833SOL     OW23131   0.625   4.492   8.106  0.0686 -0.7681  0.1927
 3833SOL    HW123132   0.675   4.539   8.039  2.6470 -1.5603  1.5566
 3833SOL    HW223133   0.543   4.511   8.060  0.8673 -0.5329 -1.1067
 3834SOL     OW23134   1.737   3.548  16.931  0.1474  0.1989  0.6533
 3834SOL    HW123135   1.693   3.626  16.966  0.0908  0.7150 -0.5594
 3834SOL    HW223136   1.825   3.586  16.926  0.4996 -1.2255 -4.3294
 3835SOL     OW23137   1.609   3.659   5.346 -0.1137 -0.6901  0.1844
 3835SOL    HW123138   1.626   3.565   5.348 -0.2065 -0.7180 -0.5377
 3835SOL    HW223139   1.624   3.658   5.252 -1.8609 -1.7540 -0.0720
 3836SOL     OW23140   2.742   1.879   5.154 -0.6348 -0.1301  0.3159
 3836SOL    HW123141   2.663   1.827   5.157 -0.3903 -0.5669 -1.0460
 3836SOL    HW223142   2.771   1.867   5.245  0.0195  0.9410  0.2594
 3837SOL     OW23143   4.013   2.391   6.975  0.0688 -0.0247  0.0377
 3837SOL    HW123144   4.055   2.398   7.060 -1.8388 -0.9831  1.0498
 3837SOL    HW223145   4.091   2.379   6.921  1.1623 -0.4333  1.7041
 3838SOL     OW23146   4.073   4.212   5.359  0.4155 -0.7178  0.0599
 3838SOL    HW123147   4.158   4.175   5.336  0.3473 -0.6690 -0.2781
 3838SOL    HW223148   4.094   4.300   5.391 -1.6135  0.3552 -1.5668
 3839SOL     OW23149   4.239   2.033   4.066 -0.6729 -0.5714 -0.5985
 3839SOL    HW123150   4.184   1.976   4.012 -2.6519  1.3786 -0.6049
 3839SOL    HW223151   4.232   1.988   4.150 -0.8867 -1.1352 -0.9225
 3840SOL     OW23152   4.314   0.282   5.078  0.0738 -0.1607  0.1792
 3840SOL    HW123153   4.236   0.335   5.062  0.0343  0.0694  1.1759
 3840SOL    HW223154   4.343   0.264   4.988  2.2410  1.5531  0.5283
 3841SOL     OW23155   0.107   4.446   0.448  0.0602  0.3173  0.3587
 3841SOL    HW123156   0.160   4.516   0.488  0.5858  0.0784  0.0826
 3841SOL    HW223157   0.131   4.449   0.355 -0.7326  0.6592  0.1683
 3842SOL     OW23158   4.092   3.687   1.115  0.0935  0.2165  0.1753
 3842SOL    HW123159   4.179   3.649   1.112 -1.2092 -2.7786  0.4482
 3842SOL    HW223160   4.125   3.777   1.113  1.6900 -0.3757  0.2871
 3843SOL     OW23161   2.171   0.240   5.315 -0.2162 -0.0333 -0.3224
 3843SOL    HW123162   2.160   0.313   5.254  3.3752  0.7777  0.0035
 3843SOL    HW223163   2.212   0.278   5.393 -0.7562  1.5498 -0.7956
 3844SOL     OW23164   4.611   1.410   9.148 -0.2476  0.0759 -0.1635
 3844SOL    HW123165   4.643   1.333   9.103 -0.4267  0.0373 -0.2266
 3844SOL    HW223166   4.615   1.478   9.080 -0.6511  0.4787  0.2144
 3845SOL     OW23167   3.694   3.839   6.919  0.1541  0.1499 -0.6678
 3845SOL    HW123168   3.705   3.889   7.000  0.6092  3.2202 -2.6353
 3845SOL    HW223169   3.701   3.752   6.961  2.3578 -0.4295 -2.2495
 3846SOL     OW23170   1.937   3.642   4.871  0.1798 -0.0574  0.3153
 3846SOL    HW123171   1.945   3.552   4.904 -0.6395 -0.9809 -2.0036
 3846SOL    HW223172   1.970   3.691   4.946  1.9212  0.6025 -0.9038
 3847SOL     OW23173   3.408   2.933   5.726 -0.1641 -0.3698  0.1656
 3847SOL    HW123174   3.483   2.993   5.731  0.1612 -0.7637  0.0129
 3847SOL    HW223175   3.338   2.987   5.763  0.7984  0.2268  1.1141
 3848SOL     OW23176   3.855   0.213   5.285 -0.0062  0.0644  0.4419
 3848SOL    HW123177   3.823   0.301   5.267  1.2017 -0.1465 -2.6581
 3848SOL    HW223178   3.864   0.172   5.199 -1.4369 -2.6700  1.5811
 3849SOL     OW23179   1.885   0.475   9.412 -0.0369  0.0353 -0.1865
 3849SOL    HW123180   1.944   0.536   9.457  0.0646 -1.5220  1.7670
 3849SOL    HW223181   1.941   0.398   9.409  2.3707  1.8680 -2.0103
 3850SOL     OW23182   3.432   2.596   6.342 -0.1525 -0.0826  0.2871
 3850SOL    HW123183   3.503   2.531   6.340 -0.2166 -0.2051  1.6166
 3850SOL    HW223184   3.391   2.581   6.428  0.6238  3.4397  1.2575
 3851SOL     OW23185   0.442   4.264  11.893  0.2176 -0.4151 -0.0892
 3851SOL    HW123186   0.373   4.314  11.849  0.1283 -1.8503 -1.5845
 3851SOL    HW223187   0.433   4.186  11.838  2.8822  0.4498 -1.7149
 3852SOL     OW23188   4.442   3.590   6.702 -0.1226 -0.0865 -0.2538
 3852SOL    HW123189   4.406   3.658   6.759  1.4865  0.4529  0.1414
 3852SOL    HW223190   4.366   3.558   6.654 -1.7198  1.3262  1.3969
 3853SOL     OW23191   0.775   0.828   3.503 -0.8920  0.1926 -0.0914
 3853SOL    HW123192   0.793   0.913   3.462  0.4136 -1.7176 -3.4682
 3853SOL    HW223193   0.844   0.843   3.567 -0.3112 -4.2849  0.3378
 3854SOL     OW23194   2.684   2.878   5.305  0.0044  0.2339 -0.2206
 3854SOL    HW123195   2.696   2.901   5.212  0.4906  1.0919  0.0504
 3854SOL    HW223196   2.608   2.820   5.300 -1.4493  2.0198  1.3972
 3855SOL     OW23197   4.694   0.387   7.764 -0.2534  0.5241 -0.2330
 3855SOL    HW123198   4.734   0.304   7.736 -0.0504  0.5182  0.0764
 3855SOL    HW223199   4.639   0.351   7.834 -0.5825  0.3095 -0.6056
 3856SOL     OW23200   0.126   0.022   8.136  0.3133  0.5279  0.0347
 3856SOL    HW123201   0.198   0.039   8.076  0.1022  0.4239 -0.2474
 3856SOL    HW223202   0.098   0.111   8.159 -2.3348 -0.5772  1.1855
 3857SOL     OW23203   4.294   2.205   8.665  0.3913 -0.2241  0.6288
 3857SOL    HW123204   4.300   2.251   8.749  0.5656 -0.5412  0.7911
 3857SOL    HW223205   4.336   2.125   8.698  0.6955 -1.1353 -2.0108
 3858SOL     OW23206   0.047   0.387   2.472  0.4318  0.2375 -0.1525
 3858SOL    HW123207   0.087   0.305   2.501 -1.8124 -0.7030  0.3253
 3858SOL    HW223208   0.091   0.456   2.522 -0.5653  0.5155  0.3534
 3859SOL     OW23209   0.430   4.139   4.554  0.0948 -0.4322 -0.0090
 3859SOL    HW123210   0.436   4.045   4.572 -2.0956 -0.6724 -0.5238
 3859SOL    HW223211   0.364   4.139   4.485  0.1960  0.0382 -0.1057
 3860SOL     OW23212   4.310   0.741   7.177  0.0034  0.3371 -0.3101
 3860SOL    HW123213   4.336   0.830   7.202  0.5207  0.2481 -0.5286
 3860SOL    HW223214   4.392   0.710   7.139  0.8926  1.7467  0.4092
 3861SOL     OW23215   3.093   1.205   3.678  0.0578  0.8625 -0.7906
 3861SOL    HW123216   3.101   1.161   3.762 -3.9136  0.6379 -0.5142
 3861SOL    HW223217   3.169   1.168   3.633 -0.0663  1.4781 -1.5037
 3862SOL     OW23218   2.699   2.001   7.884  0.6560  0.2667 -0.4338
 3862SOL    HW123219   2.718   1.931   7.821  0.9955  0.2922 -0.3568
 3862SOL    HW223220   2.607   1.984   7.904  0.5779  1.7736  0.4644
 3863SOL     OW23221   0.678   1.945   8.277 -0.4676  0.5077 -0.3656
 3863SOL    HW123222   0.750   1.988   8.232  0.2233  0.4149  0.6478
 3863SOL    HW223223   0.707   1.853   8.270  0.1769  0.7288 -0.6203
 3864SOL     OW23224   0.499   2.167   3.005 -0.1065 -0.3066  0.6370
 3864SOL    HW123225   0.483   2.148   3.097 -0.8039  0.4210  0.6586
 3864SOL    HW223226   0.416   2.128   2.978  0.3283 -1.6487  1.2131
 3865SOL     OW23227   0.630   1.862   6.384 -0.2264  0.2944  0.0967
 3865SOL    HW123228   0.636   1.878   6.290  2.8501 -0.1837  0.2190
 3865SOL    HW223229   0.612   1.768   6.381  0.0642  0.3549 -3.3974
 3866SOL     OW23230   3.745   3.139   4.324 -0.4166 -0.2624  0.2133
 3866SOL    HW123231   3.814   3.191   4.283 -0.1200  0.0028  1.0543
 3866SOL    HW223232   3.763   3.058   4.277 -0.3811 -1.7859  2.8367
 3867SOL     OW23233   4.471   0.209   7.814 -0.6923 -0.8366  0.2408
 3867SOL    HW123234   4.402   0.224   7.750  0.6603 -2.5638 -1.6060
 3867SOL    HW223235   4.419   0.190   7.892  0.4104 -0.4272  1.0926
 3868SOL     OW23236   1.775   3.733   4.022 -0.4939 -0.1420 -0.0808
 3868SOL    HW123237   1.684   3.712   4.046 -1.3504  2.8154 -0.6654
 3868SOL    HW223238   1.812   3.785   4.093 -0.8225 -1.0248  0.7338
 3869SOL     OW23239   1.771   1.539   3.048  0.7563 -0.0530  0.2433
 3869SOL    HW123240   1.706   1.594   3.092  0.4758  0.9343 -1.4160
 3869SOL    HW223241   1.787   1.466   3.108 -1.2521 -2.7865 -2.6121
 3870SOL     OW23242   4.645   3.003   3.307 -0.1823 -0.7009  0.5910
 3870SOL    HW123243   4.711   2.936   3.290  1.7579  1.0535  1.0191
 3870SOL    HW223244   4.581   2.954   3.358  0.1074 -1.7652 -0.0632
 3871SOL     OW23245   1.161   1.060   8.257  0.3540  0.0228 -0.0721
 3871SOL    HW123246   1.223   1.001   8.215 -0.8352 -0.7628 -0.7583
 3871SOL    HW223247   1.198   1.075   8.344 -1.5659  0.8207  0.6070
 3872SOL     OW23248   4.523   2.654   8.632 -0.3497 -0.0958  1.0516
 3872SOL    HW123249   4.520   2.595   8.557  1.0864 -1.1840  1.8624
 3872SOL    HW223250   4.590   2.603   8.678  0.1816 -0.8367 -0.5394
 3873SOL     OW23251   2.105   0.455   6.403  0.3747  0.1372  0.1334
 3873SOL    HW123252   2.173   0.426   6.463 -0.4235  0.3830  1.1624
 3873SOL    HW223253   2.125   0.549   6.402 -0.0295  0.2267  0.3893
 3874SOL     OW23254   1.177   1.636  12.160 -0.4127 -0.6849 -0.1559
 3874SOL    HW123255   1.204   1.588  12.082 -0.3388 -0.4197 -0.2940
 3874SOL    HW223256   1.228   1.588  12.225  1.1355  0.9885 -0.1194
 3875SOL     OW23257   4.609   4.245   2.765 -0.1279  0.3763  0.1315
 3875SOL    HW123258   4.671   4.174   2.785  1.9421  1.4133 -2.5587
 3875SOL    HW223259   4.528   4.201   2.739 -0.4069 -0.1710  1.9256
 3876SOL     OW23260   4.073   2.530  13.672  0.0120 -0.7220 -0.4115
 3876SOL    HW123261   4.033   2.474  13.738 -0.7365  0.2396 -0.0539
 3876SOL    HW223262   4.142   2.575  13.721  0.3380  0.7359 -2.2024
 3877SOL     OW23263   4.499   2.225   1.262 -0.1486 -0.2922 -0.3128
 3877SOL    HW123264   4.545   2.151   1.302 -1.0315 -0.7709 -0.1753
 3877SOL    HW223265   4.409   2.204   1.288  0.1698 -0.5705  0.5402
 3878SOL     OW23266   4.506   3.209   7.401  0.3865  0.2948  0.1552
 3878SOL    HW123267   4.481   3.226   7.310 -0.9416  0.7084  0.5965
 3878SOL    HW223268   4.506   3.299   7.435 -0.1395 -0.5202  2.3536
 3879SOL     OW23269   3.683   4.031  12.469  0.1899 -0.2558  0.0171
 3879SOL    HW123270   3.595   3.999  12.486 -0.3500  3.1227  3.3669
 3879SOL    HW223271   3.713   4.048  12.558 -2.1968 -1.4634  1.0522
 3880SOL     OW23272   1.406   2.806   9.198 -0.4483  0.4863  0.0822
 3880SOL    HW123273   1.421   2.803   9.104  0.2248 -1.6390  0.2589
 3880SOL    HW223274   1.347   2.882   9.196 -1.0920  0.0690  3.5793
 3881SOL     OW23275   1.643   2.312   8.197  0.1497 -0.5456  0.4782
 3881SOL    HW123276   1.633   2.286   8.106 -3.0751 -1.6045  1.1548
 3881SOL    HW223277   1.706   2.244   8.221 -1.1620 -1.1182  2.3141
 3882SOL     OW23278   0.455   0.607   0.101 -0.1262  0.3562  0.1996
 3882SOL    HW123279   0.531   0.578   0.151 -1.6359 -1.5165  1.4164
 3882SOL    HW223280   0.463   0.543   0.031  1.8797  0.5764  0.2310
 3883SOL     OW23281   4.673   0.762  10.508  0.7120  0.3753 -0.4266
 3883SOL    HW123282   4.713   0.710  10.578 -0.1324  0.4998  0.1574
 3883SOL    HW223283   4.706   0.851  10.524 -1.6812  0.8811  1.8704
 3884SOL     OW23284   0.889   1.828   6.178 -0.3161 -0.5934  0.5286
 3884SOL    HW123285   0.825   1.879   6.128  2.7307  1.6865 -1.0996
 3884SOL    HW223286   0.966   1.814   6.122 -1.8860  2.2058 -2.3219
 3885SOL     OW23287   1.223   0.780   5.239 -0.7649 -0.0991  0.2515
 3885SOL    HW123288   1.145   0.724   5.238 -0.4190 -0.5737 -0.5708
 3885SOL    HW223289   1.283   0.706   5.245 -0.8580 -0.3073 -1.3610
 3886SOL     OW23290   0.072   2.100   4.011 -0.0773 -0.0941  0.2120
 3886SOL    HW123291   0.153   2.050   4.017 -1.3963 -2.1084  0.9959
 3886SOL    HW223292   0.022   2.033   4.056  0.6119  2.3349  4.5949
 3887SOL     OW23293   2.529   1.533   9.008  0.1673 -0.7553 -0.2903
 3887SOL    HW123294   2.564   1.605   9.060  1.0947  0.8193 -3.1458
 3887SOL    HW223295   2.454   1.572   8.963  1.2908 -0.3772 -1.7772
 3888SOL     OW23296   0.131   2.067  11.870 -0.1239  0.6265 -0.3749
 3888SOL    HW123297   0.160   1.977  11.886  1.1255  1.3467  1.3279
 3888SOL    HW223298   0.180   2.118  11.933  1.7818 -1.1621 -0.4012
 3889SOL     OW23299   1.982   1.053  17.697  0.4656 -0.6004 -0.0991
 3889SOL    HW123300   2.009   1.013   0.042  2.6868  0.1138 -0.4613
 3889SOL    HW223301   2.055   1.026  17.642  0.6378 -0.6121  0.1333
 3890SOL     OW23302   1.996   0.987   8.296 -0.2347 -0.1039 -0.5711
 3890SOL    HW123303   2.076   0.969   8.247  0.1818  0.4620 -0.0994
 3890SOL    HW223304   1.960   0.899   8.310  0.5232 -0.5041 -1.1337
 3891SOL     OW23305   3.470   0.679  10.622  0.3266 -0.1996  0.9867
 3891SOL    HW123306   3.559   0.707  10.597 -1.0889  4.0311  0.6007
 3891SOL    HW223307   3.442   0.726  10.700  2.1959  1.8981  0.4072
 3892SOL     OW23308   4.249   4.299   2.267  0.1463 -0.1333  0.4019
 3892SOL    HW123309   4.233   4.352   2.189 -0.7738 -1.9831 -0.6478
 3892SOL    HW223310   4.160   4.273   2.287  0.4348 -0.7809  0.8414
 3893SOL     OW23311   1.405   1.789   2.368  0.0548 -0.3842 -0.4983
 3893SOL    HW123312   1.471   1.726   2.341 -0.1605 -0.7281 -0.2188
 3893SOL    HW223313   1.456   1.850   2.421  0.2133  0.3594 -1.5009
 3894SOL     OW23314   0.765   4.348   5.274 -0.8249 -0.0803 -0.0916
 3894SOL    HW123315   0.721   4.325   5.192 -0.5687  1.1759 -0.5815
 3894SOL    HW223316   0.755   4.443   5.271 -0.3490  0.0088  1.5409
 3895SOL     OW23317   0.035   3.167  14.942  0.1950  0.7212  0.6150
 3895SOL    HW123318   0.033   3.108  15.017 -0.1389 -0.7808 -0.5753
 3895SOL    HW223319   0.106   3.128  14.891 -1.7716 -2.2778  0.2227
 3896SOL     OW23320   1.398   1.633  12.348  0.0117 -0.0112  0.5153
 3896SOL    HW123321   1.397   1.690  12.271 -4.6110  2.3786  2.3133
 3896SOL    HW223322   1.348   1.693  12.403 -0.8294 -1.2373  1.0859
 3897SOL     OW23323   0.100   2.902   2.885  0.7428 -0.3836 -0.6311
 3897SOL    HW123324   0.007   2.919   2.868  1.1352  0.6945 -1.7622
 3897SOL    HW223325   0.118   2.860   2.801  3.5931  1.9716 -1.2066
 3898SOL     OW23326   0.817   0.752   8.619 -0.2207 -0.1150  0.2733
 3898SOL    HW123327   0.847   0.675   8.572 -2.8922 -0.9015 -0.1343
 3898SOL    HW223328   0.832   0.821   8.555  2.1697 -1.0363 -0.1698
 3899SOL     OW23329   1.997   4.045  15.629  0.4572 -0.7808 -0.1458
 3899SOL    HW123330   2.027   4.064  15.540  1.0590 -0.8788  0.0302
 3899SOL    HW223331   2.019   4.129  15.669 -0.5711 -0.8460  0.5322
 3900SOL     OW23332   0.940   3.800   4.228  0.4961  0.2560 -0.0678
 3900SOL    HW123333   0.881   3.842   4.166  0.6490  2.1531  1.0548
 3900SOL    HW223334   0.951   3.872   4.291  0.1417  1.1190 -0.9857
 3901SOL     OW23335   2.469   4.670   4.249 -0.2421  0.2781  0.5014
 3901SOL    HW123336   2.555   4.654   4.288  1.0083  1.1088 -1.8930
 3901SOL    HW223337   2.484   4.660   4.155 -0.2588  1.6867  0.3427
 3902SOL     OW23338   4.600   4.019  15.771 -0.0253  0.5880  0.3555
 3902SOL    HW123339   4.533   4.065  15.821 -0.8237  0.4891 -0.6303
 3902SOL    HW223340   4.678   4.059  15.809 -0.3393  1.0391  0.5246
 3903SOL     OW23341   1.306   3.548   5.865 -0.1410  0.3481 -0.8701
 3903SOL    HW123342   1.399   3.557   5.886  0.0403 -0.5046 -1.2937
 3903SOL    HW223343   1.287   3.455   5.856  1.6610  0.0225 -1.3343
 3904SOL     OW23344   1.032   1.073   6.082 -0.5565 -0.0090 -0.0913
 3904SOL    HW123345   0.964   1.129   6.119 -0.1676 -0.0877  0.7441
 3904SOL    HW223346   0.991   0.988   6.069 -1.0842  0.4645 -1.5434
 3905SOL     OW23347   4.092   2.213   5.697 -0.2998 -0.3414 -0.2438
 3905SOL    HW123348   4.099   2.118   5.699 -2.7321 -0.5086  0.7703
 3905SOL    HW223349   4.022   2.236   5.635 -1.1809 -0.9582  0.5272
 3906SOL     OW23350   1.082   3.481   7.165 -0.2489 -0.1560 -0.2954
 3906SOL    HW123351   0.996   3.490   7.124  0.8657  2.0991 -2.0843
 3906SOL    HW223352   1.104   3.394   7.130  1.1060  0.9944 -2.2888
 3907SOL     OW23353   2.209   2.271  15.509  0.0560 -0.0643 -0.1374
 3907SOL    HW123354   2.249   2.187  15.487 -0.8001 -1.0016  1.8966
 3907SOL    HW223355   2.284   2.316  15.548 -0.6195 -1.3780  2.6266
 3908SOL     OW23356   4.430   3.681   7.683  0.3362 -0.0188 -0.0702
 3908SOL    HW123357   4.372   3.685   7.608 -1.8929  4.0256  1.8344
 3908SOL    HW223358   4.452   3.774   7.692 -2.0681  0.4975  0.4128
 3909SOL     OW23359   2.309   2.665   8.632  0.1386 -0.0013 -0.3807
 3909SOL    HW123360   2.305   2.730   8.702  1.4168 -1.8122  1.3757
 3909SOL    HW223361   2.403   2.651   8.627  0.3966  1.4150  0.6380
 3910SOL     OW23362   3.995   2.737   6.292 -0.4530  0.1455 -0.1970
 3910SOL    HW123363   3.985   2.660   6.348 -0.8636 -0.0337 -0.5257
 3910SOL    HW223364   3.954   2.703   6.213  0.8689 -0.4987 -0.6029
 3911SOL     OW23365   0.275   0.601  17.143 -0.0774  0.0243 -0.1280
 3911SOL    HW123366   0.356   0.560  17.171 -0.0488  0.5706  0.5952
 3911SOL    HW223367   0.225   0.602  17.224  3.6120  1.5302  2.1172
 3912SOL     OW23368   2.624   0.865  17.311  0.2572  0.2912  0.3317
 3912SOL    HW123369   2.655   0.920  17.239  0.1835 -1.0469 -0.7324
 3912SOL    HW223370   2.655   0.781  17.277 -0.5097  0.3702 -0.5790
 3913SOL     OW23371   0.497   3.484  10.029  0.5966  0.0461  0.1759
 3913SOL    HW123372   0.530   3.531  10.105  1.0149  1.4744 -0.8970
 3913SOL    HW223373   0.448   3.410  10.067 -0.7276  2.1473  2.5622
 3914SOL     OW23374   2.980   1.517  10.516  0.1240  0.2308 -0.2750
 3914SOL    HW123375   3.009   1.474  10.597 -1.7425  0.1095  0.3176
 3914SOL    HW223376   3.021   1.469  10.444 -2.5216  0.9473 -2.2251
 3915SOL     OW23377   0.562   2.310  13.525 -0.7592 -0.2641  0.6495
 3915SOL    HW123378   0.509   2.362  13.465 -0.8658  0.0410  1.0038
 3915SOL    HW223379   0.498   2.244  13.553  0.8852 -2.1719 -0.0650
 3916SOL     OW23380   4.692   3.215   6.380 -0.0832  0.3344  0.4533
 3916SOL    HW123381   4.683   3.284   6.314  1.9801 -0.0715 -0.2483
 3916SOL    HW223382   4.606   3.206   6.421  0.8659 -2.6764  1.7594
 3917SOL     OW23383   0.465   2.826  16.499  0.4149 -0.5088  0.4483
 3917SOL    HW123384   0.457   2.732  16.480 -0.8330 -0.2930 -0.1025
 3917SOL    HW223385   0.559   2.830  16.520 -0.1974  1.8288  2.7765
 3918SOL     OW23386   1.350   4.003   5.048 -0.2096 -0.2468 -0.3513
 3918SOL    HW123387   1.383   3.996   4.959  1.6987 -0.6048  0.3986
 3918SOL    HW223388   1.264   4.041   5.029 -0.5872 -0.8043  0.2425
 3919SOL     OW23389   0.524   0.601  11.798 -0.3666 -0.8348 -0.2706
 3919SOL    HW123390   0.523   0.591  11.893 -2.4097  0.9828 -0.1088
 3919SOL    HW223391   0.429   0.602  11.788 -0.5760  0.8455  1.7741
 3920SOL     OW23392   2.423   4.557   6.471 -0.5444  0.5650  0.1377
 3920SOL    HW123393   2.473   4.501   6.412  1.1153  0.2219  1.8729
 3920SOL    HW223394   2.336   4.519   6.461 -1.0982  1.9092 -0.2296
 3921SOL     OW23395   4.144   3.176   9.566 -0.0230  0.2260 -0.0708
 3921SOL    HW123396   4.205   3.119   9.614 -0.4627 -1.4839 -1.5111
 3921SOL    HW223397   4.102   3.221   9.639 -1.8349 -0.4156 -0.7028
 3922SOL     OW23398   3.251   4.114   1.368 -0.7429 -0.6973  0.8523
 3922SOL    HW123399   3.309   4.189   1.355  1.0772 -1.7798  2.6531
 3922SOL    HW223400   3.304   4.037   1.347 -0.6457 -0.3152 -0.3224
 3923SOL     OW23401   2.334   4.177   7.407 -0.6151  0.4725  0.0875
 3923SOL    HW123402   2.409   4.155   7.463 -0.0469 -0.1550 -0.9148
 3923SOL    HW223403   2.265   4.159   7.471  0.7074  1.2948  1.7635
 3924SOL     OW23404   3.223   1.715   7.539 -0.1283  1.0899 -0.3510
 3924SOL    HW123405   3.313   1.695   7.562 -0.7988  0.0267  1.3457
 3924SOL    HW223406   3.222   1.705   7.444 -2.7481 -1.0815 -0.1162
 3925SOL     OW23407   3.560   1.187   1.621  0.0174 -0.2322  0.0940
 3925SOL    HW123408   3.546   1.193   1.716 -3.6663 -0.8790 -0.4089
 3925SOL    HW223409   3.536   1.095   1.605 -2.6175  0.6524 -1.0373
 3926SOL     OW23410   3.100   2.757  13.235 -0.0016 -0.4157 -0.2451
 3926SOL    HW123411   3.027   2.811  13.264  1.2480  0.9557  0.3350
 3926SOL    HW223412   3.082   2.684  13.295 -1.4550 -0.2328 -0.4603
 3927SOL     OW23413   3.316   1.416  13.047  0.1218  0.0727 -0.3681
 3927SOL    HW123414   3.333   1.449  13.135 -1.9321 -0.1311  0.1150
 3927SOL    HW223415   3.357   1.330  13.058  1.6274  0.7949 -0.4730
 3928SOL     OW23416   3.222   3.583   5.472  0.2718 -0.1324  0.6604
 3928SOL    HW123417   3.135   3.551   5.447  1.4805 -3.8436  1.1998
 3928SOL    HW223418   3.267   3.505   5.503  3.0058  0.0874 -2.6860
 3929SOL     OW23419   4.719   2.692   4.151  0.5771  0.0402  0.4303
 3929SOL    HW123420   4.698   2.649   4.068  2.4597 -1.8544  0.9306
 3929SOL    HW223421   0.074   2.665   4.174 -0.2796 -2.6217  0.7319
 3930SOL     OW23422   3.423   1.797  13.006  0.0627  0.3161 -0.0219
 3930SOL    HW123423   3.516   1.776  13.006  0.0577  0.3213  0.7950
 3930SOL    HW223424   3.423   1.864  13.073 -1.4536  1.9152 -1.6217
 3931SOL     OW23425   3.898   3.774   3.760  0.4069  0.1023 -0.2349
 3931SOL    HW123426   3.993   3.779   3.761  0.4044  0.0796  0.4313
 3931SOL    HW223427   3.880   3.702   3.699  2.0130 -1.6761  1.3915
 3932SOL     OW23428   1.141   0.691   2.032  0.3845  0.7849 -0.5934
 3932SOL    HW123429   1.225   0.735   2.028 -0.2180  2.0063  0.1599
 3932SOL    HW223430   1.126   0.666   1.941  3.1209 -1.7666 -0.3373
 3933SOL     OW23431   3.334   4.267   5.358  0.0398  0.7257 -0.1171
 3933SOL    HW123432   3.391   4.339   5.386  1.1799 -0.3447  0.2737
 3933SOL    HW223433   3.250   4.310   5.378  0.5468  2.2731 -1.3567
 3934SOL     OW23434   2.214   3.269   7.313  0.3279  0.3122  0.1591
 3934SOL    HW123435   2.194   3.236   7.401  0.7907  1.6839  0.7762
 3934SOL    HW223436   2.240   3.355   7.346  4.0382 -0.5186 -0.6682
 3935SOL     OW23437   2.302   2.309   6.501  0.8314 -0.0969 -0.1588
 3935SOL    HW123438   2.229   2.254   6.472 -1.1083  2.6390 -0.5106
 3935SOL    HW223439   2.250   2.362   6.562  2.1663 -0.2878  1.1498
 3936SOL     OW23440   0.153   1.983  13.874 -0.0026  0.3290 -0.4586
 3936SOL    HW123441   0.075   2.006  13.923 -0.3767  0.0661 -0.9238
 3936SOL    HW223442   0.116   2.001  13.788  0.7535  1.7064 -0.4858
 3937SOL     OW23443   4.566   1.668   4.653 -0.1193 -0.2049 -0.3316
 3937SOL    HW123444   4.553   1.761   4.632 -1.3211  0.1102  1.8082
 3937SOL    HW223445   4.481   1.624   4.655 -1.0174  1.5457  0.3754
 3938SOL     OW23446   1.635   4.555   1.425  0.7357  0.6328 -0.5185
 3938SOL    HW123447   1.576   4.620   1.388  1.1917  1.0758 -0.4576
 3938SOL    HW223448   1.632   4.509   1.341 -1.1985 -0.4053  0.1097
 3939SOL     OW23449   1.521   4.502  13.133 -0.1082 -0.3642 -0.2547
 3939SOL    HW123450   1.539   4.495  13.227 -0.3067 -2.2766 -0.3704
 3939SOL    HW223451   1.524   4.598  13.123 -1.1746 -0.2454  0.5453
 3940SOL     OW23452   1.084   4.482   1.679 -0.2044 -0.0676 -0.4946
 3940SOL    HW123453   1.079   4.452   1.770 -2.3468 -2.9176 -1.5507
 3940SOL    HW223454   1.042   4.568   1.675 -0.5902 -0.2050  0.4712
 3941SOL     OW23455   3.062   4.552   7.748 -0.5161  0.2314  0.0978
 3941SOL    HW123456   3.086   4.566   7.656 -0.1331 -0.8933  0.0282
 3941SOL    HW223457   3.146   4.534   7.790 -0.3723 -0.6739 -0.5887
 3942SOL     OW23458   1.529   0.865  12.479  0.3112  0.1506 -0.4384
 3942SOL    HW123459   1.469   0.888  12.550 -0.3797  3.6345 -2.1665
 3942SOL    HW223460   1.572   0.949  12.465 -0.3960  0.2907 -1.7572
 3943SOL     OW23461   4.098   0.271  12.446 -0.0312  0.1695  0.7488
 3943SOL    HW123462   4.131   0.318  12.370 -0.0648  0.9528  1.2243
 3943SOL    HW223463   4.174   0.294  12.499 -0.5512  2.1723  0.6182
 3944SOL     OW23464   1.472   0.097   3.721  0.1228  0.0243  0.5656
 3944SOL    HW123465   1.538   0.050   3.773 -1.7875 -1.5030  1.6029
 3944SOL    HW223466   1.513   0.180   3.697  1.5185 -0.4570  1.2914
 3945SOL     OW23467   3.010   2.286  13.902  0.1007 -1.5231  0.2423
 3945SOL    HW123468   2.927   2.250  13.933 -0.6125  0.0650  0.1718
 3945SOL    HW223469   3.043   2.215  13.848  0.6799  0.4002 -1.9645
 3946SOL     OW23470   3.431   1.533  11.113  0.3308 -0.0750 -0.2071
 3946SOL    HW123471   3.456   1.464  11.174  2.6560  0.3034 -0.7676
 3946SOL    HW223472   3.487   1.598  11.154 -1.1309 -0.5730  2.6165
 3947SOL     OW23473   0.088   1.822   8.072  0.9496  0.1243  0.0101
 3947SOL    HW123474   0.111   1.915   8.067  2.5584 -0.2746 -0.1257
 3947SOL    HW223475   4.730   1.836   8.059  1.3670  2.3118 -0.5343
 3948SOL     OW23476   4.393   4.064   0.682  0.0483  0.2593  0.0462
 3948SOL    HW123477   4.376   3.971   0.698  0.5478 -0.2914 -2.6742
 3948SOL    HW223478   4.488   4.068   0.671 -0.1325  2.0854 -0.8975
 3949SOL     OW23479   1.405   4.249   6.694 -0.5569 -0.0014  0.4197
 3949SOL    HW123480   1.331   4.190   6.680  0.0992 -0.6190 -0.4470
 3949SOL    HW223481   1.375   4.298   6.770 -0.3391 -0.2054  0.6360
 3950SOL     OW23482   0.947   4.425   3.602 -0.3120 -0.4013 -0.4696
 3950SOL    HW123483   0.874   4.465   3.555 -0.4935 -1.9431 -1.5189
 3950SOL    HW223484   1.026   4.464   3.564 -1.2067  1.4902 -0.3948
 3951SOL     OW23485   1.313   4.009   3.599 -0.2923 -0.3001 -0.6269
 3951SOL    HW123486   1.387   4.066   3.620 -1.0034  0.7651 -1.0086
 3951SOL    HW223487   1.233   4.061   3.606  0.0770  0.0493  1.1689
 3952SOL     OW23488   0.806   3.098   5.016  0.2462  0.5846  0.0043
 3952SOL    HW123489   0.898   3.099   4.990  0.2231 -1.4410 -0.1911
 3952SOL    HW223490   0.776   3.047   4.940  2.2950 -0.1746 -0.2720
 3953SOL     OW23491   3.393   1.123   8.991  0.1217  0.0668  0.5715
 3953SOL    HW123492   3.315   1.172   9.016  0.1033 -0.3411  1.3151
 3953SOL    HW223493   3.456   1.133   9.062  0.6377  0.6411  0.0314
 3954SOL     OW23494   3.744   2.373  14.167 -0.1193 -0.5169 -0.5011
 3954SOL    HW123495   3.828   2.376  14.214  0.0999 -0.2461 -0.9085
 3954SOL    HW223496   3.688   2.426  14.223  2.3805 -0.6033  2.1286
 3955SOL     OW23497   3.380   0.239   5.947  0.6175  0.0784 -0.0507
 3955SOL    HW123498   3.371   0.334   5.937 -0.1873 -0.0579 -0.6613
 3955SOL    HW223499   3.382   0.235   6.042  2.3417  1.5277 -0.0263
 3956SOL     OW23500   1.772   4.487   8.338  0.1318  0.0473  0.0216
 3956SOL    HW123501   1.728   4.571   8.351  1.4757  0.7527  0.0963
 3956SOL    HW223502   1.699   4.442   8.297  1.0292  0.3645 -1.9505
 3957SOL     OW23503   1.908   3.009  13.668  0.3383  0.6025  0.2293
 3957SOL    HW123504   1.827   2.958  13.658  0.8701 -0.3670  0.8500
 3957SOL    HW223505   1.977   2.943  13.662 -0.0969 -0.0272  2.1446
 3958SOL     OW23506   1.617   2.630  10.068 -0.1022  0.1982 -0.3846
 3958SOL    HW123507   1.648   2.690  10.000  0.1348  0.6173  0.0974
 3958SOL    HW223508   1.621   2.692  10.141 -2.3954 -0.4850  0.3216
 3959SOL     OW23509   2.888   1.532   2.881 -0.1186  0.0288 -0.1709
 3959SOL    HW123510   2.970   1.563   2.842  0.6919  0.2849  1.7249
 3959SOL    HW223511   2.919   1.471   2.948 -0.6201  2.5888  2.3810
 3960SOL     OW23512   3.213   4.208  15.607  0.3982  0.2717  0.0965
 3960SOL    HW123513   3.129   4.212  15.652  0.4736  1.0870  0.1579
 3960SOL    HW223514   3.211   4.123  15.563 -0.4999  0.3872 -0.0925
 3961SOL     OW23515   2.660   0.049   3.156  0.5440  0.2689 -0.3858
 3961SOL    HW123516   2.733   4.730   3.186 -1.5005 -2.7135 -0.7119
 3961SOL    HW223517   2.596   4.720   3.124 -0.8803  1.3657  0.2430
 3962SOL     OW23518   1.098   1.608   1.465  0.0358  0.3977 -0.4362
 3962SOL    HW123519   1.158   1.535   1.478 -1.8907 -1.2854 -1.0302
 3962SOL    HW223520   1.089   1.624   1.371  0.5668  1.1464 -0.3569
 3963SOL     OW23521   0.118   0.401   7.293 -0.3237 -0.0164 -0.2313
 3963SOL    HW123522   0.041   0.430   7.244  0.1696  1.0699 -0.3692
 3963SOL    HW223523   0.120   0.468   7.360  1.1771  0.3479 -0.6481
 3964SOL     OW23524   4.222   3.094   6.621 -0.2743  0.2937 -0.5955
 3964SOL    HW123525   4.128   3.094   6.639 -0.0213 -0.0706  0.7403
 3964SOL    HW223526   4.243   3.020   6.678 -1.5764  0.1133 -0.3525
 3965SOL     OW23527   1.944   0.957   5.605 -0.3723 -0.1050  0.1032
 3965SOL    HW123528   1.951   1.050   5.584  2.5550 -0.1282  1.0378
 3965SOL    HW223529   1.849   0.944   5.602 -0.2869 -0.5582 -0.7987
 3966SOL     OW23530   0.014   1.718  17.479  0.0421 -1.1144 -0.4492
 3966SOL    HW123531   0.024   1.687  17.569  1.2048 -2.6605 -1.1153
 3966SOL    HW223532   4.655   1.734  17.467  0.3930  0.5059 -1.0951
 3967SOL     OW23533   0.891   0.385   7.662  0.4882  0.0598 -0.2686
 3967SOL    HW123534   0.869   0.457   7.720  0.0654 -0.2595 -0.0317
 3967SOL    HW223535   0.858   0.419   7.579 -0.7806 -0.1361  0.1518
 3968SOL     OW23536   1.724   2.086   7.945 -0.1447  0.5996 -0.3687
 3968SOL    HW123537   1.730   2.024   7.871  0.8599  1.2700 -0.8451
 3968SOL    HW223538   1.669   2.157   7.912 -0.6856  0.0793 -0.5943
 3969SOL     OW23539   0.756   3.924   4.066  0.0228  0.1861 -0.1562
 3969SOL    HW123540   0.712   3.912   3.982 -0.1358 -0.1044 -0.0309
 3969SOL    HW223541   0.784   4.016   4.068 -0.6021  0.3565  1.0717
 3970SOL     OW23542   2.462   3.860   2.095  0.0957  0.4309  0.7295
 3970SOL    HW123543   2.528   3.843   2.162  0.6088  3.6694  1.0355
 3970SOL    HW223544   2.456   3.774   2.054  3.0921  1.0394 -0.9554
 3971SOL     OW23545   3.329   3.426  15.208  0.1874 -0.0683  0.1209
 3971SOL    HW123546   3.293   3.430  15.297 -0.9734  1.6934 -0.4443
 3971SOL    HW223547   3.291   3.342  15.182  2.0903 -0.1363 -2.4338
 3972SOL     OW23548   2.109   0.826   0.424 -0.1163  0.7180  0.0435
 3972SOL    HW123549   2.176   0.865   0.481 -1.3087  1.2652  1.0685
 3972SOL    HW223550   2.142   0.736   0.420  1.3699  1.2478  0.5375
 3973SOL     OW23551   4.037   2.227   8.713  0.1549  0.1240  0.2268
 3973SOL    HW123552   4.007   2.162   8.649 -1.9188  0.1486  1.1811
 3973SOL    HW223553   4.125   2.253   8.686  0.0720  2.1148  1.8416
 3974SOL     OW23554   3.894   3.255   1.402 -0.3685 -0.2274  0.3703
 3974SOL    HW123555   3.946   3.186   1.443  0.1219  1.1388  2.0532
 3974SOL    HW223556   3.944   3.327   1.440  1.4114 -0.1799 -2.0069
 3975SOL     OW23557   3.600   0.084   6.752  0.4861  0.2707  0.2016
 3975SOL    HW123558   3.594   0.029   6.830 -0.4884 -4.6025 -3.3010
 3975SOL    HW223559   3.690   0.057   6.732  1.3348  1.8742  1.8139
 3976SOL     OW23560   4.118   0.012   5.181  0.3983 -0.8715 -0.5900
 3976SOL    HW123561   4.089   0.051   5.099 -0.1438 -1.4337 -0.6653
 3976SOL    HW223562   4.055   4.676   5.194 -0.6417  0.1456 -0.1286
 3977SOL     OW23563   1.393   4.330   3.872  0.1991  0.3735 -0.3092
 3977SOL    HW123564   1.338   4.404   3.898 -0.0503  0.1906 -0.3190
 3977SOL    HW223565   1.451   4.326   3.948 -0.1070  1.0650 -0.0322
 3978SOL     OW23566   3.754   4.328   7.635 -0.0001  0.3135  0.2260
 3978SOL    HW123567   3.833   4.290   7.594  0.6423  0.8988  0.9267
 3978SOL    HW223568   3.753   4.275   7.714 -0.8051  1.6836  1.1182
 3979SOL     OW23569   0.605   2.282  17.580 -0.5466  0.3183 -0.5205
 3979SOL    HW123570   0.667   2.212  17.559 -0.3192  0.2249  0.4620
 3979SOL    HW223571   0.638   2.307  17.667  0.0403  0.4397 -0.7792
 3980SOL     OW23572   2.879   1.733  16.602 -0.4653 -0.4581 -0.2319
 3980SOL    HW123573   2.888   1.752  16.509 -1.9201  1.2470 -0.0119
 3980SOL    HW223574   2.952   1.788  16.632  0.4129 -1.8212  0.1463
 3981SOL     OW23575   3.779   0.071  11.751  0.5704 -0.3384 -0.0246
 3981SOL    HW123576   3.827   0.153  11.743  2.5042 -1.5498 -0.9558
 3981SOL    HW223577   3.829   0.034  11.678  0.6142 -0.1340 -0.0958
 3982SOL     OW23578   1.051   3.364  15.379 -0.0300 -0.2232 -0.5827
 3982SOL    HW123579   1.092   3.347  15.295 -1.3239  0.9727 -1.4649
 3982SOL    HW223580   1.074   3.285  15.428 -0.0778 -0.1210 -0.3948
 3983SOL     OW23581   2.820   4.331   5.556  0.6971 -0.1029 -0.0945
 3983SOL    HW123582   2.755   4.300   5.493  1.0914  0.2520 -0.6776
 3983SOL    HW223583   2.796   4.275   5.629  2.1179 -2.2516 -1.2606
 3984SOL     OW23584   3.971   2.146   6.799  0.1927 -0.4986  0.2314
 3984SOL    HW123585   3.993   2.237   6.817  0.6700 -0.5215 -0.2374
 3984SOL    HW223586   3.881   2.164   6.770 -0.5052 -3.3618  0.6195
 3985SOL     OW23587   1.450   2.618   6.654  0.3018  0.2083 -0.7450
 3985SOL    HW123588   1.380   2.558   6.680  1.8106 -3.4830 -5.3130
 3985SOL    HW223589   1.503   2.613   6.734  0.6989  0.3291 -1.0012
 3986SOL     OW23590   2.401   0.248   0.596 -0.3613  0.1075  0.3341
 3986SOL    HW123591   2.435   0.338   0.595 -1.6335  0.6056  1.3736
 3986SOL    HW223592   2.474   0.209   0.644  0.3556 -1.5153 -2.0629
 3987SOL     OW23593   3.347   4.726   2.564  0.5946 -0.5638  0.2940
 3987SOL    HW123594   3.360   4.631   2.575 -3.4453 -1.2404 -0.8566
 3987SOL    HW223595   3.361   0.029   2.650  0.7401 -0.3542  0.1771
 3988SOL     OW23596   4.303   4.363   3.457  0.1833 -0.2815  0.7492
 3988SOL    HW123597   4.263   4.436   3.504 -1.4962 -1.0392  0.5219
 3988SOL    HW223598   4.361   4.408   3.397  2.0451 -0.8996  2.0822
 3989SOL     OW23599   1.822   0.476   8.855  0.5397 -0.0263  0.2985
 3989SOL    HW123600   1.892   0.456   8.916 -0.2346  2.5865  2.0681
 3989SOL    HW223601   1.793   0.557   8.898 -1.6787 -0.3891 -0.4879
 3990SOL     OW23602   3.256   0.362   3.458  0.1675 -0.6387 -0.1985
 3990SOL    HW123603   3.243   0.285   3.404 -2.4970 -2.0049  2.4032
 3990SOL    HW223604   3.280   0.308   3.533 -1.2129 -1.1190 -0.1113
 3991SOL     OW23605   0.230   3.662   2.721  0.1698 -0.1827  0.0014
 3991SOL    HW123606   0.166   3.670   2.651  0.0239  0.6919  0.2252
 3991SOL    HW223607   0.189   3.707   2.795  1.1735 -0.3785  0.6765
 3992SOL     OW23608   1.715   1.660   9.333 -0.3120 -0.1356 -0.4020
 3992SOL    HW123609   1.711   1.718   9.409  0.4371  0.2110 -0.6361
 3992SOL    HW223610   1.796   1.695   9.297  0.2193  0.6096  1.4875
 3993SOL     OW23611   4.681   3.000  10.542 -0.6737 -0.5387  0.1370
 3993SOL    HW123612   4.732   2.954  10.609  1.0022 -0.0887 -0.8103
 3993SOL    HW223613   4.638   2.921  10.510  0.2552 -0.6228 -0.8897
 3994SOL     OW23614   2.598   0.717   7.880 -0.6136  0.0919  0.9314
 3994SOL    HW123615   2.503   0.705   7.882 -0.3714 -2.0064  0.0300
 3994SOL    HW223616   2.624   0.659   7.809  0.7016  0.4700  1.1079
 3995SOL     OW23617   4.163   0.460   8.976 -0.3029 -0.1985 -0.1598
 3995SOL    HW123618   4.130   0.467   8.887 -0.5813 -0.3751 -0.0712
 3995SOL    HW223619   4.219   0.384   8.968  2.3025  1.3937  2.7924
 3996SOL     OW23620   4.077   2.231  15.899 -0.0690  0.0413 -0.4219
 3996SOL    HW123621   3.999   2.285  15.886  0.5940  1.0757 -0.0186
 3996SOL    HW223622   4.146   2.287  15.864 -0.9075  0.8876 -0.7398
 3997SOL     OW23623   0.528   2.119  14.187  0.4524 -0.2899  0.3021
 3997SOL    HW123624   0.475   2.119  14.107 -2.4195  1.6163  2.1775
 3997SOL    HW223625   0.503   2.031  14.214 -0.0794 -0.7009 -1.4996
 3998SOL     OW23626   1.712   0.289   3.318  0.2789 -0.2571  0.0914
 3998SOL    HW123627   1.795   0.269   3.360 -0.8590 -1.9183  1.5623
 3998SOL    HW223628   1.687   0.363   3.373  0.2535  0.5186 -0.9618
 3999SOL     OW23629   3.266   1.096   1.804  0.4158  0.2980  0.1769
 3999SOL    HW123630   3.258   1.078   1.711 -0.4730 -0.1664  0.3406
 3999SOL    HW223631   3.272   1.191   1.801  0.4722  0.2237 -1.9059
 4000SOL     OW23632   2.541   3.840   6.377  0.2499  0.2636  0.0249
 4000SOL    HW123633   2.611   3.902   6.359  0.6386 -0.1128  0.2342
 4000SOL    HW223634   2.558   3.790   6.297 -0.5032 -1.1410  0.7318
 4001SOL     OW23635   1.972   2.753   6.387  0.3436  0.7603  0.3047
 4001SOL    HW123636   1.922   2.701   6.324  0.7995  0.4693  0.1854
 4001SOL    HW223637   2.042   2.781   6.329  1.3881 -2.9999 -0.2505
 4002SOL     OW23638   2.937   2.575   0.239  0.0860 -0.2231 -0.0123
 4002SOL    HW123639   2.843   2.557   0.245  0.0598  0.3544  1.2820
 4002SOL    HW223640   2.961   2.601   0.328  0.0971 -1.4845  0.3468
 4003SOL     OW23641   1.433   3.353  17.442  0.4276  0.2649 -0.2903
 4003SOL    HW123642   1.380   3.287  17.398 -0.1949  0.4855  0.1188
 4003SOL    HW223643   1.494   3.377  17.373  0.6393  1.9559  0.4705
 4004SOL     OW23644   0.996   4.398   6.869  0.0546  0.9279 -1.1006
 4004SOL    HW123645   0.906   4.368   6.858 -1.0442  3.2215  1.4776
 4004SOL    HW223646   1.046   4.321   6.898 -0.4170  0.9301 -0.2675
 4005SOL     OW23647   0.560   4.457   7.700 -0.2129 -0.4476  0.0505
 4005SOL    HW123648   0.591   4.547   7.710 -1.3547 -0.4220  3.5901
 4005SOL    HW223649   0.500   4.457   7.625 -0.2489  1.0174  0.0722
 4006SOL     OW23650   4.361   1.371   5.593  0.2756  0.1164  0.1680
 4006SOL    HW123651   4.391   1.376   5.684  0.5746  0.6923  0.0426
 4006SOL    HW223652   4.322   1.284   5.599 -0.4138  0.3674 -0.8378
 4007SOL     OW23653   2.354   3.461   1.728  0.0856 -0.2545 -0.0431
 4007SOL    HW123654   2.371   3.415   1.811 -0.2920 -1.3285 -0.5642
 4007SOL    HW223655   2.430   3.434   1.676  0.1362  0.9296 -0.5767
 4008SOL     OW23656   0.733   4.031   7.052 -0.1202  0.5912 -0.7778
 4008SOL    HW123657   0.657   4.065   7.005  0.7277  2.0502 -1.0931
 4008SOL    HW223658   0.787   3.990   6.984  0.5382  2.6463 -1.4892
 4009SOL     OW23659   0.779   1.652  16.411 -0.1219 -0.4647 -0.0949
 4009SOL    HW123660   0.772   1.556  16.411 -0.3790 -0.4391 -1.4999
 4009SOL    HW223661   0.861   1.659  16.459 -1.5255  0.6639  2.1675
 4010SOL     OW23662   0.403   2.944   8.393 -0.2648  0.4604  0.1084
 4010SOL    HW123663   0.444   2.861   8.418 -3.9409 -0.9920  1.2861
 4010SOL    HW223664   0.345   2.936   8.468 -0.2891  2.6158  0.3217
 4011SOL     OW23665   1.432   2.381  17.451  0.5112 -0.0421  0.2131
 4011SOL    HW123666   1.504   2.369  17.390  0.3914  1.1663 -0.1672
 4011SOL    HW223667   1.388   2.296  17.456 -0.6833  0.5506 -0.2604
 4012SOL     OW23668   2.906   1.642  12.865 -0.2043 -0.0783  0.3947
 4012SOL    HW123669   2.833   1.704  12.856  2.6314  2.8670 -2.4001
 4012SOL    HW223670   2.952   1.678  12.942  0.3025 -0.1407  0.1237
 4013SOL     OW23671   1.336   0.454   7.423  0.0851  0.5511  0.0021
 4013SOL    HW123672   1.404   0.390   7.402 -1.0814 -0.2607 -1.2740
 4013SOL    HW223673   1.297   0.407   7.497  0.6444  0.7608  0.4265
 4014SOL     OW23674   1.704   1.486  12.271 -0.5263  0.2303  0.1578
 4014SOL    HW123675   1.619   1.445  12.254 -0.9682  1.9465 -1.8082
 4014SOL    HW223676   1.691   1.498  12.365 -1.7619 -1.1779  0.1709
 4015SOL     OW23677   0.192   1.990   9.305 -0.3518  0.0434 -0.4082
 4015SOL    HW123678   0.216   1.934   9.378  1.1695  1.7176  0.3798
 4015SOL    HW223679   0.263   1.981   9.242 -0.8994  0.8132 -1.1474
 4016SOL     OW23680   3.475   2.953   7.590  0.1335 -0.5784 -0.1252
 4016SOL    HW123681   3.565   2.966   7.620  1.0324 -1.6408 -2.3493
 4016SOL    HW223682   3.430   2.998   7.661 -0.0080 -1.3656  0.2853
 4017SOL     OW23683   1.535   1.741   3.180 -0.0104 -0.0390  0.3952
 4017SOL    HW123684   1.455   1.699   3.150  0.5501 -0.5813 -0.3321
 4017SOL    HW223685   1.560   1.772   3.093  0.4654  0.9358  0.8719
 4018SOL     OW23686   1.181   1.471   4.473 -0.3400  0.0013 -0.5687
 4018SOL    HW123687   1.230   1.533   4.419  3.5845 -0.5942  2.3062
 4018SOL    HW223688   1.191   1.522   4.554 -0.5357  0.0228 -0.5571
 4019SOL     OW23689   1.058   1.601  16.832  0.3174  0.2028  0.1006
 4019SOL    HW123690   1.095   1.615  16.745  2.2427 -1.0959  0.6962
 4019SOL    HW223691   1.135   1.575  16.884 -1.0623 -1.7288  1.1913
 4020SOL     OW23692   0.096   3.686  14.537  0.1494  0.5944 -0.3693
 4020SOL    HW123693   0.045   3.731  14.470 -0.9885 -1.4426 -0.8721
 4020SOL    HW223694   0.111   3.764  14.590 -1.6085  0.4482  0.3384
 4021SOL     OW23695   3.979   4.118   2.943  0.2256  0.5428 -0.5044
 4021SOL    HW123696   3.921   4.156   3.009  1.4487 -0.8569  1.3590
 4021SOL    HW223697   3.915   4.074   2.887 -0.1770 -2.1349  2.0501
 4022SOL     OW23698   2.799   2.011   7.230  0.6939  0.4752  0.1586
 4022SOL    HW123699   2.819   2.040   7.319 -1.3606 -2.7315  1.6519
 4022SOL    HW223700   2.786   1.917   7.246  0.9848  0.2559 -0.9330
 4023SOL     OW23701   4.263   2.962   0.988 -0.0079  0.1202 -0.3696
 4023SOL    HW123702   4.331   2.992   0.928  0.6125 -0.6703 -0.0681
 4023SOL    HW223703   4.304   2.987   1.070 -0.0202 -1.9581  0.2721
 4024SOL     OW23704   4.585   2.289  13.792 -0.3793 -0.1515 -0.1969
 4024SOL    HW123705   4.603   2.217  13.852  1.4906  1.4632  1.1722
 4024SOL    HW223706   4.662   2.345  13.807 -0.3354  0.4930 -2.7730
 4025SOL     OW23707   4.385   3.926   8.919 -0.0369  0.1260  0.0227
 4025SOL    HW123708   4.463   3.971   8.952 -0.3283  0.5741  0.1049
 4025SOL    HW223709   4.346   3.900   9.003 -0.8519 -0.4446 -0.5430
 4026SOL     OW23710   4.592   2.014   7.973 -0.5394  0.4030 -0.2968
 4026SOL    HW123711   4.581   2.064   8.053 -1.7738 -0.3837  0.0213
 4026SOL    HW223712   4.544   1.934   7.995 -0.0799  0.4405  0.8577
 4027SOL     OW23713   0.714   4.404   7.040 -0.0597 -0.1774  0.0822
 4027SOL    HW123714   0.710   4.378   6.948  0.1054  0.6770 -0.1722
 4027SOL    HW223715   0.637   4.353   7.066 -1.1239  0.8390 -1.0605
 4028SOL     OW23716   1.002   1.926   6.832  0.0187  0.6623  0.2908
 4028SOL    HW123717   0.937   1.919   6.902  0.2058 -1.7626  0.2430
 4028SOL    HW223718   0.948   1.921   6.753  0.1309 -0.9128  0.3125
 4029SOL     OW23719   3.193   3.057   8.660 -0.2745  0.4195  0.0759
 4029SOL    HW123720   3.205   3.110   8.582 -0.0396  0.0223 -0.1595
 4029SOL    HW223721   3.102   3.029   8.654  0.0774 -0.7347  0.0593
 4030SOL     OW23722   3.271   1.942   1.972 -0.0129 -0.4402  0.2766
 4030SOL    HW123723   3.287   1.959   1.879  0.9242  0.1857  0.5526
 4030SOL    HW223724   3.359   1.935   2.009  0.3175  3.2071  0.1455
 4031SOL     OW23725   4.607   3.359   8.025 -0.3844  0.3385 -0.4310
 4031SOL    HW123726   4.575   3.448   8.012  1.8652  1.3070  0.6073
 4031SOL    HW223727   4.601   3.354   8.121 -1.6884  0.2692 -0.5252
 4032SOL     OW23728   0.769   3.990   7.323  0.1484  0.0305  0.5551
 4032SOL    HW123729   0.775   4.003   7.228 -0.2178 -1.1065  0.3777
 4032SOL    HW223730   0.828   4.056   7.359  0.7366  1.6945 -3.4098
 4033SOL     OW23731   3.630   3.236   5.209 -0.1730  0.0449  0.3639
 4033SOL    HW123732   3.570   3.171   5.244  1.9788 -0.9428  2.2473
 4033SOL    HW223733   3.562   3.299   5.186 -1.2008 -1.4305 -0.5992
 4034SOL     OW23734   4.373   0.290   6.485 -0.7161 -0.6981 -0.6045
 4034SOL    HW123735   4.298   0.316   6.433 -1.5953 -1.7082  0.1362
 4034SOL    HW223736   4.416   0.374   6.501  0.4766 -1.4594  0.1911
 4035SOL     OW23737   0.877   3.883  16.865  0.4152 -0.1870  0.7808
 4035SOL    HW123738   0.950   3.938  16.893  0.4632  0.2640 -0.2130
 4035SOL    HW223739   0.831   3.941  16.805  0.1330  0.0568  1.2331
 4036SOL     OW23740   0.229   2.676   7.122  0.1442  0.0347  0.4119
 4036SOL    HW123741   0.287   2.717   7.186  0.6318 -0.2879  0.1789
 4036SOL    HW223742   0.142   2.689   7.161 -0.7592  0.1302 -1.6442
 4037SOL     OW23743   2.844   2.130   3.519 -0.2494 -0.0619 -0.6877
 4037SOL    HW123744   2.789   2.175   3.582 -0.9765 -1.1322 -0.5554
 4037SOL    HW223745   2.798   2.060   3.473 -1.9700  1.0478 -0.6395
 4038SOL     OW23746   0.337   3.241   8.684 -0.4276 -0.4537 -0.0465
 4038SOL    HW123747   0.303   3.154   8.704  0.6752 -0.4286  1.9142
 4038SOL    HW223748   0.370   3.261   8.772  0.7900  2.1545 -1.1070
 4039SOL     OW23749   2.581   1.562   9.439  0.0333  0.3064 -0.0915
 4039SOL    HW123750   2.534   1.600   9.513 -0.0563  1.5738 -0.7969
 4039SOL    HW223751   2.530   1.483   9.427  1.1902 -0.3300 -0.8107
 4040SOL     OW23752   3.290   0.054  17.124  0.7448  0.8189  0.0530
 4040SOL    HW123753   3.307   0.142  17.156 -0.5868  1.2261 -0.3388
 4040SOL    HW223754   3.226   0.078  17.058  0.9980 -0.6259 -0.7218
 4041SOL     OW23755   1.309   1.364   2.922  0.2560  0.0774 -0.1117
 4041SOL    HW123756   1.348   1.446   2.893  1.1190 -0.0792  0.6155
 4041SOL    HW223757   1.217   1.391   2.927  0.6281  1.2710  0.2903
 4042SOL     OW23758   3.321   1.217   2.283  0.0738 -0.0128 -0.4454
 4042SOL    HW123759   3.242   1.227   2.230  1.1690  0.7639 -1.9021
 4042SOL    HW223760   3.281   1.206   2.370  0.1768  2.0657 -0.1399
 4043SOL     OW23761   0.328   1.225   2.139 -0.0955 -0.9780  0.0625
 4043SOL    HW123762   0.336   1.131   2.155  0.1630 -1.0547 -0.5259
 4043SOL    HW223763   0.406   1.251   2.188  0.3790  0.3135 -1.3933
 4044SOL     OW23764   2.525   1.487   1.646 -0.2885  0.0222 -0.1450
 4044SOL    HW123765   2.600   1.529   1.603 -0.7018  0.7347 -0.1758
 4044SOL    HW223766   2.533   1.399   1.609 -0.0299  0.0860 -0.2392
 4045SOL     OW23767   0.783   4.303   4.753 -0.4093 -0.3833 -0.1041
 4045SOL    HW123768   0.875   4.310   4.728  0.3090  0.6795  2.8407
 4045SOL    HW223769   0.781   4.212   4.782  0.2831  0.1512  1.6827
 4046SOL     OW23770   3.364   3.353   5.541  0.4937 -0.1975 -1.3118
 4046SOL    HW123771   3.384   3.369   5.633 -0.6003  0.3130 -1.1628
 4046SOL    HW223772   3.412   3.271   5.523 -2.9038 -2.3475 -0.4941
 4047SOL     OW23773   0.188   3.371  15.595  0.3126 -0.4624 -0.5878
 4047SOL    HW123774   0.133   3.441  15.558  0.3556  0.0238  0.2540
 4047SOL    HW223775   0.122   3.338  15.657  2.0576  0.3734  1.7179
 4048SOL     OW23776   1.113   1.676   2.445 -0.1936  0.1777 -0.3643
 4048SOL    HW123777   1.124   1.760   2.400 -2.0548  1.1761  1.0405
 4048SOL    HW223778   1.123   1.612   2.374  2.1131 -0.8960  0.9082
 4049SOL     OW23779   1.942   4.149  16.016  0.3941 -0.0199 -0.0273
 4049SOL    HW123780   2.020   4.094  16.011 -0.7024 -1.5771 -0.3108
 4049SOL    HW223781   1.931   4.179  15.926  2.3259  1.4055  0.2308
 4050SOL     OW23782   0.328   2.919   0.800 -0.6349 -0.1690 -0.4403
 4050SOL    HW123783   0.326   2.877   0.714 -0.0566  0.4790 -0.7675
 4050SOL    HW223784   0.375   2.999   0.776 -0.2388 -0.1636  0.3829
 4051SOL     OW23785   4.110   0.212   5.425 -0.3548 -0.4816 -0.3064
 4051SOL    HW123786   4.154   0.284   5.379  0.5158 -0.4596  0.5546
 4051SOL    HW223787   4.034   0.188   5.372  0.1937  0.4973 -1.5157
 4052SOL     OW23788   0.494   0.628   3.964 -0.0663 -0.0397  0.0658
 4052SOL    HW123789   0.499   0.722   3.945  0.6134  0.6007  3.3555
 4052SOL    HW223790   0.409   0.597   3.934 -1.7220  3.1513  1.3707
 4053SOL     OW23791   4.167   2.497   5.402  0.0282  0.3153 -0.0020
 4053SOL    HW123792   4.087   2.488   5.454 -1.2572 -0.0964 -2.0294
 4053SOL    HW223793   4.227   2.524   5.470  0.7282 -3.2722  0.8119
 4054SOL     OW23794   0.602   3.704   1.677  0.4238 -0.6262  0.1431
 4054SOL    HW123795   0.533   3.725   1.741 -0.1551  0.5998 -0.8881
 4054SOL    HW223796   0.652   3.786   1.677  0.8770 -0.9151 -0.9562
 4055SOL     OW23797   0.073   2.242   3.062  0.2704  0.0520 -0.2609
 4055SOL    HW123798   0.039   2.154   3.079  1.9938 -0.0169  2.8386
 4055SOL    HW223799   0.125   2.224   2.984 -2.3313  2.7529 -2.6553
 4056SOL     OW23800   4.391   4.375   0.351  0.0689  0.4160 -0.1594
 4056SOL    HW123801   4.376   4.467   0.371  1.2616  0.4913  0.4266
 4056SOL    HW223802   4.339   4.322   0.412 -1.4416  1.3542 -0.6534
 4057SOL     OW23803   2.111   2.439   2.052  0.2844  0.2489  0.1184
 4057SOL    HW123804   2.125   2.344   2.055  0.0342  0.1811 -0.8224
 4057SOL    HW223805   2.177   2.470   2.113  2.9960 -1.0681 -2.1558
 4058SOL     OW23806   0.767   0.405   8.242 -0.0933  0.1096 -0.7476
 4058SOL    HW123807   0.737   0.376   8.156  0.3787 -0.5488 -0.6902
 4058SOL    HW223808   0.742   0.334   8.300  1.5273 -1.0043 -1.4379
 4059SOL     OW23809   0.611   0.968  14.486  0.4330 -0.0969  0.2175
 4059SOL    HW123810   0.678   0.909  14.520  2.5197  1.8056 -0.6666
 4059SOL    HW223811   0.537   0.922  14.527  1.6523 -0.5217  1.9529
 4060SOL     OW23812   4.586   1.564   7.136  0.8060  0.1156 -0.0967
 4060SOL    HW123813   4.656   1.547   7.199  0.4434 -1.6833 -0.1692
 4060SOL    HW223814   4.552   1.475   7.132  0.0739  0.3756  0.2484
 4061SOL     OW23815   2.214   1.160  12.995  0.2148  0.6111  0.8997
 4061SOL    HW123816   2.295   1.118  13.024  0.3296 -0.3323 -0.8053
 4061SOL    HW223817   2.143   1.114  13.040 -0.0038  1.6037  1.5782
 4062SOL     OW23818   0.101   4.241   5.085 -0.7458  0.0704  0.4219
 4062SOL    HW123819   0.151   4.251   5.166 -1.6406  2.7716  0.6474
 4062SOL    HW223820   0.072   4.150   5.086  1.3921 -0.5961  0.8229
 4063SOL     OW23821   2.015   4.531   6.132 -0.4531  0.5497 -0.3595
 4063SOL    HW123822   2.035   4.615   6.092 -0.1537  0.5447 -0.2145
 4063SOL    HW223823   2.102   4.493   6.119  0.4853  1.7528  2.3780
 4064SOL     OW23824   3.854   1.433   8.290 -0.3103 -0.7483  0.5623
 4064SOL    HW123825   3.774   1.389   8.320  0.1785 -1.3301  0.9978
 4064SOL    HW223826   3.914   1.416   8.362  1.9318  0.3291 -1.0570
 4065SOL     OW23827   2.337   0.188   9.331 -0.1428  0.4627  0.4091
 4065SOL    HW123828   2.428   0.164   9.314 -0.5265 -2.4403  2.4595
 4065SOL    HW223829   2.314   0.228   9.247  0.4476 -0.1222 -0.0300
 4066SOL     OW23830   3.820   3.370   6.556  0.2650 -0.4362  0.6581
 4066SOL    HW123831   3.852   3.280   6.552  1.8632  0.1685 -0.3827
 4066SOL    HW223832   3.816   3.394   6.463 -0.3896  1.6236  1.2310
 4067SOL     OW23833   2.893   3.659   6.948 -0.2365  0.1537 -0.1410
 4067SOL    HW123834   2.977   3.635   6.987  0.4201  2.0255 -0.4207
 4067SOL    HW223835   2.866   3.579   6.903  1.1088 -1.0172  1.1376
 4068SOL     OW23836   3.858   2.345   2.808  0.1778 -0.3207  0.0155
 4068SOL    HW123837   3.952   2.357   2.796 -0.3691  3.0073 -0.8305
 4068SOL    HW223838   3.837   2.281   2.740 -0.7391  0.6452 -0.6066
 4069SOL     OW23839   0.917   0.990   2.415  0.1503  0.6888 -1.0271
 4069SOL    HW123840   0.897   0.910   2.464  1.4945  1.7219  1.2091
 4069SOL    HW223841   0.916   0.957   2.326 -1.0915 -1.6428 -0.1459
 4070SOL     OW23842   3.420   0.088  15.087  0.2357  0.0318  0.5311
 4070SOL    HW123843   3.398   0.111  15.177  0.0867  1.8242  0.0196
 4070SOL    HW223844   3.437   0.172  15.044  1.0805 -1.0595 -1.2775
 4071SOL     OW23845   0.996   1.037   6.587  0.4154 -0.2273  0.1645
 4071SOL    HW123846   0.922   1.044   6.527  0.0454  1.1973  0.7937
 4071SOL    HW223847   0.967   1.099   6.653 -2.1295 -0.0107 -1.1571
 4072SOL     OW23848   4.697   4.455   7.239 -0.0871  0.7014  0.1374
 4072SOL    HW123849   4.606   4.450   7.210 -0.2866 -1.0625  1.0606
 4072SOL    HW223850   4.731   4.394   7.173 -0.2961 -0.1443  0.8170
 4073SOL     OW23851   3.364   3.608   3.220  0.2728 -0.0863 -0.5717
 4073SOL    HW123852   3.275   3.642   3.233  0.6490  0.5075  0.4693
 4073SOL    HW223853   3.369   3.619   3.125 -2.2827 -2.6706 -1.0205
 4074SOL     OW23854   2.797   0.911   6.490 -0.1532 -0.1617  0.4103
 4074SOL    HW123855   2.794   0.994   6.537 -1.4696 -0.1978  0.3844
 4074SOL    HW223856   2.851   0.927   6.413 -0.2938  1.3899  0.6339
 4075SOL     OW23857   2.397   0.173   9.657  0.1520  0.3722  0.0543
 4075SOL    HW123858   2.401   0.082   9.627 -0.5034  0.1784  0.5409
 4075SOL    HW223859   2.436   0.213   9.580 -0.7532 -3.1177 -2.2031
 4076SOL     OW23860   4.254   3.853   8.696 -0.1944  0.3158 -0.0751
 4076SOL    HW123861   4.251   3.947   8.681  3.4266  0.5336  0.5634
 4076SOL    HW223862   4.331   3.845   8.753  1.3977  0.3954 -2.2230
 4077SOL     OW23863   1.013   3.508  12.012  0.1086  0.6520  0.0253
 4077SOL    HW123864   0.993   3.419  12.042 -0.9665  1.6399  2.3007
 4077SOL    HW223865   0.928   3.537  11.980 -1.0563 -1.1360  1.4477
 4078SOL     OW23866   0.324   4.100   2.815 -0.6521 -0.3351 -0.0892
 4078SOL    HW123867   0.229   4.088   2.818 -0.8696  1.6611  1.0394
 4078SOL    HW223868   0.334   4.127   2.907 -0.7463 -1.8937  0.3734
 4079SOL     OW23869   1.805   0.660   3.935  0.0098  0.3168 -0.1794
 4079SOL    HW123870   1.744   0.713   3.986  1.7671  0.5927  1.6337
 4079SOL    HW223871   1.742   0.638   3.866 -0.1701 -1.3172  0.5203
 4080SOL     OW23872   1.759   3.471   3.131 -0.4449 -0.0973 -0.1792
 4080SOL    HW123873   1.778   3.382   3.098 -0.4531  0.4150 -1.5882
 4080SOL    HW223874   1.847   3.507   3.135  0.3874 -2.2828  1.4071
 4081SOL     OW23875   3.157   2.149  16.036 -0.2976 -0.2122  0.1321
 4081SOL    HW123876   3.206   2.148  16.118  0.6968 -0.7434 -0.4793
 4081SOL    HW223877   3.150   2.056  16.016 -1.6003 -0.0066 -0.4011
 4082SOL     OW23878   2.256   3.604   0.021  0.2435 -0.2234 -0.6130
 4082SOL    HW123879   2.336   3.617   0.073 -1.2134  0.3739  1.4522
 4082SOL    HW223880   2.198   3.554   0.077 -0.3575  1.7101  0.4815
 4083SOL     OW23881   4.255   1.415   5.878  0.1230 -0.3373 -0.1714
 4083SOL    HW123882   4.348   1.395   5.879  0.4255  1.1848  1.5763
 4083SOL    HW223883   4.213   1.344   5.926 -0.5722 -1.2805 -2.1671
 4084SOL     OW23884   3.615   3.180   6.349 -0.7638 -0.0846  0.2515
 4084SOL    HW123885   3.606   3.094   6.308  0.7068 -0.7113  1.2428
 4084SOL    HW223886   3.709   3.193   6.343 -0.8894  0.0496 -1.3687
 4085SOL     OW23887   2.303   4.250  14.123 -0.5882 -0.3319 -0.3766
 4085SOL    HW123888   2.350   4.259  14.041  0.4611 -0.1732  0.2454
 4085SOL    HW223889   2.325   4.328  14.173 -1.1297  0.4937 -1.4305
 4086SOL     OW23890   1.719   0.136   5.162 -0.2742 -0.0543  0.0452
 4086SOL    HW123891   1.701   0.180   5.246  2.0272 -0.5618  0.7985
 4086SOL    HW223892   1.747   0.213   5.113 -2.4176  1.1772  0.7355
 4087SOL     OW23893   2.680   4.199   5.340  0.0020 -0.1718  0.1789
 4087SOL    HW123894   2.610   4.225   5.280  0.2414  0.0764  0.0026
 4087SOL    HW223895   2.644   4.116   5.369 -0.1667 -0.1800 -0.0496
 4088SOL     OW23896   4.426   1.627   2.539  0.0198  0.2648  0.4010
 4088SOL    HW123897   4.414   1.570   2.615 -1.7748  0.6458  0.4144
 4088SOL    HW223898   4.510   1.669   2.554 -0.7177  1.3728  1.4857
 4089SOL     OW23899   1.529   3.148   0.162  0.1875  0.6822  0.2653
 4089SOL    HW123900   1.545   3.210   0.090 -0.4313 -0.6882 -1.0482
 4089SOL    HW223901   1.470   3.086   0.120 -0.6947  1.4896  0.3050
 4090SOL     OW23902   3.270   4.354   2.162  0.2632 -0.1351  0.7224
 4090SOL    HW123903   3.323   4.398   2.095 -0.2167 -0.5055  0.0985
 4090SOL    HW223904   3.205   4.424   2.162  0.5149  0.1084 -0.3144
 4091SOL     OW23905   4.261   3.677   5.676 -0.0100  0.0609 -0.6912
 4091SOL    HW123906   4.343   3.682   5.627 -0.0639  0.2350 -0.7624
 4091SOL    HW223907   4.197   3.623   5.629  0.3656 -2.5824  1.8238
 4092SOL     OW23908   2.293   0.108   2.239  0.2768  0.9172 -0.2462
 4092SOL    HW123909   2.254   0.054   2.170  0.7881  0.8954 -0.5226
 4092SOL    HW223910   2.232   0.180   2.253 -0.2796  0.3895  0.0211
 4093SOL     OW23911   3.222   4.565   9.935  0.2851 -0.7403 -0.0757
 4093SOL    HW123912   3.254   4.612   9.857 -2.8008 -0.0534 -0.9133
 4093SOL    HW223913   3.276   4.486   9.932  0.1082 -0.8952  0.8258
 4094SOL     OW23914   4.165   0.352  11.705 -0.2675  0.4099 -0.4666
 4094SOL    HW123915   4.082   0.333  11.662 -0.3726  2.2683 -1.0827
 4094SOL    HW223916   4.217   0.395  11.638  1.2910  1.6614  1.5279
 4095SOL     OW23917   0.702   2.712  12.032  0.0580  0.7592 -0.3344
 4095SOL    HW123918   0.722   2.765  11.955  1.5726  1.2145  0.3651
 4095SOL    HW223919   0.624   2.668  11.999  0.1481  0.1038  0.3335
 4096SOL     OW23920   2.188   3.626   9.945  0.1587 -0.1649 -0.4535
 4096SOL    HW123921   2.262   3.582   9.905 -0.2029 -1.1739 -0.0195
 4096SOL    HW223922   2.126   3.641   9.874 -0.9051  2.6934  1.0860
 4097SOL     OW23923   4.272   1.127   6.659  0.0593  0.0187  0.3255
 4097SOL    HW123924   4.264   1.109   6.565  2.0958 -0.6711  0.2787
 4097SOL    HW223925   4.259   1.050   6.714  0.5637  1.3598  2.3514
 4098SOL     OW23926   1.898   2.449   3.574  0.5376 -0.1644 -0.4271
 4098SOL    HW123927   1.882   2.358   3.599 -1.0325 -0.1345 -1.2822
 4098SOL    HW223928   1.888   2.434   3.480  1.8832 -1.7056 -0.3155
 4099SOL     OW23929   3.886   2.861  11.080  0.6455  0.0959 -0.0048
 4099SOL    HW123930   3.898   2.955  11.093  1.0835 -0.4160  3.3789
 4099SOL    HW223931   3.887   2.831  11.171  0.6607  0.3071  0.0655
 4100SOL     OW23932   1.575   0.399   2.000  0.2647 -0.2120 -0.1984
 4100SOL    HW123933   1.620   0.483   1.994  1.8605 -1.1686 -1.4587
 4100SOL    HW223934   1.539   0.405   2.089  0.4986 -2.1361  0.0286
 4101SOL     OW23935   2.726   0.523   6.556  0.2062 -0.2725  0.3170
 4101SOL    HW123936   2.806   0.486   6.594 -0.3312  0.0839  1.8076
 4101SOL    HW223937   2.694   0.573   6.631 -1.0638 -0.1569 -0.2957
 4102SOL     OW23938   0.484   1.876  15.010  0.4725  0.3823  0.2390
 4102SOL    HW123939   0.525   1.842  14.931 -0.8054 -1.8342  0.5466
 4102SOL    HW223940   0.554   1.870  15.075  1.1537 -0.9622 -0.6181
 4103SOL     OW23941   4.712   4.646  10.231 -0.2842 -0.3118 -0.2339
 4103SOL    HW123942   0.020   4.587  10.293  0.6398 -0.7439 -1.2915
 4103SOL    HW223943   4.652   4.686  10.295  1.1414 -0.6456  1.3123
 4104SOL     OW23944   4.104   2.044   6.317  0.1995  0.2092  0.2815
 4104SOL    HW123945   4.040   2.064   6.385  0.0432  1.9246 -0.3888
 4104SOL    HW223946   4.059   1.999   6.246 -0.0955 -0.2381  0.7508
 4105SOL     OW23947   2.895   3.124   2.667 -0.6017 -0.3414 -0.7177
 4105SOL    HW123948   2.925   3.066   2.737  0.2997 -1.3276 -1.9311
 4105SOL    HW223949   2.805   3.144   2.693 -1.2004 -2.6853 -0.9929
 4106SOL     OW23950   0.433   2.672   2.894  0.3747 -0.1435 -0.7470
 4106SOL    HW123951   0.460   2.580   2.901 -0.6989 -0.3780  0.4617
 4106SOL    HW223952   0.498   2.723   2.942  1.4409 -0.0805 -2.2780
 4107SOL     OW23953   2.069   0.029   5.052  0.3222 -0.0454  0.3586
 4107SOL    HW123954   2.103   0.042   5.140 -0.1321 -2.2709  0.8657
 4107SOL    HW223955   2.050   0.119   5.027 -1.1776  0.0533  1.8641
 4108SOL     OW23956   3.721   1.239   3.944 -0.1641  0.0640  0.1567
 4108SOL    HW123957   3.672   1.320   3.955 -0.6488 -0.2252  0.1325
 4108SOL    HW223958   3.794   1.241   4.007 -0.0464  0.0825  0.0208
 4109SOL     OW23959   2.563   1.584   2.713  0.0493  0.1213 -0.6024
 4109SOL    HW123960   2.538   1.635   2.637 -0.4520 -1.3432 -1.4062
 4109SOL    HW223961   2.640   1.538   2.679 -3.0669 -2.2570 -4.2926
 4110SOL     OW23962   4.210   4.017  15.890 -0.8026 -0.2379 -0.0231
 4110SOL    HW123963   4.187   3.993  15.980  1.4931 -0.7048  0.4282
 4110SOL    HW223964   4.193   3.938  15.839 -2.0379  0.8507 -1.2902
 4111SOL     OW23965   3.346   2.329   8.365 -0.1731 -0.1738  0.3161
 4111SOL    HW123966   3.408   2.341   8.437 -0.5879 -0.9454  0.7949
 4111SOL    HW223967   3.397   2.360   8.290 -0.4496 -0.3168  0.0707
 4112SOL     OW23968   1.637   4.254   1.944 -1.0147 -0.3737  0.1329
 4112SOL    HW123969   1.714   4.298   1.907 -0.2834 -1.4679  0.3486
 4112SOL    HW223970   1.592   4.327   1.988  1.0558  1.4603 -0.7812
 4113SOL     OW23971   1.903   0.483   4.640 -0.1598  0.2573  0.2770
 4113SOL    HW123972   1.927   0.392   4.623 -0.0380  0.1611  0.9680
 4113SOL    HW223973   1.983   0.528   4.611 -0.1852  0.9183  1.2275
 4114SOL     OW23974   2.702   0.203   8.327 -0.1263  0.0338 -0.3818
 4114SOL    HW123975   2.755   0.167   8.256  1.6780  0.6339  0.6608
 4114SOL    HW223976   2.687   0.295   8.306  0.7588 -0.0639 -1.4323
 4115SOL     OW23977   0.558   0.458   7.296 -0.0462  0.3526 -0.1366
 4115SOL    HW123978   0.596   0.406   7.225  0.5099  0.2179  0.2545
 4115SOL    HW223979   0.488   0.509   7.256  1.0506  0.5021 -1.8388
 4116SOL     OW23980   4.266   4.727  17.194  0.3434 -0.1194 -0.3028
 4116SOL    HW123981   4.262   4.634  17.217 -2.3015  0.1893  0.4259
 4116SOL    HW223982   4.239   4.721  17.103 -0.3300  0.6978 -0.1570
 4117SOL     OW23983   0.447   4.080   7.258  0.1303  0.2640  0.2761
 4117SOL    HW123984   0.415   3.996   7.224  2.7637 -0.0350 -1.5147
 4117SOL    HW223985   0.538   4.062   7.282 -0.2473  0.5290  1.8896
 4118SOL     OW23986   3.091   0.547   5.925  0.0818  0.2852 -0.2286
 4118SOL    HW123987   3.086   0.464   5.973  0.0258  0.4820  0.1070
 4118SOL    HW223988   3.163   0.537   5.864  1.3406  0.5274  1.2098
 4119SOL     OW23989   1.771   1.193   7.648 -0.6827  0.3741 -0.1422
 4119SOL    HW123990   1.718   1.191   7.728 -2.2406 -1.1413 -1.2008
 4119SOL    HW223991   1.714   1.228   7.580  0.9979  1.3180 -1.0434
 4120SOL     OW23992   2.660   0.025   6.152  0.8132 -0.0230 -0.4557
 4120SOL    HW123993   2.678   0.007   6.245  0.4213  3.8280  0.3818
 4120SOL    HW223994   2.743   4.732   6.113 -0.0613 -1.3952 -1.3531
 4121SOL     OW23995   3.623   2.879  14.036  0.4135 -0.0138 -0.0316
 4121SOL    HW123996   3.641   2.828  13.957  1.9366 -0.3045  0.5017
 4121SOL    HW223997   3.611   2.966  13.998 -2.6931  0.2100  1.4918
 4122SOL     OW23998   3.798   1.064  14.645  0.4859  0.5957  0.3014
 4122SOL    HW123999   3.781   1.008  14.569 -0.6540  0.2509  0.8111
 4122SOL    HW224000   3.832   1.142  14.600  2.0402  1.0261  2.2381
 4123SOL     OW24001   2.058   4.306   7.630 -0.2552 -0.1880  0.3872
 4123SOL    HW124002   1.980   4.297   7.685  0.0908  0.5698  1.0019
 4123SOL    HW224003   2.126   4.268   7.687  0.4351  0.5646  0.0705
 4124SOL     OW24004   3.698   0.353   7.812 -0.0125  0.4948  0.0588
 4124SOL    HW124005   3.749   0.372   7.733 -2.1651  1.6641 -1.0595
 4124SOL    HW224006   3.619   0.406   7.800 -0.7169 -0.2310  1.4274
 4125SOL     OW24007   4.008   3.065   5.639  0.3901 -0.4591  0.1825
 4125SOL    HW124008   4.057   3.075   5.720  1.1614 -0.8909 -0.2328
 4125SOL    HW224009   4.022   3.150   5.597  1.9288 -1.2231 -0.8600
 4126SOL     OW24010   0.696   2.126   7.078  1.0227 -0.0997 -0.1385
 4126SOL    HW124011   0.657   2.039   7.072 -0.0975  0.3615  0.5542
 4126SOL    HW224012   0.745   2.124   7.160 -1.4936  2.1149  1.3847
 4127SOL     OW24013   1.858   1.429   9.468  0.1881 -0.3330  0.1945
 4127SOL    HW124014   1.859   1.451   9.562 -0.6641 -1.0755  0.3813
 4127SOL    HW224015   1.851   1.518   9.432 -2.2342 -0.2547  0.8314
 4128SOL     OW24016   1.743   2.447   5.775  0.1601 -0.3708  0.6882
 4128SOL    HW124017   1.682   2.433   5.847 -1.2874 -0.9051 -0.6178
 4128SOL    HW224018   1.689   2.464   5.697  2.3745 -2.4731 -1.3175
 4129SOL     OW24019   0.264   3.458   9.557  0.0903  0.0400 -0.6237
 4129SOL    HW124020   0.308   3.471   9.641 -0.1524  0.1990 -0.5208
 4129SOL    HW224021   0.337   3.415   9.514  1.1849  0.1876  1.0976
 4130SOL     OW24022   0.528   0.686   8.883  0.1894 -0.2533  0.3318
 4130SOL    HW124023   0.611   0.723   8.851 -0.5096 -0.0787 -1.2661
 4130SOL    HW224024   0.497   0.741   8.955  1.9032 -1.6419  2.1284
 4131SOL     OW24025   2.119   2.351   4.022 -0.3747  0.1336 -0.2490
 4131SOL    HW124026   2.033   2.388   4.002 -0.2342 -0.4241 -1.9028
 4131SOL    HW224027   2.149   2.307   3.943 -1.0055  0.6890 -0.7913
 4132SOL     OW24028   1.836   4.118   3.903 -0.1539  0.1018 -0.0505
 4132SOL    HW124029   1.919   4.085   3.935  0.3403  1.2492 -0.1537
 4132SOL    HW224030   1.779   4.064   3.959  1.3362 -3.1142 -1.6323
 4133SOL     OW24031   2.497   4.351   6.776  0.1962 -0.4379 -0.4409
 4133SOL    HW124032   2.549   4.275   6.802  0.0487 -0.7044 -0.9064
 4133SOL    HW224033   2.426   4.299   6.737  0.0785 -1.8776  1.7232
 4134SOL     OW24034   3.268   2.043  11.950 -0.2919  0.2437 -0.9360
 4134SOL    HW124035   3.323   2.090  12.013 -0.6124 -1.0803  0.3121
 4134SOL    HW224036   3.300   2.087  11.871  2.1841  0.4965  0.2293
 4135SOL     OW24037   1.267   4.605   7.069 -0.2026 -0.4165  0.2935
 4135SOL    HW124038   1.319   4.669   7.019 -1.9507  0.3141 -0.5590
 4135SOL    HW224039   1.241   4.542   7.003  0.2993  0.1692 -0.4607
 4136SOL     OW24040   1.835   0.644   6.035  0.4646  0.2322 -0.0847
 4136SOL    HW124041   1.887   0.583   5.982 -0.2207  0.9827 -1.6320
 4136SOL    HW224042   1.885   0.725   6.025 -1.0407  0.9962 -1.4952
 4137SOL     OW24043   0.301   0.186   3.111  0.0747 -0.2339  0.2389
 4137SOL    HW124044   0.315   0.200   3.205  0.4614 -0.6436  0.2424
 4137SOL    HW224045   0.228   0.124   3.121 -0.2459  0.1374  0.1814
 4138SOL     OW24046   2.998   2.361   5.426  0.3431 -0.2032 -0.0817
 4138SOL    HW124047   3.090   2.363   5.451  0.2182 -0.6902  0.4287
 4138SOL    HW224048   2.951   2.356   5.510  1.5054  1.3421  0.6541
 4139SOL     OW24049   4.655   1.460  10.355 -0.0279 -0.2044  0.2999
 4139SOL    HW124050   4.703   1.378  10.365  1.2728  0.7590  2.0553
 4139SOL    HW224051   4.638   1.466  10.261 -1.5652 -0.5924  0.5630
 4140SOL     OW24052   0.535   3.003   8.795 -0.0293 -0.2810  0.0496
 4140SOL    HW124053   0.628   2.994   8.816  0.1830 -0.3642 -0.9196
 4140SOL    HW224054   0.547   3.061   8.720  0.4319  0.4449  0.6729
 4141SOL     OW24055   1.990   2.791   7.115  0.0582  0.1386  0.0775
 4141SOL    HW124056   2.060   2.739   7.154  0.4429  1.3624  1.0257
 4141SOL    HW224057   1.966   2.730   7.045  0.0886  1.4771 -1.0957
 4142SOL     OW24058   0.797   3.744   7.138  0.1385 -0.0974 -0.1720
 4142SOL    HW124059   0.734   3.691   7.187  0.1996  0.1612  0.1894
 4142SOL    HW224060   0.807   3.825   7.188 -0.8786 -0.8202  1.2227
 4143SOL     OW24061   3.807   3.291   2.230 -0.0219 -0.3018 -0.2006
 4143SOL    HW124062   3.842   3.365   2.181  0.1270  0.8648  1.6924
 4143SOL    HW224063   3.774   3.335   2.308  2.9160  0.4670  0.5893
 4144SOL     OW24064   1.071   3.870  17.688 -0.4955  0.3004 -0.1002
 4144SOL    HW124065   1.142   3.870  17.623 -0.6373  3.1138 -0.2275
 4144SOL    HW224066   1.112   3.834   0.029  1.5212  0.0006 -1.2788
 4145SOL     OW24067   3.293   4.457  10.691  0.6240  0.3438  0.2938
 4145SOL    HW124068   3.277   4.491  10.603  1.2083  2.9888  1.2172
 4145SOL    HW224069   3.377   4.413  10.680 -0.9952 -2.9232  0.9303
 4146SOL     OW24070   1.628   4.339   7.526  0.0842  0.1252  0.2836
 4146SOL    HW124071   1.645   4.302   7.440  0.9070  1.1009  0.0254
 4146SOL    HW224072   1.699   4.403   7.526  1.5600 -1.5095  1.1793
 4147SOL     OW24073   4.004   4.305   6.918 -0.5001 -0.9373  0.8288
 4147SOL    HW124074   3.914   4.276   6.904 -0.1045 -2.9731  2.4962
 4147SOL    HW224075   3.996   4.344   7.006  0.5747 -4.5582  2.5339
 4148SOL     OW24076   3.634   2.695   5.846  0.2078 -0.2222  0.2763
 4148SOL    HW124077   3.682   2.777   5.852  0.3379 -0.1085 -2.6789
 4148SOL    HW224078   3.571   2.709   5.918 -0.2564  1.4433 -0.4501
 4149SOL     OW24079   2.014   3.826   5.489 -0.2942  0.1685  0.8168
 4149SOL    HW124080   1.951   3.795   5.554 -1.9411  1.1668 -0.3118
 4149SOL    HW224081   1.987   3.917   5.494  0.4903  0.3989  0.7587
 4150SOL     OW24082   1.472   2.400   2.275 -0.1223 -0.0678  0.2147
 4150SOL    HW124083   1.395   2.343   2.269 -0.1724 -0.0528  0.7373
 4150SOL    HW224084   1.528   2.355   2.337  0.6092 -1.4165 -1.4284
 4151SOL     OW24085   1.155   4.660   9.784 -0.3470 -0.3181 -0.1069
 4151SOL    HW124086   1.240   4.631   9.818  0.3000  0.4136 -1.1220
 4151SOL    HW224087   1.105   4.581   9.801  0.2269 -0.6352  0.1407
 4152SOL     OW24088   1.526   0.459  12.205 -0.2906  0.4468  0.2899
 4152SOL    HW124089   1.583   0.396  12.249  0.3350 -0.0951 -1.2965
 4152SOL    HW224090   1.574   0.534  12.241  0.9268 -1.8576  3.4830
 4153SOL     OW24091   4.090   2.245   3.919  0.4319 -0.2193  0.3012
 4153SOL    HW124092   4.153   2.243   3.847 -1.1135  0.7184 -1.0480
 4153SOL    HW224093   4.089   2.157   3.957  2.4114  0.0992  1.1017
 4154SOL     OW24094   3.338   1.712  16.998  0.4980 -0.0130 -0.3605
 4154SOL    HW124095   3.353   1.799  16.962 -0.9765  0.0505 -0.8077
 4154SOL    HW224096   3.305   1.672  16.917 -1.0468 -0.1189  0.3210
 4155SOL     OW24097   0.439   0.290   5.942 -0.2259 -0.2173 -0.1829
 4155SOL    HW124098   0.468   0.245   5.862  0.2846  0.3442 -0.3247
 4155SOL    HW224099   0.503   0.361   5.944 -0.5791  0.0054  2.3948
 4156SOL     OW24100   2.866   3.101  13.564 -0.4245 -0.3911  0.3516
 4156SOL    HW124101   2.805   3.028  13.559 -0.6187 -0.3914  2.8417
 4156SOL    HW224102   2.883   3.108  13.470 -1.2894 -1.9380  0.0805
 4157SOL     OW24103   3.874   0.483   4.725  0.4521  0.4194  0.1647
 4157SOL    HW124104   3.795   0.464   4.775 -0.5503  2.2385 -0.7570
 4157SOL    HW224105   3.911   0.397   4.744  0.2181  0.2852  0.0079
 4158SOL     OW24106   2.825   2.151   5.091  0.3376  0.5218  0.0760
 4158SOL    HW124107   2.908   2.114   5.061 -1.9269 -1.5453 -3.6593
 4158SOL    HW224108   2.787   2.064   5.104 -0.6297  0.9019 -0.2023
 4159SOL     OW24109   4.550   0.095   1.809  0.7769 -0.1079 -0.1438
 4159SOL    HW124110   4.636   0.056   1.822  0.5284 -0.1230  1.4618
 4159SOL    HW224111   4.539   0.065   1.718 -1.6519 -2.7160  1.0209
 4160SOL     OW24112   2.904   2.938   5.643  0.3835 -0.5087 -0.2399
 4160SOL    HW124113   2.858   2.855   5.627 -0.0055 -0.9679  3.2589
 4160SOL    HW224114   2.905   2.962   5.736 -3.8039 -0.5345 -0.1793
 4161SOL     OW24115   2.409   0.004   2.824 -1.1390 -0.0755  0.8424
 4161SOL    HW124116   2.356   4.727   2.903  0.1982 -0.7931  1.6310
 4161SOL    HW224117   2.475   4.669   2.831 -1.9873 -1.1176 -1.5523
 4162SOL     OW24118   1.742   1.921  13.021 -0.3492 -0.3261 -0.2352
 4162SOL    HW124119   1.655   1.881  13.025 -0.3626 -0.4677 -1.8274
 4162SOL    HW224120   1.744   2.007  13.063 -1.2258 -0.0828 -0.6711
 4163SOL     OW24121   2.525   3.845   8.561 -0.0227 -0.1664 -0.3597
 4163SOL    HW124122   2.441   3.849   8.516 -0.0376 -1.6044 -0.4716
 4163SOL    HW224123   2.510   3.913   8.626 -0.6282 -1.4044  0.7861
 4164SOL     OW24124   2.163   0.891   3.724 -0.5438  0.6164  0.2718
 4164SOL    HW124125   2.233   0.911   3.786  0.3012 -0.7969 -0.2233
 4164SOL    HW224126   2.220   0.889   3.647 -1.6831 -0.1078 -0.5624
 4165SOL     OW24127   2.660   0.668   6.763 -0.0857  0.2778 -0.0742
 4165SOL    HW124128   2.633   0.757   6.785 -0.7499 -0.2440  1.2382
 4165SOL    HW224129   2.684   0.641   6.852 -0.4335  0.1378 -0.0215
 4166SOL     OW24130   3.183   0.675   2.776  0.0954 -0.3533 -0.5111
 4166SOL    HW124131   3.155   0.621   2.702 -1.6354 -0.8688  0.5125
 4166SOL    HW224132   3.141   0.624   2.846  0.1259  1.4006  0.7766
 4167SOL     OW24133   1.900   4.532   9.555 -0.9591  0.2786  0.2791
 4167SOL    HW124134   1.931   4.620   9.578  0.4712  0.2038 -1.3654
 4167SOL    HW224135   1.914   4.487   9.639  0.6467 -0.9961 -0.6789
 4168SOL     OW24136   3.890   2.607   3.088  0.2060  0.5157 -0.1164
 4168SOL    HW124137   3.925   2.678   3.142  0.5251 -0.4960  0.9866
 4168SOL    HW224138   3.897   2.644   3.000 -2.4289  0.9333 -0.1725
 4169SOL     OW24139   0.111   2.179  16.701 -0.3675 -0.6437  0.0847
 4169SOL    HW124140   0.071   2.116  16.759 -0.2507 -2.4978 -1.8587
 4169SOL    HW224141   0.157   2.237  16.763 -0.5457  0.3231 -0.6834
 4170SOL     OW24142   0.128   2.051   2.711  0.6529  0.5241 -0.3991
 4170SOL    HW124143   0.035   2.054   2.688  1.1072 -1.7832 -2.4889
 4170SOL    HW224144   0.167   2.027   2.627  0.7971  0.7560 -0.3984
 4171SOL     OW24145   3.972   3.206  13.324 -0.1882 -0.2835 -0.1031
 4171SOL    HW124146   3.997   3.289  13.364  0.4165 -0.5634  0.0940
 4171SOL    HW224147   3.878   3.220  13.308 -1.1746 -1.1229  4.9037
 4172SOL     OW24148   0.938   2.596   3.916  0.5214  0.3783  0.3743
 4172SOL    HW124149   1.011   2.639   3.871 -0.4793  0.4640 -1.1916
 4172SOL    HW224150   0.954   2.618   4.007  0.3401  1.5829  0.1122
 4173SOL     OW24151   2.267   1.938   2.902 -0.2560 -0.2699 -0.0392
 4173SOL    HW124152   2.275   1.971   2.812  0.1987 -0.8820 -0.2251
 4173SOL    HW224153   2.351   1.891   2.911 -1.0342 -1.7551 -0.4738
 4174SOL     OW24154   2.060   4.420  16.172  0.1166 -0.0657  0.5973
 4174SOL    HW124155   2.070   4.472  16.092 -0.2734 -0.4571  0.2906
 4174SOL    HW224156   2.018   4.344  16.131  0.0701  0.4303 -0.2947
 4175SOL     OW24157   4.121   1.086   4.708  0.0164  0.0253 -0.8417
 4175SOL    HW124158   4.127   1.012   4.769  1.1892  0.2420 -0.6999
 4175SOL    HW224159   4.166   1.053   4.630 -2.0912  1.3346 -2.6187
 4176SOL     OW24160   0.817   0.405  16.841  0.0884 -0.1161 -1.3921
 4176SOL    HW124161   0.904   0.412  16.880 -0.3619 -0.0888 -0.4161
 4176SOL    HW224162   0.772   0.478  16.881  1.3420  2.2160 -4.2025
 4177SOL     OW24163   2.796   4.031   9.549  0.1770 -0.2101  0.8159
 4177SOL    HW124164   2.878   3.984   9.564  0.0614 -0.9338 -0.8702
 4177SOL    HW224165   2.738   4.023   9.625  0.5088  0.5816  1.1548
 4178SOL     OW24166   3.515   1.367   1.403 -0.1392  0.3210 -0.1399
 4178SOL    HW124167   3.580   1.307   1.367  0.3596 -0.4409  2.0745
 4178SOL    HW224168   3.497   1.326   1.487 -0.3507 -0.4358 -0.5551
 4179SOL     OW24169   0.946   0.360  10.334  0.7017 -0.1687  0.4890
 4179SOL    HW124170   0.982   0.432  10.386  1.7540  0.7304 -1.4996
 4179SOL    HW224171   1.001   0.355  10.256 -0.0184  0.2557 -0.0516
 4180SOL     OW24172   3.098   0.714   0.451 -0.3097  0.0117  0.7785
 4180SOL    HW124173   3.039   0.644   0.478  0.3909 -0.0453  2.1542
 4180SOL    HW224174   3.173   0.656   0.437 -1.2103 -1.0780  0.4900
 4181SOL     OW24175   4.591   0.360   1.836 -0.1571 -0.4968  0.1430
 4181SOL    HW124176   4.629   0.392   1.754  0.2703 -2.2923 -0.3456
 4181SOL    HW224177   4.559   0.272   1.821  0.3824 -0.9961  1.9434
 4182SOL     OW24178   2.557   1.175   5.578  0.0788 -0.1043 -0.0845
 4182SOL    HW124179   2.527   1.182   5.669  0.8107 -0.3720  0.1795
 4182SOL    HW224180   2.547   1.267   5.554 -0.3926 -0.7283 -2.2606
 4183SOL     OW24181   1.874   3.187  14.939 -0.0213 -0.2198 -0.9315
 4183SOL    HW124182   1.787   3.149  14.938 -0.2694  0.3517 -0.0600
 4183SOL    HW224183   1.856   3.270  14.894 -1.9057 -0.8583 -1.3412
 4184SOL     OW24184   0.049   1.382  10.102  0.0435 -0.1438 -0.0874
 4184SOL    HW124185   0.082   1.341  10.022  1.8095  1.7027 -0.3067
 4184SOL    HW224186   0.111   1.354  10.169 -0.7047  0.6862  0.9588
 4185SOL     OW24187   3.373   0.837   8.971  0.0430  0.6220 -0.2628
 4185SOL    HW124188   3.295   0.830   9.026  0.9616  1.5207  1.1556
 4185SOL    HW224189   3.402   0.928   8.977 -2.5453  1.4178  0.5242
 4186SOL     OW24190   0.528   3.525   5.114  0.5846  0.2829 -0.2643
 4186SOL    HW124191   0.508   3.467   5.041  1.3750 -3.5326  2.5432
 4186SOL    HW224192   0.593   3.473   5.160 -0.8609 -1.5830 -0.3614
 4187SOL     OW24193   3.793   2.060   1.818 -1.0653  0.2767  0.4217
 4187SOL    HW124194   3.815   2.106   1.899  0.8017  0.3837 -0.1258
 4187SOL    HW224195   3.784   1.972   1.854  0.8058  0.1271  0.5568
 4188SOL     OW24196   3.629   4.550  16.103 -0.2377 -0.2907 -0.0063
 4188SOL    HW124197   3.541   4.512  16.100 -0.9247  1.4517 -1.8779
 4188SOL    HW224198   3.619   4.608  16.027 -0.8520  0.2138  0.4588
 4189SOL     OW24199   0.491   1.990   3.513  0.3017  0.3723 -0.4348
 4189SOL    HW124200   0.528   2.064   3.560  0.9655  0.0632 -0.4780
 4189SOL    HW224201   0.443   1.941   3.579 -0.0469  0.9988 -0.2207
 4190SOL     OW24202   4.264   1.564   4.017  0.0117 -0.3332 -0.4756
 4190SOL    HW124203   4.202   1.633   4.038 -0.0452 -0.4592 -0.2242
 4190SOL    HW224204   4.335   1.602   3.966  0.1823  1.8575  1.4272
 4191SOL     OW24205   4.566   3.690   3.519  0.3664 -0.1381  0.2954
 4191SOL    HW124206   4.629   3.700   3.448  1.1853  0.6609  1.1251
 4191SOL    HW224207   4.611   3.745   3.584  1.7180  1.4828 -2.0386
 4192SOL     OW24208   1.110   4.636  12.077 -0.4918 -0.0748 -0.8448
 4192SOL    HW124209   1.128   4.616  12.169 -0.6555  0.8047 -0.6169
 4192SOL    HW224210   1.016   4.620  12.070 -0.3087 -1.6593  0.2365
 4193SOL     OW24211   2.960   1.993  10.821 -0.6057  0.2396  0.1474
 4193SOL    HW124212   2.986   1.901  10.816 -0.1599  0.3858 -0.1700
 4193SOL    HW224213   3.033   2.034  10.867 -1.8683  0.4688  1.9393
 4194SOL     OW24214   2.845   3.401  15.465 -0.6050  0.0988  0.1700
 4194SOL    HW124215   2.877   3.415  15.554  1.2956  0.5603 -0.5824
 4194SOL    HW224216   2.753   3.381  15.481 -0.1425  0.4657  3.2461
 4195SOL     OW24217   1.416   2.463   7.536  0.3949  0.2620  0.7154
 4195SOL    HW124218   1.461   2.546   7.554  2.0003  0.0455 -2.3599
 4195SOL    HW224219   1.360   2.491   7.464  0.3432 -0.5729  0.4353
 4196SOL     OW24220   0.155   0.674   2.017  0.6025 -0.2025  0.1261
 4196SOL    HW124221   0.211   0.599   2.038 -0.7991 -1.0286  0.9507
 4196SOL    HW224222   0.158   0.723   2.099 -0.4267  2.7335 -1.5898
 4197SOL     OW24223   1.636   0.351   9.337  0.2714 -0.0792 -0.1029
 4197SOL    HW124224   1.729   0.366   9.353  0.3772 -2.3890  1.3351
 4197SOL    HW224225   1.632   0.373   9.244  3.9408  0.6152 -0.0711
 4198SOL     OW24226   2.905   3.348   4.094 -0.3983 -0.2571  0.2838
 4198SOL    HW124227   2.869   3.399   4.167 -1.6011 -0.6379 -0.0394
 4198SOL    HW224228   2.995   3.380   4.099 -0.0949 -1.0313 -0.2170
 4199SOL     OW24229   2.582   3.992   7.220  0.1684  0.8470  0.3522
 4199SOL    HW124230   2.624   4.077   7.209  1.1810  0.4471  1.0722
 4199SOL    HW224231   2.540   3.996   7.305  0.8298 -1.5550  0.7983
 4200SOL     OW24232   2.668   0.840   4.993 -0.1340 -0.0115 -0.0809
 4200SOL    HW124233   2.728   0.841   5.067 -0.4909 -0.8359  0.2196
 4200SOL    HW224234   2.664   0.934   4.979 -0.7028  0.0111  0.2446
 4201SOL     OW24235   1.298   1.001  15.027 -0.1309  0.2139  0.5780
 4201SOL    HW124236   1.221   0.950  15.051  0.7261 -1.9461 -1.2011
 4201SOL    HW224237   1.254   1.085  15.036 -0.7418  0.0762 -1.0586
 4202SOL     OW24238   3.010   1.721   4.222 -0.3837 -0.6745  0.2670
 4202SOL    HW124239   3.028   1.761   4.137  1.8568 -0.2136  0.9837
 4202SOL    HW224240   2.959   1.642   4.199 -1.3339  0.0314 -0.0722
 4203SOL     OW24241   2.011   4.076   1.744 -0.0501 -0.4090  0.5215
 4203SOL    HW124242   2.013   4.027   1.826 -0.2044 -1.6465 -0.2076
 4203SOL    HW224243   1.932   4.048   1.699 -0.6221 -0.5712  1.6490
 4204SOL     OW24244   2.117   0.920  12.033 -0.4460 -0.1374 -0.9340
 4204SOL    HW124245   2.134   0.846  12.091 -1.2541  1.1639  0.9808
 4204SOL    HW224246   2.023   0.937  12.043 -0.2048  0.5181  0.2552
 4205SOL     OW24247   4.041   2.671   1.986 -0.0229  0.1336  0.4964
 4205SOL    HW124248   4.083   2.699   1.904  0.3942 -1.8137  0.0268
 4205SOL    HW224249   3.972   2.737   1.983  1.1393  1.4590  2.6706
 4206SOL     OW24250   4.440   1.214  17.314 -0.0872  0.1264 -0.5109
 4206SOL    HW124251   4.534   1.232  17.312 -0.2858  1.1167 -0.9018
 4206SOL    HW224252   4.437   1.136  17.370  0.8461  0.4358 -0.0466
 4207SOL     OW24253   3.197   0.640  10.146  0.1484 -0.2568  0.9913
 4207SOL    HW124254   3.263   0.572  10.130  0.1706 -0.1111  0.4686
 4207SOL    HW224255   3.219   0.659  10.237  2.4850 -1.4191  0.6813
 4208SOL     OW24256   3.125   4.717   2.379  0.2035  0.2935 -0.4137
 4208SOL    HW124257   3.195   4.712   2.444 -1.1464 -0.2218  0.9844
 4208SOL    HW224258   3.065   0.048   2.414 -0.8274 -0.6974 -0.3142
 4209SOL     OW24259   3.571   4.618   9.416  0.0868  0.0974  0.2767
 4209SOL    HW124260   3.494   4.572   9.449  0.7439 -3.1540 -2.6169
 4209SOL    HW224261   3.632   4.598   9.486  0.3228 -1.2886 -0.3107
 4210SOL     OW24262   1.796   3.643   0.341 -0.0168 -0.2470  0.2314
 4210SOL    HW124263   1.839   3.625   0.258 -0.4258 -2.9343  0.5940
 4210SOL    HW224264   1.848   3.716   0.375  0.7709 -0.7913  0.2074
 4211SOL     OW24265   1.726   1.435   2.508 -0.0674 -0.5708 -0.4916
 4211SOL    HW124266   1.796   1.403   2.564 -1.3529 -1.8790  0.3765
 4211SOL    HW224267   1.664   1.366   2.534 -0.6264  0.8561  1.9947
 4212SOL     OW24268   3.128   2.744   8.950 -0.0336 -0.3495 -0.2695
 4212SOL    HW124269   3.080   2.825   8.968 -1.9056 -1.4171 -0.5798
 4212SOL    HW224270   3.217   2.759   8.983  0.3839 -3.3727 -0.0545
 4213SOL     OW24271   2.111   1.950   1.825 -0.2547  0.6128  0.7088
 4213SOL    HW124272   2.200   1.925   1.850  1.4610  3.0332 -2.8370
 4213SOL    HW224273   2.121   2.042   1.799 -1.4119  1.0710  1.9225
 4214SOL     OW24274   0.812   4.224  14.238  0.3963 -0.1605 -0.3425
 4214SOL    HW124275   0.869   4.232  14.315 -0.6964 -2.6019  0.7236
 4214SOL    HW224276   0.869   4.161  14.195  3.1970  1.9517  0.2945
 4215SOL     OW24277   0.203   3.540   3.399  0.0165  0.1991  0.6027
 4215SOL    HW124278   0.282   3.581   3.434  0.0694  0.5417  0.0717
 4215SOL    HW224279   0.241   3.460   3.361 -0.5649  0.8896 -1.4069
 4216SOL     OW24280   3.362   3.943  12.462  0.1509 -0.4883 -0.2441
 4216SOL    HW124281   3.267   3.952  12.456  0.1432 -1.0795 -1.0443
 4216SOL    HW224282   3.386   4.035  12.453  0.1860 -0.5850 -1.1344
 4217SOL     OW24283   2.314   1.132   6.243 -0.5410  0.6889  0.4075
 4217SOL    HW124284   2.409   1.119   6.251 -0.8749 -1.4628  0.9535
 4217SOL    HW224285   2.290   1.041   6.225 -1.8713  0.6694  2.3337
 4218SOL     OW24286   3.038   3.160   7.457  0.1676 -0.6728  0.3499
 4218SOL    HW124287   3.122   3.186   7.495  0.6607 -0.0154 -1.1896
 4218SOL    HW224288   3.052   3.198   7.371 -4.0406  0.4389  0.1352
 4219SOL     OW24289   0.625   3.162   6.067 -0.2071  0.3051  0.1537
 4219SOL    HW124290   0.614   3.126   6.155 -0.5866  1.7635  0.6975
 4219SOL    HW224291   0.537   3.195   6.052  0.2178  0.9917 -0.8004
 4220SOL     OW24292   0.537   4.443   0.563  0.2665  0.3383 -0.1581
 4220SOL    HW124293   0.601   4.433   0.633 -2.0194 -0.4523  1.8556
 4220SOL    HW224294   0.588   4.408   0.490 -0.2434 -0.1013 -0.3096
 4221SOL     OW24295   3.361   4.166  13.341  0.4463 -0.7975  0.1091
 4221SOL    HW124296   3.368   4.210  13.426  1.3873  0.2626 -0.5204
 4221SOL    HW224297   3.451   4.134  13.335  0.3051 -0.7095 -2.4226
 4222SOL     OW24298   3.297   4.471   4.500  0.2676 -0.1470 -0.4852
 4222SOL    HW124299   3.311   4.488   4.407  0.5839  0.6862 -0.2894
 4222SOL    HW224300   3.221   4.413   4.499  0.0894  0.0597  0.7688
 4223SOL     OW24301   3.192   4.527  17.515  0.0867 -0.2006  0.0573
 4223SOL    HW124302   3.156   4.535  17.603 -1.3459 -0.3369 -0.5163
 4223SOL    HW224303   3.196   4.432  17.506  0.4651 -0.2665  0.8716
 4224SOL     OW24304   0.140   2.824  13.592  0.0101  0.1048  0.2148
 4224SOL    HW124305   0.075   2.850  13.527 -0.5921 -0.1369  0.7097
 4224SOL    HW224306   0.114   2.733  13.609  0.9187 -0.2276 -0.1821
 4225SOL     OW24307   0.745   4.307   7.579  0.3229  0.2995 -0.0332
 4225SOL    HW124308   0.728   4.372   7.510 -3.2883 -1.1060 -0.4921
 4225SOL    HW224309   0.713   4.361   7.651  1.0932 -0.8262  1.1603
 4226SOL     OW24310   4.578   1.362   4.294 -0.0370 -0.2970 -0.0324
 4226SOL    HW124311   4.586   1.330   4.384  0.2479 -0.1047  0.0103
 4226SOL    HW224312   4.563   1.275   4.255 -1.0031 -0.0043 -0.3187
 4227SOL     OW24313   3.858   2.725   3.759 -0.3602 -0.5545  0.1925
 4227SOL    HW124314   3.862   2.651   3.819  0.4242 -2.3997 -2.1505
 4227SOL    HW224315   3.945   2.761   3.777  0.3661 -1.9977 -0.4542
 4228SOL     OW24316   4.201   2.234   6.527  0.1021  0.2559 -0.1250
 4228SOL    HW124317   4.132   2.169   6.520 -0.9095  1.5883 -2.5536
 4228SOL    HW224318   4.284   2.188   6.520  0.8882  1.5871  0.3616
 4229SOL     OW24319   0.349   0.623   6.679 -0.1056 -0.3523 -0.4329
 4229SOL    HW124320   0.317   0.545   6.633 -1.3958 -0.9257  1.4508
 4229SOL    HW224321   0.303   0.697   6.640  1.6149  1.2504  0.5301
 4230SOL     OW24322   2.042   1.234   6.400  0.3948 -0.5782  0.5081
 4230SOL    HW124323   2.123   1.206   6.357  0.7330  1.9203 -0.4841
 4230SOL    HW224324   2.034   1.168   6.469 -1.4418 -0.3119  0.5548
 4231SOL     OW24325   1.676   0.667   2.022  0.0255 -0.2782 -0.6994
 4231SOL    HW124326   1.725   0.744   2.051  0.4401 -0.7210 -0.2310
 4231SOL    HW224327   1.605   0.649   2.083  0.6018  0.8527  0.3220
 4232SOL     OW24328   4.495   4.066  15.491  0.1480  0.0081 -0.2703
 4232SOL    HW124329   4.582   4.049  15.455  0.0748 -0.4013 -0.2587
 4232SOL    HW224330   4.511   4.017  15.572  0.4197  1.0225  0.2974
 4233SOL     OW24331   0.517   1.871   2.730 -0.4165 -0.2314  0.2694
 4233SOL    HW124332   0.426   1.895   2.712 -0.9346 -2.4759 -0.1014
 4233SOL    HW224333   0.510   1.822   2.812  1.6725  0.8805  1.1077
 4234SOL     OW24334   1.336   1.018  11.270 -0.0463  0.1970 -0.7391
 4234SOL    HW124335   1.403   0.973  11.321 -0.6830  1.8380  1.5387
 4234SOL    HW224336   1.276   1.056  11.334  1.5049  3.4456 -1.2282
 4235SOL     OW24337   1.706   4.566  13.885  0.3651  0.1417 -0.4119
 4235SOL    HW124338   1.800   4.559  13.874  0.1023 -3.1695 -0.5107
 4235SOL    HW224339   1.695   4.606  13.971 -0.5286 -0.0681 -0.4285
 4236SOL     OW24340   3.457   1.884   7.381  0.8564 -0.2151  0.4687
 4236SOL    HW124341   3.398   1.812   7.359 -0.1983  1.0060 -0.6836
 4236SOL    HW224342   3.429   1.938   7.308 -0.7099  0.2192  1.4070
 4237SOL     OW24343   2.463   0.171   5.545 -0.3422 -0.3019 -0.0476
 4237SOL    HW124344   2.463   0.164   5.450  1.2488 -0.5173 -0.0282
 4237SOL    HW224345   2.556   0.195   5.546 -0.8068  1.5583 -1.8749
 4238SOL     OW24346   2.183   0.874   6.979 -0.1559 -0.1305 -0.0956
 4238SOL    HW124347   2.270   0.835   6.987  0.4142  1.0170 -0.7877
 4238SOL    HW224348   2.128   0.797   6.963 -1.1279  0.3054  1.1276
 4239SOL     OW24349   2.068   2.495  14.820  0.2525  0.4955  0.6377
 4239SOL    HW124350   2.018   2.517  14.741  0.7660 -0.3001  0.0956
 4239SOL    HW224351   2.101   2.577  14.858  0.2645 -0.3346  2.4156
 4240SOL     OW24352   1.763   4.603   5.198 -0.0399 -0.0137 -0.0238
 4240SOL    HW124353   1.724   4.689   5.182  1.9633  1.2329  1.8296
 4240SOL    HW224354   1.690   4.556   5.236 -0.9634  0.9543 -0.5980
 4241SOL     OW24355   2.812   4.469  16.292 -0.0616 -0.1369 -0.0573
 4241SOL    HW124356   2.741   4.530  16.271 -1.9361 -1.5278  2.1456
 4241SOL    HW224357   2.775   4.417  16.363  1.0016  1.5049  1.7062
 4242SOL     OW24358   1.202   3.826   8.957 -0.3209  0.2875 -0.0174
 4242SOL    HW124359   1.206   3.884   9.034 -0.6505  0.1429  0.1054
 4242SOL    HW224360   1.297   3.822   8.946 -0.4048 -0.5306 -0.4409
 4243SOL     OW24361   1.083   1.287   3.266  0.8359 -0.2234 -0.4582
 4243SOL    HW124362   1.007   1.341   3.244  0.4747 -0.9697 -1.0181
 4243SOL    HW224363   1.149   1.355   3.281  0.4984  0.2426 -1.0849
 4244SOL     OW24364   0.044   3.857   2.233  0.2754  0.1562  0.1393
 4244SOL    HW124365   0.096   3.834   2.156 -1.1489 -0.8457 -0.5287
 4244SOL    HW224366   4.717   3.784   2.236 -0.3931  0.6694 -1.3589
 4245SOL     OW24367   4.425   3.419  14.566 -0.1674  0.5205 -0.0206
 4245SOL    HW124368   4.342   3.374  14.582 -0.2482  0.6249 -0.1419
 4245SOL    HW224369   4.448   3.392  14.477  2.0076 -0.0078  0.7120
 4246SOL     OW24370   3.761   0.576   4.336  0.2271  0.2400  0.3724
 4246SOL    HW124371   3.793   0.500   4.385 -0.6446 -1.4415 -1.6819
 4246SOL    HW224372   3.734   0.555   4.247  1.3399  2.2668 -0.4336
 4247SOL     OW24373   1.154   2.640   5.096 -0.1466 -0.0102  0.5231
 4247SOL    HW124374   1.092   2.581   5.053 -0.0137  0.5968 -0.5008
 4247SOL    HW224375   1.095   2.713   5.114  0.0809  0.1844  0.4687
 4248SOL     OW24376   3.576   0.944   7.732  0.3080  0.1196  0.8166
 4248SOL    HW124377   3.522   0.912   7.660  0.6361 -0.0393  0.6388
 4248SOL    HW224378   3.609   0.859   7.761  2.8194  0.7325 -0.1983
 4249SOL     OW24379   4.516   2.655   6.122  0.2922 -0.0352  0.2878
 4249SOL    HW124380   4.562   2.695   6.047  0.7539  1.3143  1.2920
 4249SOL    HW224381   4.533   2.563   6.100 -2.4931 -0.6273  0.6099
 4250SOL     OW24382   2.358   3.099   5.506 -0.5546  0.0722  0.3982
 4250SOL    HW124383   2.383   3.084   5.597 -1.2701 -0.4250  0.5111
 4250SOL    HW224384   2.444   3.126   5.473 -1.4162 -0.7706 -2.6087
 4251SOL     OW24385   4.499   0.515  14.619 -0.5005 -0.0452 -0.4459
 4251SOL    HW124386   4.550   0.442  14.653 -0.7379 -0.1398 -0.2979
 4251SOL    HW224387   4.412   0.481  14.640  0.0184 -1.5731 -0.7920
 4252SOL     OW24388   4.704   2.272   2.194 -0.0295  0.1404  0.5566
 4252SOL    HW124389   4.630   2.325   2.164  0.1026  0.0837  0.1407
 4252SOL    HW224390   4.661   2.203   2.245 -3.6022  2.0076  0.0745
 4253SOL     OW24391   4.621   0.048   2.428 -0.1907 -0.1657  0.2100
 4253SOL    HW124392   4.594   0.046   2.520 -1.0569 -0.0271 -0.0507
 4253SOL    HW224393   4.586   4.705   2.385  0.9656 -0.8485  0.5035
 4254SOL     OW24394   1.388   3.289   6.876 -0.6356 -0.4732  0.0545
 4254SOL    HW124395   1.411   3.316   6.787  0.6267 -2.4818 -0.2389
 4254SOL    HW224396   1.471   3.303   6.923  0.5174 -1.7802 -1.6087
 4255SOL     OW24397   2.969   3.905   4.795  0.5532  0.2724  0.3028
 4255SOL    HW124398   2.890   3.851   4.789  1.5355 -0.8672 -2.4888
 4255SOL    HW224399   3.024   3.855   4.855  0.5569 -1.8758 -1.4644
 4256SOL     OW24400   1.917   4.364   4.395  0.9182  0.1838  0.5055
 4256SOL    HW124401   1.922   4.439   4.454  0.5553  1.1221 -0.6570
 4256SOL    HW224402   2.003   4.364   4.354 -0.1827 -2.1033 -1.8389
 4257SOL     OW24403   1.661   1.883   8.440  0.1490 -0.4695  0.6312
 4257SOL    HW124404   1.569   1.911   8.438  0.2100 -0.3990 -0.9505
 4257SOL    HW224405   1.645   1.789   8.435  0.1447 -0.3945 -0.7003
 4258SOL     OW24406   3.472   1.366   4.333  0.1162 -0.2594 -0.4578
 4258SOL    HW124407   3.499   1.397   4.419 -1.3431  0.6139 -0.3166
 4258SOL    HW224408   3.514   1.426   4.272 -0.6396 -0.7812 -1.4953
 4259SOL     OW24409   4.078   3.116   1.618  0.0488 -0.1120 -0.2965
 4259SOL    HW124410   4.165   3.123   1.659  0.2696 -0.3889 -0.7151
 4259SOL    HW224411   4.030   3.079   1.692  0.3355 -1.0619 -0.5768
 4260SOL     OW24412   3.380   2.157   9.777 -0.4878 -0.2604  0.5529
 4260SOL    HW124413   3.350   2.247   9.792  0.8177 -0.0268  1.8639
 4260SOL    HW224414   3.459   2.171   9.724 -0.2879 -0.0673  0.8981
 4261SOL     OW24415   2.307   1.782   7.126  0.0784 -0.1151  0.0813
 4261SOL    HW124416   2.324   1.709   7.186 -0.4678  0.4807  0.9673
 4261SOL    HW224417   2.387   1.834   7.134  0.3552 -0.6528  0.8857
 4262SOL     OW24418   3.967   1.808   4.842  0.1266 -0.1240 -0.0518
 4262SOL    HW124419   4.042   1.762   4.878 -1.1655 -1.1265  1.3195
 4262SOL    HW224420   3.953   1.765   4.757  0.0744  1.1182 -0.6772
 4263SOL     OW24421   3.405   3.465  16.573 -0.8522  0.0307 -0.4512
 4263SOL    HW124422   3.314   3.488  16.555 -0.4094  1.8445 -0.3805
 4263SOL    HW224423   3.408   3.370  16.559  1.1205 -0.2923  2.1483
 4264SOL     OW24424   2.183   4.138  10.010  1.3548  0.0137  0.3757
 4264SOL    HW124425   2.205   4.063   9.955 -1.5650  0.2347 -1.0968
 4264SOL    HW224426   2.168   4.099  10.096  1.2994 -1.4353 -0.2871
 4265SOL     OW24427   1.730   1.671   3.893  0.2702  0.3594  0.1249
 4265SOL    HW124428   1.735   1.606   3.823  0.4885  0.7978 -0.2696
 4265SOL    HW224429   1.783   1.627   3.960 -1.4454 -1.3337  0.3676
 4266SOL     OW24430   2.529   1.760   9.185 -0.1064  0.1615 -0.4647
 4266SOL    HW124431   2.597   1.768   9.251 -0.6899 -1.4070  0.3325
 4266SOL    HW224432   2.459   1.743   9.249  0.3027  1.4948  0.3359
 4267SOL     OW24433   1.473   1.492   2.199  0.0481 -0.2438  0.0893
 4267SOL    HW124434   1.550   1.543   2.223 -0.8730  0.4638  1.5669
 4267SOL    HW224435   1.449   1.529   2.113 -0.2323 -1.7753 -0.4858
 4268SOL     OW24436   3.934   4.402   3.655  0.5542  0.0074  0.4034
 4268SOL    HW124437   3.934   4.308   3.641  2.8219  0.3946 -2.1719
 4268SOL    HW224438   3.872   4.438   3.591  0.8386 -1.3051 -0.6095
 4269SOL     OW24439   1.042   4.687   3.693 -0.1104  0.9760  1.1755
 4269SOL    HW124440   1.086   0.029   3.728  0.2513  2.1037 -1.6850
 4269SOL    HW224441   1.117   4.631   3.675 -1.0003 -0.3084  1.4243
 4270SOL     OW24442   4.113   4.509   6.485  0.5698 -0.2015 -0.0081
 4270SOL    HW124443   4.201   4.521   6.520 -0.2731  0.1037  1.9977
 4270SOL    HW224444   4.062   4.512   6.566  2.7924 -0.5405  1.4100
 4271SOL     OW24445   1.335   4.578   5.386 -0.5653 -0.0950 -0.8110
 4271SOL    HW124446   1.351   4.575   5.291 -0.7559  1.0923 -0.8758
 4271SOL    HW224447   1.355   4.488   5.413  1.3208  0.8115  0.7922
 4272SOL     OW24448   2.664   4.684   2.219  0.4925 -0.3080 -0.3049
 4272SOL    HW124449   2.632   4.687   2.129 -0.7464 -2.0209  0.0828
 4272SOL    HW224450   2.734   0.014   2.214  0.8452 -0.7677 -1.3125
 4273SOL     OW24451   1.974   3.229   2.718 -0.3609  0.1297 -0.1958
 4273SOL    HW124452   1.937   3.265   2.637 -0.7131 -0.0255 -0.1033
 4273SOL    HW224453   1.909   3.165   2.746  0.1895  0.5805  2.0739
 4274SOL     OW24454   0.518   2.856   5.716 -0.0292  0.2680 -0.3638
 4274SOL    HW124455   0.542   2.872   5.807  0.3688  0.5755 -0.5198
 4274SOL    HW224456   0.425   2.837   5.730  0.2562  0.2661  1.5445
 4275SOL     OW24457   1.684   1.159  11.807  0.1811  0.0540  0.2934
 4275SOL    HW124458   1.770   1.163  11.848 -0.2147 -0.2870  1.1484
 4275SOL    HW224459   1.694   1.205  11.724  2.6897 -0.9031  0.0889
 4276SOL     OW24460   2.708   3.718  17.513 -0.2458 -0.2535  0.2911
 4276SOL    HW124461   2.648   3.757  17.449 -0.7090 -3.0509 -0.9572
 4276SOL    HW224462   2.752   3.651  17.461 -1.9599 -0.3752 -0.9952
 4277SOL     OW24463   0.770   2.943   7.644  0.1657 -0.1720 -0.1297
 4277SOL    HW124464   0.705   2.988   7.698 -0.1497 -0.2135 -0.4822
 4277SOL    HW224465   0.849   2.963   7.695 -1.2910  4.9319  0.1819
 4278SOL     OW24466   0.880   3.709   6.691  0.1887 -0.1487  0.0040
 4278SOL    HW124467   0.810   3.651   6.662  0.2678 -0.7378  1.0139
 4278SOL    HW224468   0.936   3.657   6.748  0.5464 -0.3592 -0.5296
 4279SOL     OW24469   2.869   2.092  15.038  0.6400 -0.1780 -0.0848
 4279SOL    HW124470   2.906   2.004  15.030 -0.2766 -0.6068  0.3960
 4279SOL    HW224471   2.934   2.145  14.994 -1.2588  2.4062  0.2271
 4280SOL     OW24472   0.861   2.975   3.870  0.0979 -0.2218  0.0004
 4280SOL    HW124473   0.791   3.036   3.850 -1.2171 -1.0530  2.1056
 4280SOL    HW224474   0.918   3.034   3.919 -1.6292  0.7657  0.8088
 4281SOL     OW24475   3.541   4.074   6.617 -0.2942 -0.5740  0.1711
 4281SOL    HW124476   3.452   4.082   6.583 -0.0375 -0.5448 -0.4910
 4281SOL    HW224477   3.538   4.145   6.682  1.9162 -0.9765  0.7012
 4282SOL     OW24478   3.355   1.284  12.302  0.3794  0.3025  0.3096
 4282SOL    HW124479   3.360   1.220  12.231  0.3378 -0.3799  0.9241
 4282SOL    HW224480   3.260   1.297  12.306  0.2788  0.4528 -2.7099
 4283SOL     OW24481   3.794   3.328   9.415 -0.1474  0.0236  0.8484
 4283SOL    HW124482   3.798   3.312   9.321 -0.2831  0.9886  0.6765
 4283SOL    HW224483   3.814   3.422   9.418 -0.2281  0.1248 -2.3625
 4284SOL     OW24484   0.115   0.548   5.465  0.1895 -0.3731 -0.2084
 4284SOL    HW124485   0.077   0.612   5.526 -0.0966 -1.1208  0.3968
 4284SOL    HW224486   0.097   0.593   5.382  0.6808  0.5025  0.1616
 4285SOL     OW24487   2.806   3.258   7.578  0.0226  0.3131  0.2461
 4285SOL    HW124488   2.764   3.287   7.496 -0.4124 -0.8698  0.0565
 4285SOL    HW224489   2.891   3.236   7.540 -0.0053 -1.2397  1.1135
 4286SOL     OW24490   0.772   4.714   6.248 -0.4921  0.0140  0.0544
 4286SOL    HW124491   0.813   4.727   6.333 -3.2922  0.7944  1.2881
 4286SOL    HW224492   0.685   0.013   6.270 -0.4863 -0.5117  0.8625
 4287SOL     OW24493   0.462   4.268   8.184  0.2373  0.5086 -0.2978
 4287SOL    HW124494   0.511   4.349   8.165 -0.5129  1.4038  1.6143
 4287SOL    HW224495   0.479   4.220   8.103 -3.3294 -0.2835 -0.5426
 4288SOL     OW24496   0.326   0.371   0.746  0.7285 -0.4141  0.9696
 4288SOL    HW124497   0.256   0.328   0.696  0.3441  3.0090 -1.4219
 4288SOL    HW224498   0.311   0.465   0.743  1.2668 -0.2273  4.2169
 4289SOL     OW24499   4.240   2.716   2.209  0.3797  0.7020 -0.0347
 4289SOL    HW124500   4.216   2.717   2.116  0.4766  2.6763 -0.0335
 4289SOL    HW224501   4.272   2.626   2.219  0.1052  0.5779 -0.2494
 4290SOL     OW24502   1.148   2.430   9.919  0.5184 -0.0608  0.3409
 4290SOL    HW124503   1.123   2.347   9.960 -0.4742 -0.8878 -1.9540
 4290SOL    HW224504   1.238   2.417   9.888  0.3405  0.7439 -0.5139
 4291SOL     OW24505   1.611   4.082   7.096 -0.2214 -0.9863 -0.2783
 4291SOL    HW124506   1.606   4.049   7.007 -0.3670 -0.5366 -0.4371
 4291SOL    HW224507   1.515   4.081   7.098 -0.3161  3.5175 -1.7773
 4292SOL     OW24508   3.168   4.334   8.018  0.1903  0.5781  0.7149
 4292SOL    HW124509   3.237   4.318   7.954 -0.4525  3.7603 -0.7509
 4292SOL    HW224510   3.126   4.249   8.006 -0.2317  0.9144 -0.2182
 4293SOL     OW24511   4.172   4.108   3.555  0.2558  0.0467 -0.1886
 4293SOL    HW124512   4.221   4.114   3.637 -0.9172 -2.6887  0.7261
 4293SOL    HW224513   4.210   4.178   3.503 -1.1405  0.5406 -0.5432
 4294SOL     OW24514   3.880   4.150   8.071 -0.3387  0.0009  0.2478
 4294SOL    HW124515   3.957   4.145   8.128  1.2187 -2.2852 -2.0644
 4294SOL    HW224516   3.915   4.189   7.991  1.1261 -2.2144 -0.1710
 4295SOL     OW24517   1.888   1.721   8.279 -0.3067  0.0227 -0.1166
 4295SOL    HW124518   1.923   1.774   8.351  0.0519 -0.3847  0.0124
 4295SOL    HW224519   1.800   1.754   8.263 -1.1346 -1.8627  0.5231
 4296SOL     OW24520   4.479   1.983   3.275 -0.3654  0.3520  0.2734
 4296SOL    HW124521   4.437   2.062   3.241 -0.5443  0.6086  1.1063
 4296SOL    HW224522   4.563   1.975   3.231 -1.1572 -0.2416 -1.1447
 4297SOL     OW24523   2.351   1.471  16.406  0.3960 -0.7527  0.4390
 4297SOL    HW124524   2.338   1.376  16.407  1.7137 -0.9247  2.3011
 4297SOL    HW224525   2.417   1.481  16.338 -0.8622  1.1746 -0.4887
 4298SOL     OW24526   2.376   2.225  10.271 -0.2676 -0.5898  0.2887
 4298SOL    HW124527   2.470   2.234  10.285 -0.2658 -0.1063 -0.0431
 4298SOL    HW224528   2.347   2.316  10.276 -0.5681 -0.5501 -2.3351
 4299SOL     OW24529   2.932   2.773   1.741 -0.4065  0.1150  0.4198
 4299SOL    HW124530   2.937   2.714   1.667 -2.7418 -0.1699  0.5004
 4299SOL    HW224531   3.020   2.810   1.743  0.3800 -1.7700  0.2034
 4300SOL     OW24532   1.147   3.734   4.041 -0.1323  0.3236  0.7033
 4300SOL    HW124533   1.074   3.763   4.096 -0.4869 -0.5311  0.6843
 4300SOL    HW224534   1.139   3.786   3.961 -3.0425  0.9189  1.3610
 4301SOL     OW24535   0.290   2.634   4.150 -0.0471 -0.0227  0.2768
 4301SOL    HW124536   0.343   2.700   4.105  1.5094 -0.9483  0.7488
 4301SOL    HW224537   0.300   2.557   4.094 -1.5265 -1.6578  2.2420
 4302SOL     OW24538   3.144   4.556   5.555  0.2176 -0.2501  0.3933
 4302SOL    HW124539   3.095   4.588   5.631 -1.5490  1.1508 -1.3280
 4302SOL    HW224540   3.164   4.464   5.572 -2.3998 -1.4131 -2.7471
 4303SOL     OW24541   4.489   2.915   8.196  0.0300  0.3313 -0.3977
 4303SOL    HW124542   4.448   2.888   8.114  1.0186  0.0123 -0.7848
 4303SOL    HW224543   4.497   3.006   8.169 -1.8818 -0.1185 -2.4687
 4304SOL     OW24544   1.274   0.609   4.799  0.0791 -0.5307 -0.2529
 4304SOL    HW124545   1.255   0.577   4.887 -3.3438  0.6589 -0.5431
 4304SOL    HW224546   1.359   0.647   4.822 -1.2880  2.2593  0.1856
 4305SOL     OW24547   3.478   2.164   7.816 -0.0428  0.1679 -0.3373
 4305SOL    HW124548   3.396   2.207   7.792  1.4338  2.9670 -0.3271
 4305SOL    HW224549   3.492   2.104   7.742 -1.2936 -0.0253 -0.4291
 4306SOL     OW24550   1.643   1.417   1.863 -0.3067  0.7562 -0.3791
 4306SOL    HW124551   1.676   1.498   1.904 -1.2146  1.0862 -0.3096
 4306SOL    HW224552   1.614   1.451   1.779 -1.9363 -0.2260 -0.2013
 4307SOL     OW24553   2.574   3.916   8.082  0.1591  0.4896  0.3791
 4307SOL    HW124554   2.563   4.009   8.100 -2.2080  0.1751  0.5504
 4307SOL    HW224555   2.636   3.911   8.154 -0.4415  1.0838  0.9282
 4308SOL     OW24556   1.686   4.005  14.359  0.5346 -0.2249 -0.0313
 4308SOL    HW124557   1.686   3.936  14.293 -0.9674  2.1384 -2.5338
 4308SOL    HW224558   1.602   4.051  14.349  1.8583  2.6176  1.9185
 4309SOL     OW24559   2.287   3.430   5.743  0.8241  0.6136  0.1818
 4309SOL    HW124560   2.224   3.498   5.720 -0.0616 -0.1189  0.4709
 4309SOL    HW224561   2.244   3.379   5.811 -0.8763 -0.0798 -1.4354
 4310SOL     OW24562   4.168   0.517   5.569  0.0838 -0.2002 -0.1029
 4310SOL    HW124563   4.081   0.492   5.600 -0.1839 -0.4172 -1.0279
 4310SOL    HW224564   4.211   0.432   5.561 -1.8757 -0.9865 -2.4703
 4311SOL     OW24565   3.785   0.740   3.381  0.4389 -0.1152 -0.0579
 4311SOL    HW124566   3.771   0.798   3.456 -1.3795 -2.2988  1.3114
 4311SOL    HW224567   3.695   0.738   3.347  0.0405 -2.0468  1.0753
 4312SOL     OW24568   4.553   1.694  10.292 -0.4116 -0.6005 -0.0889
 4312SOL    HW124569   4.601   1.630  10.343  1.8695  0.3942 -0.9929
 4312SOL    HW224570   4.535   1.758  10.362 -0.9362 -0.1813 -0.5998
 4313SOL     OW24571   0.779   1.276  11.595 -0.4138  0.4024 -0.2705
 4313SOL    HW124572   0.867   1.307  11.573 -0.5065  0.9267  0.0811
 4313SOL    HW224573   0.779   1.206  11.530  2.4251 -0.9844  1.2073
 4314SOL     OW24574   1.641   4.338   7.237 -0.1974  0.1991 -0.1781
 4314SOL    HW124575   1.677   4.254   7.207  0.6463  0.5404 -0.1437
 4314SOL    HW224576   1.549   4.313   7.245  0.0639 -0.1336  1.8773
 4315SOL     OW24577   0.302   4.648   7.356 -0.0099  0.3491  0.2274
 4315SOL    HW124578   0.288   0.006   7.336 -1.3131  0.2455  0.6599
 4315SOL    HW224579   0.326   4.622   7.267 -1.6756  0.5790 -0.2826
 4316SOL     OW24580   3.451   0.638   5.611  0.8652  0.2034  0.0668
 4316SOL    HW124581   3.546   0.640   5.594  0.6471 -1.2691 -1.2724
 4316SOL    HW224582   3.412   0.628   5.525 -0.8678 -0.9040  0.9884
 4317SOL     OW24583   1.346   1.257   4.272  0.5957 -0.3378  0.2369
 4317SOL    HW124584   1.362   1.210   4.353  0.5069  0.3108  0.6350
 4317SOL    HW224585   1.319   1.341   4.309  1.6284 -0.7523  1.8998
 4318SOL     OW24586   2.506   2.364   5.109 -0.1842 -0.6109 -0.0104
 4318SOL    HW124587   2.413   2.350   5.093 -0.9519  2.3481  1.8852
 4318SOL    HW224588   2.535   2.275   5.092 -1.4603 -1.0163 -0.0608
 4319SOL     OW24589   2.017   3.251   6.166 -0.2860 -0.0169 -0.2180
 4319SOL    HW124590   1.947   3.186   6.172 -0.7641  0.3728 -1.6137
 4319SOL    HW224591   1.987   3.312   6.233 -0.7538  1.4878 -1.8139
 4320SOL     OW24592   4.536   3.104  17.236 -0.1908  0.1664 -0.0380
 4320SOL    HW124593   4.463   3.166  17.225  0.4746  1.2002  1.5540
 4320SOL    HW224594   4.526   3.091  17.330 -2.0711  1.7873 -0.0047
 4321SOL     OW24595   1.968   4.227   8.045  0.2320 -1.0679  0.4977
 4321SOL    HW124596   1.984   4.306   7.994 -0.0864 -0.9442  0.5872
 4321SOL    HW224597   2.052   4.183   8.038 -0.2717 -2.0921  0.8185
 4322SOL     OW24598   3.283   2.556   6.558  0.0213 -0.5045 -0.3987
 4322SOL    HW124599   3.271   2.511   6.642  2.1155 -0.6672 -0.1672
 4322SOL    HW224600   3.325   2.634   6.596  0.4009 -0.8282 -0.1560
 4323SOL     OW24601   0.107   4.624   2.127 -0.1319  0.0912 -0.2881
 4323SOL    HW124602   0.136   4.534   2.117 -1.2795 -0.6714  3.2045
 4323SOL    HW224603   0.139   4.657   2.211  0.0621  0.9384 -0.6951
 4324SOL     OW24604   2.518   3.782   7.066 -0.1074 -0.5410  0.3796
 4324SOL    HW124605   2.541   3.799   6.975 -1.2080 -1.1834 -0.0276
 4324SOL    HW224606   2.550   3.862   7.106 -0.1664 -0.1444 -0.3654
 4325SOL     OW24607   3.872   4.509   2.433 -0.3692  0.3010 -0.2233
 4325SOL    HW124608   3.940   4.467   2.485  1.6119  2.0473 -1.3905
 4325SOL    HW224609   3.917   4.579   2.385 -2.5812  1.3927 -0.6992
 4326SOL     OW24610   0.873   2.319   8.111 -0.0470 -0.0710 -0.0187
 4326SOL    HW124611   0.870   2.229   8.078  0.3267 -0.6959  1.6462
 4326SOL    HW224612   0.961   2.319   8.151 -0.4538  0.3535  0.8775
 4327SOL     OW24613   0.356   2.466  17.127 -0.1348 -0.1596 -0.0474
 4327SOL    HW124614   0.315   2.549  17.151  2.5610  2.1322 -3.5351
 4327SOL    HW224615   0.444   2.494  17.103 -0.1024  0.1530  0.4410
 4328SOL     OW24616   3.380   4.686   0.840 -0.1712 -0.1346 -0.3051
 4328SOL    HW124617   3.341   4.733   0.766  0.5707  0.0169 -0.6062
 4328SOL    HW224618   3.350   0.015   0.904  0.3510  0.0361 -0.2318
 4329SOL     OW24619   0.486   1.697   4.381  0.5740  0.1645 -0.0213
 4329SOL    HW124620   0.420   1.628   4.369 -0.6221  1.2663  0.1844
 4329SOL    HW224621   0.564   1.651   4.410  0.6718  0.7291  0.6124
 4330SOL     OW24622   1.683   3.656   0.604 -0.3923  0.1113 -0.5999
 4330SOL    HW124623   1.687   3.643   0.510  0.8369 -1.2671 -0.3562
 4330SOL    HW224624   1.714   3.573   0.642  0.2529  0.0583 -1.2606
 4331SOL     OW24625   2.141   2.456   6.677 -0.6162  0.5043  0.3270
 4331SOL    HW124626   2.126   2.421   6.765 -2.5965 -2.4573 -1.1918
 4331SOL    HW224627   2.075   2.525   6.681 -0.9973  0.0970  1.0852
 4332SOL     OW24628   2.838   1.309   1.401 -0.0458  0.2348  0.4019
 4332SOL    HW124629   2.755   1.289   1.444 -0.7198 -1.6505 -1.8018
 4332SOL    HW224630   2.891   1.240   1.442  1.7918  0.2432 -1.9457
 4333SOL     OW24631   0.777   1.780   7.558 -0.0194  0.7133 -0.1933
 4333SOL    HW124632   0.740   1.708   7.506  0.9542 -0.3764  0.6120
 4333SOL    HW224633   0.766   1.745   7.647 -0.6785  0.5293 -0.3430
 4334SOL     OW24634   1.847   4.151   7.762 -0.1625  0.5324 -0.2754
 4334SOL    HW124635   1.781   4.195   7.816 -0.8239  1.5998 -1.9593
 4334SOL    HW224636   1.921   4.143   7.822 -1.4688  1.8601  1.4811
 4335SOL     OW24637   2.700   0.044   6.415 -0.2759 -0.3928 -0.7154
 4335SOL    HW124638   2.717   0.134   6.386 -1.7466  0.1058 -0.0167
 4335SOL    HW224639   2.645   0.068   6.490 -1.0363 -0.1899 -1.3441
 4336SOL     OW24640   2.944   4.696   0.088  0.1812 -0.3904  0.5389
 4336SOL    HW124641   2.890   4.708   0.010  0.5894  0.4980  0.3928
 4336SOL    HW224642   3.005   4.630   0.055 -0.0122  0.2985 -1.1709
 4337SOL     OW24643   2.555   1.793   5.996  0.3681 -0.4642 -0.0378
 4337SOL    HW124644   2.510   1.812   6.079  0.7685  0.1834  0.0305
 4337SOL    HW224645   2.540   1.699   5.987  2.1933 -0.6669 -0.9665
 4338SOL     OW24646   2.155   1.149   3.101  0.8710 -0.0425  0.1561
 4338SOL    HW124647   2.164   1.216   3.168  2.2519 -0.6826  0.6000
 4338SOL    HW224648   2.244   1.115   3.105  0.7485 -0.2513  1.1444
 4339SOL     OW24649   2.500   2.151   2.813 -0.2066  0.2497  0.1395
 4339SOL    HW124650   2.527   2.081   2.753 -0.8942  0.0858  0.0099
 4339SOL    HW224651   2.410   2.164   2.781 -0.4549  0.6715  0.9924
 4340SOL     OW24652   4.326   3.809   7.444 -0.0115 -0.1339  0.1261
 4340SOL    HW124653   4.305   3.896   7.477  0.7623 -0.9543  2.7867
 4340SOL    HW224654   4.250   3.787   7.391  0.6568 -1.3781 -0.3045
 4341SOL     OW24655   4.113   2.695   4.792  0.2596 -0.3884  0.1121
 4341SOL    HW124656   4.126   2.636   4.718 -1.6240  1.3885 -1.6650
 4341SOL    HW224657   4.192   2.690   4.846 -0.7020  2.7191  1.7991
 4342SOL     OW24658   4.153   3.881  14.456  0.1656  0.4560 -0.1415
 4342SOL    HW124659   4.208   3.929  14.394  1.0808 -0.4160 -0.0159
 4342SOL    HW224660   4.210   3.878  14.533 -0.2330 -1.2088  0.0876
 4343SOL     OW24661   2.508   0.844   4.134  0.3293  0.4401  0.1695
 4343SOL    HW124662   2.459   0.821   4.213  2.7183  0.9049  1.7529
 4343SOL    HW224663   2.490   0.938   4.137  3.8806  1.1283 -0.4460
 4344SOL     OW24664   4.068   2.918   9.329  0.0003 -0.3086 -0.5248
 4344SOL    HW124665   4.058   2.826   9.354  1.0120 -0.3467 -0.2716
 4344SOL    HW224666   4.161   2.935   9.336 -0.1322  0.9432 -1.6434
 4345SOL     OW24667   0.649   0.715  11.575  0.4314 -0.2516  0.1435
 4345SOL    HW124668   0.695   0.636  11.547 -0.7455 -1.1439  0.7082
 4345SOL    HW224669   0.605   0.682  11.653  0.9716 -1.9737 -0.2810
 4346SOL     OW24670   4.328   2.499   6.247  0.5036  0.0659  0.0447
 4346SOL    HW124671   4.323   2.407   6.220  1.0655  0.1110 -0.2184
 4346SOL    HW224672   4.419   2.520   6.224  0.3792  0.8725  0.3105
 4347SOL     OW24673   4.015   2.745   1.171 -0.1132 -0.2040 -0.2664
 4347SOL    HW124674   4.078   2.714   1.236 -0.4771  0.2315  0.2916
 4347SOL    HW224675   4.056   2.703   1.095 -2.1598  0.4395 -1.7346
 4348SOL     OW24676   3.162   1.012  13.040 -0.4642 -0.8328  0.5171
 4348SOL    HW124677   3.123   0.946  13.098  0.7710 -0.3872  1.8625
 4348SOL    HW224678   3.088   1.069  13.019  1.7089  1.1367 -1.7394
 4349SOL     OW24679   0.994   0.992  11.170  0.0272  0.4846 -0.1547
 4349SOL    HW124680   0.916   0.939  11.186  1.8054 -2.1040 -0.0243
 4349SOL    HW224681   1.035   0.968  11.253 -0.4016 -1.8148 -0.6000
 4350SOL     OW24682   1.481   3.623  17.545 -0.0451  0.9195 -0.4231
 4350SOL    HW124683   1.575   3.633  17.532  0.3187  1.2998  2.5069
 4350SOL    HW224684   1.460   3.540  17.501  1.5816  0.6926 -0.7680
 4351SOL     OW24685   1.693   1.890   3.585  0.1127 -0.2310 -0.0519
 4351SOL    HW124686   1.767   1.845   3.624  0.8828 -0.6465 -1.9769
 4351SOL    HW224687   1.636   1.912   3.658  0.6954 -0.9819  0.6228
 4352SOL     OW24688   0.638   2.471   3.529  0.3728  0.8286  0.4853
 4352SOL    HW124689   0.646   2.529   3.453  1.1227 -0.4658 -0.4413
 4352SOL    HW224690   0.559   2.510   3.567 -0.2466  0.3493 -0.3075
 4353SOL     OW24691   1.454   3.149   9.956 -0.5510  0.0226 -0.1595
 4353SOL    HW124692   1.363   3.121   9.961 -0.5947  0.3656  1.1771
 4353SOL    HW224693   1.468   3.141   9.862  0.9521  1.6258 -0.0700
 4354SOL     OW24694   3.719   3.075   8.484 -0.1512  0.1335  0.0926
 4354SOL    HW124695   3.724   2.980   8.488 -0.5987  0.0823 -0.6182
 4354SOL    HW224696   3.786   3.102   8.547  0.1609  0.8313 -0.5285
 4355SOL     OW24697   2.583   3.924   0.125  0.4569 -0.2838  0.1323
 4355SOL    HW124698   2.655   3.908   0.064 -0.1323  0.1917 -0.6845
 4355SOL    HW224699   2.565   4.016   0.104 -0.1701 -0.3464  0.4016
 4356SOL     OW24700   4.300   0.174  11.295 -0.5432  0.3153  0.0394
 4356SOL    HW124701   4.373   0.198  11.239 -0.9568  1.6290  0.0483
 4356SOL    HW224702   4.291   0.255  11.347 -0.3448  1.8658 -2.3300
 4357SOL     OW24703   4.544   3.186   9.942  0.4116  0.0654  0.0207
 4357SOL    HW124704   4.599   3.173   9.865 -2.9867 -0.2657 -2.3905
 4357SOL    HW224705   4.550   3.102   9.987  3.1473  0.9300  1.2379
 4358SOL     OW24706   0.110   2.728  13.908 -0.3841 -0.6827  0.0576
 4358SOL    HW124707   0.147   2.641  13.891 -0.8559 -1.3738  2.6500
 4358SOL    HW224708   0.155   2.792  13.852 -1.2941 -1.0187 -1.0398
 4359SOL     OW24709   3.665   4.337   4.460  0.4766  0.1119  0.3151
 4359SOL    HW124710   3.595   4.320   4.523 -0.7579 -0.8541 -1.3492
 4359SOL    HW224711   3.738   4.292   4.504 -0.0340 -0.5555  0.4772
 4360SOL     OW24712   0.562   2.536   5.212  0.4540 -0.2223  0.0206
 4360SOL    HW124713   0.656   2.548   5.224  0.2802 -0.4090  1.6063
 4360SOL    HW224714   0.530   2.600   5.275  1.2399 -0.0830  0.2820
 4361SOL     OW24715   0.589   1.732   1.511 -0.0858  0.6704  0.4098
 4361SOL    HW124716   0.539   1.655   1.538 -2.2156  1.3015 -1.7324
 4361SOL    HW224717   0.550   1.755   1.427 -0.0992  1.1721  0.5477
 4362SOL     OW24718   1.699   3.009   9.589  0.0410  0.0341 -0.2289
 4362SOL    HW124719   1.629   3.009   9.525 -0.5307 -0.5409  0.4056
 4362SOL    HW224720   1.719   3.103   9.591  0.0296 -0.0092  1.5124
 4363SOL     OW24721   1.208   2.409   6.175 -0.8242 -0.2261 -0.1834
 4363SOL    HW124722   1.297   2.439   6.192 -1.5403  1.4709  0.5815
 4363SOL    HW224723   1.166   2.436   6.257 -3.0405 -0.5083 -1.2223
 4364SOL     OW24724   1.523   4.130  11.766  0.3270 -0.4830 -0.2483
 4364SOL    HW124725   1.429   4.141  11.784  0.4278  0.2079 -0.1156
 4364SOL    HW224726   1.550   4.189  11.696 -3.6709  1.3218 -0.3021
 4365SOL     OW24727   4.341   4.372   8.571  0.5761 -0.3032 -0.1375
 4365SOL    HW124728   4.361   4.453   8.524 -1.9381  0.8308  0.7291
 4365SOL    HW224729   4.386   4.311   8.512  1.4676 -1.0775  1.3530
 4366SOL     OW24730   3.863   2.083   4.220  0.1167 -0.0870 -0.1326
 4366SOL    HW124731   3.815   2.020   4.167 -1.5113  0.3329  0.8313
 4366SOL    HW224732   3.786   2.131   4.252  1.1728  1.1973  0.4779
 4367SOL     OW24733   3.834   2.934   7.992  0.3700 -0.0032 -0.1324
 4367SOL    HW124734   3.782   3.014   7.986  1.8180  0.9178 -0.3663
 4367SOL    HW224735   3.894   2.962   8.061 -0.1489 -0.8670  0.6685
 4368SOL     OW24736   3.696   1.581   7.322  0.7562 -0.5267 -1.0191
 4368SOL    HW124737   3.750   1.535   7.386  0.4437  1.9743  1.0403
 4368SOL    HW224738   3.625   1.518   7.307  0.3861 -0.6679  1.2515
 4369SOL     OW24739   2.923   4.210  13.043 -0.0860 -0.3093  0.6801
 4369SOL    HW124740   2.848   4.268  13.032 -0.8868 -0.9352  3.0658
 4369SOL    HW224741   2.993   4.256  12.995  0.1859 -0.1506  1.2303
 4370SOL     OW24742   0.736   3.335  13.425 -0.2743 -0.1176 -0.0178
 4370SOL    HW124743   0.656   3.363  13.469 -0.7834 -0.6854 -0.5869
 4370SOL    HW224744   0.787   3.415  13.413  1.1602 -1.0529 -0.1325
 4371SOL     OW24745   2.419   3.232   6.434  0.1160  0.1480 -0.6536
 4371SOL    HW124746   2.487   3.164   6.438  0.1521  0.0549 -2.6395
 4371SOL    HW224747   2.388   3.228   6.524 -1.0979  0.9476 -1.0382
 4372SOL     OW24748   0.007   3.995   5.028  0.2599  0.5554  0.0320
 4372SOL    HW124749   0.023   3.914   4.980 -2.0908  0.1872 -0.1255
 4372SOL    HW224750   4.699   4.034   4.952  0.9124  4.5395  1.6989
 4373SOL     OW24751   3.427   2.826   9.620 -0.3048  0.0776 -0.1326
 4373SOL    HW124752   3.433   2.795   9.530 -0.0920 -2.2672  0.6950
 4373SOL    HW224753   3.514   2.808   9.654  1.7742  1.8689 -4.5527
 4374SOL     OW24754   4.597   2.618   7.458  0.1863 -0.3302  0.2680
 4374SOL    HW124755   4.635   2.677   7.392 -1.2679 -0.3904 -0.6424
 4374SOL    HW224756   4.558   2.549   7.403 -0.5168 -0.4657  0.9349
 4375SOL     OW24757   2.817   4.013   2.677  0.3538 -0.3880  0.2508
 4375SOL    HW124758   2.744   4.053   2.630 -0.5033 -1.1414  0.9535
 4375SOL    HW224759   2.857   4.093   2.710 -0.1663  0.4756 -1.2019
 4376SOL     OW24760   2.419   2.864   4.677 -0.5336  0.2267 -0.3891
 4376SOL    HW124761   2.441   2.779   4.715  0.8870  1.3374  1.2621
 4376SOL    HW224762   2.416   2.844   4.584 -1.1898 -0.8023 -0.1530
 4377SOL     OW24763   0.270   4.732  11.098  0.3033 -0.0838 -0.5781
 4377SOL    HW124764   0.318   4.676  11.038 -1.8875 -1.4127 -1.0736
 4377SOL    HW224765   0.279   4.687  11.182 -2.1186 -0.4350 -0.4874
 4378SOL     OW24766   3.362   0.271   4.162 -0.2752  0.4414  0.5596
 4378SOL    HW124767   3.424   0.219   4.213 -0.0729  1.2903  1.1771
 4378SOL    HW224768   3.281   0.270   4.214  1.2840 -2.1157  2.9264
 4379SOL     OW24769   1.655   0.296   9.031  0.1523  0.7644  0.1599
 4379SOL    HW124770   1.653   0.283   8.936 -1.6697  0.8126  0.1975
 4379SOL    HW224771   1.568   0.335   9.040  0.2757  1.3600 -1.1625
 4380SOL     OW24772   1.950   1.069   7.126  0.2136 -0.4124  0.0245
 4380SOL    HW124773   2.039   1.056   7.092  0.3841  0.1287  0.2686
 4380SOL    HW224774   1.951   1.047   7.219  2.0321  1.5479  0.4746
 4381SOL     OW24775   0.336   3.848   5.508 -0.0656 -0.3376 -0.3771
 4381SOL    HW124776   0.422   3.811   5.525 -0.5993 -0.1996  2.6212
 4381SOL    HW224777   0.289   3.776   5.550 -3.0249  1.3874 -0.7331
 4382SOL     OW24778   2.620   4.554   6.657  0.0917  0.4512  0.1671
 4382SOL    HW124779   2.584   4.480   6.704 -0.2012 -0.9793 -2.2934
 4382SOL    HW224780   2.559   4.550   6.584  0.2393  0.0417  0.0691
 4383SOL     OW24781   4.151   1.841   5.375 -0.0850  0.1354 -0.0021
 4383SOL    HW124782   4.149   1.889   5.458 -1.8480  0.7813 -0.4084
 4383SOL    HW224783   4.066   1.855   5.332  1.2136  0.2081 -2.5194
 4384SOL     OW24784   4.396   4.206  15.861 -0.1978 -0.3297  0.5474
 4384SOL    HW124785   4.403   4.207  15.766  0.1666 -0.7856  0.5652
 4384SOL    HW224786   4.344   4.127  15.870 -0.9644  0.1885  0.6135
 4385SOL     OW24787   0.738   1.028   8.347 -0.6178 -0.1311  0.0243
 4385SOL    HW124788   0.775   0.951   8.304  1.5671 -0.0471  1.7068
 4385SOL    HW224789   0.791   1.020   8.427 -0.3565  1.3940  0.0157
 4386SOL     OW24790   4.704   3.536   5.898 -0.1822  0.2831 -0.7535
 4386SOL    HW124791   0.044   3.486   5.863  0.6736  2.0372 -1.4387
 4386SOL    HW224792   4.703   3.621   5.854  1.5600  0.6088 -0.1638
 4387SOL     OW24793   0.065   0.123   1.022 -0.1281  0.3631 -0.5306
 4387SOL    HW124794   0.012   0.137   1.101  0.0479  1.3245 -0.5761
 4387SOL    HW224795   0.006   0.066   0.974  0.7733 -0.0484 -1.1419
 4388SOL     OW24796   4.119   2.131   7.161  0.6004  0.6721  0.3849
 4388SOL    HW124797   4.159   2.137   7.247  2.3618  1.4383 -0.4758
 4388SOL    HW224798   4.195   2.088   7.121 -0.0787  1.1183 -1.3961
 4389SOL     OW24799   1.476   2.407  16.399  0.1157 -0.3776 -0.0688
 4389SOL    HW124800   1.401   2.449  16.357  0.3959 -1.9812 -2.1650
 4389SOL    HW224801   1.438   2.391  16.486  1.0184  0.3440  0.4469
 4390SOL     OW24802   2.982   0.776   4.324 -0.5228 -0.0247 -0.4612
 4390SOL    HW124803   2.903   0.736   4.288 -0.9218  1.4014 -1.1960
 4390SOL    HW224804   2.975   0.860   4.279 -0.7463 -0.0090 -0.3946
 4391SOL     OW24805   3.155   0.410   7.976 -0.0677 -0.0838 -0.6171
 4391SOL    HW124806   3.239   0.421   8.019 -1.9273 -0.4556  3.1554
 4391SOL    HW224807   3.120   0.494   8.007  0.1198 -1.1233  2.4515
 4392SOL     OW24808   1.241   3.957  14.457  1.0123 -0.3196  0.8907
 4392SOL    HW124809   1.297   3.998  14.390  0.1947  2.3373  1.8458
 4392SOL    HW224810   1.241   4.033  14.515  0.8423  0.6792 -0.4041
 4393SOL     OW24811   3.922   0.921   9.252  0.1437 -0.0520  0.0083
 4393SOL    HW124812   3.907   0.828   9.268 -0.0429  0.1589  1.0865
 4393SOL    HW224813   3.885   0.940   9.166 -0.6188 -0.1864  0.3069
 4394SOL     OW24814   0.498   0.410   3.340 -0.2112  0.2619 -0.0745
 4394SOL    HW124815   0.485   0.317   3.355  2.8969 -0.3649 -1.1498
 4394SOL    HW224816   0.530   0.444   3.424  0.4654 -0.7358  0.0726
 4395SOL     OW24817   4.672   3.473   0.212  0.5074  0.0558 -0.5475
 4395SOL    HW124818   4.726   3.549   0.191  0.3311  0.1929 -0.5006
 4395SOL    HW224819   4.712   3.444   0.294 -0.9381 -0.6411 -0.1043
 4396SOL     OW24820   0.165   0.493   1.145 -0.1346 -0.2326  0.4959
 4396SOL    HW124821   0.203   0.536   1.222 -1.7197  1.7343  0.1989
 4396SOL    HW224822   0.208   0.408   1.149 -0.7173 -0.5144  0.8445
 4397SOL     OW24823   1.504   3.594   7.603  0.2841 -0.6660  0.4156
 4397SOL    HW124824   1.439   3.577   7.671 -0.2314  1.5977  0.4846
 4397SOL    HW224825   1.586   3.588   7.653 -0.0920 -0.9598  0.9971
 4398SOL     OW24826   1.087   0.421   8.694  0.0154 -0.4392 -0.2992
 4398SOL    HW124827   1.076   0.374   8.611 -2.5469 -1.0922  0.4245
 4398SOL    HW224828   1.105   0.510   8.664  0.9531 -0.7128 -0.5513
 4399SOL     OW24829   0.987   3.849   1.656 -0.1604  0.2016 -0.0872
 4399SOL    HW124830   1.080   3.864   1.643  0.3859 -1.0660  2.4133
 4399SOL    HW224831   0.986   3.760   1.691 -0.4707 -0.0014 -0.6053
 4400SOL     OW24832   0.366   1.223   4.890  0.0235 -0.0521 -0.7783
 4400SOL    HW124833   0.352   1.265   4.805 -0.0173  2.9270  0.6924
 4400SOL    HW224834   0.436   1.273   4.933  0.1296 -1.0074  0.1348
 4401SOL     OW24835   2.994   1.572   7.587 -0.4269  0.3758 -0.2338
 4401SOL    HW124836   3.076   1.620   7.592 -0.0668 -0.1582 -1.0395
 4401SOL    HW224837   2.951   1.614   7.662 -1.2533  0.0294 -0.5070
 4402SOL     OW24838   4.058   3.427   7.194 -0.3176  0.0863 -0.3472
 4402SOL    HW124839   4.018   3.500   7.147 -0.6746 -0.6482 -1.1860
 4402SOL    HW224840   4.010   3.427   7.277 -1.5015  1.2783 -1.0319
 4403SOL     OW24841   0.969   3.412   5.139 -0.1238 -0.2778  0.1812
 4403SOL    HW124842   0.896   3.361   5.174 -0.7994 -0.6727 -1.8324
 4403SOL    HW224843   0.955   3.390   5.047  0.1123  0.0562  0.0691
 4404SOL     OW24844   0.673   4.309  11.548 -0.2711 -0.0113  0.1778
 4404SOL    HW124845   0.705   4.396  11.569  2.6788 -0.8066 -1.1007
 4404SOL    HW224846   0.621   4.325  11.469 -1.2228 -1.4219  0.5098
 4405SOL     OW24847   0.851   1.936   2.477 -0.3336  0.1288 -0.1793
 4405SOL    HW124848   0.845   1.886   2.396 -1.0581  1.7897 -1.1428
 4405SOL    HW224849   0.837   1.867   2.542  0.1838 -0.2330 -0.4517
 4406SOL     OW24850   3.490   3.868   8.384 -0.2989 -0.4772 -0.1300
 4406SOL    HW124851   3.577   3.878   8.425 -1.4605 -1.3246  2.5432
 4406SOL    HW224852   3.500   3.924   8.307  0.7886 -0.8570 -0.2744
 4407SOL     OW24853   0.950   0.523   4.555  0.5795 -0.2323  0.0188
 4407SOL    HW124854   1.025   0.492   4.606  0.1669  1.6114  1.7635
 4407SOL    HW224855   0.974   0.614   4.535 -0.2094 -0.1298 -0.4748
 4408SOL     OW24856   1.091   3.857   6.378  0.1703  0.1797 -0.1762
 4408SOL    HW124857   1.064   3.798   6.308  1.1664  1.6126 -1.7596
 4408SOL    HW224858   1.072   3.943   6.339  1.2906 -0.2061 -1.5706
 4409SOL     OW24859   0.095   3.088   1.915 -0.3232 -0.2022 -0.3815
 4409SOL    HW124860   0.103   3.155   1.847 -2.4669  0.1376 -0.3003
 4409SOL    HW224861   0.163   3.032   1.879 -2.3789 -1.5182 -2.1709
 4410SOL     OW24862   0.568   0.628  15.988 -0.4223  0.2295  0.1018
 4410SOL    HW124863   0.615   0.684  15.926  0.7962 -0.4657  0.3992
 4410SOL    HW224864   0.627   0.635  16.063  0.3678 -0.5635 -0.4520
 4411SOL     OW24865   0.314   4.580  13.826  0.2700  0.1347 -0.3930
 4411SOL    HW124866   0.294   4.652  13.887 -1.3020  0.3682 -1.1824
 4411SOL    HW224867   0.243   4.519  13.845  0.0464  0.1109 -1.3265
 4412SOL     OW24868   0.341   2.377   7.902  0.0380  0.2004  0.0488
 4412SOL    HW124869   0.280   2.428   7.955 -1.3253  0.3218 -1.6351
 4412SOL    HW224870   0.287   2.302   7.875 -0.9762  0.2567  1.8896
 4413SOL     OW24871   1.968   3.290  16.247  0.1800  0.0526 -0.3910
 4413SOL    HW124872   1.982   3.216  16.307  0.2350  1.4581  1.3152
 4413SOL    HW224873   1.904   3.334  16.303 -0.4267  0.4986 -1.4259
 4414SOL     OW24874   1.171   0.346   5.567  0.5085 -0.1241  0.0333
 4414SOL    HW124875   1.124   0.288   5.626 -1.1591  1.6122  0.4026
 4414SOL    HW224876   1.224   0.286   5.515  2.4647  0.1790  1.6735
 4415SOL     OW24877   0.495   0.107  14.299 -0.1222  0.2877 -0.4697
 4415SOL    HW124878   0.424   0.087  14.238 -1.5220  1.2894  0.8244
 4415SOL    HW224879   0.437   0.115  14.375  1.6687  0.5625  0.8646
 4416SOL     OW24880   2.410   2.817   3.591 -0.4524  0.1157 -0.2172
 4416SOL    HW124881   2.327   2.821   3.638  0.6582  1.2526  1.6771
 4416SOL    HW224882   2.387   2.772   3.510  3.4620 -0.6426 -0.9181
 4417SOL     OW24883   0.518   1.324  11.548  0.6985 -0.5811  0.1148
 4417SOL    HW124884   0.471   1.241  11.545  1.3106 -0.9892  2.3825
 4417SOL    HW224885   0.599   1.302  11.595  2.0627 -1.6546 -2.7135
 4418SOL     OW24886   3.456   2.924   5.236  0.0734  0.0038  0.4372
 4418SOL    HW124887   3.550   2.908   5.236  0.2307  0.9435 -0.9023
 4418SOL    HW224888   3.438   2.958   5.324  0.3451 -0.1656  0.5603
 4419SOL     OW24889   4.615   2.518   3.918  0.4317 -0.2385 -0.2220
 4419SOL    HW124890   4.606   2.448   3.983  1.6126 -1.0926 -0.9692
 4419SOL    HW224891   4.523   2.530   3.894  0.5953  1.3026 -0.0425
 4420SOL     OW24892   4.702   2.580   2.877  0.1326  0.1191  0.1581
 4420SOL    HW124893   4.636   2.628   2.826 -0.9341 -1.5821 -0.1045
 4420SOL    HW224894   0.048   2.607   2.834 -0.3834  0.4131 -0.6360
 4421SOL     OW24895   2.418   0.160   3.809  0.3037 -0.7303 -0.3085
 4421SOL    HW124896   2.487   0.218   3.776  2.3205 -3.8704 -1.6898
 4421SOL    HW224897   2.407   0.106   3.731  1.0258 -0.5300 -0.5578
 4422SOL     OW24898   3.406   4.255   2.998  0.3660  0.5497  0.1242
 4422SOL    HW124899   3.356   4.265   2.917 -1.2427 -1.1362  0.9267
 4422SOL    HW224900   3.343   4.235   3.066  1.0881 -2.6452 -0.1053
 4423SOL     OW24901   2.247   3.444   6.451  0.1868 -0.1011  0.7499
 4423SOL    HW124902   2.291   3.359   6.451  1.3868  0.5047 -1.2749
 4423SOL    HW224903   2.270   3.474   6.539  1.4362  3.1873 -0.7070
 4424SOL     OW24904   0.292   2.797  17.562 -0.0298  0.1169 -0.1067
 4424SOL    HW124905   0.363   2.804  17.497  0.8804 -2.1654  0.6522
 4424SOL    HW224906   0.292   2.701  17.566  0.1110  0.0944 -0.6417
 4425SOL     OW24907   1.521   1.118   5.711 -0.5461  0.0207  0.1038
 4425SOL    HW124908   1.492   1.026   5.707 -1.3585  0.3434 -1.4919
 4425SOL    HW224909   1.581   1.119   5.786 -0.8991  2.2812  0.3612
 4426SOL     OW24910   4.331   0.699   7.829 -0.1987  0.9454 -0.6091
 4426SOL    HW124911   4.310   0.742   7.913 -1.5747  0.6059 -0.7709
 4426SOL    HW224912   4.316   0.606   7.846 -0.6739  1.0889 -0.2269
 4427SOL     OW24913   2.109   2.601   7.247 -0.5360 -0.2753  0.2564
 4427SOL    HW124914   2.134   2.510   7.231 -0.9087 -0.2582 -0.3925
 4427SOL    HW224915   2.064   2.592   7.331  0.1205 -0.7803  0.5565
 4428SOL     OW24916   1.484   1.366  12.185 -0.6534 -0.0654  0.0071
 4428SOL    HW124917   1.434   1.408  12.115 -0.7831 -2.5294 -1.3806
 4428SOL    HW224918   1.413   1.323  12.233 -0.7446 -1.0082 -0.9813
 4429SOL     OW24919   3.278   2.541  13.099  0.0132  0.8204  0.0816
 4429SOL    HW124920   3.349   2.509  13.044 -0.0268  0.4188  0.2607
 4429SOL    HW224921   3.231   2.457  13.105  3.4939 -0.9822  2.1282
 4430SOL     OW24922   3.090   3.556   9.367  0.2923 -0.1327 -0.6209
 4430SOL    HW124923   3.096   3.536   9.460  0.7182  0.3662 -0.5424
 4430SOL    HW224924   3.078   3.466   9.337 -1.3226 -0.5542  1.2795
 4431SOL     OW24925   1.035   2.267  17.478 -0.5758 -0.0990 -0.2945
 4431SOL    HW124926   1.108   2.205  17.479 -0.5715 -0.1189 -1.6977
 4431SOL    HW224927   1.073   2.334  17.534 -0.5327  2.1443 -3.0388
 4432SOL     OW24928   1.225   3.319   8.634  0.3805 -0.0182 -0.2350
 4432SOL    HW124929   1.253   3.330   8.543  0.3102  1.2898 -0.1044
 4432SOL    HW224930   1.130   3.310   8.632  0.1497  2.8675 -2.8987
 4433SOL     OW24931   3.236   1.172   7.740 -0.1756 -0.1608  0.0659
 4433SOL    HW124932   3.270   1.246   7.689 -2.3507  2.0716  1.8535
 4433SOL    HW224933   3.257   1.212   7.825  1.4737 -0.0385 -0.3959
 4434SOL     OW24934   2.567   2.376   4.386 -0.7435  0.1759  0.3271
 4434SOL    HW124935   2.496   2.344   4.330 -0.7516  1.0744 -0.1734
 4434SOL    HW224936   2.599   2.449   4.334  0.3241 -1.4183 -1.2574
 4435SOL     OW24937   4.693   4.057   5.458  0.1249 -0.1023  0.0367
 4435SOL    HW124938   4.679   4.141   5.503  0.4947  0.0707 -0.1714
 4435SOL    HW224939   0.048   4.073   5.428  0.7094 -0.3080  1.6204
 4436SOL     OW24940   3.826   2.862   2.076 -0.3564  0.4042 -0.4250
 4436SOL    HW124941   3.851   2.860   2.169 -2.0809 -2.2180 -0.0074
 4436SOL    HW224942   3.824   2.958   2.075 -1.7704  0.3849 -0.3940
 4437SOL     OW24943   3.783   1.866   2.027  0.0338  0.7117 -0.2929
 4437SOL    HW124944   3.870   1.856   2.067 -0.3546  0.8707  0.5821
 4437SOL    HW224945   3.733   1.793   2.063  0.2962  0.8335  0.3272
 4438SOL     OW24946   0.810   3.941   9.014  0.0517  0.0817  0.0626
 4438SOL    HW124947   0.828   3.884   8.940 -0.9037  0.0971 -0.1801
 4438SOL    HW224948   0.893   3.988   9.026  1.0007 -2.1066  1.9958
 4439SOL     OW24949   0.826   0.861   8.109 -0.5389  0.5723 -0.3518
 4439SOL    HW124950   0.912   0.858   8.066 -1.1622  1.0344 -1.6543
 4439SOL    HW224951   0.772   0.855   8.030 -0.4506  0.2469 -0.3862
 4440SOL     OW24952   2.141   0.337   8.661 -0.2499  0.6679  0.6527
 4440SOL    HW124953   2.078   0.347   8.590  0.4057  0.0135 -0.0166
 4440SOL    HW224954   2.213   0.282   8.630  0.3038  1.6962  0.1440
 4441SOL     OW24955   4.559   0.481   9.796 -0.1717 -0.1317  0.1836
 4441SOL    HW124956   4.627   0.418   9.774 -0.3147 -0.0399 -0.5215
 4441SOL    HW224957   4.542   0.524   9.712 -0.1799  1.7529  1.1599
 4442SOL     OW24958   2.123   3.660  15.013 -0.2314 -0.1374  0.0981
 4442SOL    HW124959   2.137   3.584  14.955 -0.6336 -0.0732 -0.0834
 4442SOL    HW224960   2.071   3.620  15.082 -0.3673 -2.0757 -1.1252
 4443SOL     OW24961   3.868   0.511   3.595  0.5794 -0.2243 -0.3370
 4443SOL    HW124962   3.810   0.465   3.535 -3.5755  2.0543  1.9344
 4443SOL    HW224963   3.820   0.592   3.613 -2.7784 -1.0682 -5.6930
 4444SOL     OW24964   0.483   3.585   7.686  0.2319  0.1392  0.0674
 4444SOL    HW124965   0.547   3.585   7.757  2.7631 -1.1427 -2.2095
 4444SOL    HW224966   0.514   3.509   7.637  0.0263 -0.6361  1.1251
 4445SOL     OW24967   3.251   1.961   8.859  0.4182  0.2040  0.1895
 4445SOL    HW124968   3.194   2.037   8.873  0.2733 -0.0391  0.9239
 4445SOL    HW224969   3.240   1.946   8.765  0.7742  0.6678  0.0741
 4446SOL     OW24970   2.145   3.951   0.565  0.3498  0.0425 -0.0108
 4446SOL    HW124971   2.215   3.933   0.628 -1.2967  1.8085  2.3059
 4446SOL    HW224972   2.202   3.946   0.489 -0.0860 -0.1195 -0.3258
 4447SOL     OW24973   2.783   0.472   2.114  0.0555 -0.9501 -0.0602
 4447SOL    HW124974   2.878   0.466   2.114  0.2069  1.3772  1.5207
 4447SOL    HW224975   2.783   0.461   2.209 -0.6275  0.8049  0.1468
 4448SOL     OW24976   4.002   0.862  15.014 -0.4028 -0.4443 -0.0570
 4448SOL    HW124977   3.907   0.873  15.010 -0.3397  0.0688 -0.1521
 4448SOL    HW224978   4.013   0.767  15.019 -1.5666 -0.7014 -2.5919
 4449SOL     OW24979   1.663   2.746  12.985 -0.1734 -0.7790  0.5079
 4449SOL    HW124980   1.634   2.667  13.031  1.5163 -1.7713 -0.1382
 4449SOL    HW224981   1.755   2.720  12.989  0.7593  2.2006 -1.6953
 4450SOL     OW24982   1.326   0.531   2.988 -0.5031  0.1382  0.4933
 4450SOL    HW124983   1.294   0.614   2.953  0.3094  0.9333  1.6827
 4450SOL    HW224984   1.419   0.538   2.969 -0.9803 -0.2475 -2.0436
 4451SOL     OW24985   1.984   2.920  11.106  0.8856 -0.2130  0.2889
 4451SOL    HW124986   1.966   2.896  11.015 -0.1954  1.2418  0.1393
 4451SOL    HW224987   1.918   2.988  11.115 -1.1382 -2.3345  1.3371
 4452SOL     OW24988   2.537   1.911   6.881  0.1690 -0.7523  0.1171
 4452SOL    HW124989   2.551   1.980   6.816 -1.4348 -0.0834  0.4720
 4452SOL    HW224990   2.470   1.860   6.835  1.5298 -2.5484  0.1046
 4453SOL     OW24991   2.073   1.709   5.904  0.5245 -0.0920  0.0525
 4453SOL    HW124992   2.022   1.647   5.851 -0.1778 -0.6370  1.3764
 4453SOL    HW224993   2.011   1.777   5.929  0.7612  0.2061 -0.1767
 4454SOL     OW24994   0.945   2.388   2.495  1.0287  0.4159  0.3098
 4454SOL    HW124995   0.869   2.446   2.505 -1.3008 -2.9352  2.3363
 4454SOL    HW224996   0.921   2.308   2.542  0.4014 -0.2053 -1.0745
 4455SOL     OW24997   1.931   1.210   9.219 -0.2325 -0.2016  0.3499
 4455SOL    HW124998   1.903   1.284   9.165  1.9340 -0.0173 -0.5541
 4455SOL    HW224999   1.863   1.206   9.285  0.5614 -0.2618  1.1661
 4456SOL     OW25000   0.362   1.498   2.668  0.1643 -0.6933 -0.1833
 4456SOL    HW125001   0.444   1.477   2.624  1.7130  0.9709  1.8827
 4456SOL    HW225002   0.342   1.583   2.628 -0.3233  0.0498  1.5866
 4457SOL     OW25003   0.017   3.898   2.519  0.2652 -0.1706  0.2258
 4457SOL    HW125004   0.032   3.884   2.425  1.8649  0.7559  0.3432
 4457SOL    HW225005   0.103   3.933   2.541  1.5673 -3.7838  0.9483
 4458SOL     OW25006   1.729   0.639   7.155  0.5079  0.1125  0.4090
 4458SOL    HW125007   1.731   0.633   7.059  1.5580  0.0406  0.4343
 4458SOL    HW225008   1.755   0.731   7.159  0.0795  0.2959 -1.0783
 4459SOL     OW25009   4.470   0.538   2.023  0.6346 -0.2839  0.2830
 4459SOL    HW125010   4.498   0.463   1.971  1.2636 -0.4327  0.8424
 4459SOL    HW225011   4.536   0.564   2.087 -1.1667  1.2474  1.5446
 4460SOL     OW25012   4.483   1.866   1.074 -0.0661 -0.0338 -0.8745
 4460SOL    HW125013   4.396   1.903   1.062  0.2076  0.4566 -1.3373
 4460SOL    HW225014   4.510   1.860   0.983  0.5833  2.8541 -0.8605
 4461SOL     OW25015   3.324   0.835   8.326 -0.0882  0.0039 -0.0200
 4461SOL    HW125016   3.397   0.823   8.265  1.1442 -0.2073  1.4881
 4461SOL    HW225017   3.258   0.852   8.259 -0.0444  0.9583  0.1742
 4462SOL     OW25018   2.173   4.188   0.001 -0.3571 -0.4947  0.4074
 4462SOL    HW125019   2.089   4.223  17.709 -0.2672 -1.0757 -0.5080
 4462SOL    HW225020   2.212   4.275   0.003 -2.5958  0.4926  2.2094
 4463SOL     OW25021   4.655   4.608   9.146 -0.2156  0.5016 -0.1450
 4463SOL    HW125022   0.000   4.570   9.109  0.8655  1.1146  1.5683
 4463SOL    HW225023   4.596   4.621   9.071  1.7505 -1.7025 -2.0835
 4464SOL     OW25024   2.904   0.673   5.017  0.1317 -0.7306 -0.1017
 4464SOL    HW125025   2.920   0.736   5.088  2.2922 -1.3320 -0.0536
 4464SOL    HW225026   2.911   0.730   4.940 -2.0259 -0.2373  0.0537
 4465SOL     OW25027   2.773   4.375   0.259  0.6009  0.5881  0.2260
 4465SOL    HW125028   2.682   4.393   0.284  0.0501 -1.1919 -0.4732
 4465SOL    HW225029   2.758   4.355   0.166 -0.9942 -2.1058  1.0526
 4466SOL     OW25030   2.418   0.328  11.112 -0.0257  0.6490 -0.0072
 4466SOL    HW125031   2.465   0.391  11.167  0.8524  0.1457 -0.1781
 4466SOL    HW225032   2.372   0.278  11.179  1.4706  0.0782  0.6076
 4467SOL     OW25033   4.482   1.081   9.692 -0.2069  0.0481 -0.0225
 4467SOL    HW125034   4.451   1.015   9.754 -2.7826 -0.4085 -1.7985
 4467SOL    HW225035   4.410   1.122   9.644 -0.0805 -2.4298 -2.3203
 4468SOL     OW25036   0.850   1.981   2.823 -0.0789 -0.1322 -0.2792
 4468SOL    HW125037   0.861   1.891   2.794  0.1565 -0.6057  1.2759
 4468SOL    HW225038   0.801   1.970   2.904  2.5543 -1.2787  1.1376
 4469SOL     OW25039   0.127   1.689   7.583 -0.1544  0.3161  0.2157
 4469SOL    HW125040   0.113   1.761   7.522  0.4644 -0.9574 -1.4384
 4469SOL    HW225041   0.062   1.701   7.652  2.2771 -0.2196  2.5998
 4470SOL     OW25042   1.752   0.895   4.898 -0.5564  0.8427 -0.2406
 4470SOL    HW125043   1.816   0.874   4.830 -2.5763  3.9885 -3.1450
 4470SOL    HW225044   1.791   0.836   4.962  0.0302 -0.7601 -2.0565
 4471SOL     OW25045   2.827   0.170   2.218  0.3368 -0.1473  0.2565
 4471SOL    HW125046   2.914   0.197   2.247  0.6793 -0.0485 -0.8789
 4471SOL    HW225047   2.843   0.165   2.124 -0.8184  0.0237  0.0519
 4472SOL     OW25048   2.912   2.373   6.788  0.2532 -0.1459 -0.6657
 4472SOL    HW125049   2.817   2.357   6.791  0.1150  0.8496  0.3474
 4472SOL    HW225050   2.935   2.378   6.881 -0.6860 -0.6746 -0.3996
 4473SOL     OW25051   1.640   0.269  12.351 -0.4035  0.2282 -0.3785
 4473SOL    HW125052   1.726   0.239  12.381 -0.8040 -3.8713 -3.3623
 4473SOL    HW225053   1.605   0.287  12.438  1.4264 -1.5804  0.7391
 4474SOL     OW25054   0.754   2.372   7.347 -0.1922  0.8021  0.4863
 4474SOL    HW125055   0.820   2.396   7.413 -3.3248  0.5950  3.6872
 4474SOL    HW225056   0.672   2.408   7.380 -1.1670 -1.8341  0.8655
 4475SOL     OW25057   3.647   2.372  12.773  0.1672  0.1653  0.6530
 4475SOL    HW125058   3.575   2.369  12.710  1.8637 -1.5128 -1.2068
 4475SOL    HW225059   3.611   2.432  12.838 -1.5728 -1.0604  0.8281
 4476SOL     OW25060   0.815   3.229  15.695 -0.6207  0.3205 -0.5096
 4476SOL    HW125061   0.788   3.312  15.655  0.5608  1.6825  1.5802
 4476SOL    HW225062   0.725   3.198  15.707 -0.4934  0.0054 -0.3752
 4477SOL     OW25063   1.659   2.757   2.803  0.5194 -0.4190 -0.7464
 4477SOL    HW125064   1.608   2.683   2.837 -0.5225  0.2968 -0.7234
 4477SOL    HW225065   1.604   2.828   2.837  0.7838 -0.1832 -0.8150
 4478SOL     OW25066   0.749   4.094   7.885 -0.6664 -0.1991  0.0280
 4478SOL    HW125067   0.710   4.033   7.823 -1.3615  0.5192 -0.2506
 4478SOL    HW225068   0.698   4.080   7.965  0.1250 -0.4488  0.4887
 4479SOL     OW25069   2.900   3.038   0.947  0.7074  0.5166 -0.0112
 4479SOL    HW125070   2.953   3.108   0.908  1.1805 -1.1948 -2.4373
 4479SOL    HW225071   2.954   2.960   0.940 -0.2803 -0.4092  2.8723
 4480SOL     OW25072   0.733   2.619   6.811 -0.0397  0.6067 -0.7045
 4480SOL    HW125073   0.786   2.540   6.803  1.1326  1.5318 -1.9646
 4480SOL    HW225074   0.650   2.578   6.837  1.1634 -1.0785  0.4007
 4481SOL     OW25075   4.408   4.585   3.275 -0.1940  0.6030  0.3876
 4481SOL    HW125076   4.389   4.677   3.255 -2.0532 -0.1004 -1.1336
 4481SOL    HW225077   4.338   4.542   3.226  1.8049 -0.5046 -1.4603
 4482SOL     OW25078   1.512   1.992   5.343  0.1252 -0.5107 -0.0730
 4482SOL    HW125079   1.442   1.927   5.344 -1.5896  1.3219 -1.3059
 4482SOL    HW225080   1.476   2.069   5.386 -1.3759 -2.0546  1.4230
 4483SOL     OW25081   0.763   3.900   7.695 -0.2800  0.3858 -0.6642
 4483SOL    HW125082   0.695   3.881   7.630 -0.4203 -1.2473 -0.0382
 4483SOL    HW225083   0.822   3.954   7.642 -2.0985  1.1753 -1.8866
 4484SOL     OW25084   1.792   0.832  12.541 -0.1037  0.3764  0.2711
 4484SOL    HW125085   1.800   0.761  12.605 -0.7743  0.3777  0.3488
 4484SOL    HW225086   1.698   0.818  12.529 -0.2452  1.0789  0.6120
 4485SOL     OW25087   1.455   3.223  15.512 -0.5597 -0.0298 -0.3589
 4485SOL    HW125088   1.399   3.283  15.560  0.0085  0.8820 -0.8465
 4485SOL    HW225089   1.422   3.235  15.423 -1.6903  2.3818  0.4149
 4486SOL     OW25090   4.586   1.038   8.198  0.1466  0.0311  0.4506
 4486SOL    HW125091   4.555   1.085   8.276 -3.1683 -0.5951 -0.5030
 4486SOL    HW225092   4.627   1.109   8.147 -1.1378 -1.4288 -2.6373
 4487SOL     OW25093   3.321   3.670   4.289 -0.2040  0.0402  0.1769
 4487SOL    HW125094   3.367   3.658   4.206  1.8660  1.0282  1.1630
 4487SOL    HW225095   3.396   3.675   4.348 -0.6259  0.8496  0.6479
 4488SOL     OW25096   3.813   3.158  16.439 -0.0674 -0.6296  0.2246
 4488SOL    HW125097   3.804   3.067  16.466 -0.4064 -0.2212  1.4783
 4488SOL    HW225098   3.898   3.158  16.395  0.3216 -1.5283  0.9777
 4489SOL     OW25099   2.917   3.359   0.501  0.3432  0.1204  0.2644
 4489SOL    HW125100   2.937   3.266   0.490  0.9750  0.1325  1.3337
 4489SOL    HW225101   2.992   3.399   0.545  1.6332 -2.0934  0.0790
 4490SOL     OW25102   4.156   1.700   8.261 -0.0517  0.4734  0.6094
 4490SOL    HW125103   4.221   1.684   8.329 -0.9621 -1.3027  1.0631
 4490SOL    HW225104   4.184   1.659   8.179  2.8920  2.2462  0.7519
 4491SOL     OW25105   3.414   4.529   9.156  0.3928  0.1587  0.0802
 4491SOL    HW125106   3.475   4.471   9.111  1.3400  1.3952 -0.2364
 4491SOL    HW225107   3.343   4.468   9.175  1.3607 -1.5340 -1.6396
 4492SOL     OW25108   1.630   4.664  12.805  0.1538 -0.3577 -0.1024
 4492SOL    HW125109   1.706   4.676  12.862 -0.6286 -0.1809  0.9010
 4492SOL    HW225110   1.664   4.674  12.716 -2.2614 -0.7831 -1.1003
 4493SOL     OW25111   3.107   4.627   7.055  0.1741  0.4431  0.1404
 4493SOL    HW125112   3.114   4.600   7.147 -0.4290 -0.4209 -0.0677
 4493SOL    HW225113   3.015   4.603   7.042 -0.2578  1.3717  1.4384
 4494SOL     OW25114   0.295   2.986   5.413 -0.8436  0.4955  0.3517
 4494SOL    HW125115   0.275   3.015   5.502 -1.1776 -0.8294  0.7027
 4494SOL    HW225116   0.225   2.925   5.389 -2.0464  2.3552 -0.8939
 4495SOL     OW25117   1.655   1.948   2.232 -0.6666 -0.0365  0.3984
 4495SOL    HW125118   1.693   1.894   2.163 -2.0998 -1.5372  0.8029
 4495SOL    HW225119   1.575   1.984   2.194 -2.2195 -2.9193  1.0123
 4496SOL     OW25120   1.086   1.467   1.807  0.0050  0.2903  0.7559
 4496SOL    HW125121   1.014   1.509   1.855 -0.4319 -1.8799  2.0353
 4496SOL    HW225122   1.153   1.528   1.777 -0.4412  0.5971  0.3755
 4497SOL     OW25123   0.785   0.782  10.916 -0.0514  0.3067 -0.1894
 4497SOL    HW125124   0.697   0.819  10.920 -0.2656 -0.3298  1.0716
 4497SOL    HW225125   0.797   0.764  11.009 -0.0763 -1.5274 -0.5339
 4498SOL     OW25126   4.088   4.711   7.766 -0.3657  0.4288 -0.4416
 4498SOL    HW125127   4.028   4.675   7.700 -1.1434  2.3909 -0.7865
 4498SOL    HW225128   4.034   4.700   7.845  0.7247  0.8951  0.3577
 4499SOL     OW25129   3.203   2.315  17.338 -0.6804  0.0713 -0.1885
 4499SOL    HW125130   3.183   2.395  17.387  2.1982  1.5929 -1.4848
 4499SOL    HW225131   3.111   2.304  17.314 -0.3530 -1.8326 -0.5853
 4500SOL     OW25132   3.257   3.466   6.136 -0.3560  0.6720  0.3121
 4500SOL    HW125133   3.208   3.482   6.055  0.7469  2.8185  0.0857
 4500SOL    HW225134   3.345   3.490   6.107 -1.4409  1.0926 -2.6602
 4501SOL     OW25135   4.110   3.601  16.536 -0.7288  0.2533  0.1269
 4501SOL    HW125136   4.067   3.531  16.487 -0.1024 -0.1657  0.1784
 4501SOL    HW225137   4.037   3.663  16.530  0.3146  1.1779 -3.0245
 4502SOL     OW25138   1.771   3.359   8.573 -0.8210 -0.8040 -0.1288
 4502SOL    HW125139   1.827   3.326   8.644 -0.2562  0.5704  0.0710
 4502SOL    HW225140   1.701   3.294   8.568 -2.5519  1.0546  0.1027
 4503SOL     OW25141   0.797   0.236  17.675  0.0091  0.4800  0.3704
 4503SOL    HW125142   0.789   0.266   0.027  2.9564  0.9919  0.4608
 4503SOL    HW225143   0.864   0.167  17.674  0.7888  1.2363  0.5355
 4504SOL     OW25144   1.151   2.660   2.160 -0.2478  0.7381 -0.0233
 4504SOL    HW125145   1.148   2.755   2.150  0.0008  0.6397 -1.0156
 4504SOL    HW225146   1.144   2.658   2.256  0.3784  1.1380  0.0351
 4505SOL     OW25147   1.403   2.961   9.488  0.0832  0.0788  0.0062
 4505SOL    HW125148   1.395   2.866   9.498  1.5665  0.0469  0.8961
 4505SOL    HW225149   1.364   2.975   9.401  0.4193 -0.3433 -0.2128
 4506SOL     OW25150   4.072   1.250   6.015 -0.3700  0.1693  0.1093
 4506SOL    HW125151   4.052   1.212   6.101 -3.5397  0.4577 -0.4920
 4506SOL    HW225152   4.006   1.205   5.962  0.3232  0.8995 -1.3800
 4507SOL     OW25153   3.373   2.919  11.250  0.4904  0.3737 -0.2320
 4507SOL    HW125154   3.330   2.925  11.336  0.2109  1.3849 -0.4385
 4507SOL    HW225155   3.404   2.829  11.253 -0.7540 -0.0511  0.1945
 4508SOL     OW25156   3.882   0.041  15.543 -0.3238 -0.0343 -0.0447
 4508SOL    HW125157   3.897   0.104  15.473 -0.1406 -0.1650 -0.1230
 4508SOL    HW225158   3.955   4.714  15.535  1.4131  1.6678  2.5683
 4509SOL     OW25159   2.385   2.884   7.321  0.0836  0.5786  0.1953
 4509SOL    HW125160   2.414   2.880   7.412 -0.2235  0.0337  0.2639
 4509SOL    HW225161   2.314   2.949   7.324  0.8783  1.4099  0.9618
 4510SOL     OW25162   2.748   1.966   6.283 -0.7732  0.3137 -0.4207
 4510SOL    HW125163   2.799   2.032   6.329 -1.3449 -0.2271  1.0094
 4510SOL    HW225164   2.662   2.008   6.287 -0.1092  1.9396 -3.4304
 4511SOL     OW25165   4.355   1.867   1.372  0.3151  0.1791 -0.4254
 4511SOL    HW125166   4.407   1.797   1.333 -0.0485  0.9688 -2.2972
 4511SOL    HW225167   4.432   1.905   1.414  0.3087 -0.6211  0.3066
 4512SOL     OW25168   1.155   2.263   8.229  0.5475  0.3109 -0.0041
 4512SOL    HW125169   1.113   2.262   8.315  0.3546  1.7964 -0.0843
 4512SOL    HW225170   1.247   2.281   8.250  0.8039 -0.6724 -0.2815
 4513SOL     OW25171   1.457   3.064  13.075  0.1807 -0.6560 -0.1361
 4513SOL    HW125172   1.448   3.154  13.106 -0.9242 -0.5017 -0.9088
 4513SOL    HW225173   1.386   3.023  13.124  0.7673 -1.0724  0.3616
 4514SOL     OW25174   0.325   2.321   3.751 -0.1093 -0.0377  0.5178
 4514SOL    HW125175   0.410   2.319   3.707  0.0917  1.0446  0.8440
 4514SOL    HW225176   0.309   2.227   3.750 -0.8734  0.1093 -0.9497
 4515SOL     OW25177   2.704   4.606   8.610 -0.2767 -0.4061 -0.1996
 4515SOL    HW125178   2.790   4.614   8.567  0.7327 -1.5643  1.6352
 4515SOL    HW225179   2.674   4.697   8.606 -0.8012 -0.5544  0.4893
 4516SOL     OW25180   0.101   0.512  16.918  0.3636  0.1642  0.3749
 4516SOL    HW125181   0.095   0.607  16.908 -1.0566 -0.2022 -2.1644
 4516SOL    HW225182   0.185   0.517  16.963 -0.0452 -2.9018  1.5101
 4517SOL     OW25183   4.076   0.462   0.776  0.4014 -0.5382 -0.0049
 4517SOL    HW125184   4.093   0.455   0.870 -1.5275  0.1741  0.3843
 4517SOL    HW225185   4.002   0.522   0.781  1.1500  0.5436 -1.7895
 4518SOL     OW25186   1.243   2.117   7.978 -0.5326  0.2609  0.4613
 4518SOL    HW125187   1.190   2.121   7.898 -2.6711  0.4739  1.8885
 4518SOL    HW225188   1.189   2.159   8.044 -0.5428 -0.7471  1.1031
 4519SOL     OW25189   2.057   2.879  10.607 -0.6414  0.4528 -0.0090
 4519SOL    HW125190   2.022   2.841  10.526  1.3430  1.2303 -1.2345
 4519SOL    HW225191   2.120   2.943  10.573  0.7954 -0.1276  1.5212
 4520SOL     OW25192   4.249   0.148  14.992  0.6158  0.1171  0.3544
 4520SOL    HW125193   4.217   0.229  14.953  2.0564  0.7089  0.4320
 4520SOL    HW225194   4.318   0.176  15.052  0.6375  0.8966 -0.0339
 4521SOL     OW25195   4.578   3.226   2.650 -0.4150  0.3142  0.1540
 4521SOL    HW125196   4.504   3.169   2.667 -0.1724 -0.3807 -1.1127
 4521SOL    HW225197   4.634   3.204   2.725 -0.3561  1.0078  0.3157
 4522SOL     OW25198   3.527   1.060   2.213 -0.4697 -0.0414 -0.2246
 4522SOL    HW125199   3.458   1.127   2.208 -0.9435 -0.5086  0.1212
 4522SOL    HW225200   3.574   1.085   2.134  1.1240 -0.4167  0.6126
 4523SOL     OW25201   2.315   4.298   4.050 -0.4108  0.2108 -0.0335
 4523SOL    HW125202   2.371   4.343   3.987  0.7753 -0.5494  0.4772
 4523SOL    HW225203   2.375   4.238   4.095 -0.7043  1.1527  1.5976
 4524SOL     OW25204   2.461   3.567  15.791  0.5111  0.3444 -0.3852
 4524SOL    HW125205   2.370   3.539  15.780  0.5729 -0.7266  1.8042
 4524SOL    HW225206   2.496   3.482  15.765  1.2308  0.1544  1.1698
 4525SOL     OW25207   2.948   4.076   4.580  0.2966 -0.4998  0.0176
 4525SOL    HW125208   2.965   4.006   4.643  1.7046  0.1822  0.3873
 4525SOL    HW225209   2.856   4.056   4.563  0.2359 -0.2103  0.0076
 4526SOL     OW25210   4.150   0.253   2.657 -0.2981  0.6135  0.3433
 4526SOL    HW125211   4.151   0.203   2.576 -1.3970  1.5623 -0.2626
 4526SOL    HW225212   4.067   0.301   2.661  0.2906  1.5107  1.7869
 4527SOL     OW25213   4.670   3.894   8.762  0.0668 -0.0855  0.1674
 4527SOL    HW125214   0.016   3.944   8.755  0.8701 -1.2776  0.9029
 4527SOL    HW225215   4.700   3.812   8.802  0.2128 -0.9691 -1.7521
 4528SOL     OW25216   1.566   0.419   8.301  0.7438  0.7756  0.4624
 4528SOL    HW125217   1.623   0.397   8.227 -1.8513 -0.8931 -1.0512
 4528SOL    HW225218   1.626   0.432   8.374  0.5158  0.2717  0.7406
 4529SOL     OW25219   3.089   2.740   8.341 -0.4468 -0.5189  0.0427
 4529SOL    HW125220   3.134   2.657   8.327  0.0407 -0.3579  0.6598
 4529SOL    HW225221   3.068   2.729   8.434  1.1915 -1.7900  0.2502
 4530SOL     OW25222   3.397   4.041  11.421 -0.2143  0.0095 -0.0924
 4530SOL    HW125223   3.453   4.032  11.498 -0.2232 -0.1053 -0.0989
 4530SOL    HW225224   3.417   4.132  11.400  1.1003 -0.2661 -0.0366
 4531SOL     OW25225   0.281   0.955   4.786  0.1789 -0.1338 -0.3536
 4531SOL    HW125226   0.210   0.982   4.845  0.1062 -0.2143 -0.4040
 4531SOL    HW225227   0.357   1.007   4.811 -1.6496  1.3098  2.2276
 4532SOL     OW25228   4.231   1.605  11.537 -0.3921 -0.1864 -0.2415
 4532SOL    HW125229   4.300   1.668  11.558 -1.0789  0.8907 -1.2086
 4532SOL    HW225230   4.215   1.626  11.445  2.2615 -2.2538 -1.1704
 4533SOL     OW25231   4.177   2.322   4.921 -0.5670 -0.8000  0.2831
 4533SOL    HW125232   4.210   2.411   4.933  1.5255 -1.5337 -0.0659
 4533SOL    HW225233   4.255   2.281   4.884 -0.2283  0.7215 -0.6892
 4534SOL     OW25234   4.034   2.314   4.179 -0.2962 -0.1251  0.5282
 4534SOL    HW125235   3.972   2.241   4.172  0.3059 -0.6747  1.0449
 4534SOL    HW225236   4.044   2.332   4.085  1.7640  3.2792  1.4158
 4535SOL     OW25237   0.578   2.605  10.147 -0.5886  0.0092  0.2214
 4535SOL    HW125238   0.597   2.654  10.227 -0.7824  0.3284  0.0703
 4535SOL    HW225239   0.579   2.679  10.086  2.1299 -0.0637  0.1809
 4536SOL     OW25240   2.221   2.219   5.783 -0.7555  0.7792 -0.2803
 4536SOL    HW125241   2.206   2.137   5.830 -0.4102 -0.0516 -1.6135
 4536SOL    HW225242   2.132   2.253   5.792 -0.4177  1.5840  0.0407
 4537SOL     OW25243   2.970   0.837   9.317  0.1971  0.1061 -0.1327
 4537SOL    HW125244   2.990   0.750   9.351 -2.6532 -0.4111  0.2034
 4537SOL    HW225245   3.046   0.879   9.356  1.7663 -0.5714 -2.4683
 4538SOL     OW25246   0.374   0.825   5.910 -0.0385 -0.4481  0.4738
 4538SOL    HW125247   0.355   0.791   5.998  0.9158  0.6252  1.0823
 4538SOL    HW225248   0.429   0.755   5.875 -1.1237 -1.6117  1.1073
 4539SOL     OW25249   4.460   4.245   8.380 -0.0279  0.1534  0.2415
 4539SOL    HW125250   4.457   4.288   8.294  2.7714 -0.2176 -0.0318
 4539SOL    HW225251   4.532   4.182   8.374  1.3003  1.8212 -1.4346
 4540SOL     OW25252   1.664   1.035  12.758  0.0551  0.1541 -0.1969
 4540SOL    HW125253   1.719   1.003  12.687  1.4524  0.2985  0.8094
 4540SOL    HW225254   1.717   1.105  12.796  2.3854 -0.9191 -1.4737
 4541SOL     OW25255   0.640   1.801   4.708 -0.5514 -0.1168  0.2206
 4541SOL    HW125256   0.701   1.791   4.635 -2.1201 -2.8416 -0.7407
 4541SOL    HW225257   0.557   1.824   4.666 -0.4655 -0.5544 -0.1866
 4542SOL     OW25258   0.713   1.743   3.700 -0.1353  0.0200 -0.0590
 4542SOL    HW125259   0.718   1.665   3.755 -1.0897 -1.3496 -1.9226
 4542SOL    HW225260   0.654   1.784   3.763 -0.1258 -0.0191 -0.0249
 4543SOL     OW25261   0.523   1.678  14.049 -0.2071 -0.4303  0.1284
 4543SOL    HW125262   0.431   1.690  14.072  0.1324  0.7184  0.9052
 4543SOL    HW225263   0.517   1.608  13.984 -0.0052 -2.5197  2.3618
 4544SOL     OW25264   1.155   4.455  15.952 -0.3791 -0.3006 -0.3092
 4544SOL    HW125265   1.141   4.524  15.888  1.8098  0.1979 -0.2392
 4544SOL    HW225266   1.163   4.382  15.890 -3.2060 -2.0898  1.4196
 4545SOL     OW25267   2.069   3.293  16.006  0.5235  0.0609 -0.2377
 4545SOL    HW125268   1.984   3.299  15.962  0.8649 -1.3081 -1.0855
 4545SOL    HW225269   2.034   3.293  16.095  1.4875 -1.2307  0.1371
 4546SOL     OW25270   2.398   0.528   6.764  0.6094 -0.1674  0.5848
 4546SOL    HW125271   2.380   0.561   6.852 -0.6002  0.2045  0.2036
 4546SOL    HW225272   2.470   0.582   6.732  1.2952 -1.0415  0.6612
 4547SOL     OW25273   3.875   3.523   1.081  0.0590  0.1770 -0.2613
 4547SOL    HW125274   3.913   3.477   1.007 -0.2722  2.2047 -1.7011
 4547SOL    HW225275   3.949   3.573   1.115  0.1064 -1.1593  1.6004
 4548SOL     OW25276   0.969   0.939   8.472  0.0881 -0.4932  0.7545
 4548SOL    HW125277   1.037   1.006   8.485  1.0548 -1.4822  0.7947
 4548SOL    HW225278   1.011   0.897   8.397 -0.2503 -1.2005  0.9605
 4549SOL     OW25279   4.485   3.846   7.056 -0.0570  0.0954 -0.8495
 4549SOL    HW125280   4.425   3.868   6.985 -2.2533  1.5448  1.4540
 4549SOL    HW225281   4.430   3.796   7.116  0.6494  1.3535  0.8933
 4550SOL     OW25282   4.074   3.390   6.019  0.4781 -0.1466 -0.5326
 4550SOL    HW125283   4.082   3.300   5.986  0.3513  0.0441 -1.0805
 4550SOL    HW225284   4.085   3.443   5.940 -1.7861  1.1942  0.0658
 4551SOL     OW25285   2.356   1.611   5.673  0.2430 -0.3956 -0.2312
 4551SOL    HW125286   2.389   1.622   5.762 -2.2434 -2.1853  0.8769
 4551SOL    HW225287   2.277   1.564   5.697 -0.2377  0.5234 -0.0088
 4552SOL     OW25288   4.594   3.753  15.708 -0.3876 -0.1434 -0.4995
 4552SOL    HW125289   4.607   3.848  15.709  0.0572 -0.2053 -0.1780
 4552SOL    HW225290   4.511   3.735  15.665 -0.6073 -1.1246  0.3372
 4553SOL     OW25291   1.884   2.432   4.917  0.1854  0.0996  0.1553
 4553SOL    HW125292   1.861   2.473   5.001 -2.1593 -0.6257 -0.1290
 4553SOL    HW225293   1.932   2.503   4.876 -1.3829  0.5224 -0.9412
 4554SOL     OW25294   3.058   0.389  11.469  0.2514 -0.4273 -0.3332
 4554SOL    HW125295   3.079   0.312  11.416  0.3996 -0.9882  0.5463
 4554SOL    HW225296   3.045   0.340  11.550  0.4693  1.0186  0.5765
 4555SOL     OW25297   2.771   0.451   2.388  0.1071 -0.4898 -0.3251
 4555SOL    HW125298   2.798   0.490   2.472  2.5535 -0.1972 -1.2559
 4555SOL    HW225299   2.774   0.357   2.406  2.5809 -0.3065  0.2263
 4556SOL     OW25300   4.103   1.353  11.621  0.0649 -0.0290  0.9536
 4556SOL    HW125301   4.037   1.409  11.661 -1.0399 -0.6766  0.0506
 4556SOL    HW225302   4.162   1.418  11.581 -1.8865  0.9799 -0.2971
 4557SOL     OW25303   2.015   1.588   2.449  0.4241 -0.0484 -0.2130
 4557SOL    HW125304   2.095   1.564   2.401  0.9919 -0.7056  1.0689
 4557SOL    HW225305   1.973   1.506   2.475  1.5678 -0.2055  1.1475
 4558SOL     OW25306   1.822   0.030  11.873  0.0959  0.5938  0.5445
 4558SOL    HW125307   1.875   0.003  11.798  0.1974  1.7829  0.1933
 4558SOL    HW225308   1.818   0.119  11.838 -1.5716  0.0780 -0.6055
 4559SOL     OW25309   4.528   1.171   7.773  0.0130 -1.1713  0.1493
 4559SOL    HW125310   4.476   1.100   7.733 -0.1342 -0.4473 -0.9444
 4559SOL    HW225311   4.611   1.130   7.797  0.0348 -0.5680  1.0689
 4560SOL     OW25312   3.510   0.489   6.397  0.1500 -0.8464 -0.5371
 4560SOL    HW125313   3.521   0.563   6.456 -0.9740  0.2573 -1.6877
 4560SOL    HW225314   3.539   0.416   6.451  0.7998 -0.2142 -0.0386
 4561SOL     OW25315   2.734   0.158  15.601 -0.1711 -0.5239  0.5113
 4561SOL    HW125316   2.708   0.082  15.548 -0.9534  1.4813 -1.9777
 4561SOL    HW225317   2.662   0.171  15.663  0.3887 -0.0559  1.0544
 4562SOL     OW25318   4.543   3.083   3.061 -0.2092 -0.1836 -0.2014
 4562SOL    HW125319   4.474   3.148   3.075  2.0053  0.9211  5.4009
 4562SOL    HW225320   4.570   3.055   3.148  2.3562 -0.3774 -1.0501
 4563SOL     OW25321   0.964   1.251  12.948 -0.2714 -0.5327 -0.3969
 4563SOL    HW125322   1.011   1.177  12.911  0.8893  0.1104 -0.2103
 4563SOL    HW225323   0.883   1.252  12.897 -0.1722 -0.1247 -0.5515
 4564SOL     OW25324   0.779   2.398  10.069  0.4403  0.0254 -0.6182
 4564SOL    HW125325   0.724   2.351  10.006 -3.2923  2.9509  0.4505
 4564SOL    HW225326   0.727   2.478  10.080 -0.0587 -0.2609 -0.9195
 4565SOL     OW25327   2.517   3.552   5.672 -0.1263 -0.0429  0.5778
 4565SOL    HW125328   2.448   3.488   5.690 -0.2549 -0.8179 -2.7501
 4565SOL    HW225329   2.462   3.616   5.628  0.5845  0.5984  0.6199
 4566SOL     OW25330   0.556   4.695   3.190  0.1284 -0.2723 -0.1202
 4566SOL    HW125331   0.510   0.002   3.116 -3.7400 -0.8589  1.9404
 4566SOL    HW225332   0.616   4.634   3.149 -0.2540  0.1748 -1.3669
 4567SOL     OW25333   4.305   0.412  11.462  0.6046  0.2951 -0.0270
 4567SOL    HW125334   4.262   0.492  11.430 -0.3824  0.7279  2.3077
 4567SOL    HW225335   4.398   0.423  11.441  0.0397 -0.3208 -2.8579
 4568SOL     OW25336   3.770   4.192  13.262 -0.1379  0.2215  0.1505
 4568SOL    HW125337   3.679   4.172  13.284 -0.5872 -0.3125 -2.1844
 4568SOL    HW225338   3.805   4.210  13.349 -1.4682 -0.6207  0.8484
 4569SOL     OW25339   4.080   3.463   8.117  0.2171  0.1654  0.3373
 4569SOL    HW125340   4.152   3.521   8.141 -1.2151  1.5335  1.2873
 4569SOL    HW225341   4.132   3.383   8.103  0.0607  0.5264 -2.3563
 4570SOL     OW25342   2.384   4.320   2.738  0.1596 -0.9456 -0.0104
 4570SOL    HW125343   2.365   4.357   2.652  0.2086 -0.8920  0.0024
 4570SOL    HW225344   2.310   4.339   2.796  1.9053 -0.5508  2.1008
 4571SOL     OW25345   4.298   2.335  15.787  0.0946 -0.3354 -0.1414
 4571SOL    HW125346   4.355   2.411  15.773  1.2783 -1.1675  0.2099
 4571SOL    HW225347   4.246   2.333  15.706 -0.5062 -3.1628  0.3141
 4572SOL     OW25348   2.402   4.544   5.127 -0.5911 -0.0470 -0.2796
 4572SOL    HW125349   2.494   4.570   5.124  0.1243 -2.3376  1.5116
 4572SOL    HW225350   2.387   4.586   5.212  0.0190 -2.2749  0.9271
 4573SOL     OW25351   0.393   0.201  15.900 -0.3238  0.1292  0.4542
 4573SOL    HW125352   0.427   0.212  15.811 -0.9470  0.8808  0.3013
 4573SOL    HW225353   0.455   0.144  15.944 -1.4808 -0.5509  1.2185
 4574SOL     OW25354   0.038   2.131   9.959 -0.0735 -0.1730 -0.1364
 4574SOL    HW125355   0.109   2.117  10.021  0.8777 -3.9588 -2.1163
 4574SOL    HW225356   0.084   2.150   9.878 -0.6748  1.7317 -0.0376
 4575SOL     OW25357   1.432   2.118  12.683  0.3940 -0.4372 -0.4244
 4575SOL    HW125358   1.437   2.165  12.599 -2.5896 -0.0110 -0.3718
 4575SOL    HW225359   1.395   2.184  12.742  1.0847  0.1225 -0.6207
 4576SOL     OW25360   4.000   2.416   7.279  0.0668 -0.3079 -0.4051
 4576SOL    HW125361   3.959   2.332   7.299  1.2852 -1.0532 -1.0053
 4576SOL    HW225362   4.092   2.391   7.268  0.1232  0.3118 -1.3609
 4577SOL     OW25363   4.623   1.767   5.352 -0.1329  0.0802  0.0042
 4577SOL    HW125364   4.594   1.686   5.394  2.1856 -1.2635 -1.0153
 4577SOL    HW225365   4.715   1.741   5.352  0.0538  0.7197  0.8110
 4578SOL     OW25366   0.119   3.194   8.354 -0.5368 -0.6063 -0.5255
 4578SOL    HW125367   0.035   3.147   8.354 -0.0153 -1.5278 -0.3485
 4578SOL    HW225368   0.148   3.165   8.268  2.2945 -0.7516  0.4851
 4579SOL     OW25369   2.305   0.369   6.581  0.0874  0.1191 -0.2366
 4579SOL    HW125370   2.267   0.307   6.643  2.3660 -0.5783  0.4392
 4579SOL    HW225371   2.327   0.440   6.641  0.7338 -1.0744  0.9294
 4580SOL     OW25372   1.571   0.917  14.014 -0.2690  0.5585 -0.3391
 4580SOL    HW125373   1.569   1.007  14.046 -2.3821  0.5826 -0.5396
 4580SOL    HW225374   1.646   0.920  13.954  0.0397 -0.0592  0.0169
 4581SOL     OW25375   0.674   4.053   4.825 -0.1369 -0.2758  0.5125
 4581SOL    HW125376   0.724   3.971   4.828  0.5452  0.0818 -1.1823
 4581SOL    HW225377   0.585   4.019   4.817  0.2981 -1.4535  0.5912
 4582SOL     OW25378   2.962   3.453   6.454  0.2784  0.3241  0.3184
 4582SOL    HW125379   2.988   3.425   6.541  0.8524 -0.9970 -0.2720
 4582SOL    HW225380   2.914   3.375   6.427  2.1356 -0.2370 -1.3834
 4583SOL     OW25381   3.871   0.263  16.503  0.0752  0.2306  0.1922
 4583SOL    HW125382   3.895   0.174  16.531 -0.4694 -0.8309 -2.7836
 4583SOL    HW225383   3.924   0.315  16.563 -0.3774 -0.5846  1.3244
 4584SOL     OW25384   1.282   0.240  10.788  0.0179 -0.3539  0.2389
 4584SOL    HW125385   1.273   0.284  10.703 -1.9348  1.5365  1.4334
 4584SOL    HW225386   1.365   0.281  10.815  0.1720 -0.3028 -0.3019
 4585SOL     OW25387   1.949   2.585   8.301  0.1562 -0.0668 -0.5492
 4585SOL    HW125388   1.994   2.566   8.384  0.0183  0.8913 -0.2599
 4585SOL    HW225389   1.870   2.531   8.301  1.2609 -1.7287  2.9844
 4586SOL     OW25390   0.697   3.480   5.434 -0.3757  0.0836  0.0830
 4586SOL    HW125391   0.723   3.395   5.398  1.0706  0.6992 -0.3520
 4586SOL    HW225392   0.782   3.514   5.461 -0.4369  0.8278 -0.6592
 4587SOL     OW25393   2.316   2.017  10.063 -0.5671 -0.5402  0.5448
 4587SOL    HW125394   2.360   2.070  10.129  2.2191 -1.8679 -0.2700
 4587SOL    HW225395   2.374   2.042   9.991 -2.0670  2.2438  0.2701
 4588SOL     OW25396   0.663   0.855   2.193 -0.1330  0.4104 -0.2957
 4588SOL    HW125397   0.758   0.859   2.201 -0.1053  0.5294 -0.6794
 4588SOL    HW225398   0.658   0.891   2.104 -1.1187  1.3597  0.1496
 4589SOL     OW25399   1.295   1.070   2.667  0.4566  0.1441 -0.2458
 4589SOL    HW125400   1.257   1.060   2.754 -2.2312  2.2559 -1.1716
 4589SOL    HW225401   1.382   1.105   2.687  0.5055 -0.8669  1.3442
 4590SOL     OW25402   4.111   2.847   4.380  0.6711  0.3986  0.0279
 4590SOL    HW125403   4.093   2.900   4.458  1.5576 -0.0158  0.5127
 4590SOL    HW225404   4.123   2.759   4.416  0.0792  0.7519  1.0602
 4591SOL     OW25405   0.368   0.182  10.521  0.1475 -0.6521 -0.4823
 4591SOL    HW125406   0.293   0.241  10.529  0.0891 -0.7933  0.0331
 4591SOL    HW225407   0.435   0.248  10.535  0.4339 -0.8305 -1.0072
 4592SOL     OW25408   0.358   3.712   2.314 -0.1779 -0.3853  1.0316
 4592SOL    HW125409   0.347   3.806   2.307  0.0914 -0.3044  1.7366
 4592SOL    HW225410   0.267   3.701   2.287  0.1790 -0.6477 -0.0787
 4593SOL     OW25411   3.993   2.999  15.093 -0.8421  0.2827 -0.2798
 4593SOL    HW125412   3.998   2.951  15.176  1.0240 -0.7960 -1.0041
 4593SOL    HW225413   4.072   2.964  15.051 -2.0840 -2.3422 -0.4635
 4594SOL     OW25414   0.178   2.652   2.748  0.6963  0.0935  0.2109
 4594SOL    HW125415   0.264   2.654   2.790  0.7067 -0.8592  0.2362
 4594SOL    HW225416   0.194   2.609   2.664  0.6814 -1.3585  0.9538
 4595SOL     OW25417   3.868   3.131   0.802  0.6532 -0.0685 -0.0384
 4595SOL    HW125418   3.849   3.217   0.838 -1.0940 -0.9031  1.0752
 4595SOL    HW225419   3.879   3.073   0.877  0.5840 -1.4094 -1.0499
 4596SOL     OW25420   1.507   1.997   4.616  0.5018  0.7803  0.2102
 4596SOL    HW125421   1.534   2.073   4.565 -0.5244  0.8656 -0.1953
 4596SOL    HW225422   1.571   2.005   4.687  0.8299 -0.1979  0.0184
 4597SOL     OW25423   1.861   3.191   3.017  0.3678  0.3827 -0.1830
 4597SOL    HW125424   1.819   3.163   2.936  0.3606 -0.0075 -0.0422
 4597SOL    HW225425   1.937   3.135   3.029 -0.1955 -0.9722 -3.0404
 4598SOL     OW25426   4.327   3.118   1.728  0.2118 -0.0801  0.1528
 4598SOL    HW125427   4.361   3.046   1.675 -1.4921 -0.3365 -0.6019
 4598SOL    HW225428   4.360   3.090   1.814 -1.5649 -0.1853  0.8200
 4599SOL     OW25429   1.064   4.222   8.534 -0.5476 -0.0490  0.7364
 4599SOL    HW125430   1.106   4.300   8.497 -2.3885 -0.3527 -1.9652
 4599SOL    HW225431   0.985   4.209   8.482  0.1342  1.1959 -0.6182
 4600SOL     OW25432   4.363   2.276   5.581  0.4990 -0.3445 -0.0092
 4600SOL    HW125433   4.297   2.335   5.617  0.3953  1.3902 -3.0788
 4600SOL    HW225434   4.322   2.234   5.505 -1.7014 -0.6865  1.3679
 4601SOL     OW25435   1.459   4.733  12.051 -0.0177  0.1151  0.3891
 4601SOL    HW125436   1.421   4.656  12.009  0.8507 -0.2933  0.3671
 4601SOL    HW225437   1.440   0.077  12.000  0.1776  1.3588  2.2738
 4602SOL     OW25438   0.604   2.228   3.646 -0.1106  0.2439  0.3208
 4602SOL    HW125439   0.642   2.244   3.732  0.2672 -0.9718  0.3839
 4602SOL    HW225440   0.629   2.305   3.596  0.0819 -0.2072 -0.2878
 4603SOL     OW25441   2.427   0.957   0.617 -0.4835  0.0919  0.1034
 4603SOL    HW125442   2.365   0.884   0.625 -1.1901  0.5814 -0.8827
 4603SOL    HW225443   2.371   1.032   0.600 -0.0667  0.9050  2.4064
 4604SOL     OW25444   3.972   3.295   8.863  0.0589  0.1377 -0.6417
 4604SOL    HW125445   3.994   3.383   8.893  1.5606 -0.4267 -0.0847
 4604SOL    HW225446   3.924   3.315   8.783  2.3390  1.0747 -1.7585
 4605SOL     OW25447   0.619   0.191   7.074  0.1725  0.0733  0.3428
 4605SOL    HW125448   0.660   0.275   7.097  2.8724  0.0520 -4.3867
 4605SOL    HW225449   0.597   0.148   7.156 -3.1871  1.2779  0.0767
 4606SOL     OW25450   0.772   1.326   7.776 -0.1252 -0.0020 -0.7689
 4606SOL    HW125451   0.772   1.291   7.865  0.1741 -0.9707 -1.1516
 4606SOL    HW225452   0.680   1.339   7.754 -0.5573 -0.0469  0.9813
 4607SOL     OW25453   1.966   0.455   4.033 -0.4045 -0.3092 -0.1335
 4607SOL    HW125454   1.904   0.487   3.967  0.0185 -0.8440 -0.7951
 4607SOL    HW225455   2.000   0.532   4.078 -1.6364 -0.8923  1.8090
 4608SOL     OW25456   2.183   4.407   2.885 -0.3360  0.6523  0.1177
 4608SOL    HW125457   2.135   4.332   2.849  0.7098 -0.5642  1.2598
 4608SOL    HW225458   2.111   4.446   2.933  0.7399  3.4559 -0.5707
 4609SOL     OW25459   2.526   1.633   6.444  0.3710 -0.2537  0.2479
 4609SOL    HW125460   2.603   1.593   6.484  1.0210  0.9097  0.1551
 4609SOL    HW225461   2.483   1.554   6.410 -0.9370  1.3151 -1.8089
 4610SOL     OW25462   4.244   1.002   4.461 -0.2215  0.1234  0.6290
 4610SOL    HW125463   4.239   1.040   4.373  0.1812  0.7404  0.8651
 4610SOL    HW225464   4.173   0.939   4.456  0.2066 -0.3036 -0.0375
 4611SOL     OW25465   0.666   1.156  12.884  0.3600  0.0765  0.3242
 4611SOL    HW125466   0.674   1.063  12.902  0.6743 -0.2435 -1.5071
 4611SOL    HW225467   0.581   1.174  12.925  0.0213 -2.2714  0.6582
 4612SOL     OW25468   4.558   2.375   6.107 -0.3981  0.7061 -0.0036
 4612SOL    HW125469   4.571   2.289   6.148  0.1769 -0.2305 -2.1424
 4612SOL    HW225470   4.548   2.354   6.014 -0.1244  1.0779 -0.1206
 4613SOL     OW25471   3.626   3.337   7.280  0.3946  0.2933 -0.0031
 4613SOL    HW125472   3.595   3.378   7.361 -0.2792  0.9574 -0.6087
 4613SOL    HW225473   3.718   3.319   7.301 -0.0313  0.8292  2.3199
 4614SOL     OW25474   1.003   3.186  16.796  0.5315  0.2855  0.1457
 4614SOL    HW125475   1.013   3.281  16.789  3.0389 -0.0317 -0.5231
 4614SOL    HW225476   0.913   3.174  16.764  1.2481  0.0734 -1.8162
 4615SOL     OW25477   2.892   3.731  16.718  0.3467  0.1972 -0.1939
 4615SOL    HW125478   2.907   3.643  16.754  1.2436  0.2564 -0.4421
 4615SOL    HW225479   2.804   3.740  16.756 -0.1103  1.0851 -1.4802
 4616SOL     OW25480   1.894   2.487  11.459 -0.2189 -0.3129  0.4212
 4616SOL    HW125481   1.890   2.398  11.493  0.7186 -0.3182  0.5202
 4616SOL    HW225482   1.969   2.479  11.400 -0.6175  0.7886 -0.2324
 4617SOL     OW25483   2.678   2.217   3.718 -0.8777  0.1653  0.4681
 4617SOL    HW125484   2.631   2.134   3.723  0.9052 -0.8561  0.0079
 4617SOL    HW225485   2.622   2.271   3.774  0.7681  1.2226  1.1004
 4618SOL     OW25486   2.309   1.680   2.362  1.5524 -0.3098 -0.4371
 4618SOL    HW125487   2.390   1.705   2.406  0.4945  1.9973  0.2634
 4618SOL    HW225488   2.314   1.588   2.338 -0.6155 -0.5277 -0.0707
 4619SOL     OW25489   3.762   0.555   8.214  0.6875 -0.4047 -0.0176
 4619SOL    HW125490   3.843   0.532   8.260  0.6105  0.2196  0.4253
 4619SOL    HW225491   3.702   0.534   8.285 -1.0401 -0.3636 -1.4768
 4620SOL     OW25492   3.870   4.546   4.817 -1.1418 -0.8129  0.0599
 4620SOL    HW125493   3.890   4.549   4.724 -0.0274 -2.3031  0.2419
 4620SOL    HW225494   3.886   4.453   4.835 -1.8082 -0.9525 -0.0541
 4621SOL     OW25495   0.859   0.407  10.913  0.4034  0.1742  0.3987
 4621SOL    HW125496   0.823   0.345  10.849  1.6791  0.3683 -0.5225
 4621SOL    HW225497   0.871   0.478  10.850  0.5143 -0.1290  0.0763
 4622SOL     OW25498   1.176   2.834   3.856 -0.2835  0.0795  0.1585
 4622SOL    HW125499   1.182   2.874   3.769  2.5483 -0.2998  0.1830
 4622SOL    HW225500   1.128   2.895   3.913  0.5266  1.6384 -0.8300
 4623SOL     OW25501   1.331   4.055   3.089  0.0501  0.3378 -0.6492
 4623SOL    HW125502   1.378   4.134   3.062 -0.6286  0.9400 -0.0745
 4623SOL    HW225503   1.267   4.088   3.151  0.6029 -2.3602  1.3414
 4624SOL     OW25504   1.895   2.871  10.819  0.2697  0.4707  0.1473
 4624SOL    HW125505   1.855   2.814  10.753 -0.1548  0.9664 -0.0248
 4624SOL    HW225506   1.970   2.886  10.761  0.8415 -1.0094  0.5089
 4625SOL     OW25507   2.929   1.735   6.360 -0.1647  0.3092  0.1699
 4625SOL    HW125508   2.884   1.725   6.444 -0.6476  2.5181  0.1613
 4625SOL    HW225509   2.863   1.790   6.319  0.8048  0.6009 -0.9690
 4626SOL     OW25510   1.998   3.942   6.962 -0.3526 -0.3237  0.3956
 4626SOL    HW125511   1.939   3.922   7.035  0.3345  0.2081  1.0978
 4626SOL    HW225512   2.067   3.980   7.017  1.1119  2.0104 -3.0544
 4627SOL     OW25513   3.707   3.700   0.930 -0.0692 -0.6088 -0.0936
 4627SOL    HW125514   3.765   3.740   0.866  0.2303 -1.8577 -0.6016
 4627SOL    HW225515   3.758   3.648   0.992 -2.1312 -0.7828  1.4917
 4628SOL     OW25516   0.013   4.631   8.396 -0.4413 -0.3663 -0.1162
 4628SOL    HW125517   0.059   4.650   8.314  1.1001 -0.9990  0.5962
 4628SOL    HW225518   0.026   4.536   8.403  0.6226 -0.2915 -1.0511
 4629SOL     OW25519   0.939   1.548   5.267  0.2780 -0.2967 -0.5163
 4629SOL    HW125520   0.850   1.565   5.236  0.2350 -0.3881 -0.4453
 4629SOL    HW225521   0.936   1.452   5.269 -0.9455 -0.2582 -0.3384
 4630SOL     OW25522   0.910   1.264   4.121  0.3243  0.4372  0.0214
 4630SOL    HW125523   0.965   1.281   4.198 -1.2709 -0.8927  1.4491
 4630SOL    HW225524   0.847   1.203   4.158 -1.5186  1.7187 -1.0357
 4631SOL     OW25525   1.812   3.764   1.907 -0.5588 -0.1746  0.1336
 4631SOL    HW125526   1.846   3.848   1.939  0.0543 -0.7623  1.0154
 4631SOL    HW225527   1.885   3.735   1.852  1.1937  1.5082  1.5701
 4632SOL     OW25528   2.664   4.527  12.432 -0.2615  0.3022  0.1423
 4632SOL    HW125529   2.622   4.514  12.346  2.0193 -1.6764 -0.6505
 4632SOL    HW225530   2.729   4.457  12.433  0.1055  0.6694  1.4986
 4633SOL     OW25531   1.226   2.004   4.574  0.1228  0.2559  0.7567
 4633SOL    HW125532   1.316   1.972   4.581  0.3431  0.4331 -1.2470
 4633SOL    HW225533   1.208   2.025   4.665 -2.2597  0.8605  0.1263
 4634SOL     OW25534   1.731   0.744  13.482 -0.0662 -0.1380  0.3166
 4634SOL    HW125535   1.649   0.784  13.512 -0.3907 -0.6201  0.0789
 4634SOL    HW225536   1.717   0.649  13.489  2.5393 -0.6748 -1.7772
 4635SOL     OW25537   1.796   1.999  10.058 -0.5049 -0.4713 -0.0462
 4635SOL    HW125538   1.868   1.981  10.118  0.8391 -2.6217 -2.3122
 4635SOL    HW225539   1.827   2.075  10.009  0.1604 -0.8582 -0.2227
 4636SOL     OW25540   0.923   3.289  16.475 -0.0407 -0.3966  0.2001
 4636SOL    HW125541   0.911   3.266  16.567  0.3663  0.2157  0.4126
 4636SOL    HW225542   0.852   3.353  16.469  0.4885  0.4425  2.8627
 4637SOL     OW25543   2.917   3.836   5.176 -0.4525 -0.6302  0.0688
 4637SOL    HW125544   3.006   3.817   5.205 -0.6875 -1.6173  0.1203
 4637SOL    HW225545   2.861   3.770   5.216 -1.8063  1.0076  0.8723
 4638SOL     OW25546   0.307   3.277   7.128 -0.1975  0.4189 -0.0610
 4638SOL    HW125547   0.213   3.285   7.112 -0.0825  1.7869 -0.0332
 4638SOL    HW225548   0.317   3.205   7.190 -1.4607  1.3593  1.2153
 4639SOL     OW25549   4.696   1.684   1.595  0.0853  0.3400  0.1334
 4639SOL    HW125550   0.030   1.651   1.652  1.2975  2.2121 -0.2291
 4639SOL    HW225551   0.013   1.718   1.522  1.0841  0.4530  0.8988
 4640SOL     OW25552   3.939   2.867   5.176 -0.1530 -0.2128  0.3447
 4640SOL    HW125553   3.950   2.961   5.188 -1.7535 -0.3834  3.0209
 4640SOL    HW225554   4.024   2.841   5.209  1.1738 -0.7517 -3.4481
 4641SOL     OW25555   1.549   2.216   4.954  0.2342  0.1508  0.4922
 4641SOL    HW125556   1.595   2.182   5.031 -1.8100  0.6009  1.9010
 4641SOL    HW225557   1.463   2.176   4.965  0.8540 -1.1674  0.4275
 4642SOL     OW25558   0.914   2.822   3.564  0.3077 -0.5368  0.1921
 4642SOL    HW125559   0.967   2.746   3.588 -0.3605 -0.8656  0.6459
 4642SOL    HW225560   0.927   2.874   3.643 -1.0665 -0.4430  0.3634
 4643SOL     OW25561   0.097   4.207   3.045  0.2428 -0.6594  0.1009
 4643SOL    HW125562   0.109   4.280   3.106  3.4455 -1.0814 -0.0647
 4643SOL    HW225563   0.013   4.170   3.074  1.1504 -3.4064 -0.7288
 4644SOL     OW25564   3.493   3.873   3.583 -0.0954 -0.4422 -0.0239
 4644SOL    HW125565   3.424   3.900   3.523  0.3087  1.5165  0.4094
 4644SOL    HW225566   3.517   3.785   3.552 -3.6630 -1.1776 -0.7160
 4645SOL     OW25567   4.226   0.405  12.238 -1.0615  0.4144 -0.1921
 4645SOL    HW125568   4.207   0.494  12.264 -1.5131  0.2809 -0.0675
 4645SOL    HW225569   4.182   0.406  12.152 -0.4342 -0.3834 -0.5327
 4646SOL     OW25570   0.014   0.633   7.921 -0.9544 -0.2520 -0.2931
 4646SOL    HW125571   4.712   0.599   8.003  2.6309  2.1298  2.2955
 4646SOL    HW225572   4.733   0.562   7.858 -0.1138 -0.0599 -0.7223
 4647SOL     OW25573   1.432   0.894  16.008  0.1554  0.1644 -0.2920
 4647SOL    HW125574   1.340   0.919  16.012 -0.0454 -0.7322  0.3974
 4647SOL    HW225575   1.453   0.891  15.914  0.5912  1.7984 -0.2520
 4648SOL     OW25576   3.690   2.840   6.093  0.3070  0.5221  0.2134
 4648SOL    HW125577   3.708   2.922   6.046 -0.1333  1.9056  2.4273
 4648SOL    HW225578   3.607   2.862   6.136  0.4651  2.8315 -0.6343
 4649SOL     OW25579   2.225   0.191   0.886  0.2202  0.3537 -0.0974
 4649SOL    HW125580   2.191   0.194   0.797 -0.1372  0.8790  0.0588
 4649SOL    HW225581   2.164   0.129   0.925  1.2256  0.6376  1.9087
 4650SOL     OW25582   2.321   2.973  12.547 -0.2198 -0.1654 -0.2139
 4650SOL    HW125583   2.342   3.054  12.593 -2.8021 -0.3347  1.2606
 4650SOL    HW225584   2.266   3.008  12.476 -0.0116  0.2924 -0.1481
 4651SOL     OW25585   0.937   4.385   5.898  0.0052  0.0341 -0.6820
 4651SOL    HW125586   1.006   4.340   5.849  0.0725 -2.1705  1.4026
 4651SOL    HW225587   0.881   4.315   5.933  1.0822 -0.4007  0.1813
 4652SOL     OW25588   1.387   3.081   7.129 -0.0209  0.0344 -0.0638
 4652SOL    HW125589   1.388   2.986   7.129 -0.0789  0.0346  0.1964
 4652SOL    HW225590   1.384   3.104   7.222 -0.6452 -3.8382  0.8343
 4653SOL     OW25591   4.313   4.170   4.653  0.2069  0.1160  0.3860
 4653SOL    HW125592   4.306   4.265   4.657 -1.0149  0.0836 -1.5927
 4653SOL    HW225593   4.366   4.155   4.732 -0.2594 -2.2760  0.2508
 4654SOL     OW25594   1.466   3.259   1.221  0.3157 -0.2782  0.0802
 4654SOL    HW125595   1.560   3.246   1.226  0.0482 -2.3621 -0.2410
 4654SOL    HW225596   1.449   3.334   1.277  1.5451 -0.0783  0.1845
 4655SOL     OW25597   4.354   2.890   9.384  0.1908  0.0481  0.2138
 4655SOL    HW125598   4.409   2.959   9.346 -1.2121  1.5123  0.8555
 4655SOL    HW225599   4.398   2.884   9.469  1.0030  1.3361 -0.1181
 4656SOL     OW25600   3.795   3.034   4.570 -0.3661 -0.2168 -0.0464
 4656SOL    HW125601   3.870   3.093   4.563 -1.1495  0.8114  0.2567
 4656SOL    HW225602   3.731   3.068   4.507  1.5003 -0.9837 -2.3727
 4657SOL     OW25603   2.209   4.683   0.042 -0.3307  0.1548 -0.1221
 4657SOL    HW125604   2.156   4.733   0.105 -1.3930  0.0156 -0.9081
 4657SOL    HW225605   2.191   0.001  17.703 -1.5169  0.8692  0.6365
 4658SOL     OW25606   0.914   2.322   9.187 -0.2587 -0.0328 -0.4259
 4658SOL    HW125607   0.849   2.282   9.245 -0.1295  1.3405  0.6763
 4658SOL    HW225608   0.984   2.257   9.184  0.1503  0.4424 -1.1729
 4659SOL     OW25609   4.225   0.258   7.691  0.2173 -0.3596 -0.0245
 4659SOL    HW125610   4.220   0.334   7.633 -1.9042 -0.2258  0.3298
 4659SOL    HW225611   4.138   0.228   7.667  1.7773 -1.4049 -4.3366
 4660SOL     OW25612   3.842   4.685   2.068 -0.0728  0.7136  0.2421
 4660SOL    HW125613   3.834   4.715   2.158 -3.7495 -1.6819  0.6937
 4660SOL    HW225614   3.840   0.036   2.025 -2.9599 -0.7015 -2.4305
 4661SOL     OW25615   3.890   1.750   7.836  0.3904  0.4268 -0.5186
 4661SOL    HW125616   3.833   1.772   7.763 -1.6098  1.8823  1.4890
 4661SOL    HW225617   3.971   1.788   7.803  0.5075  0.6444  0.0172
 4662SOL     OW25618   1.577   1.901   3.849  0.0199  0.1180 -0.5299
 4662SOL    HW125619   1.592   1.807   3.855 -1.5993 -0.1565 -0.8242
 4662SOL    HW225620   1.632   1.939   3.917 -0.8226  4.0879 -2.0902
 4663SOL     OW25621   2.096   0.421   2.764  0.2488 -0.0859  0.0337
 4663SOL    HW125622   2.135   0.344   2.720  1.4421  0.1514  0.6668
 4663SOL    HW225623   2.092   0.478   2.687  0.7162 -0.2818 -0.1370
 4664SOL     OW25624   0.032   3.731   0.269 -0.1619 -0.2622  0.1851
 4664SOL    HW125625   0.127   3.742   0.274 -0.1993 -0.7004  1.5961
 4664SOL    HW225626   0.012   3.820   0.241 -0.1081  0.0520  1.1736
 4665SOL     OW25627   1.300   0.747   3.441  0.0038 -0.0051  0.3352
 4665SOL    HW125628   1.348   0.815   3.488 -0.9118  0.7350  0.1907
 4665SOL    HW225629   1.308   0.670   3.497  2.3843  0.5299  0.7269
 4666SOL     OW25630   0.716   1.098  14.269 -0.0936 -0.0939 -0.0629
 4666SOL    HW125631   0.793   1.041  14.261 -0.9649 -1.3839  0.7334
 4666SOL    HW225632   0.669   1.055  14.340 -0.5812  0.6428  0.0623
 4667SOL     OW25633   2.779   3.095   9.018 -0.3053  0.2841  0.1798
 4667SOL    HW125634   2.693   3.124   8.989 -0.5865 -0.4826  0.2419
 4667SOL    HW225635   2.808   3.166   9.075 -1.2878  0.2714  0.7028
 4668SOL     OW25636   1.209   3.828   5.831 -0.1378 -0.1133  0.2505
 4668SOL    HW125637   1.253   3.743   5.825  0.2211  0.0070  1.2205
 4668SOL    HW225638   1.120   3.797   5.814 -0.1332  0.3793 -0.6820
 4669SOL     OW25639   2.486   4.704   1.871 -1.0503  0.6711 -0.5912
 4669SOL    HW125640   2.524   0.045   1.916  2.3381 -1.3199 -0.0358
 4669SOL    HW225641   2.522   4.724   1.785  1.8727 -1.0674  0.2305
 4670SOL     OW25642   3.668   4.491   4.234  0.0426  0.0280 -0.0467
 4670SOL    HW125643   3.682   4.469   4.326 -1.5950  2.0601  0.6995
 4670SOL    HW225644   3.758   4.487   4.203 -0.2615  1.1709 -1.1267
 4671SOL     OW25645   2.736   1.038   8.846 -0.0240 -0.1636 -0.2640
 4671SOL    HW125646   2.642   1.047   8.859 -0.2297 -1.1917 -1.0413
 4671SOL    HW225647   2.758   1.074   8.932 -0.4644 -1.2636  0.3196
 4672SOL     OW25648   3.461   2.405   1.200 -0.1130 -0.4536  0.2535
 4672SOL    HW125649   3.516   2.351   1.256  1.3878 -1.6031 -2.2974
 4672SOL    HW225650   3.421   2.340   1.143 -1.4869 -0.1528  0.8684
 4673SOL     OW25651   2.438   0.699   7.004 -0.6293 -0.1367 -0.6188
 4673SOL    HW125652   2.400   0.615   7.031 -0.4821 -0.1213 -0.3596
 4673SOL    HW225653   2.528   0.667   6.990 -0.4753  1.0436 -2.2085
 4674SOL     OW25654   3.587   0.399  15.565  0.2409 -0.1559  0.1298
 4674SOL    HW125655   3.493   0.411  15.580  0.6368  1.5840  1.3143
 4674SOL    HW225656   3.592   0.342  15.488 -0.6653 -1.3271  0.9549
 4675SOL     OW25657   2.683   0.259   0.433 -0.0170  0.2125 -0.2252
 4675SOL    HW125658   2.724   0.274   0.348  2.4930 -0.5191  0.8649
 4675SOL    HW225659   2.663   0.166   0.449 -1.8198  0.7853  0.9516
 4676SOL     OW25660   3.496   0.633   2.707 -0.2134 -0.1777  0.0799
 4676SOL    HW125661   3.424   0.639   2.644  0.0843  0.7783 -0.1786
 4676SOL    HW225662   3.497   0.727   2.726 -0.6029 -0.0025 -0.7473
 4677SOL     OW25663   2.312   2.101   4.354 -0.4419  0.4037  0.3713
 4677SOL    HW125664   2.336   2.175   4.299  0.4924  0.9478  1.5145
 4677SOL    HW225665   2.217   2.117   4.357 -0.7507 -1.2861  0.0276
 4678SOL     OW25666   4.372   2.772   9.944  0.2519 -0.0412 -0.0187
 4678SOL    HW125667   4.327   2.857   9.944  1.1173  0.4391  2.2336
 4678SOL    HW225668   4.463   2.797   9.925 -0.0437  1.4611  0.5148
 4679SOL     OW25669   1.804   1.232  13.149  0.3083  0.1360 -0.2894
 4679SOL    HW125670   1.792   1.184  13.067 -0.5748 -0.2676  0.0787
 4679SOL    HW225671   1.746   1.306  13.131  0.2380  0.1678  0.0654
 4680SOL     OW25672   1.838   3.232   2.264  0.0070 -0.0344  0.1256
 4680SOL    HW125673   1.865   3.324   2.266 -0.0805 -0.0663  2.3835
 4680SOL    HW225674   1.911   3.195   2.214  0.2894  0.5404  0.1110
 4681SOL     OW25675   1.278   1.112   3.307  0.4622  0.1766 -0.0361
 4681SOL    HW125676   1.199   1.165   3.294 -0.2157 -0.2920  2.0749
 4681SOL    HW225677   1.285   1.095   3.401  1.9757 -1.2130 -0.4079
 4682SOL     OW25678   4.389   3.559   8.691 -0.3231  0.3910 -0.1900
 4682SOL    HW125679   4.312   3.613   8.678 -0.3655  0.3161 -0.2489
 4682SOL    HW225680   4.402   3.562   8.786  0.0768 -0.5680 -0.2077
 4683SOL     OW25681   3.360   4.506   7.739  0.3458  0.0235 -0.1776
 4683SOL    HW125682   3.369   4.425   7.789  2.1766  0.6771  0.5483
 4683SOL    HW225683   3.411   4.479   7.662  0.2725  0.9231 -0.5472
 4684SOL     OW25684   4.459   1.046   5.852 -0.1484  0.1976 -0.9547
 4684SOL    HW125685   4.404   1.112   5.893  0.0052 -0.5792  0.5020
 4684SOL    HW225686   4.419   0.966   5.887  0.4710  0.5846  0.6113
 4685SOL     OW25687   2.427   4.123   9.327 -0.4775 -0.5190  0.6150
 4685SOL    HW125688   2.510   4.161   9.298 -0.5090 -0.5710  0.4538
 4685SOL    HW225689   2.413   4.156   9.416  0.7451  1.4983  0.0556
 4686SOL     OW25690   2.592   2.028  15.021  0.1892 -0.1861  0.8945
 4686SOL    HW125691   2.676   2.072  15.028 -0.9797  2.2447 -0.4900
 4686SOL    HW225692   2.605   1.943  14.978 -0.6675  0.9993 -1.7109
 4687SOL     OW25693   3.729   1.189   4.974 -0.1080 -0.0758 -0.5591
 4687SOL    HW125694   3.815   1.197   5.015 -1.0464  1.3483  1.1247
 4687SOL    HW225695   3.690   1.110   5.012  1.4992 -1.6687 -2.1836
 4688SOL     OW25696   0.687   3.102  17.488 -0.2553  0.3884  0.1792
 4688SOL    HW125697   0.635   3.093  17.568  1.6524 -2.9657  1.0071
 4688SOL    HW225698   0.763   3.155  17.514  1.0634 -2.5122  2.2555
 4689SOL     OW25699   4.036   1.289  12.527 -0.1043  0.0763  0.0149
 4689SOL    HW125700   4.053   1.218  12.589 -1.0677 -2.5837 -2.7852
 4689SOL    HW225701   4.006   1.353  12.592  0.1024  0.0637  0.1243
 4690SOL     OW25702   0.856   1.086   5.753  0.5964  0.3889  0.2038
 4690SOL    HW125703   0.847   0.992   5.742 -0.3855  0.5109 -0.0876
 4690SOL    HW225704   0.949   1.098   5.773  0.8505  0.4541 -0.9797
 4691SOL     OW25705   0.333   0.178   2.266 -0.2341 -0.2628  0.2118
 4691SOL    HW125706   0.352   0.208   2.355 -3.3177 -1.9491  1.4423
 4691SOL    HW225707   0.289   0.099   2.295 -1.4046  0.5743  0.7145
 4692SOL     OW25708   1.564   2.678  16.472 -0.0408 -0.0953  0.8364
 4692SOL    HW125709   1.469   2.667  16.462 -0.5065  3.0358  1.8174
 4692SOL    HW225710   1.594   2.619  16.403 -2.2322 -1.3954  0.9716
 4693SOL     OW25711   0.224   4.544   5.878  0.3045  0.4828  0.6116
 4693SOL    HW125712   0.186   4.612   5.822  0.8302 -2.0999 -2.9271
 4693SOL    HW225713   0.317   4.552   5.860  0.3947 -2.0800 -0.0537
 4694SOL     OW25714   4.644   0.760  14.646 -0.5189  0.1645 -0.0205
 4694SOL    HW125715   4.587   0.690  14.615 -1.0894 -0.4711  2.5016
 4694SOL    HW225716   4.637   0.755  14.741 -1.3867  1.9241 -0.0012
 4695SOL     OW25717   2.390   2.594   6.878  0.3857 -0.6588  0.4140
 4695SOL    HW125718   2.397   2.672   6.933 -0.2856 -0.0489 -0.3665
 4695SOL    HW225719   2.330   2.633   6.815  1.7348  0.2699 -0.3191
 4696SOL     OW25720   4.256   1.032   2.808 -0.1935 -0.4499  0.2900
 4696SOL    HW125721   4.298   0.953   2.840  1.3835 -0.4700 -1.9088
 4696SOL    HW225722   4.166   1.026   2.842 -0.8375  0.7469 -1.1894
 4697SOL     OW25723   1.317   0.232  11.110  0.3537  0.0964 -0.5058
 4697SOL    HW125724   1.235   0.196  11.142  0.3761  0.6412  0.1511
 4697SOL    HW225725   1.303   0.223  11.016  0.6239 -4.8148 -0.0639
 4698SOL     OW25726   0.386   4.245   9.013  0.0170  0.4559  0.2763
 4698SOL    HW125727   0.390   4.329   9.059 -2.4907 -0.0690  1.4418
 4698SOL    HW225728   0.474   4.212   9.028  0.6851  1.1041 -2.2938
 4699SOL     OW25729   2.583   0.440  10.483 -0.3016 -0.1956 -0.1200
 4699SOL    HW125730   2.640   0.454  10.559 -2.5696  1.6302  1.2363
 4699SOL    HW225731   2.567   0.346  10.483  1.8342 -0.5777  1.9652
 4700SOL     OW25732   3.596   2.694   3.403  0.7800  0.3895  0.1272
 4700SOL    HW125733   3.569   2.649   3.482  2.0933  1.7217  1.3211
 4700SOL    HW225734   3.688   2.712   3.418  0.3208  3.3959 -0.6108
 4701SOL     OW25735   3.114   3.275   9.581  0.3597 -0.0448  0.0629
 4701SOL    HW125736   3.191   3.289   9.526  1.0308  1.4551  1.3957
 4701SOL    HW225737   3.087   3.360   9.616 -1.6528 -0.3049 -0.8370
 4702SOL     OW25738   1.967   2.799  15.354  0.7766  0.4993  0.5083
 4702SOL    HW125739   1.903   2.842  15.411 -2.2174 -1.8974 -1.0576
 4702SOL    HW225740   2.020   2.767  15.427  3.3569 -0.8826 -2.0192
 4703SOL     OW25741   3.821   3.910   2.283 -0.1048 -0.0271  0.2441
 4703SOL    HW125742   3.753   3.974   2.305 -1.7110 -1.2297 -1.2465
 4703SOL    HW225743   3.809   3.849   2.356 -1.2494 -0.8216 -0.6086
 4704SOL     OW25744   3.365   1.344   5.121 -0.0643  0.1570  0.0694
 4704SOL    HW125745   3.411   1.260   5.119  1.2137  0.8940 -2.2001
 4704SOL    HW225746   3.397   1.381   5.202  1.1217 -1.4052  0.3228
 4705SOL     OW25747   1.402   4.224   7.306  0.3541  0.0689 -0.1063
 4705SOL    HW125748   1.309   4.240   7.291  0.6231  0.6297 -1.1531
 4705SOL    HW225749   1.403   4.171   7.386  0.6740  1.0508  0.5461
 4706SOL     OW25750   1.985   3.525   1.393 -0.2489  0.7541 -0.3252
 4706SOL    HW125751   1.929   3.459   1.434 -1.2080  0.5769 -1.9099
 4706SOL    HW225752   2.068   3.479   1.380 -0.3528  0.2408  0.8628
 4707SOL     OW25753   1.823   2.249   9.884  0.6299 -0.0348 -0.3693
 4707SOL    HW125754   1.904   2.297   9.899  0.5598  0.8637 -2.8073
 4707SOL    HW225755   1.773   2.327   9.859  1.5493  0.1902 -1.5239
 4708SOL     OW25756   4.360   0.330   0.038  0.0552  0.4844 -0.2319
 4708SOL    HW125757   4.357   0.365  17.687 -0.3810  0.3740 -0.2603
 4708SOL    HW225758   4.385   0.411   0.084 -0.8031  0.1899  0.7774
 4709SOL     OW25759   3.328   3.497   8.573 -0.1355 -0.1562  0.5031
 4709SOL    HW125760   3.251   3.546   8.601  0.8951  0.4841  2.2631
 4709SOL    HW225761   3.362   3.533   8.492 -0.0898  0.3923  0.7685
 4710SOL     OW25762   2.944   4.735  12.109 -0.6918  0.1955  0.2381
 4710SOL    HW125763   2.922   4.651  12.150 -0.7936  0.6480  1.0913
 4710SOL    HW225764   3.036   0.012  12.131 -0.6808  0.5547  0.0028
 4711SOL     OW25765   3.830   2.364  16.206 -0.0678 -0.6712  0.1686
 4711SOL    HW125766   3.922   2.363  16.181 -0.4648 -1.4307 -1.3172
 4711SOL    HW225767   3.813   2.453  16.177  2.6955 -0.5947 -1.1618
 4712SOL     OW25768   0.503   1.215  10.200 -0.4458  0.3994  0.1120
 4712SOL    HW125769   0.525   1.135  10.248  1.1022  0.3017 -0.7839
 4712SOL    HW225770   0.541   1.183  10.118 -0.4759  1.8873 -0.4851
 4713SOL     OW25771   3.238   2.400  12.733  0.4793 -0.5487  0.6949
 4713SOL    HW125772   3.190   2.439  12.661  0.4651  0.3885  1.2117
 4713SOL    HW225773   3.300   2.353  12.677 -0.1175 -0.2967 -0.1564
 4714SOL     OW25774   1.660   4.343   6.573 -0.1554  0.9617  0.2046
 4714SOL    HW125775   1.638   4.432   6.544  2.6053  2.2524  2.1197
 4714SOL    HW225776   1.576   4.309   6.602 -0.6521  2.6016  0.6763
 4715SOL     OW25777   2.569   4.454   6.067  0.3549  0.3357 -0.2133
 4715SOL    HW125778   2.482   4.433   6.034  0.0817  0.3350  0.5180
 4715SOL    HW225779   2.577   4.388   6.136  1.2117  0.4944 -0.1584
 4716SOL     OW25780   1.951   1.263   8.342 -0.6584  0.4561  0.0690
 4716SOL    HW125781   1.915   1.312   8.268 -1.8376  0.6146  0.7441
 4716SOL    HW225782   1.933   1.170   8.328  1.5813  0.0501 -0.0968
 4717SOL     OW25783   2.185   4.013  16.006 -0.2866  0.2067  0.2457
 4717SOL    HW125784   2.219   3.931  15.971  3.4069  1.1372  1.6821
 4717SOL    HW225785   2.224   4.012  16.094  0.0279 -0.7770  0.0864
 4718SOL     OW25786   0.569   1.434   9.165 -0.0405 -0.2781  0.0716
 4718SOL    HW125787   0.599   1.388   9.243  1.9863 -0.0074 -0.5538
 4718SOL    HW225788   0.484   1.463   9.199 -0.0239  1.1116 -1.0548
 4719SOL     OW25789   1.192   0.148  11.988  0.3640  0.0140  0.0543
 4719SOL    HW125790   1.165   0.063  12.025  0.9183 -0.4460 -0.5929
 4719SOL    HW225791   1.279   0.163  12.027  0.2125  0.4920  0.2023
 4720SOL     OW25792   3.777   3.160  10.904  0.4089 -0.5058  0.0013
 4720SOL    HW125793   3.685   3.181  10.920  1.0567  0.9383  1.7989
 4720SOL    HW225794   3.801   3.225  10.838  1.5530  1.4230  2.3486
 4721SOL     OW25795   3.331   0.339   6.859  0.4600  0.0029  0.4062
 4721SOL    HW125796   3.356   0.430   6.871  2.0728 -0.5721  1.4498
 4721SOL    HW225797   3.307   0.340   6.766  3.6062 -0.0245 -0.4215
 4722SOL     OW25798   2.372   0.778   3.922  0.1820  0.5076 -0.2498
 4722SOL    HW125799   2.430   0.771   3.998 -0.3314 -2.4345 -0.1304
 4722SOL    HW225800   2.297   0.819   3.965 -0.1145  2.2286 -2.4122
 4723SOL     OW25801   4.171   4.118   5.844  0.7016  0.5861  0.4319
 4723SOL    HW125802   4.173   4.062   5.923  0.3343  1.8744  1.3490
 4723SOL    HW225803   4.099   4.176   5.868  0.4002  1.1917 -1.9829
 4724SOL     OW25804   1.342   4.576   6.512  0.1029  0.2942  0.3276
 4724SOL    HW125805   1.278   4.640   6.543  0.0291  0.9268 -1.1268
 4724SOL    HW225806   1.322   4.495   6.559 -0.1994  0.1805  0.0045
 4725SOL     OW25807   0.285   4.292  13.419  0.4006  0.1565  0.2934
 4725SOL    HW125808   0.341   4.222  13.386 -0.5042  0.0700 -1.0896
 4725SOL    HW225809   0.277   4.348  13.341  1.8845  0.6676  0.5080
 4726SOL     OW25810   1.532   4.681   6.906 -0.2682  0.4724 -0.2866
 4726SOL    HW125811   1.549   4.597   6.949  0.7169  0.3344 -0.9691
 4726SOL    HW225812   1.562   4.675   6.816  0.5940 -2.0820  0.1769
 4727SOL     OW25813   1.334   2.266   5.468 -0.7903 -0.4078 -0.4325
 4727SOL    HW125814   1.333   2.273   5.373 -3.6014  0.2231 -0.3483
 4727SOL    HW225815   1.312   2.173   5.478 -2.7872 -0.0110 -1.3451
 4728SOL     OW25816   1.097   4.012   7.354 -0.3124  0.6329 -0.7362
 4728SOL    HW125817   1.030   4.047   7.413  0.6096 -1.2409  1.4158
 4728SOL    HW225818   1.173   4.019   7.411  0.5061 -2.8867 -1.4049
 4729SOL     OW25819   4.006   0.705   2.417  0.1426  0.8738  0.1615
 4729SOL    HW125820   3.919   0.679   2.449  0.3618  0.7184  0.6340
 4729SOL    HW225821   4.002   0.721   2.323 -4.3593 -0.1378  0.1661
 4730SOL     OW25822   2.255   3.510  13.071 -0.2194 -0.0299  0.1398
 4730SOL    HW125823   2.280   3.602  13.070 -2.2293  0.5259 -0.0151
 4730SOL    HW225824   2.238   3.503  12.977 -0.6876  0.3596  0.1937
 4731SOL     OW25825   0.983   1.309  11.899 -0.5948  0.1192  0.4337
 4731SOL    HW125826   0.967   1.215  11.892 -0.6635  0.0827  1.0806
 4731SOL    HW225827   0.954   1.328  11.989 -0.7488 -1.0423  0.6257
 4732SOL     OW25828   4.400   2.204   1.592 -0.5815 -0.0528  0.7458
 4732SOL    HW125829   4.400   2.123   1.642 -1.1574  0.1912  1.1429
 4732SOL    HW225830   4.307   2.225   1.586 -1.2205 -3.5311 -1.3382
 4733SOL     OW25831   3.866   1.035   7.283 -0.1523  0.2695  0.7773
 4733SOL    HW125832   3.797   1.056   7.220  1.0796  0.0548 -0.6377
 4733SOL    HW225833   3.909   0.962   7.238 -1.4180  0.0810 -0.1221
 4734SOL     OW25834   4.249   4.069  10.121 -0.2758 -0.4443 -0.2623
 4734SOL    HW125835   4.178   4.038  10.177  2.3292 -2.5736  1.8585
 4734SOL    HW225836   4.281   3.991  10.077  0.0259  0.0945 -0.9887
 4735SOL     OW25837   4.183   3.565   3.461  0.4447 -0.2012  0.1525
 4735SOL    HW125838   4.093   3.596   3.463  0.4577 -0.2890  1.8245
 4735SOL    HW225839   4.190   3.508   3.384  2.5588 -1.2070  1.0968
 4736SOL     OW25840   2.271   2.229   3.812 -0.2953 -0.3544  0.5196
 4736SOL    HW125841   2.361   2.259   3.825  0.3372 -2.6384  1.4321
 4736SOL    HW225842   2.244   2.292   3.745 -0.5338 -2.2554 -1.1837
 4737SOL     OW25843   4.025   1.325   4.610 -0.4818 -0.3740  0.5721
 4737SOL    HW125844   4.040   1.233   4.631  2.0404 -0.1849 -0.4532
 4737SOL    HW225845   3.947   1.346   4.661  0.1489 -0.7212  1.6845
 4738SOL     OW25846   2.760   3.961   8.925 -0.6636  0.6264  0.3795
 4738SOL    HW125847   2.753   3.956   9.020 -1.0146 -0.9985  0.2814
 4738SOL    HW225848   2.704   3.888   8.897 -1.4568  1.3467  0.1085
 4739SOL     OW25849   0.159   0.621  10.004 -0.2715 -0.2721 -0.2791
 4739SOL    HW125850   0.176   0.530  10.027  1.6773  0.5935  1.7332
 4739SOL    HW225851   0.179   0.622   9.910  0.3669  0.3939 -0.1408
 4740SOL     OW25852   4.336   2.768   7.264  0.3685 -0.7913 -0.1867
 4740SOL    HW125853   4.374   2.837   7.318 -0.8397  0.9860 -1.5873
 4740SOL    HW225854   4.246   2.761   7.297  1.3771 -0.2887  2.6425
 4741SOL     OW25855   1.376   1.084   6.063  0.2203 -0.2858 -0.8052
 4741SOL    HW125856   1.349   1.053   6.149  0.4975 -1.8462 -1.2754
 4741SOL    HW225857   1.463   1.052   6.036  1.7205  0.4129  3.2800
 4742SOL     OW25858   2.537   3.469  12.994 -0.4012  0.2179  0.3029
 4742SOL    HW125859   2.513   3.381  12.964 -1.3010  0.6827 -0.3658
 4742SOL    HW225860   2.451   3.511  12.990  1.1735  3.3893 -0.6873
 4743SOL     OW25861   2.138   3.416   2.855 -0.2449  0.1806 -0.2192
 4743SOL    HW125862   2.072   3.378   2.797  0.2135 -1.5312  0.3874
 4743SOL    HW225863   2.096   3.412   2.941 -1.8072 -0.1802 -0.9963
 4744SOL     OW25864   2.432   0.215   8.040  0.1365  0.1494  0.5619
 4744SOL    HW125865   2.448   0.239   7.948 -0.6743  0.0189  0.3890
 4744SOL    HW225866   2.520   0.180   8.054 -1.0147 -2.5994  0.9118
 4745SOL     OW25867   2.456   4.682   9.524  0.0406  0.2777 -0.0051
 4745SOL    HW125868   2.362   4.694   9.519  0.0168  0.8434  1.5396
 4745SOL    HW225869   2.489   4.661   9.437 -1.3825 -0.6364 -0.3061
 4746SOL     OW25870   0.035   0.323   9.840 -0.3771 -0.0958  0.1634
 4746SOL    HW125871   0.115   0.305   9.889  1.4167  0.0923 -2.6852
 4746SOL    HW225872   0.013   0.241   9.795  0.2013  0.4928 -1.2010
 4747SOL     OW25873   0.153   3.432   8.979  0.2346 -0.2602  0.4698
 4747SOL    HW125874   0.203   3.351   8.991  1.0833  0.7118  3.6248
 4747SOL    HW225875   0.064   3.405   8.958 -0.0123  0.4421  0.5980
 4748SOL     OW25876   2.549   4.582  17.643  0.2817 -0.0389  0.2833
 4748SOL    HW125877   2.546   4.631  17.561 -0.4054 -0.9814 -0.2478
 4748SOL    HW225878   2.525   4.644  17.712 -2.4383  0.0682 -0.7482
 4749SOL     OW25879   1.226   2.308   5.213 -0.3040 -0.3830 -0.4234
 4749SOL    HW125880   1.178   2.390   5.221  2.3627  1.2433 -0.9899
 4749SOL    HW225881   1.165   2.244   5.250 -0.7012  0.7133  0.8349
 4750SOL     OW25882   1.884   2.229   7.627 -0.3775 -0.3358  0.5274
 4750SOL    HW125883   1.856   2.296   7.689 -0.7807  1.5583 -1.7016
 4750SOL    HW225884   1.968   2.187   7.648 -0.5720 -1.0744 -0.1312
 4751SOL     OW25885   4.415   1.867   5.519 -0.2037  1.1268 -0.0422
 4751SOL    HW125886   4.486   1.873   5.456 -2.6530 -1.3461 -3.0773
 4751SOL    HW225887   4.342   1.887   5.460  0.0356 -0.8581 -1.0331
 4752SOL     OW25888   0.779   3.945   6.770 -0.5613  0.2839 -0.7252
 4752SOL    HW125889   0.806   3.996   6.694  0.3394 -0.5766 -0.9861
 4752SOL    HW225890   0.830   3.866   6.752  2.0527  1.6278  0.8647
 4753SOL     OW25891   1.930   3.501   2.209 -0.2851 -0.3288 -0.5375
 4753SOL    HW125892   1.947   3.501   2.115  0.3287 -0.8379 -0.4293
 4753SOL    HW225893   1.920   3.596   2.222 -1.2421 -0.2317 -1.9934
 4754SOL     OW25894   4.251   0.629   2.140 -0.1433  0.1142  0.5366
 4754SOL    HW125895   4.276   0.620   2.232  1.8877 -1.1962 -0.1606
 4754SOL    HW225896   4.334   0.592   2.110 -1.3602 -1.0443 -1.4400
 4755SOL     OW25897   1.704   4.395  10.102 -0.5624 -0.2152 -0.1760
 4755SOL    HW125898   1.643   4.340  10.152 -0.6838  0.7090  0.6951
 4755SOL    HW225899   1.667   4.382  10.015 -0.4682 -2.0232  0.0524
 4756SOL     OW25900   3.658   1.021   5.596  0.3567 -0.0109 -0.9340
 4756SOL    HW125901   3.616   1.040   5.512  1.0251  2.7364 -0.6269
 4756SOL    HW225902   3.600   0.955   5.634  0.8444  0.1765  0.1613
 4757SOL     OW25903   3.233   0.729  17.143 -0.5424  0.2140 -0.2328
 4757SOL    HW125904   3.206   0.638  17.135  1.6064 -0.5198  1.0124
 4757SOL    HW225905   3.155   0.770  17.182  0.0933  0.0078  1.2610
 4758SOL     OW25906   0.394   1.661   5.962 -0.4532  0.0263 -0.5128
 4758SOL    HW125907   0.364   1.577   5.997  0.1084 -0.5567 -1.4165
 4758SOL    HW225908   0.435   1.636   5.879 -0.3357 -2.1228  0.1771
 4759SOL     OW25909   4.054   0.384   2.356  0.1992 -0.2479 -0.0036
 4759SOL    HW125910   4.108   0.463   2.346  1.3099 -1.2581 -2.0265
 4759SOL    HW225911   4.049   0.371   2.450  1.6853 -0.4318  0.0552
 4760SOL     OW25912   4.726   4.588   5.659  0.1678  0.2099  0.0277
 4760SOL    HW125913   4.647   4.615   5.612  0.8180 -0.6708 -1.5892
 4760SOL    HW225914   4.678   4.563   5.737  0.1763 -1.9446 -0.6688
 4761SOL     OW25915   3.273   0.257   2.672 -0.2028  0.2862  0.1320
 4761SOL    HW125916   3.232   0.249   2.586  0.7828  0.6195 -0.3664
 4761SOL    HW225917   3.206   0.315   2.708 -1.2839 -0.5989 -0.4531
 4762SOL     OW25918   1.214   0.041   0.551 -0.0672 -0.2694  0.1685
 4762SOL    HW125919   1.229   0.084   0.635  2.1153 -1.9387  0.6455
 4762SOL    HW225920   1.210   4.688   0.590 -4.3195 -0.4736 -0.7090
 4763SOL     OW25921   1.904   3.612   9.956 -0.0578 -0.4288  0.0039
 4763SOL    HW125922   1.963   3.640  10.026  1.5299 -1.1432 -1.0592
 4763SOL    HW225923   1.935   3.675   9.891 -1.6662 -0.7953 -1.1178
 4764SOL     OW25924   3.655   2.535   4.668  0.3136  0.2702 -0.1242
 4764SOL    HW125925   3.733   2.521   4.721  0.3332 -0.3557 -0.3164
 4764SOL    HW225926   3.632   2.628   4.666 -1.0324 -0.0289  1.5989
 4765SOL     OW25927   3.151   1.986   7.551  0.2051  0.4795  0.1956
 4765SOL    HW125928   3.174   1.893   7.547  2.2230  0.9212  1.4620
 4765SOL    HW225929   3.144   1.987   7.647 -0.7031 -2.7536  0.1837
 4766SOL     OW25930   0.860   2.800  16.794 -0.2481 -0.1809  0.3196
 4766SOL    HW125931   0.954   2.809  16.811 -0.0345 -1.3062 -0.2577
 4766SOL    HW225932   0.822   2.813  16.881 -0.8445  1.1775 -0.1404
 4767SOL     OW25933   1.621   3.330   2.557 -0.5444 -0.1168  0.8470
 4767SOL    HW125934   1.663   3.248   2.534  0.4200  0.7067 -0.3400
 4767SOL    HW225935   1.603   3.354   2.466 -1.5627 -0.1495  1.0318
 4768SOL     OW25936   3.106   2.779   3.096  0.0318 -0.0670  0.5337
 4768SOL    HW125937   3.179   2.720   3.077  0.4550  0.1389  1.4978
 4768SOL    HW225938   3.108   2.786   3.192 -0.1109  1.1741  0.4386
 4769SOL     OW25939   1.094   0.345  11.457  0.0944 -0.0750 -0.8260
 4769SOL    HW125940   1.119   0.269  11.510  1.1582 -0.9376 -2.5726
 4769SOL    HW225941   1.020   0.319  11.402  1.5309 -1.7887 -1.9536
 4770SOL     OW25942   0.718   4.420   8.360 -0.0568 -0.0356 -0.0751
 4770SOL    HW125943   0.688   4.468   8.282 -2.0969 -2.7662 -0.9911
 4770SOL    HW225944   0.632   4.416   8.402  1.3616  1.5756  2.9004
 4771SOL     OW25945   3.606   2.709   1.723  0.1894 -0.3826  0.1816
 4771SOL    HW125946   3.589   2.759   1.803  0.3109  0.9337 -0.6116
 4771SOL    HW225947   3.524   2.670   1.695 -0.4943  0.3005  1.2375
 4772SOL     OW25948   0.974   3.769   7.889 -0.5287  0.4639  0.6155
 4772SOL    HW125949   0.935   3.828   7.823 -1.7257 -1.7427 -0.6415
 4772SOL    HW225950   1.068   3.790   7.890 -0.4199 -0.0264  0.5160
 4773SOL     OW25951   3.105   1.744   8.248  0.3465 -0.4924  0.0198
 4773SOL    HW125952   3.185   1.700   8.276  1.0160  0.2590 -0.7401
 4773SOL    HW225953   3.044   1.670   8.240  1.1796 -0.8786 -2.7432
 4774SOL     OW25954   1.908   0.708   8.356  0.4651  0.0636 -0.0237
 4774SOL    HW125955   1.896   0.674   8.445 -1.6474  1.3266  0.1985
 4774SOL    HW225956   1.982   0.656   8.325 -0.4275  0.3840 -2.7527
 4775SOL     OW25957   2.712   4.157   9.334 -0.2888  0.4606 -0.3247
 4775SOL    HW125958   2.730   4.072   9.294  0.4492  1.3169 -1.7999
 4775SOL    HW225959   2.726   4.128   9.424  0.7647 -1.1616 -1.0109
 4776SOL     OW25960   1.578   4.379   8.190  0.3583  0.1463 -0.1356
 4776SOL    HW125961   1.533   4.294   8.196  0.1552  0.2019 -0.8950
 4776SOL    HW225962   1.535   4.418   8.114  1.0442  2.6455  0.7590
 4777SOL     OW25963   3.762   1.904   4.993  0.4533  0.2545  0.1406
 4777SOL    HW125964   3.842   1.878   4.947 -1.3602 -3.9863 -0.5568
 4777SOL    HW225965   3.730   1.817   5.015  0.0578  0.5912  0.9041
 4778SOL     OW25966   3.613   1.787   5.259  0.0418 -0.3772  0.1851
 4778SOL    HW125967   3.626   1.694   5.277  0.9867 -0.4583 -0.9041
 4778SOL    HW225968   3.560   1.778   5.180  0.9117  1.1030 -0.5683
 4779SOL     OW25969   2.223   1.012   8.482 -0.2541 -0.4347 -0.2350
 4779SOL    HW125970   2.237   0.918   8.475 -0.2556 -0.5139  0.8076
 4779SOL    HW225971   2.308   1.048   8.509 -0.2065 -0.3916 -0.4371
 4780SOL     OW25972   4.425   1.384  14.244  0.0256 -0.1355  0.1176
 4780SOL    HW125973   4.408   1.476  14.268  1.6746 -0.1208  1.2432
 4780SOL    HW225974   4.495   1.355  14.303 -0.3244  0.5031  0.8503
 4781SOL     OW25975   4.541   0.873  16.892 -0.0981 -0.2816 -0.2206
 4781SOL    HW125976   4.456   0.890  16.933  0.9939  0.2935  1.7932
 4781SOL    HW225977   4.519   0.804  16.830 -2.3203  1.0110 -0.8799
 4782SOL     OW25978   4.608   2.692  14.283 -0.3129  0.3231 -0.0791
 4782SOL    HW125979   4.645   2.680  14.196 -0.6417 -0.7603 -0.0654
 4782SOL    HW225980   4.546   2.764  14.271  0.1871  1.0657  1.7420
 4783SOL     OW25981   0.996   1.696   2.720 -0.5791  0.3474 -0.1853
 4783SOL    HW125982   0.907   1.712   2.686 -0.1428 -1.0302 -1.9987
 4783SOL    HW225983   1.038   1.663   2.641  2.8967  0.6347  1.5367
 4784SOL     OW25984   4.278   1.308   8.105  0.0948  0.0896  0.2040
 4784SOL    HW125985   4.223   1.290   8.182 -0.5305 -0.1160 -0.2861
 4784SOL    HW225986   4.213   1.281   8.040 -0.7917  2.5533  0.1026
 4785SOL     OW25987   4.304   1.788   3.341 -0.5229  0.1081 -0.3896
 4785SOL    HW125988   4.377   1.840   3.308 -1.3767  1.4253 -0.1734
 4785SOL    HW225989   4.273   1.845   3.412  1.3652  0.1828  0.3876
 4786SOL     OW25990   4.518   0.762  16.226 -0.1164 -0.3439 -0.6677
 4786SOL    HW125991   4.532   0.856  16.237 -0.5727  0.0084 -3.0501
 4786SOL    HW225992   4.426   0.770  16.203 -0.8543  2.2885  3.2122
 4787SOL     OW25993   4.164   1.784   7.816  0.1013  0.0091  0.1990
 4787SOL    HW125994   4.130   1.695   7.811  2.5588 -0.8759 -0.3317
 4787SOL    HW225995   4.246   1.766   7.771  0.4605  0.8068  0.5315
 4788SOL     OW25996   3.495   3.857   1.961 -0.1110 -0.4473 -0.1925
 4788SOL    HW125997   3.473   3.916   1.888  1.3851  0.3104 -0.0352
 4788SOL    HW225998   3.417   3.877   2.013  0.4388  1.2565 -0.0350
 4789SOL     OW25999   3.351   2.246   1.013 -0.5770 -0.0281 -0.2396
 4789SOL    HW126000   3.383   2.189   0.943 -0.8638  2.9247 -2.7721
 4789SOL    HW226001   3.317   2.315   0.956 -0.7879  0.0735  0.0080
 4790SOL     OW26002   0.939   2.246   6.989 -0.1141  0.2582  0.0760
 4790SOL    HW126003   0.879   2.303   6.940  0.1585 -0.1705 -0.7663
 4790SOL    HW226004   0.876   2.182   7.021  0.0759 -0.7579 -1.5401
 4791SOL     OW26005   1.257   0.392   0.254 -0.4052  0.0487 -0.2966
 4791SOL    HW126006   1.337   0.364   0.299  0.2578  0.5084 -1.1830
 4791SOL    HW226007   1.218   0.309   0.229  1.0883  0.2203 -3.1396
 4792SOL     OW26008   1.319   1.830   6.690  0.1921 -0.1695  0.2446
 4792SOL    HW126009   1.398   1.865   6.730 -0.0344 -1.0694  1.4891
 4792SOL    HW226010   1.325   1.737   6.714  1.3959 -0.2505 -0.3871
 4793SOL     OW26011   2.415   2.418   2.151 -0.1861 -0.0089 -0.2661
 4793SOL    HW126012   2.459   2.427   2.067 -0.4589  0.6544 -0.3386
 4793SOL    HW226013   2.475   2.465   2.208 -0.8343 -0.7712  1.0394
 4794SOL     OW26014   0.424   3.229   3.954  0.0792 -0.3793 -0.2686
 4794SOL    HW126015   0.507   3.196   3.921  0.4607  0.8737 -0.5580
 4794SOL    HW226016   0.436   3.215   4.048 -1.4889  0.1754  0.0236
 4795SOL     OW26017   2.985   3.055   4.110 -0.0679  0.0364  0.4626
 4795SOL    HW126018   2.983   3.082   4.201 -1.2273  0.6935  0.2510
 4795SOL    HW226019   3.065   3.102   4.090 -0.5864  1.1039  0.9065
 4796SOL     OW26020   0.228   3.657   7.386  0.1428  0.6656 -0.0146
 4796SOL    HW126021   0.299   3.617   7.336 -2.3338 -1.0416 -2.1568
 4796SOL    HW226022   0.268   3.740   7.412 -0.3923  0.5035  1.3367
 4797SOL     OW26023   2.753   4.189   1.380 -0.7946  0.1827 -0.2031
 4797SOL    HW126024   2.702   4.264   1.408 -0.3375  0.2769  0.3646
 4797SOL    HW226025   2.827   4.192   1.440  0.5486  0.1729 -1.8680
 4798SOL     OW26026   0.622   1.065   7.392 -0.1707 -0.0912 -0.3819
 4798SOL    HW126027   0.656   1.015   7.318  0.7183  4.5772 -3.1471
 4798SOL    HW226028   0.614   1.143   7.338  0.9052 -1.4882 -2.5598
 4799SOL     OW26029   2.772   2.707   2.610 -0.4419  0.4935  0.3308
 4799SOL    HW126030   2.853   2.728   2.563  0.1190  0.0876  1.1204
 4799SOL    HW226031   2.724   2.790   2.607 -0.1762  0.6519  0.4857
 4800SOL     OW26032   2.618   2.400   2.843 -0.0751  0.5555 -0.5751
 4800SOL    HW126033   2.525   2.413   2.864 -0.3012  0.9119 -1.7604
 4800SOL    HW226034   2.625   2.306   2.858 -2.4612  0.4955  0.2376
 4801SOL     OW26035   4.685   3.096  10.237  0.0311 -0.1868 -0.2001
 4801SOL    HW126036   4.730   3.101  10.321 -1.6295 -0.0672  0.6904
 4801SOL    HW226037   0.013   3.038  10.195 -1.4352 -1.6072 -0.4263
 4802SOL     OW26038   3.584   3.353   7.580  0.3807  0.2465  0.3532
 4802SOL    HW126039   3.633   3.431   7.606 -2.2642  1.8518  0.5569
 4802SOL    HW226040   3.566   3.316   7.667  0.6032  0.2898  0.4180
 4803SOL     OW26041   2.797   2.677   8.813 -0.1999  0.1233 -0.3427
 4803SOL    HW126042   2.798   2.703   8.905 -0.5494  0.7189 -0.5092
 4803SOL    HW226043   2.754   2.591   8.815  0.3087 -0.0715  2.1219
 4804SOL     OW26044   2.907   4.421   5.090  0.5898 -0.1010 -0.0289
 4804SOL    HW126045   2.816   4.394   5.099  0.9008 -0.5822  1.7448
 4804SOL    HW226046   2.930   4.387   5.004 -1.0800 -0.2811 -0.4115
 4805SOL     OW26047   4.174   3.216  13.852  0.4825 -0.5471 -0.3250
 4805SOL    HW126048   4.084   3.248  13.851  0.4215 -0.7179  0.7796
 4805SOL    HW226049   4.222   3.257  13.924  0.5680  0.0200 -0.6978
 4806SOL     OW26050   4.569   3.035  15.598 -1.0806  0.3806 -0.3652
 4806SOL    HW126051   4.488   3.021  15.648 -0.2324  1.2070  1.2667
 4806SOL    HW226052   4.548   3.097  15.528  2.2967 -0.7882 -2.3696
 4807SOL     OW26053   1.858   1.742   4.800 -0.2844 -0.2379  0.4867
 4807SOL    HW126054   1.763   1.752   4.806 -0.0946  1.5622  0.6317
 4807SOL    HW226055   1.889   1.824   4.762 -1.4793 -1.3955 -3.0316
 4808SOL     OW26056   1.954   1.276   1.467 -0.0715  0.4909  0.0151
 4808SOL    HW126057   1.955   1.334   1.391 -0.8913  2.3257  1.3947
 4808SOL    HW226058   1.942   1.337   1.540 -0.6658 -0.8023  0.9832
 4809SOL     OW26059   1.988   3.031   9.469 -0.0847 -0.2693  0.3812
 4809SOL    HW126060   1.892   3.038   9.463  0.3133  4.2358 -0.8711
 4809SOL    HW226061   2.001   3.073   9.555  1.6597 -1.0043  0.4659
 4810SOL     OW26062   3.795   0.688   2.148 -0.3665  0.5841 -0.3668
 4810SOL    HW126063   3.830   0.777   2.148 -1.0586  0.8495  0.6687
 4810SOL    HW226064   3.875   0.637   2.135 -1.5071 -0.9794 -1.1816
 4811SOL     OW26065   2.169   1.932  10.578 -0.0782 -0.1090 -0.1505
 4811SOL    HW126066   2.252   1.892  10.606 -1.2952 -3.2001 -1.0118
 4811SOL    HW226067   2.194   2.019  10.610  1.3166 -0.4707 -0.2311
 4812SOL     OW26068   3.480   1.978   3.146  0.1969  0.5481  0.3325
 4812SOL    HW126069   3.418   2.013   3.082  1.5925 -0.0992 -1.3795
 4812SOL    HW226070   3.478   2.052   3.206 -3.2386  0.1311  0.7698
 4813SOL     OW26071   4.532   2.389   8.487  0.3146  0.1033  0.5170
 4813SOL    HW126072   4.450   2.357   8.524 -0.7383  0.0388 -1.8702
 4813SOL    HW226073   4.502   2.445   8.415  0.7023 -0.2766  0.0498
 4814SOL     OW26074   3.601   2.955  12.805 -0.3489 -0.2765  0.2846
 4814SOL    HW126075   3.649   3.018  12.858 -2.4484 -0.5200  2.4903
 4814SOL    HW226076   3.652   2.973  12.727 -1.6405  2.2129  0.0123
 4815SOL     OW26077   0.825   4.018   1.222 -0.1815 -0.5143 -0.0450
 4815SOL    HW126078   0.814   3.933   1.267  2.3239 -1.8910 -2.0539
 4815SOL    HW226079   0.885   3.980   1.158 -0.2833 -0.9783  0.1324
 4816SOL     OW26080   4.444   0.719  17.345  0.0810 -0.6400 -0.3362
 4816SOL    HW126081   4.506   0.707  17.273  2.5782  1.3173  1.4618
 4816SOL    HW226082   4.479   0.799  17.384 -1.4042 -0.5304  0.7870
 4817SOL     OW26083   4.393   0.937   9.892  0.8078 -0.1307  0.3389
 4817SOL    HW126084   4.446   0.870   9.935  0.1015  0.5528  2.2619
 4817SOL    HW226085   4.322   0.949   9.955  0.2601 -2.4307  0.1707
 4818SOL     OW26086   3.340   4.363   4.016 -0.4204 -0.2639 -0.2536
 4818SOL    HW126087   3.294   4.283   3.991  1.2395 -1.7280  1.3732
 4818SOL    HW226088   3.430   4.329   4.023 -0.1155  0.5454 -0.2814
 4819SOL     OW26089   2.436   3.792  16.165  0.7284 -0.2104 -0.5715
 4819SOL    HW126090   2.484   3.764  16.243  0.2459 -0.4095 -0.3467
 4819SOL    HW226091   2.406   3.875  16.202  2.3097 -0.4818  1.3227
 4820SOL     OW26092   2.071   2.825   1.820 -0.2138  0.1516 -0.0029
 4820SOL    HW126093   1.983   2.830   1.783  0.4454  0.1775 -1.5362
 4820SOL    HW226094   2.099   2.734   1.817 -0.7852 -0.0167 -0.1228
 4821SOL     OW26095   4.346   3.983   1.947 -0.0808 -0.6665 -0.5365
 4821SOL    HW126096   4.299   4.064   1.928  0.8301  0.2765  1.3574
 4821SOL    HW226097   4.422   3.997   1.891  1.8412  0.0322  2.2883
 4822SOL     OW26098   2.584   3.534   4.803 -0.0179  0.0343 -0.8095
 4822SOL    HW126099   2.505   3.528   4.857  1.5833 -1.2946  1.3865
 4822SOL    HW226100   2.647   3.500   4.867  0.9151 -0.8851 -2.2255
 4823SOL     OW26101   1.978   3.261   7.780  0.5182 -0.2569  0.3084
 4823SOL    HW126102   1.958   3.196   7.848 -2.1044 -1.0752 -1.2325
 4823SOL    HW226103   2.074   3.263   7.781  0.5781 -1.3526 -3.6819
 4824SOL     OW26104   3.218   4.507   2.861 -0.1672  0.4170 -0.6652
 4824SOL    HW126105   3.217   4.416   2.833  0.5842  0.1560  0.1502
 4824SOL    HW226106   3.308   4.518   2.893 -0.4432 -0.5762  0.4424
 4825SOL     OW26107   0.646   3.818  10.433  0.7702  0.1391  0.5696
 4825SOL    HW126108   0.712   3.792  10.368  2.0077  3.7644  0.3769
 4825SOL    HW226109   0.601   3.875  10.372  0.9602  0.9233  1.1583
 4826SOL     OW26110   1.622   4.383   0.467  0.4264 -0.5600 -0.2450
 4826SOL    HW126111   1.582   4.323   0.529  0.9110  0.7467  1.3444
 4826SOL    HW226112   1.708   4.401   0.507  0.6925 -1.3169 -0.4882
 4827SOL     OW26113   0.640   0.306   5.367  0.4046  0.0214 -0.6183
 4827SOL    HW126114   0.590   0.269   5.295 -0.3569 -0.4095  0.1336
 4827SOL    HW226115   0.585   0.289   5.444  1.4287  1.3231  0.4062
 4828SOL     OW26116   4.232   0.560   9.581  0.0930  0.1882 -0.1036
 4828SOL    HW126117   4.251   0.487   9.640 -0.5626  2.1877  2.5405
 4828SOL    HW226118   4.307   0.618   9.593  1.0765 -1.2612  0.7829
 4829SOL     OW26119   4.208   2.223   5.346 -0.5109 -0.5094 -0.2250
 4829SOL    HW126120   4.132   2.172   5.320 -0.6493  0.4328 -1.6558
 4829SOL    HW226121   4.167   2.309   5.358 -0.0656  0.2578 -4.1245
 4830SOL     OW26122   2.607   4.302   3.183 -0.2516  0.3643  0.1237
 4830SOL    HW126123   2.525   4.336   3.148 -0.8588  0.2703  1.4746
 4830SOL    HW226124   2.597   4.212   3.152  1.6783  0.1358  0.1421
 4831SOL     OW26125   0.850   0.398   4.148 -0.2042  0.3724  0.1693
 4831SOL    HW126126   0.826   0.425   4.237  0.4495 -1.4094  0.8852
 4831SOL    HW226127   0.901   0.475   4.123  2.0752 -0.7830  1.2514
 4832SOL     OW26128   4.394   3.103  14.209 -0.3932 -0.3630 -0.5091
 4832SOL    HW126129   4.397   3.057  14.125 -4.0241  0.7451 -1.2622
 4832SOL    HW226130   4.315   3.062  14.244 -0.2060  0.0621  0.3930
 4833SOL     OW26131   2.340   0.954  16.819  0.0992  0.0438 -0.2216
 4833SOL    HW126132   2.371   0.874  16.861 -1.4501 -0.3816  0.1189
 4833SOL    HW226133   2.297   0.997  16.893  0.6898 -0.5855  0.4898
 4834SOL     OW26134   3.318   0.264   9.077 -0.0462 -0.0147  0.3290
 4834SOL    HW126135   3.229   0.295   9.093  1.0779  3.6046 -0.5578
 4834SOL    HW226136   3.342   0.213   9.154  2.6994 -0.7084 -0.9640
 4835SOL     OW26137   3.776   4.347   1.858  0.4395  0.0156 -0.9820
 4835SOL    HW126138   3.698   4.292   1.870  0.4133  0.0520 -0.9844
 4835SOL    HW226139   3.750   4.404   1.787  1.3269  0.8289 -0.6494
 4836SOL     OW26140   2.518   1.245   9.050  0.1393 -0.3561  0.1685
 4836SOL    HW126141   2.520   1.340   9.063  0.2638 -0.4056  0.5176
 4836SOL    HW226142   2.597   1.224   9.100  0.2635 -1.1471 -0.3573
 4837SOL     OW26143   2.349   0.559   1.215 -0.6139  1.0409  0.2145
 4837SOL    HW126144   2.296   0.481   1.198  1.3124 -0.1699 -0.2242
 4837SOL    HW226145   2.311   0.589   1.298  3.8776  1.2431  2.1872
 4838SOL     OW26146   1.782   1.375  12.709 -0.1420  0.1598  0.3412
 4838SOL    HW126147   1.714   1.383  12.643 -0.2976 -3.0366  0.0793
 4838SOL    HW226148   1.804   1.467  12.723 -0.4958  0.0897  1.3475
 4839SOL     OW26149   1.660   2.518   7.183 -0.2432  0.4935 -0.1900
 4839SOL    HW126150   1.570   2.506   7.151 -0.8086  1.3607  1.0987
 4839SOL    HW226151   1.693   2.437   7.144  0.9332 -0.1786  2.2442
 4840SOL     OW26152   3.866   2.545   7.780 -0.3643  0.1862  0.2270
 4840SOL    HW126153   3.922   2.594   7.841 -0.6959  0.0148  0.6673
 4840SOL    HW226154   3.852   2.463   7.827  0.6880  0.4685  1.0476
 4841SOL     OW26155   3.013   2.596   6.661  0.4328  0.1199 -0.1181
 4841SOL    HW126156   3.070   2.532   6.617 -0.2198 -1.0938  0.7928
 4841SOL    HW226157   2.967   2.544   6.727 -0.8107 -0.9741 -1.8383
 4842SOL     OW26158   1.785   2.304   7.071  0.1650 -0.1358 -0.0177
 4842SOL    HW126159   1.833   2.296   7.153  1.0405  3.4256 -0.1932
 4842SOL    HW226160   1.773   2.217   7.033  2.6868 -0.6645  0.4473
 4843SOL     OW26161   1.313   2.307   4.689  0.0789  0.0736 -0.0848
 4843SOL    HW126162   1.231   2.343   4.657  0.4637 -1.1340 -2.4623
 4843SOL    HW226163   1.318   2.345   4.776 -2.6370  1.4648 -0.5488
 4844SOL     OW26164   3.264   3.351  17.317  0.0092  0.0181  0.0102
 4844SOL    HW126165   3.248   3.257  17.327 -0.2579 -0.0714 -1.3048
 4844SOL    HW226166   3.282   3.382  17.406  0.6781 -0.2733 -0.0229
 4845SOL     OW26167   1.740   3.715   7.789 -0.3328 -0.4167  0.0078
 4845SOL    HW126168   1.649   3.731   7.812 -0.3833  1.7301 -1.6262
 4845SOL    HW226169   1.784   3.731   7.872  0.0196 -1.1481 -0.0403
 4846SOL     OW26170   2.441   0.220   1.064  0.8274  0.1374 -0.2945
 4846SOL    HW126171   2.391   0.193   0.987 -1.8740 -0.6929  1.7482
 4846SOL    HW226172   2.365   0.245   1.117  0.7950  1.5369 -1.0028
 4847SOL     OW26173   1.069   4.525   7.629  0.5980  0.5234  0.1152
 4847SOL    HW126174   1.111   4.602   7.667 -0.0463 -0.1898  2.2509
 4847SOL    HW226175   1.149   4.473   7.617  2.4890  3.3116  0.5099
 4848SOL     OW26176   3.450   1.428   8.640 -0.6468 -0.2183 -0.8829
 4848SOL    HW126177   3.535   1.468   8.660 -1.4352 -0.1365  2.2862
 4848SOL    HW226178   3.456   1.435   8.545 -1.7706  0.0046 -0.9379
 4849SOL     OW26179   2.262   0.247  11.349  0.1925 -0.2658 -0.5316
 4849SOL    HW126180   2.192   0.302  11.384  0.7114  2.1762 -3.3448
 4849SOL    HW226181   2.331   0.271  11.411 -0.1760 -1.7539  0.4632
 4850SOL     OW26182   1.257   2.462   6.727  0.0965  0.0293  0.2532
 4850SOL    HW126183   1.205   2.541   6.741 -1.9887 -1.4762  1.0910
 4850SOL    HW226184   1.244   2.426   6.815  0.1372 -1.1405 -0.2167
 4851SOL     OW26185   3.283   3.008   4.803 -0.0691 -0.6342  0.8303
 4851SOL    HW126186   3.234   3.061   4.867 -0.2648 -0.3888  0.4766
 4851SOL    HW226187   3.372   3.015   4.836  0.0443 -1.9598  0.7718
 4852SOL     OW26188   1.362   3.678  10.795  0.2905  0.5461  0.5272
 4852SOL    HW126189   1.440   3.664  10.741  0.9292 -1.9365  2.0845
 4852SOL    HW226190   1.395   3.727  10.870 -0.7119  2.3224 -0.1739
 4853SOL     OW26191   3.790   0.526   4.075  0.6270 -0.0419 -0.1663
 4853SOL    HW126192   3.780   0.600   4.015 -1.4743 -2.3483 -2.6393
 4853SOL    HW226193   3.774   0.455   4.013  0.8871 -0.1608 -0.0987
 4854SOL     OW26194   4.223   2.328   7.860 -0.3290 -0.3163  0.7879
 4854SOL    HW126195   4.211   2.236   7.884 -1.9988  0.0382  1.2671
 4854SOL    HW226196   4.164   2.374   7.920  0.9880  1.8626  0.4249
 4855SOL     OW26197   1.816   2.897   1.772  0.5393 -0.3744 -0.1267
 4855SOL    HW126198   1.800   2.970   1.832  3.6225 -1.8695  2.5264
 4855SOL    HW226199   1.764   2.832   1.819  0.7713 -1.2767 -1.1166
 4856SOL     OW26200   0.275   3.986   6.386  0.0695  0.3923 -0.1255
 4856SOL    HW126201   0.342   4.044   6.422  0.1957 -0.2200  0.6455
 4856SOL    HW226202   0.201   4.045   6.396  1.0913  1.5913  0.3142
 4857SOL     OW26203   1.241   1.588  16.229  0.1514 -0.7290  0.5394
 4857SOL    HW126204   1.168   1.650  16.227  0.4472 -0.3308  2.3043
 4857SOL    HW226205   1.317   1.645  16.222 -1.7895  1.6082 -1.4071
 4858SOL     OW26206   2.294   0.020  14.186 -0.5027  0.0134  0.0531
 4858SOL    HW126207   2.299   4.686  14.119  0.4528  1.9030 -1.8378
 4858SOL    HW226208   2.269   0.090  14.126  2.1351 -0.4007 -1.5049
 4859SOL     OW26209   2.082   3.995   3.952 -0.0176  0.2172 -0.4236
 4859SOL    HW126210   2.163   3.983   3.903  1.1508  1.2679  1.2469
 4859SOL    HW226211   2.110   3.979   4.042 -3.4715 -1.8123  0.3092
 4860SOL     OW26212   1.232   0.714   5.720 -0.2766  0.1498  0.2981
 4860SOL    HW126213   1.206   0.805   5.727  1.8550  0.6730  1.1914
 4860SOL    HW226214   1.152   0.682   5.677  0.0242  1.1620 -0.9886
 4861SOL     OW26215   3.931   1.544   4.337 -0.0049  0.0944  0.7208
 4861SOL    HW126216   3.956   1.452   4.341 -2.9555 -0.6231  2.6216
 4861SOL    HW226217   3.933   1.566   4.430 -1.7622 -1.5293  1.1353
 4862SOL     OW26218   4.701   3.974   3.490  0.4278 -0.3015  0.0988
 4862SOL    HW126219   4.610   3.982   3.463  0.6341  3.5463  0.5382
 4862SOL    HW226220   4.718   4.066   3.510  4.9877 -1.3195  1.0321
 4863SOL     OW26221   1.375   2.484   3.178  0.6618  0.0936 -0.0028
 4863SOL    HW126222   1.420   2.415   3.128 -0.1757  0.3655 -1.1274
 4863SOL    HW226223   1.404   2.457   3.265 -1.7678 -2.0476  0.1418
 4864SOL     OW26224   1.302   1.070   4.527  0.4087  0.1655  0.4086
 4864SOL    HW126225   1.260   1.113   4.602  0.1082  1.6836 -0.6195
 4864SOL    HW226226   1.229   1.021   4.489 -0.6229  1.2434  0.9882
 4865SOL     OW26227   0.693   3.406   8.430  0.3407  0.3703 -0.2031
 4865SOL    HW126228   0.700   3.475   8.496  0.5588  0.8659 -0.7484
 4865SOL    HW226229   0.613   3.441   8.390 -0.0162 -2.9593 -2.4001
 4866SOL     OW26230   4.507   4.510  11.917  0.0779  0.4465  0.0467
 4866SOL    HW126231   4.486   4.600  11.940  2.1526  0.6622  1.1257
 4866SOL    HW226232   4.513   4.469  12.003  0.5837  0.1102 -0.1450
 4867SOL     OW26233   3.804   2.534   0.143 -0.3122  0.2066 -0.4644
 4867SOL    HW126234   3.884   2.496   0.106  0.3993 -0.1150  1.3908
 4867SOL    HW226235   3.794   2.614   0.091 -1.1482  1.0397  0.9543
 4868SOL     OW26236   2.597   2.999   2.359  0.0750 -0.0918  0.5728
 4868SOL    HW126237   2.529   3.054   2.320  1.0873 -1.1879 -2.7219
 4868SOL    HW226238   2.550   2.940   2.418 -1.9973  1.7778  0.7925
 4869SOL     OW26239   4.312   0.417   4.083  0.4193  0.8050  0.5651
 4869SOL    HW126240   4.359   0.334   4.098  0.3998  0.4339 -1.5347
 4869SOL    HW226241   4.223   0.383   4.084  0.6439  0.1933 -1.1618
 4870SOL     OW26242   0.366   0.391   2.942 -0.2302 -0.2562  0.0044
 4870SOL    HW126243   0.321   0.326   2.996  1.3509 -2.1368 -0.9535
 4870SOL    HW226244   0.434   0.340   2.898  0.8271  1.8335 -0.8314
 4871SOL     OW26245   3.759   1.895   4.018  0.2240 -0.1283 -0.3745
 4871SOL    HW126246   3.678   1.924   3.976 -0.8827 -2.4085  0.2054
 4871SOL    HW226247   3.734   1.837   4.090  1.4098 -0.7250 -0.4357
 4872SOL     OW26248   0.762   3.164  13.645 -0.3390 -0.3732  0.3607
 4872SOL    HW126249   0.782   3.228  13.577 -1.5517 -0.0380  0.3230
 4872SOL    HW226250   0.849   3.126  13.653 -0.8040 -1.5465 -0.1755
 4873SOL     OW26251   3.861   0.458  15.162  0.3019  0.1183 -0.1079
 4873SOL    HW126252   3.803   0.531  15.185  0.2226 -0.7588  2.5267
 4873SOL    HW226253   3.913   0.510  15.102  0.5728 -0.5339 -0.4437
 4874SOL     OW26254   1.511   1.194   3.589  0.3084 -0.5599 -0.4076
 4874SOL    HW126255   1.515   1.286   3.561  1.9770 -1.0011 -1.5292
 4874SOL    HW226256   1.603   1.174   3.573  0.5484 -1.1652  1.7599
 4875SOL     OW26257   3.272   4.432   1.495 -0.6346  0.0575  0.6423
 4875SOL    HW126258   3.337   4.371   1.531 -0.6846 -0.0392  0.5685
 4875SOL    HW226259   3.311   4.452   1.410  1.2757 -0.1152  1.4676
 4876SOL     OW26260   2.212   1.525   4.817 -0.1056  0.5039 -0.4768
 4876SOL    HW126261   2.199   1.543   4.910  0.3007 -1.8678  0.0343
 4876SOL    HW226262   2.123   1.500   4.790 -0.0373  0.3249 -0.5315
 4877SOL     OW26263   2.204   0.038  11.569  0.3042 -0.5055  0.1843
 4877SOL    HW126264   2.243   4.699  11.521  1.3081  0.5211 -0.5712
 4877SOL    HW226265   2.231   0.108  11.510 -1.9849  0.8840  0.7882
 4878SOL     OW26266   4.686   0.684   2.853 -0.0399 -0.1516  0.4051
 4878SOL    HW126267   4.630   0.660   2.927 -0.5713 -3.6700 -1.1104
 4878SOL    HW226268   0.031   0.631   2.861 -0.8324 -1.2238  1.2325
 4879SOL     OW26269   4.066   3.868  16.059  0.4330  0.0930  0.2062
 4879SOL    HW126270   4.008   3.810  16.108  0.5301 -0.0549  0.1473
 4879SOL    HW226271   4.108   3.803  16.003 -0.4238  0.7306 -1.1843
 4880SOL     OW26272   3.572   0.771   2.954 -0.2234  0.4064  0.6185
 4880SOL    HW126273   3.641   0.705   2.944  1.3867  1.9974  1.1243
 4880SOL    HW226274   3.601   0.849   2.905 -0.8647  0.2549  0.0142
 4881SOL     OW26275   2.057   3.947  17.520 -0.0424  0.0392 -0.3060
 4881SOL    HW126276   2.002   4.011  17.566 -0.2455 -2.4159  2.8162
 4881SOL    HW226277   1.988   3.893  17.482  1.9044 -1.5742 -1.5258
 4882SOL     OW26278   2.973   0.181   0.244 -0.0279  0.2894 -0.2417
 4882SOL    HW126279   2.947   0.108   0.188  2.1341 -2.0160  1.7660
 4882SOL    HW226280   3.061   0.200   0.213 -0.1957 -1.8236 -1.9972
 4883SOL     OW26281   4.210   4.235   1.802 -0.3486 -0.3925 -0.1569
 4883SOL    HW126282   4.135   4.274   1.846  1.0020  0.8938  0.9911
 4883SOL    HW226283   4.255   4.305   1.755 -0.2186 -0.6220 -0.3805
 4884SOL     OW26284   1.184   1.011  16.075  0.1233  0.2736 -0.1572
 4884SOL    HW126285   1.206   0.996  16.168 -0.3339 -0.0164 -0.0960
 4884SOL    HW226286   1.237   1.087  16.051  1.6215 -0.4065  0.9839
 4885SOL     OW26287   0.062   0.289   8.774 -0.6623  0.3514 -0.1054
 4885SOL    HW126288   0.131   0.338   8.730  0.1765  1.4428  2.3824
 4885SOL    HW226289   0.089   0.294   8.866 -0.3064 -0.7663 -0.1513
 4886SOL     OW26290   0.150   1.188  16.584  0.3389  0.6182 -0.3785
 4886SOL    HW126291   0.122   1.099  16.607  0.9564  0.4201 -0.3994
 4886SOL    HW226292   0.075   1.232  16.544  0.8294  1.7891  0.0028
 4887SOL     OW26293   1.336   4.465   2.062  0.5875 -0.2830 -0.0899
 4887SOL    HW126294   1.325   4.449   1.968 -0.5140  3.0460 -0.5291
 4887SOL    HW226295   1.428   4.492   2.064 -0.0260  1.8145 -0.0463
 4888SOL     OW26296   3.242   2.906   9.808  0.2204 -0.3705 -0.5300
 4888SOL    HW126297   3.293   2.885   9.730  2.0099 -0.9294  0.7930
 4888SOL    HW226298   3.253   3.001   9.797  0.9051 -0.1669  1.9066
 4889SOL     OW26299   0.193   2.932   7.892 -0.1855 -0.0670  0.1057
 4889SOL    HW126300   0.212   2.839   7.883 -0.5167 -0.0807 -0.4760
 4889SOL    HW226301   0.098   2.930   7.883 -0.0044  0.4574 -1.8810
 4890SOL     OW26302   1.313   3.891  15.417 -0.9387 -0.1619  0.2595
 4890SOL    HW126303   1.264   3.810  15.406 -0.5385 -0.3081 -0.4515
 4890SOL    HW226304   1.372   3.877  15.491 -1.1298 -0.7249  0.3038
 4891SOL     OW26305   4.428   4.308   6.149 -0.1667 -0.3939 -0.4131
 4891SOL    HW126306   4.337   4.315   6.119  0.0333  2.5258 -0.3143
 4891SOL    HW226307   4.424   4.232   6.208  1.1348 -1.2921 -1.5008
 4892SOL     OW26308   0.538   1.355   7.342  0.0900 -0.8856 -0.0780
 4892SOL    HW126309   0.471   1.384   7.279  1.7206 -1.0494 -1.8891
 4892SOL    HW226310   0.488   1.333   7.420  0.5525 -0.9252  0.2062
 4893SOL     OW26311   2.116   3.050   2.027 -0.0055  0.2362  0.3996
 4893SOL    HW126312   2.084   3.004   1.949 -0.1914 -0.0048  0.6177
 4893SOL    HW226313   2.089   2.988   2.094 -0.5765  1.0119  0.8992
 4894SOL     OW26314   2.772   4.710   1.107 -0.7413  0.2631 -0.3683
 4894SOL    HW126315   2.864   4.728   1.126  0.2938 -1.8839 -3.1622
 4894SOL    HW226316   2.788   4.700   1.013 -2.5877  1.5196 -0.8157
 4895SOL     OW26317   2.273   3.777  11.990 -0.0886  0.0908  0.1743
 4895SOL    HW126318   2.182   3.747  11.989 -0.1692  0.3269  0.4454
 4895SOL    HW226319   2.324   3.696  11.999 -0.6509 -0.1413  1.2667
 4896SOL     OW26320   3.729   3.568   3.151  0.1750 -0.0403  0.0908
 4896SOL    HW126321   3.808   3.534   3.194 -0.4549 -2.5331 -0.6951
 4896SOL    HW226322   3.708   3.646   3.202  1.7858 -0.9811  2.1923
 4897SOL     OW26323   0.427   4.570  10.921 -0.2272 -0.1836 -0.2512
 4897SOL    HW126324   0.510   4.537  10.887  0.4657 -1.7673  2.9651
 4897SOL    HW226325   0.365   4.525  10.864  0.8003 -1.3825 -0.4391
 4898SOL     OW26326   3.274   1.617  12.855  0.1258  0.1394 -0.3856
 4898SOL    HW126327   3.323   1.675  12.913 -1.1369  0.7090  0.1280
 4898SOL    HW226328   3.269   1.535  12.905  1.8221 -0.6995 -1.5883
 4899SOL     OW26329   0.074   4.460   1.242  0.0740  0.2721  0.0833
 4899SOL    HW126330   0.011   4.402   1.199 -0.2020  1.3867 -1.0156
 4899SOL    HW226331   0.037   4.459   1.330 -1.2749 -1.5308 -0.5174
 4900SOL     OW26332   3.897   4.541   5.451 -0.2951  0.4065 -0.2955
 4900SOL    HW126333   3.915   4.563   5.360  0.5571  0.3072 -0.1481
 4900SOL    HW226334   3.976   4.487   5.456 -0.0440  0.9286  1.3223
 4901SOL     OW26335   1.012   2.274  15.975 -0.2522  0.1872  0.5186
 4901SOL    HW126336   0.939   2.331  15.952 -0.0827  0.2271  0.0690
 4901SOL    HW226337   1.067   2.301  15.901  0.9792  1.5204  1.9344
 4902SOL     OW26338   4.588   4.021   3.046  0.2379  0.2715 -0.4805
 4902SOL    HW126339   4.503   3.981   3.065  2.3300 -2.1093  4.0270
 4902SOL    HW226340   4.633   3.942   3.016 -2.0397  0.4693 -4.4157
 4903SOL     OW26341   4.284   0.062   3.735  0.0154  0.1524 -0.5772
 4903SOL    HW126342   4.269   4.705   3.713 -1.0041  0.0868  0.4178
 4903SOL    HW226343   4.264   0.060   3.828  3.1697 -3.5046  0.0403
 4904SOL     OW26344   4.465   4.607   3.553 -0.4014  0.1463  0.3467
 4904SOL    HW126345   4.531   4.539   3.564 -0.7570 -0.6368 -2.4474
 4904SOL    HW226346   4.434   4.590   3.464  1.2695 -1.6812  0.1095
 4905SOL     OW26347   2.321   1.741  16.848  0.1995  0.3247  0.5639
 4905SOL    HW126348   2.293   1.814  16.792 -2.4870 -2.1324 -1.2692
 4905SOL    HW226349   2.375   1.792  16.908 -1.4918  1.2283  1.3101
 4906SOL     OW26350   1.995   2.027   2.752 -0.1021 -0.1406 -0.5306
 4906SOL    HW126351   1.926   2.050   2.691 -0.0314 -1.0260 -0.9527
 4906SOL    HW226352   2.032   1.948   2.711  0.3701 -1.7718  3.0175
 4907SOL     OW26353   3.210   0.481   5.062  0.0920 -0.2436  0.2585
 4907SOL    HW126354   3.122   0.465   5.097  0.0014 -0.1157  0.0848
 4907SOL    HW226355   3.225   0.391   5.032 -2.2650 -1.0559  1.4791
 4908SOL     OW26356   3.908   4.285  14.292 -0.1189  0.0244  0.4037
 4908SOL    HW126357   3.978   4.328  14.242 -1.8391  3.1077  0.7170
 4908SOL    HW226358   3.870   4.362  14.335 -0.1151  1.1568 -1.6269
 4909SOL     OW26359   0.818   2.119  17.537 -0.4973  0.1890  0.6076
 4909SOL    HW126360   0.898   2.166  17.515  0.1801 -0.5178  1.5591
 4909SOL    HW226361   0.793   2.090  17.448  1.0391  0.4058  0.1146
 4910SOL     OW26362   4.454   0.396  14.951 -0.4147  0.1252 -0.1437
 4910SOL    HW126363   4.423   0.486  14.950 -1.0038 -0.0724  1.0234
 4910SOL    HW226364   4.471   0.372  15.042  0.5643 -0.4676 -0.4762
 4911SOL     OW26365   2.507   2.908   8.521 -0.3194 -0.3764 -0.1914
 4911SOL    HW126366   2.447   2.925   8.449  0.1488  0.5007 -0.3795
 4911SOL    HW226367   2.580   2.869   8.473  0.7453  3.0714 -1.4345
 4912SOL     OW26368   1.909   1.371   7.874 -0.0666 -0.6193  0.3393
 4912SOL    HW126369   1.994   1.336   7.847 -0.0430 -1.3330  1.3196
 4912SOL    HW226370   1.846   1.317   7.828 -0.3869 -0.9182  1.1232
 4913SOL     OW26371   4.653   3.816  14.022 -0.0842  0.4456 -0.3616
 4913SOL    HW126372   4.591   3.766  14.075  2.5147 -1.6063  0.7433
 4913SOL    HW226373   4.722   3.750  14.029  0.4604  0.8806 -1.6371
 4914SOL     OW26374   4.246   1.209   1.916  0.1533 -0.2396  0.2400
 4914SOL    HW126375   4.304   1.266   1.866 -0.6347  0.8666  0.5868
 4914SOL    HW226376   4.261   1.124   1.875 -3.0229 -0.2444 -0.9033
 4915SOL     OW26377   1.145   2.432   6.993 -0.6852  0.2181  0.1582
 4915SOL    HW126378   1.104   2.511   7.028 -0.9227 -0.6031  1.7170
 4915SOL    HW226379   1.075   2.366   6.994 -1.1834  0.8076  2.9072
 4916SOL     OW26380   2.286   1.233   6.551  0.2575  0.2229 -0.0610
 4916SOL    HW126381   2.334   1.160   6.511  0.0194 -0.0582  0.1688
 4916SOL    HW226382   2.300   1.218   6.644 -1.9728 -0.9552  0.1024
 4917SOL     OW26383   3.903   1.416   8.851  0.4022 -0.0420 -0.9144
 4917SOL    HW126384   3.878   1.380   8.936 -1.1121 -1.5713 -2.0125
 4917SOL    HW226385   3.881   1.336   8.804  2.3000 -2.0099  1.5822
 4918SOL     OW26386   0.117   4.328   7.993  0.1033  0.5072  0.0217
 4918SOL    HW126387   0.092   4.408   7.947 -0.7021  0.7397  0.8597
 4918SOL    HW226388   0.106   4.263   7.924 -0.6459 -1.7698  2.2846
 4919SOL     OW26389   0.213   1.285   3.935  0.5601 -0.2237 -0.8983
 4919SOL    HW126390   0.146   1.254   3.875 -0.3218 -0.8724  0.4225
 4919SOL    HW226391   0.159   1.310   4.010  2.0623 -2.8491  1.0694
 4920SOL     OW26392   3.230   0.392   6.592 -0.1189 -0.0926 -0.1412
 4920SOL    HW126393   3.219   0.480   6.554  1.5279 -0.0540 -0.5234
 4920SOL    HW226394   3.222   0.335   6.516  0.8282 -0.5307  0.0899
 4921SOL     OW26395   2.250   0.091  17.537  0.2465  0.0668 -0.3359
 4921SOL    HW126396   2.276   0.032  17.467 -0.7998 -1.2146  0.3526
 4921SOL    HW226397   2.213   0.163  17.486  0.4381  0.3725 -0.0433
 4922SOL     OW26398   0.003   3.666   3.278 -0.1354  0.0673 -0.3377
 4922SOL    HW126399   4.700   3.616   3.206  0.8621 -2.7194  1.0756
 4922SOL    HW226400   0.070   3.613   3.322  0.3284 -0.4612 -1.6869
 4923SOL     OW26401   4.609   0.373  11.815  0.2309 -0.0552  0.4700
 4923SOL    HW126402   4.524   0.399  11.851 -0.5879 -1.0632 -0.7410
 4923SOL    HW226403   4.649   0.354  11.900 -1.1325 -2.3272  0.5943
 4924SOL     OW26404   2.768   4.145   2.213  0.7243  0.4770 -0.0939
 4924SOL    HW126405   2.721   4.202   2.273 -2.9266 -2.2291 -0.3955
 4924SOL    HW226406   2.733   4.171   2.128  0.8688  1.2589  0.0886
 4925SOL     OW26407   1.636   1.124  17.540  0.2342 -0.1236 -0.5984
 4925SOL    HW126408   1.541   1.111  17.548 -0.1714  2.4725 -1.2471
 4925SOL    HW226409   1.661   1.097  17.628 -1.3821 -0.3135 -0.1918
 4926SOL     OW26410   1.050   4.577   5.405  0.1540 -0.4646  0.3818
 4926SOL    HW126411   1.125   4.620   5.363  0.0789 -0.9541 -0.2465
 4926SOL    HW226412   1.030   4.641   5.474  0.8533  0.0413  0.1159
 4927SOL     OW26413   2.328   3.905  14.631  0.0050 -0.0781  0.0216
 4927SOL    HW126414   2.269   3.857  14.690 -0.0415 -0.6895 -0.5237
 4927SOL    HW226415   2.416   3.874  14.652 -0.6434 -0.7610  1.7776
 4928SOL     OW26416   3.580   2.488   0.292 -0.3862 -0.1135 -0.3382
 4928SOL    HW126417   3.617   2.408   0.254  1.0678  0.2526  0.3384
 4928SOL    HW226418   3.661   2.536   0.281 -0.2909 -0.7930 -2.6101
 4929SOL     OW26419   1.277   3.111  13.552 -0.2142  0.6863 -0.2084
 4929SOL    HW126420   1.268   3.095  13.459  0.5728 -2.1861  0.2322
 4929SOL    HW226421   1.369   3.098  13.574 -0.5853  0.6843  1.4006
 4930SOL     OW26422   0.646   3.116   3.751 -0.9014 -0.1958 -0.3337
 4930SOL    HW126423   0.694   3.193   3.721  0.7324 -0.6965  0.9801
 4930SOL    HW226424   0.645   3.076   3.664 -2.3950 -1.1023  0.1084
 4931SOL     OW26425   4.323   0.267   8.895 -0.0668  0.5589 -0.1461
 4931SOL    HW126426   4.279   0.302   8.818 -1.8889  1.4560  1.2802
 4931SOL    HW226427   4.369   0.191   8.860  2.2817  1.5304  0.7780
 4932SOL     OW26428   0.512   4.544  16.250  0.3531  0.2621  0.9139
 4932SOL    HW126429   0.504   4.548  16.155 -1.9246  0.7906  1.1170
 4932SOL    HW226430   0.498   4.450  16.264 -0.2738  0.0395 -1.2188
 4933SOL     OW26431   3.632   0.060  16.949 -0.4293  0.2569  0.0709
 4933SOL    HW126432   3.583   0.034  17.027  2.7535 -0.8056  1.7448
 4933SOL    HW226433   3.688   4.717  16.944 -0.0945  0.4032  1.5924
 4934SOL     OW26434   1.916   0.014   7.685 -0.4760 -0.0632  0.2386
 4934SOL    HW126435   2.002   4.707   7.677 -0.0566  0.5934  1.3645
 4934SOL    HW226436   1.914   0.022   7.781 -2.4925 -0.9816  0.2693
 4935SOL     OW26437   3.656   4.379   2.375  0.3213 -0.0806 -0.1397
 4935SOL    HW126438   3.657   4.415   2.286  0.1525 -1.3611 -0.6619
 4935SOL    HW226439   3.738   4.415   2.408  0.9225 -0.4829 -1.2106
 4936SOL     OW26440   3.499   3.820  14.983 -0.0102  0.1672  0.4173
 4936SOL    HW126441   3.463   3.868  15.057  0.6452  2.7294 -0.9372
 4936SOL    HW226442   3.592   3.837  14.997  0.3229 -0.3687 -1.1473
 4937SOL     OW26443   4.454   3.151   5.359 -0.0437 -0.0659 -0.5174
 4937SOL    HW126444   4.532   3.097   5.343  0.0688  0.5379 -2.0198
 4937SOL    HW226445   4.460   3.206   5.281 -1.4103 -2.0014 -1.9797
 4938SOL     OW26446   0.965   4.316  10.866  0.0857  0.3011  0.6270
 4938SOL    HW126447   0.993   4.356  10.948  2.4820  1.4468 -0.7186
 4938SOL    HW226448   0.993   4.387  10.807 -1.6629  0.4895  0.0291
 4939SOL     OW26449   1.272   4.179   8.133 -0.0666  0.2940  0.3470
 4939SOL    HW126450   1.363   4.147   8.137 -0.5502 -0.8825  2.2279
 4939SOL    HW226451   1.229   4.122   8.197 -0.2384  0.1097  0.0664
 4940SOL     OW26452   0.556   0.977   2.535 -0.0498  0.0094  0.2036
 4940SOL    HW126453   0.486   1.008   2.593 -1.2445 -3.1029  0.4377
 4940SOL    HW226454   0.609   0.919   2.590  1.8273  0.9305 -0.6494
 4941SOL     OW26455   0.993   1.537   7.738  0.3064  0.0665 -0.2081
 4941SOL    HW126456   0.946   1.619   7.755  1.9750  0.7058  1.2313
 4941SOL    HW226457   0.912   1.487   7.722 -0.7944  1.0377  2.3548
 4942SOL     OW26458   0.695   4.652   4.527 -0.0671  0.5033 -0.1385
 4942SOL    HW126459   0.758   4.596   4.482  1.3213  1.2815  0.8280
 4942SOL    HW226460   0.625   4.644   4.463 -1.6237  0.3050  1.5682
 4943SOL     OW26461   1.065   0.244   7.491  0.5059  0.0013  0.1606
 4943SOL    HW126462   1.002   0.284   7.551  0.4330  1.0207 -0.5903
 4943SOL    HW226463   1.070   0.150   7.506 -0.9463  0.4279  3.2997
 4944SOL     OW26464   3.018   0.186   2.921 -0.5889  0.0275  0.6329
 4944SOL    HW126465   2.925   0.195   2.942 -0.9663  2.3932 -2.0436
 4944SOL    HW226466   3.015   0.094   2.895 -2.8195 -0.0440  1.1432
 4945SOL     OW26467   0.947   1.426   5.836  0.2521  0.3207  0.2170
 4945SOL    HW126468   0.854   1.407   5.851  0.5140 -0.8849  0.3064
 4945SOL    HW226469   0.971   1.457   5.923  1.1709  1.3734 -0.4166
 4946SOL     OW26470   3.828   0.409   7.594  0.5039 -0.6892 -0.1156
 4946SOL    HW126471   3.779   0.452   7.524 -0.0113 -2.1637 -0.6557
 4946SOL    HW226472   3.893   0.479   7.604  1.1565 -1.6475  2.4964
 4947SOL     OW26473   4.256   2.819   3.403 -0.4711 -0.4949  0.0666
 4947SOL    HW126474   4.351   2.804   3.404 -0.4289 -0.1687  2.2746
 4947SOL    HW226475   4.254   2.913   3.384  0.5165 -0.5718 -0.4268
 4948SOL     OW26476   3.346   1.216   4.118  0.1202  1.0174  0.1485
 4948SOL    HW126477   3.397   1.249   4.192  0.8202 -0.0859  0.1627
 4948SOL    HW226478   3.341   1.295   4.065  0.0578  0.8412 -0.1084
 4949SOL     OW26479   1.225   3.312  15.146 -0.1515  0.8718 -0.1020
 4949SOL    HW126480   1.250   3.226  15.111  1.9685  0.9294  1.2171
 4949SOL    HW226481   1.310   3.314  15.190  0.0697  2.2308 -0.6178
 4950SOL     OW26482   4.294   2.599   5.008  0.5114  0.3084  0.1666
 4950SOL    HW126483   4.360   2.532   4.988  0.1762 -0.3191  1.1856
 4950SOL    HW226484   4.334   2.635   5.087  0.3167 -0.3481  0.5604
 4951SOL     OW26485   1.269   1.950   1.668  0.2569  0.5203  0.1130
 4951SOL    HW126486   1.334   1.986   1.607 -0.2597 -1.8135 -1.7869
 4951SOL    HW226487   1.191   1.998   1.640  0.0048 -1.4265 -2.4620
 4952SOL     OW26488   4.672   2.194   6.626  0.0205 -0.3593 -0.1010
 4952SOL    HW126489   4.705   2.161   6.709 -1.4899 -0.7495  0.3511
 4952SOL    HW226490   4.733   2.146   6.571  0.9001  0.3573  0.2547
 4953SOL     OW26491   0.848   1.867   5.842 -0.4647  0.0962  0.3380
 4953SOL    HW126492   0.757   1.896   5.841 -0.6383 -0.5219 -1.5283
 4953SOL    HW226493   0.878   1.955   5.866 -1.3326  0.1577  1.1922
 4954SOL     OW26494   1.872   0.819   5.136  0.6761  0.4461  0.2307
 4954SOL    HW126495   1.915   0.743   5.175  2.0252  1.3665  0.5354
 4954SOL    HW226496   1.780   0.808   5.160  0.2037  1.0831 -1.3119
 4955SOL     OW26497   0.568   4.508   4.722  0.3895  0.0258 -0.1765
 4955SOL    HW126498   0.652   4.484   4.762 -1.3008  1.1051  4.0726
 4955SOL    HW226499   0.601   4.540   4.638  1.3055  0.9498  0.5246
 4956SOL     OW26500   3.511   3.086   7.195 -0.3090  0.6865 -0.2507
 4956SOL    HW126501   3.546   3.014   7.249  0.2916  0.3087 -1.1443
 4956SOL    HW226502   3.554   3.160   7.238 -0.9143 -0.1294  1.7443
 4957SOL     OW26503   2.945   4.214   7.055 -0.2157  0.3565  0.2767
 4957SOL    HW126504   2.852   4.194   7.046 -0.3193  1.0858 -0.2115
 4957SOL    HW226505   2.953   4.296   7.007  1.4125  0.0005 -0.0663
 4958SOL     OW26506   0.170   1.792   5.402  0.2675  0.0589  0.0283
 4958SOL    HW126507   0.260   1.772   5.429  0.1445 -2.0923 -1.1918
 4958SOL    HW226508   0.146   1.819   5.491 -2.6991  0.8842 -1.0185
 4959SOL     OW26509   1.690   2.158  11.863 -0.4620 -0.5860 -0.6775
 4959SOL    HW126510   1.687   2.250  11.837 -0.8475 -0.8565 -1.5888
 4959SOL    HW226511   1.783   2.135  11.858 -0.6034 -1.6931  1.5473
 4960SOL     OW26512   3.432   3.000   3.368 -0.5542 -0.1358  0.2113
 4960SOL    HW126513   3.412   2.948   3.290  1.6420 -0.8462  0.1026
 4960SOL    HW226514   3.426   3.090   3.337 -1.7614 -0.4317 -0.4172
 4961SOL     OW26515   1.187   2.172   8.681 -0.2600 -0.0603  0.1270
 4961SOL    HW126516   1.203   2.081   8.706  0.1668  0.2218  0.8828
 4961SOL    HW226517   1.252   2.219   8.734  1.4259  0.3957 -2.3212
 4962SOL     OW26518   2.864   1.163  15.206  0.1297  1.0098  0.4831
 4962SOL    HW126519   2.816   1.139  15.285  0.2072 -2.1705 -0.4281
 4962SOL    HW226520   2.944   1.111  15.214 -0.7206 -0.3670  0.0419
 4963SOL     OW26521   2.237   4.703   5.334  0.1461 -0.0512 -0.0651
 4963SOL    HW126522   2.196   0.054   5.337 -1.4060 -0.7423 -1.4000
 4963SOL    HW226523   2.176   4.647   5.382 -2.0977 -0.0541 -2.9178
 4964SOL     OW26524   2.445   1.656   3.737 -0.2050 -0.6882 -0.5314
 4964SOL    HW126525   2.406   1.628   3.654 -0.3124 -0.9013 -0.4100
 4964SOL    HW226526   2.399   1.738   3.751 -1.9471 -1.6476 -0.5953
 4965SOL     OW26527   1.176   3.275   2.551  0.4475  0.3436  0.0447
 4965SOL    HW126528   1.216   3.362   2.561  1.9429 -0.3248 -0.2084
 4965SOL    HW226529   1.238   3.225   2.604  0.5035  1.6901  1.2417
 4966SOL     OW26530   4.398   1.900   8.344 -0.2715  0.5983 -0.6557
 4966SOL    HW126531   4.483   1.932   8.374  0.2231  0.6784 -2.1377
 4966SOL    HW226532   4.359   1.867   8.425 -0.3551  0.2041 -0.8570
 4967SOL     OW26533   1.876   2.665   7.653 -0.1567  0.0565  0.1282
 4967SOL    HW126534   1.971   2.675   7.654  0.2043 -3.5145 -0.8260
 4967SOL    HW226535   1.847   2.671   7.744 -1.0603 -1.1875 -0.0775
 4968SOL     OW26536   0.236   0.063  12.887  0.0881  0.0501  0.3017
 4968SOL    HW126537   0.295   0.088  12.958 -1.3118 -0.9574  1.7962
 4968SOL    HW226538   0.255   0.132  12.822  2.5211 -0.6499  0.2653
 4969SOL     OW26539   0.104   1.823   9.549  0.5490  0.2158  0.0183
 4969SOL    HW126540   0.018   1.810   9.589 -0.8844 -0.2504 -3.2527
 4969SOL    HW226541   0.145   1.742   9.580 -1.5270 -0.8870 -0.1019
 4970SOL     OW26542   3.237   2.276   3.634  0.6919  0.1893 -0.4768
 4970SOL    HW126543   3.257   2.344   3.569  1.4307  0.4514  0.0257
 4970SOL    HW226544   3.154   2.302   3.672  0.1894 -2.1275  0.0302
 4971SOL     OW26545   4.028   3.684   0.820  0.3025  0.4754 -0.3427
 4971SOL    HW126546   4.039   3.694   0.914 -2.3735  3.1867 -0.3199
 4971SOL    HW226547   4.032   3.589   0.811 -3.9486  0.3505 -0.9250
 4972SOL     OW26548   1.541   4.646  17.050  0.4312  0.1904  0.2159
 4972SOL    HW126549   1.536   4.727  16.999 -1.5574 -0.4017 -0.5200
 4972SOL    HW226550   1.614   4.602  17.004 -0.5478 -0.1037 -1.0658
 4973SOL     OW26551   0.244   1.829   2.043  0.5376 -0.0190 -0.1943
 4973SOL    HW126552   0.212   1.837   1.953  2.2651  0.1256 -0.7863
 4973SOL    HW226553   0.179   1.762   2.067  0.1169  0.0546 -1.1235
 4974SOL     OW26554   2.746   1.437   2.562  0.0901  0.1118 -0.6535
 4974SOL    HW126555   2.726   1.356   2.515 -0.0005  0.4521 -1.1934
 4974SOL    HW226556   2.826   1.468   2.521 -1.0280  2.3048 -1.1846
 4975SOL     OW26557   0.866   2.468   0.120  0.5082 -0.2430 -0.0494
 4975SOL    HW126558   0.854   2.534   0.188  0.1618 -0.6488  0.2864
 4975SOL    HW226559   0.795   2.406   0.137 -1.0619  0.9998 -2.2659
 4976SOL     OW26560   2.452   1.737   4.930 -0.0408 -0.0006  0.3837
 4976SOL    HW126561   2.470   1.829   4.911  1.9124 -0.4374  0.1261
 4976SOL    HW226562   2.356   1.739   4.919  0.0580  1.2918 -0.2436
 4977SOL     OW26563   1.245   2.775   5.356  0.3340 -0.3731 -0.0748
 4977SOL    HW126564   1.297   2.855   5.349 -0.3074 -0.0486 -1.2050
 4977SOL    HW226565   1.217   2.752   5.267 -1.3946 -2.8565  1.1115
 4978SOL     OW26566   0.088   1.436   7.839 -0.0604  0.3136  1.0356
 4978SOL    HW126567   0.127   1.417   7.754 -0.0284 -0.7211  1.2787
 4978SOL    HW226568   0.166   1.437   7.895  3.2342 -0.1036 -3.5366
 4979SOL     OW26569   0.789   2.287  11.044  0.0299 -0.5022 -0.1011
 4979SOL    HW126570   0.848   2.236  10.988  1.5843  0.4153  0.7052
 4979SOL    HW226571   0.763   2.219  11.106 -0.9548 -1.0297 -1.0751
 4980SOL     OW26572   0.641   0.227  17.038 -0.1384  1.1547  0.6087
 4980SOL    HW126573   0.668   0.243  16.948 -0.5317  1.4080  0.5363
 4980SOL    HW226574   0.661   0.133  17.039  1.4436  1.4699 -0.1554
 4981SOL     OW26575   3.214   3.808  13.883  0.5553  0.3497 -0.2685
 4981SOL    HW126576   3.152   3.829  13.953  1.0703 -0.2111  0.3676
 4981SOL    HW226577   3.165   3.732  13.852  1.0255  0.7640 -2.0220
 4982SOL     OW26578   3.830   4.566  17.068 -0.2010 -0.3383 -0.3367
 4982SOL    HW126579   3.835   4.570  17.163  4.0511  0.0408 -0.6150
 4982SOL    HW226580   3.912   4.611  17.048 -0.2489 -0.1012 -0.0135
 4983SOL     OW26581   3.030   0.616   8.101 -0.8214 -0.2183  0.2731
 4983SOL    HW126582   3.040   0.630   8.195 -1.0573 -1.5299  0.5019
 4983SOL    HW226583   2.957   0.674   8.079  0.2365  1.1487  0.3608
 4984SOL     OW26584   0.992   0.436   2.310 -0.1753  0.4476  0.1323
 4984SOL    HW126585   1.009   0.364   2.371  1.9557  1.5376  0.8458
 4984SOL    HW226586   1.065   0.420   2.251 -0.9794 -0.0484 -0.7177
 4985SOL     OW26587   1.578   1.336   8.256  0.3260  0.4617  0.6310
 4985SOL    HW126588   1.662   1.311   8.219  0.7690  2.4695  0.2524
 4985SOL    HW226589   1.536   1.261   8.299 -1.6394  0.1237 -1.9094
 4986SOL     OW26590   1.757   3.492  15.418  0.7214  0.4124 -0.1333
 4986SOL    HW126591   1.778   3.405  15.451  1.8656 -0.1050 -2.2248
 4986SOL    HW226592   1.834   3.511  15.364  1.4385 -0.3923  0.6146
 4987SOL     OW26593   4.091   0.029   1.681 -0.0990  0.1658  0.0044
 4987SOL    HW126594   4.038   0.060   1.754  1.4373  0.5485  0.9502
 4987SOL    HW226595   4.163   4.733   1.735  0.1385 -0.4040 -0.6340
 4988SOL     OW26596   2.197   0.648  12.715  0.2879  0.7128  1.0053
 4988SOL    HW126597   2.272   0.665  12.658 -1.2171 -0.1327 -1.2358
 4988SOL    HW226598   2.189   0.742  12.731  0.3852  1.2739 -2.1803
 4989SOL     OW26599   0.004   2.670  10.905  0.5701  0.7829 -0.1965
 4989SOL    HW126600   4.648   2.694  10.923  0.6542  0.4173  0.7547
 4989SOL    HW226601   0.012   2.581  10.870 -0.0292  1.1479 -1.2484
 4990SOL     OW26602   2.197   0.035   7.024  0.8001 -0.0591  0.6383
 4990SOL    HW126603   2.182   4.676   7.012  0.8249 -0.0843  0.8016
 4990SOL    HW226604   2.107   0.054   7.052  1.4062 -0.7357  3.0581
 4991SOL     OW26605   0.673   0.838  17.264 -0.1601  0.8618 -0.0439
 4991SOL    HW126606   0.750   0.800  17.222  0.0991  2.0913 -0.6699
 4991SOL    HW226607   0.612   0.828  17.191 -0.5078 -0.1173  0.3740
 4992SOL     OW26608   2.276   3.056   9.655 -0.3484 -0.0315 -0.1818
 4992SOL    HW126609   2.301   3.042   9.747  3.1475  1.0725 -0.9762
 4992SOL    HW226610   2.226   2.979   9.629 -0.9038 -0.7920  3.0278
 4993SOL     OW26611   3.343   3.069   7.794 -0.0668 -0.2135 -0.5124
 4993SOL    HW126612   3.301   3.130   7.855 -1.1557 -1.4065 -0.0705
 4993SOL    HW226613   3.349   2.981   7.831 -0.1893  0.6853  1.6861
 4994SOL     OW26614   3.738   1.829   3.213 -0.2541 -0.0764 -0.5220
 4994SOL    HW126615   3.682   1.890   3.260  3.7140  3.3921 -0.2675
 4994SOL    HW226616   3.706   1.839   3.123 -0.1981  0.3769 -0.4945
 4995SOL     OW26617   0.197   2.528  17.587  0.4757  0.0133  0.4033
 4995SOL    HW126618   0.141   2.551  17.512 -0.4449 -1.6914  0.5613
 4995SOL    HW226619   0.136   2.516  17.660  1.5783 -0.9582  1.1659
 4996SOL     OW26620   3.185   3.496   5.828 -0.4520 -0.2341 -0.2113
 4996SOL    HW126621   3.122   3.560   5.795 -1.2333  0.7496  3.1116
 4996SOL    HW226622   3.132   3.417   5.827 -0.7130 -0.0961  1.6148
 4997SOL     OW26623   1.313   0.170   5.070  0.0941  0.2123 -0.2518
 4997SOL    HW126624   1.237   0.184   5.013  1.3797 -0.2326 -2.0845
 4997SOL    HW226625   1.379   0.225   5.027  2.1109 -0.9445  1.3773
 4998SOL     OW26626   2.630   2.877   7.787  0.3564  0.0448  0.0739
 4998SOL    HW126627   2.704   2.831   7.748 -0.5506 -1.4487  0.1061
 4998SOL    HW226628   2.670   2.958   7.818  0.4883  0.2737 -0.7063
 4999SOL     OW26629   1.703   4.465  16.935  0.0759  0.5783  0.1005
 4999SOL    HW126630   1.757   4.429  17.006  1.8406  3.2267  0.0864
 4999SOL    HW226631   1.676   4.380  16.899 -2.5809  1.6752 -0.4614
 5000SOL     OW26632   1.816   0.922  13.282  0.4558  0.9831  0.0604
 5000SOL    HW126633   1.829   0.993  13.345 -3.2358  2.7695 -1.1374
 5000SOL    HW226634   1.804   0.852  13.346  1.4531 -2.1791 -3.2158
 5001SOL     OW26635   2.944   3.220   3.602  0.1558  0.7163  0.0374
 5001SOL    HW126636   2.909   3.224   3.691  0.1415 -1.6875  0.1539
 5001SOL    HW226637   3.035   3.243   3.619  1.2500 -4.1176  0.8799
 5002SOL     OW26638   4.245   1.811   2.499  0.1145  0.4598 -0.4337
 5002SOL    HW126639   4.197   1.828   2.581  0.6905  1.1444 -0.2401
 5002SOL    HW226640   4.300   1.737   2.524 -0.3825 -0.3307 -1.7106
 5003SOL     OW26641   1.585   2.164   5.656 -0.4831  0.2166 -0.2603
 5003SOL    HW126642   1.550   2.169   5.745  0.0965  1.6688 -0.1038
 5003SOL    HW226643   1.579   2.255   5.626 -0.6164  0.5963  0.9065
 5004SOL     OW26644   0.335   0.636   5.628  0.0403  0.2580  0.4141
 5004SOL    HW126645   0.269   0.592   5.574  1.2573  0.7979 -1.5183
 5004SOL    HW226646   0.337   0.584   5.709  1.3031 -0.0992  0.1629
 5005SOL     OW26647   1.719   3.476   6.248 -0.0046 -0.7486 -0.1528
 5005SOL    HW126648   1.733   3.558   6.200 -2.0023 -0.2265  0.1760
 5005SOL    HW226649   1.807   3.465   6.286  0.3202  1.2089 -0.3139
 5006SOL     OW26650   1.437   3.831   8.557  0.1126 -0.2762  0.0943
 5006SOL    HW126651   1.372   3.901   8.565  1.6727  1.0501  1.0928
 5006SOL    HW226652   1.387   3.753   8.582 -0.1408 -0.3207 -0.5546
 5007SOL     OW26653   1.360   0.773   4.442  0.3455 -0.1921 -0.1335
 5007SOL    HW126654   1.270   0.744   4.435 -0.1748  1.3257  0.1719
 5007SOL    HW226655   1.360   0.848   4.383  0.9003  0.6896  0.9740
 5008SOL     OW26656   3.270   4.474  11.641  0.2002  0.4223  0.5687
 5008SOL    HW126657   3.217   4.527  11.700 -0.8219  3.2577 -2.8420
 5008SOL    HW226658   3.212   4.467  11.565  0.7774 -0.5849  0.2169
 5009SOL     OW26659   2.154   4.306   0.333 -0.3261 -0.1122  0.3137
 5009SOL    HW126660   2.206   4.325   0.255  1.3590 -0.8635  1.2736
 5009SOL    HW226661   2.200   4.355   0.401 -0.5056  1.8371 -0.9492
 5010SOL     OW26662   2.769   0.935  12.533  0.3624  0.2986 -0.0188
 5010SOL    HW126663   2.699   0.869  12.536 -0.8035  1.5539  0.2131
 5010SOL    HW226664   2.819   0.907  12.609  1.3153  0.7874 -0.4639
 5011SOL     OW26665   1.897   1.578   2.794  0.1271 -0.5846 -0.1969
 5011SOL    HW126666   1.847   1.579   2.876 -0.8546  2.7108 -0.8162
 5011SOL    HW226667   1.983   1.567   2.835  0.3622  3.5176  0.4400
 5012SOL     OW26668   2.825   2.448   8.256  0.4530  0.2532 -0.2793
 5012SOL    HW126669   2.783   2.512   8.315  1.0101  0.3865 -0.0299
 5012SOL    HW226670   2.837   2.495   8.174 -0.3714  0.9784  0.0013
 5013SOL     OW26671   1.718   1.527   4.473 -0.2029  0.3208  0.0975
 5013SOL    HW126672   1.629   1.562   4.469 -0.1209  0.3601 -1.3108
 5013SOL    HW226673   1.712   1.483   4.388  1.4184  2.0397 -0.9123
 5014SOL     OW26674   4.306   0.081   3.186 -0.5818 -0.0849  0.7891
 5014SOL    HW126675   4.290   0.140   3.113 -2.6414 -3.1360 -1.2313
 5014SOL    HW226676   4.222   0.082   3.231 -1.0136  1.3044 -0.0673
 5015SOL     OW26677   3.962   3.177   2.504 -0.3353 -0.2586 -0.1539
 5015SOL    HW126678   4.026   3.232   2.460 -0.9671  0.2445 -0.4456
 5015SOL    HW226679   3.948   3.228   2.584  1.4301  0.4973 -0.3423
 5016SOL     OW26680   4.042   4.258   4.404  0.4748  0.2018 -0.6609
 5016SOL    HW126681   4.106   4.328   4.392  0.8316  0.1077  0.6897
 5016SOL    HW226682   3.993   4.287   4.482 -0.7788 -1.4173 -0.8377
 5017SOL     OW26683   0.976   2.105   5.012 -0.0674 -0.0171  0.3513
 5017SOL    HW126684   0.883   2.082   5.007 -0.0478 -0.3840  2.0261
 5017SOL    HW226685   0.977   2.183   5.067  0.9471  0.6743 -0.6438
 5018SOL     OW26686   4.010   1.679   6.325 -0.1322 -0.5255 -0.5824
 5018SOL    HW126687   4.040   1.717   6.242  0.3962  0.4447  0.0497
 5018SOL    HW226688   4.087   1.681   6.382 -1.8051 -0.7895  1.6625
 5019SOL     OW26689   3.243   3.253   8.482 -0.2817  0.2308  0.0521
 5019SOL    HW126690   3.177   3.310   8.444 -0.1291 -0.9393 -1.9399
 5019SOL    HW226691   3.284   3.311   8.546 -0.6339  1.4157 -0.8171
 5020SOL     OW26692   2.853   1.717   7.803  0.0633 -0.2190  0.6647
 5020SOL    HW126693   2.870   1.626   7.827 -2.9060 -1.4502 -1.9206
 5020SOL    HW226694   2.930   1.759   7.841 -0.3962  0.1355  1.2222
 5021SOL     OW26695   2.868   4.673   6.606 -0.3996 -0.1345  0.3290
 5021SOL    HW126696   2.789   4.635   6.644  0.5415 -1.4931  0.9237
 5021SOL    HW226697   2.832   4.714   6.528 -2.6147 -0.3783  1.2248
 5022SOL     OW26698   2.338   2.957   7.988 -0.0400  0.3545  0.1993
 5022SOL    HW126699   2.416   2.913   7.953  0.0747  0.3791  0.4236
 5022SOL    HW226700   2.339   2.935   8.081 -3.5433  0.9372  0.3579
 5023SOL     OW26701   2.428   3.095   4.823  0.1492 -0.2728  0.1859
 5023SOL    HW126702   2.335   3.099   4.847 -0.3543 -0.9921 -1.6434
 5023SOL    HW226703   2.426   3.000   4.814 -0.0878 -0.3425  1.0249
 5024SOL     OW26704   3.770   1.653   2.681  0.6044 -0.4086  0.1752
 5024SOL    HW126705   3.747   1.682   2.592  2.6937  0.6026 -0.0303
 5024SOL    HW226706   3.854   1.608   2.669  2.0791  1.9213  1.8338
 5025SOL     OW26707   2.894   3.382   4.794 -0.2899 -0.0237 -0.1214
 5025SOL    HW126708   2.960   3.326   4.836  0.3330  1.6602  1.1642
 5025SOL    HW226709   2.853   3.420   4.873 -0.7688  0.5936 -0.6639
 5026SOL     OW26710   0.975   3.185   6.269 -0.4949  0.6487  0.4639
 5026SOL    HW126711   0.916   3.259   6.255 -0.3656  0.3048 -1.9109
 5026SOL    HW226712   1.057   3.230   6.287  0.1341 -0.5732  0.6392
 5027SOL     OW26713   2.747   0.506  16.162  0.2806 -0.3660 -0.2076
 5027SOL    HW126714   2.780   0.437  16.106 -2.4054 -0.8083 -1.2318
 5027SOL    HW226715   2.666   0.537  16.121 -0.3000 -1.5191  0.0686
 5028SOL     OW26716   3.330   2.489  12.307  0.1268  0.5589  0.3048
 5028SOL    HW126717   3.415   2.460  12.273  0.6155  3.5432 -0.9926
 5028SOL    HW226718   3.275   2.413  12.324 -0.8792  1.7489  2.4064
 5029SOL     OW26719   1.625   1.887   2.973 -0.1689  0.1587  0.3239
 5029SOL    HW126720   1.642   1.847   2.888  0.8123  1.0763  0.0907
 5029SOL    HW226721   1.625   1.978   2.945  2.7889  0.1693  0.3206
 5030SOL     OW26722   1.637   1.067   2.368 -0.5946 -0.0731 -0.6789
 5030SOL    HW126723   1.589   1.139   2.409  0.5114 -0.3194  1.0892
 5030SOL    HW226724   1.641   1.103   2.280  1.9780  2.4048  0.4107
 5031SOL     OW26725   1.605   4.390   5.478  0.1555  0.5468 -0.0735
 5031SOL    HW126726   1.559   4.379   5.395 -1.3422 -0.1364  0.8406
 5031SOL    HW226727   1.570   4.312   5.522 -0.1880 -0.3188 -1.8917
 5032SOL     OW26728   0.927   4.106   7.531  0.4716  0.1396 -0.5266
 5032SOL    HW126729   0.854   4.165   7.550 -1.8458 -2.0289 -2.5693
 5032SOL    HW226730   1.000   4.153   7.571 -1.0798  2.9176 -0.9638
 5033SOL     OW26731   3.139   1.489   3.748  0.4477  0.4422 -0.1308
 5033SOL    HW126732   3.141   1.554   3.678  0.8440  0.5387 -0.0263
 5033SOL    HW226733   3.113   1.406   3.708 -0.5649  1.4921 -1.6616
 5034SOL     OW26734   1.118   1.085  11.732  0.8309  0.6888  0.1575
 5034SOL    HW126735   1.112   1.180  11.722  1.6063  0.4216 -2.9352
 5034SOL    HW226736   1.046   1.077  11.795  1.6465  0.5819  1.0667
 5035SOL     OW26737   1.545   2.670   4.796 -0.2177 -0.0326 -0.0572
 5035SOL    HW126738   1.624   2.716   4.768 -0.4563  1.5988  1.8987
 5035SOL    HW226739   1.560   2.585   4.755 -1.4764 -1.1819  1.8715
 5036SOL     OW26740   2.831   3.820   7.247  0.1680 -0.7362 -0.2432
 5036SOL    HW126741   2.755   3.828   7.189  2.9602  0.9141 -3.7092
 5036SOL    HW226742   2.905   3.844   7.192 -1.4867  2.8410 -0.9288
 5037SOL     OW26743   4.229   0.044  11.552 -0.2971  0.1132 -0.2598
 5037SOL    HW126744   4.266   0.083  11.473 -1.7471 -2.3672 -2.1509
 5037SOL    HW226745   4.310   0.006  11.587 -0.4291 -0.8764 -1.0509
 5038SOL     OW26746   3.790   3.791  11.909 -0.4183  0.1649 -0.0374
 5038SOL    HW126747   3.728   3.772  11.979 -0.1036 -0.4440  0.0763
 5038SOL    HW226748   3.729   3.815  11.839 -0.6158  0.0974  0.1120
 5039SOL     OW26749   2.291   2.206   8.333 -0.2861  0.3859 -0.3154
 5039SOL    HW126750   2.333   2.126   8.301 -0.1112  0.1539  0.4924
 5039SOL    HW226751   2.352   2.244   8.396 -0.0777 -1.4480  0.5759
 5040SOL     OW26752   0.222   0.460   0.428  0.1211  0.1243 -0.3207
 5040SOL    HW126753   0.198   0.404   0.355 -1.3461 -0.8408  0.8803
 5040SOL    HW226754   0.147   0.452   0.487  1.2975 -4.0775  0.5607
 5041SOL     OW26755   1.582   2.475   5.993 -0.2987  0.5036 -0.0116
 5041SOL    HW126756   1.591   2.498   6.085 -4.1389  1.4582  0.1223
 5041SOL    HW226757   1.507   2.527   5.966 -0.0322 -0.1406 -2.0045
 5042SOL     OW26758   4.332   1.428   9.152 -0.3323  1.0463 -0.6295
 5042SOL    HW126759   4.418   1.389   9.132 -0.1710  0.6313  0.9049
 5042SOL    HW226760   4.345   1.464   9.239 -0.2135  1.5338 -0.8472
 5043SOL     OW26761   2.868   2.525   5.241  0.1647  0.0174 -0.4909
 5043SOL    HW126762   2.925   2.469   5.293 -1.5734 -1.2034  0.1162
 5043SOL    HW226763   2.928   2.548   5.170 -0.9478 -1.8870 -2.0652
 5044SOL     OW26764   3.579   3.146   5.722 -0.6827 -0.3170  0.5911
 5044SOL    HW126765   3.543   3.221   5.769  0.3135 -0.2640  1.2853
 5044SOL    HW226766   3.630   3.197   5.659  1.1326 -0.9554  1.5310
 5045SOL     OW26767   0.225   0.627   2.962  0.2371 -0.0888  0.4113
 5045SOL    HW126768   0.254   0.633   3.053 -2.8039  0.1548  1.3830
 5045SOL    HW226769   0.234   0.533   2.953  1.8793 -0.1211  2.4849
 5046SOL     OW26770   1.130   2.185   7.213  0.1775  0.2554 -0.2623
 5046SOL    HW126771   1.218   2.175   7.249  0.9793  1.1309 -1.9634
 5046SOL    HW226772   1.152   2.174   7.120  0.4011  0.3276 -0.2177
 5047SOL     OW26773   1.024   2.621   5.767 -0.2985 -0.9712  0.3419
 5047SOL    HW126774   0.964   2.609   5.841 -1.5033 -0.7209 -0.5983
 5047SOL    HW226775   0.988   2.561   5.701  2.0890 -0.0182 -1.8128
 5048SOL     OW26776   4.342   3.598   1.150  0.7216  0.0542  0.1424
 5048SOL    HW126777   4.334   3.516   1.198 -0.1142  0.1114  0.1009
 5048SOL    HW226778   4.438   3.597   1.145  0.7498 -0.0448  0.7193
 5049SOL     OW26779   3.841   2.698   4.867 -0.7927 -0.3410  0.0311
 5049SOL    HW126780   3.809   2.734   4.784 -0.7205  1.1922  0.6673
 5049SOL    HW226781   3.932   2.704   4.839 -0.4772  0.6532  1.2759
 5050SOL     OW26782   2.583   1.232   2.232  0.5059  0.2180 -0.7475
 5050SOL    HW126783   2.637   1.166   2.277 -1.1790 -0.0643  0.8627
 5050SOL    HW226784   2.512   1.243   2.296  1.1321 -0.4061  0.0641
 5051SOL     OW26785   4.429   2.616   7.689 -0.0438 -0.1923 -0.3514
 5051SOL    HW126786   4.453   2.658   7.771 -0.9491  2.7110 -1.5849
 5051SOL    HW226787   4.499   2.638   7.628  1.5411 -0.4661  1.3806
 5052SOL     OW26788   1.858   1.504   3.699 -0.2101  0.3996  0.0020
 5052SOL    HW126789   1.891   1.428   3.747  0.2123  2.0575  2.3554
 5052SOL    HW226790   1.879   1.486   3.608 -0.1601 -1.6790  0.4203
 5053SOL     OW26791   0.846   3.841   1.398  0.1495 -0.9873  0.6057
 5053SOL    HW126792   0.900   3.849   1.477  0.9218  1.0276 -0.1185
 5053SOL    HW226793   0.848   3.747   1.378  2.3409 -1.5168  3.4100
 5054SOL     OW26794   0.663   2.463   3.153 -0.1105 -0.6830  0.5148
 5054SOL    HW126795   0.600   2.420   3.211 -0.5667  2.3461  2.2685
 5054SOL    HW226796   0.623   2.439   3.070 -2.2023 -1.1715  1.6618
 5055SOL     OW26797   2.814   2.706   7.661 -0.4306 -0.0411  0.5907
 5055SOL    HW126798   2.789   2.728   7.571  0.5039 -1.6599 -0.0679
 5055SOL    HW226799   2.896   2.658   7.652 -0.6426 -0.4745  0.9335
 5056SOL     OW26800   2.067   3.228  13.730  0.5330 -0.0413 -0.0889
 5056SOL    HW126801   2.140   3.186  13.775  0.4595  0.0999  0.1618
 5056SOL    HW226802   2.019   3.150  13.701  0.0579  0.1764  0.1198
 5057SOL     OW26803   4.226   3.091  13.119 -0.4978 -0.8894  0.0851
 5057SOL    HW126804   4.288   3.060  13.053 -0.8566 -1.6480  0.1083
 5057SOL    HW226805   4.221   3.186  13.107 -1.6058 -0.8912  0.5826
 5058SOL     OW26806   3.158   2.904  12.973 -0.0425  0.2911 -0.1833
 5058SOL    HW126807   3.221   2.916  12.902  0.0054  2.7403  0.2691
 5058SOL    HW226808   3.140   2.996  12.994 -0.0434  0.2507 -0.0068
 5059SOL     OW26809   0.947   2.563   4.899 -0.0766  0.3929  0.0678
 5059SOL    HW126810   0.947   2.502   4.826  1.7247 -0.9548  1.2180
 5059SOL    HW226811   0.857   2.550   4.929  0.9761 -2.1377  2.0947
 5060SOL     OW26812   4.035   0.844   4.457  0.1512 -0.4402  0.4199
 5060SOL    HW126813   4.054   0.760   4.500  1.2641  0.2542  1.2788
 5060SOL    HW226814   4.022   0.810   4.369 -0.7813  0.8290  0.0722
 5061SOL     OW26815   0.547   2.417   2.881  0.3000 -0.2071 -0.0600
 5061SOL    HW126816   0.513   2.328   2.896  1.6430 -1.0959 -2.3284
 5061SOL    HW226817   0.617   2.397   2.819 -0.0849  0.7311 -0.7793
 5062SOL     OW26818   2.184   3.519   7.437 -0.5353  0.2735 -0.0233
 5062SOL    HW126819   2.170   3.527   7.531  1.9398 -1.6931  0.5210
 5062SOL    HW226820   2.216   3.608   7.421  0.5299 -0.2855 -1.0150
 5063SOL     OW26821   4.611   0.239   6.051 -0.4871 -0.6386  0.2124
 5063SOL    HW126822   4.628   0.165   5.992  1.0649 -0.0151 -0.1246
 5063SOL    HW226823   4.542   0.210   6.110 -1.5135  1.7602  0.1990
 5064SOL     OW26824   1.988   3.245   8.738  0.2404 -0.1753 -0.1005
 5064SOL    HW126825   2.007   3.221   8.829  3.2395 -1.0808 -0.9963
 5064SOL    HW226826   2.012   3.337   8.747 -2.1793  0.5467 -0.9016
 5065SOL     OW26827   3.442   0.904   5.684 -0.2567 -0.3420 -0.0534
 5065SOL    HW126828   3.436   0.816   5.645  0.9087 -0.5266  0.1992
 5065SOL    HW226829   3.462   0.883   5.775  0.5424  0.9120  0.0594
 5066SOL     OW26830   3.258   2.298   0.291  0.0344 -0.8771 -0.1786
 5066SOL    HW126831   3.180   2.242   0.290 -0.8380  0.3337  1.1405
 5066SOL    HW226832   3.321   2.237   0.252  1.8482  1.6891 -1.2291
 5067SOL     OW26833   2.967   2.548   2.385 -0.0321  0.4003 -0.6039
 5067SOL    HW126834   2.892   2.556   2.325 -1.1471 -1.5038  0.5321
 5067SOL    HW226835   3.005   2.636   2.384  2.5988 -0.7376  0.1865
 5068SOL     OW26836   4.149   2.045   7.933  0.7195  0.3954  0.1514
 5068SOL    HW126837   4.154   2.035   8.028  1.5194  2.0756  0.2933
 5068SOL    HW226838   4.168   1.957   7.900 -1.5138 -0.2440  0.6237
 5069SOL     OW26839   1.237   2.531   7.290 -0.0490  0.0861  0.5547
 5069SOL    HW126840   1.268   2.445   7.263 -1.2773 -0.1010 -0.2417
 5069SOL    HW226841   1.196   2.564   7.210  2.0064  1.1369 -0.0649
 5070SOL     OW26842   0.954   1.620   2.018 -0.3734 -0.2518 -0.3385
 5070SOL    HW126843   0.967   1.692   1.957 -0.1434 -1.5122 -1.7948
 5070SOL    HW226844   1.039   1.613   2.062 -0.9267 -2.1669  0.4251
 5071SOL     OW26845   3.867   0.858  16.965 -0.3207 -0.1173 -0.3586
 5071SOL    HW126846   3.841   0.950  16.973 -0.3712 -0.1022 -0.7081
 5071SOL    HW226847   3.818   0.822  16.891  0.2874 -1.3280 -0.1750
 5072SOL     OW26848   1.399   2.835   7.173  0.1806  0.5869  0.2393
 5072SOL    HW126849   1.468   2.797   7.118 -1.1311 -0.9932 -0.3021
 5072SOL    HW226850   1.386   2.759   7.230 -1.6509  1.0464  0.4251
 5073SOL     OW26851   1.041   2.894   6.966 -0.2696 -0.3722 -0.9156
 5073SOL    HW126852   1.022   2.931   6.880  0.5871 -0.3619 -1.0948
 5073SOL    HW226853   1.124   2.939   6.984 -0.7475 -0.7024  2.1461
 5074SOL     OW26854   0.353   0.139   3.571  0.3676 -0.3205 -0.1071
 5074SOL    HW126855   0.349   0.223   3.616 -2.4108 -0.2177 -0.5761
 5074SOL    HW226856   0.444   0.142   3.541  0.2237  3.3426 -0.1632
 5075SOL     OW26857   2.101   2.094   7.822  0.2868 -0.2817  0.1736
 5075SOL    HW126858   2.042   2.118   7.894 -1.8461  0.3826 -1.7940
 5075SOL    HW226859   2.083   2.000   7.818 -1.5276  0.1119 -1.2431
 5076SOL     OW26860   1.451   3.659   9.798 -0.2495  0.6224  0.3234
 5076SOL    HW126861   1.488   3.583   9.844  1.6851  1.0666 -0.4689
 5076SOL    HW226862   1.516   3.725   9.821  1.0442 -1.2998  2.2045
 5077SOL     OW26863   1.925   0.108   6.209  0.1098  0.5623  0.1661
 5077SOL    HW126864   1.925   0.154   6.125 -1.0219  3.8001  1.9139
 5077SOL    HW226865   2.015   0.130   6.233  0.2024  1.3909 -0.9504
 5078SOL     OW26866   0.248   3.255  10.634  0.3031  0.4368  0.2222
 5078SOL    HW126867   0.334   3.297  10.624  0.9299 -1.5709 -2.6145
 5078SOL    HW226868   0.264   3.206  10.715 -0.1633  0.6281  0.4324
 5079SOL     OW26869   3.016   2.892   7.396 -0.0563 -0.4000  0.1512
 5079SOL    HW126870   3.011   2.987   7.381 -2.4113 -0.4326  0.6938
 5079SOL    HW226871   3.078   2.884   7.469 -0.1476  0.0211  0.2764
 5080SOL     OW26872   1.696   1.185   5.929 -0.0951 -0.6942 -0.1771
 5080SOL    HW126873   1.755   1.130   5.980  1.8246  2.0537  0.5777
 5080SOL    HW226874   1.717   1.276   5.952  1.3791 -0.8633 -0.8532
 5081SOL     OW26875   0.915   1.745   3.521  0.0211  0.0550 -0.0386
 5081SOL    HW126876   0.836   1.756   3.574 -0.1114 -1.2311  0.0352
 5081SOL    HW226877   0.975   1.706   3.585 -0.8773  0.6862  1.1886
 5082SOL     OW26878   1.749   3.701  11.851  0.3780 -0.4243 -0.2265
 5082SOL    HW126879   1.725   3.783  11.808 -1.2299 -0.6780  0.1726
 5082SOL    HW226880   1.783   3.738  11.931  1.0971  1.6357 -1.4912
 5083SOL     OW26881   0.099   1.117   4.242 -0.4947  0.6579 -0.1628
 5083SOL    HW126882   0.056   1.055   4.302  1.2508 -0.3024  0.0862
 5083SOL    HW226883   0.120   1.060   4.168  2.3080  0.1034  1.0855
 5084SOL     OW26884   0.194   0.626   0.156 -0.4587  0.6246  0.3991
 5084SOL    HW126885   0.286   0.614   0.130 -0.9519 -0.3194 -0.9135
 5084SOL    HW226886   0.153   0.665   0.079 -1.6892 -2.4813 -0.5151
 5085SOL     OW26887   1.149   0.598   4.013  0.1426 -0.4767  0.2744
 5085SOL    HW126888   1.071   0.622   3.963 -0.6150  1.9414  2.6314
 5085SOL    HW226889   1.152   0.502   4.005  1.1125 -0.2524 -2.0836
 5086SOL     OW26890   1.106   2.321  16.450  0.0118  0.2183  0.3022
 5086SOL    HW126891   1.184   2.339  16.503  0.2663  2.8704 -0.9758
 5086SOL    HW226892   1.075   2.406  16.418  1.5383  0.5268 -0.4060
 5087SOL     OW26893   4.329   1.915   5.190 -0.0012 -0.2272  0.2171
 5087SOL    HW126894   4.263   1.881   5.251  0.7851  0.8234  1.6691
 5087SOL    HW226895   4.293   2.004   5.189 -2.7570 -1.3829 -3.5424
 5088SOL     OW26896   2.138   3.328  11.259 -0.2526  0.1189 -0.8938
 5088SOL    HW126897   2.192   3.342  11.337  1.8551 -2.1390 -1.9356
 5088SOL    HW226898   2.190   3.381  11.199 -1.1431  1.1920 -0.7016
 5089SOL     OW26899   2.354   2.496   3.209  0.1110  0.1672 -0.0261
 5089SOL    HW126900   2.441   2.523   3.237 -0.4888  3.0935 -0.9567
 5089SOL    HW226901   2.375   2.404   3.194  0.8691  0.1948  0.9004
 5090SOL     OW26902   0.873   1.833  13.394 -0.3219  0.2395 -0.0354
 5090SOL    HW126903   0.838   1.902  13.337  1.5982  0.7910 -0.5530
 5090SOL    HW226904   0.800   1.773  13.408 -1.7587  1.5602 -1.9918
 5091SOL     OW26905   2.150   3.880   3.548  0.4308  0.2789 -0.2170
 5091SOL    HW126906   2.141   3.861   3.454 -1.4147 -0.5510  0.1387
 5091SOL    HW226907   2.070   3.843   3.585 -0.3730  1.6173 -0.6078
 5092SOL     OW26908   2.141   4.540   5.816 -0.8554  0.6609 -0.3101
 5092SOL    HW126909   2.209   4.596   5.780  0.6578 -0.1430  1.3011
 5092SOL    HW226910   2.103   4.595   5.884  0.5750 -1.4516  2.2168
 5093SOL     OW26911   2.087   2.167   9.145  0.0904  0.1097  0.3997
 5093SOL    HW126912   2.129   2.128   9.069 -0.0660 -0.9588  0.8639
 5093SOL    HW226913   1.997   2.146   9.121 -0.8626 -0.2578  4.2386
 5094SOL     OW26914   0.980   1.519   7.048 -0.5207  0.2414  0.0251
 5094SOL    HW126915   0.887   1.499   7.053 -0.7667  0.9127 -1.6909
 5094SOL    HW226916   1.020   1.453   7.104 -0.1846  0.5421  0.1372
 5095SOL     OW26917   2.356   3.771  13.042 -0.2536 -0.4072 -0.3473
 5095SOL    HW126918   2.440   3.812  13.027 -0.6496 -0.4436 -2.6000
 5095SOL    HW226919   2.306   3.810  12.970 -0.2958  0.3220  0.0743
 5096SOL     OW26920   2.719   4.468   4.305  0.1940  0.3950 -0.0564
 5096SOL    HW126921   2.700   4.463   4.211  1.6873  1.6026 -0.4303
 5096SOL    HW226922   2.812   4.488   4.308  0.7864 -2.6514  1.3162
 5097SOL     OW26923   2.463   4.024   1.744 -0.2970  0.1786 -0.4135
 5097SOL    HW126924   2.557   4.012   1.759 -0.4831 -2.6571 -1.5076
 5097SOL    HW226925   2.444   3.971   1.666  0.5478 -1.1503  0.2838
 5098SOL     OW26926   0.225   2.026   5.282  0.3737  0.3693 -0.1294
 5098SOL    HW126927   0.201   1.935   5.299 -0.0096  0.2560 -1.2382
 5098SOL    HW226928   0.318   2.010   5.266  0.3575 -0.2926  0.4332
 5099SOL     OW26929   1.476   3.862  16.861 -0.4883 -0.2827 -0.1370
 5099SOL    HW126930   1.457   3.818  16.779  0.7916 -0.2006 -0.4875
 5099SOL    HW226931   1.387   3.882  16.889 -0.6941 -1.2971 -0.0659
 5100SOL     OW26932   1.139   4.130   6.639 -0.5360 -0.5010  0.3293
 5100SOL    HW126933   1.051   4.111   6.605 -1.0685 -0.4646  1.7164
 5100SOL    HW226934   1.169   4.039   6.641  0.3506 -0.1920  0.7394
 5101SOL     OW26935   3.129   3.735   3.190  0.5264  0.2380  0.5003
 5101SOL    HW126936   3.077   3.709   3.114  0.8346 -1.1250  0.7632
 5101SOL    HW226937   3.058   3.722   3.253  0.1382  0.5738  0.1307
 5102SOL     OW26938   0.105   0.454   1.582 -0.3307  0.2952 -0.8547
 5102SOL    HW126939   0.101   0.522   1.650  2.1994 -0.4095  0.0010
 5102SOL    HW226940   0.165   0.499   1.522 -1.2879 -0.8363 -2.6386
 5103SOL     OW26941   0.324   3.238   9.053  0.0552  0.1655 -0.2875
 5103SOL    HW126942   0.358   3.185   9.125 -1.0642  0.1125  0.2014
 5103SOL    HW226943   0.400   3.291   9.029 -0.5846  0.4547 -1.6946
 5104SOL     OW26944   3.348   1.801   5.677 -0.5158 -0.0521 -0.2343
 5104SOL    HW126945   3.260   1.830   5.652 -1.0649 -0.2018  1.4848
 5104SOL    HW226946   3.363   1.861   5.750  1.0543 -2.0877  1.1224
 5105SOL     OW26947   1.821   4.626   8.676  0.0866  0.0449 -0.2247
 5105SOL    HW126948   1.844   4.538   8.645  0.7762  1.3690 -3.3565
 5105SOL    HW226949   1.795   4.618   8.768  1.8984 -1.9279  0.1369
 5106SOL     OW26950   4.265   2.781   6.025 -0.0126 -0.0150  0.4794
 5106SOL    HW126951   4.289   2.874   6.022 -0.4964  0.2239  3.6995
 5106SOL    HW226952   4.352   2.741   6.033 -0.6687 -1.6112 -0.3934
 5107SOL     OW26953   0.640   1.572   7.441 -0.0475  0.2998 -0.1835
 5107SOL    HW126954   0.624   1.484   7.407  2.1059 -0.6318  1.2554
 5107SOL    HW226955   0.559   1.607   7.403 -0.3438 -2.5478 -2.2143
 5108SOL     OW26956   2.116   3.850   9.527 -0.2767  0.0860  0.5495
 5108SOL    HW126957   2.073   3.928   9.490  1.1262  0.4608 -0.3083
 5108SOL    HW226958   2.091   3.784   9.462 -1.8935  1.1722  0.0693
 5109SOL     OW26959   3.274   1.949  10.072  0.0434  0.0983  0.5286
 5109SOL    HW126960   3.255   1.890  10.145  0.1276 -0.1120  0.3827
 5109SOL    HW226961   3.279   1.881  10.005 -2.6651  0.3258  0.0896
 5110SOL     OW26962   1.406   3.132   3.621  0.2220  0.0471  0.5585
 5110SOL    HW126963   1.366   3.066   3.565  0.8524 -0.3986  0.6384
 5110SOL    HW226964   1.378   3.214   3.578  0.7461  0.7893  1.6531
 5111SOL     OW26965   2.674   3.240   9.808 -0.1399 -0.2813 -0.6014
 5111SOL    HW126966   2.676   3.169   9.744  0.3487 -0.2901 -0.5782
 5111SOL    HW226967   2.716   3.193   9.880 -1.4190 -1.5337 -0.6912
 5112SOL     OW26968   3.926   1.192  12.039  0.8810 -0.4113  0.2146
 5112SOL    HW126969   3.844   1.238  12.019  1.2320  0.0516 -0.1855
 5112SOL    HW226970   3.932   1.185  12.134  0.7962 -4.7351 -0.1316
 5113SOL     OW26971   0.448   2.354   3.267  0.5351  0.1471  1.0257
 5113SOL    HW126972   0.353   2.352   3.254  0.6566  1.2806  0.0572
 5113SOL    HW226973   0.455   2.259   3.275 -3.0404 -0.3606 -2.0433
 5114SOL     OW26974   0.045   3.042  13.374 -0.1564 -0.1708 -0.2836
 5114SOL    HW126975   4.689   3.060  13.351 -1.1609 -3.2791  1.2565
 5114SOL    HW226976   0.061   2.958  13.332  0.9677  0.3169 -0.8514
 5115SOL     OW26977   1.595   0.780   5.358  0.2016  0.9847 -0.0197
 5115SOL    HW126978   1.658   0.826   5.414 -2.5059  1.9531  2.2652
 5115SOL    HW226979   1.522   0.840   5.367 -0.5719 -0.2428  2.0371
 5116SOL     OW26980   3.992   2.909   9.856 -0.1375 -0.2320  0.3520
 5116SOL    HW126981   3.983   2.835   9.917 -1.6607  0.1762  0.6166
 5116SOL    HW226982   3.902   2.939   9.844  0.5614  0.7976 -2.3939
 5117SOL     OW26983   0.825   4.516  14.622 -0.1499  0.1369 -0.3053
 5117SOL    HW126984   0.768   4.440  14.610  0.2747 -0.1345 -0.6140
 5117SOL    HW226985   0.842   4.527  14.528  0.5203  0.6733 -0.1191
 5118SOL     OW26986   1.252   2.587   3.973 -0.6944 -0.3871 -0.4110
 5118SOL    HW126987   1.329   2.540   3.942  0.4103  1.3461 -0.2736
 5118SOL    HW226988   1.254   2.665   3.917 -0.9551 -1.0459 -1.3303
 5119SOL     OW26989   2.105   3.230   3.378 -0.3626  0.4024 -0.5359
 5119SOL    HW126990   2.072   3.313   3.412  2.5799  1.9138 -1.3772
 5119SOL    HW226991   2.151   3.203   3.457  0.6119  3.5584 -0.0335
 5120SOL     OW26992   2.519   2.006   4.864 -0.2769 -0.4053  0.5221
 5120SOL    HW126993   2.597   2.060   4.858 -0.7192  0.0667 -0.9421
 5120SOL    HW226994   2.485   2.038   4.948  0.8172 -0.0026  0.8131
 5121SOL     OW26995   0.787   4.709  17.327  0.4809  0.5436  0.1994
 5121SOL    HW126996   0.757   4.718  17.236  1.1939  2.1665  0.1256
 5121SOL    HW226997   0.875   0.011  17.314  0.3195  1.1592  0.8932
 5122SOL     OW26998   0.234   2.850   7.539 -0.1000  0.9048  0.0976
 5122SOL    HW126999   0.307   2.909   7.555  0.2749  0.1825  1.1201
 5122SOL    HW227000   0.285   2.776   7.572 -2.7932 -1.4123 -0.9480
 5123SOL     OW27001   0.256   0.608  15.573  0.3660  0.3940  0.4723
 5123SOL    HW127002   0.292   0.544  15.634 -1.5938 -1.6627 -0.5162
 5123SOL    HW227003   0.273   0.575  15.484  2.4083  0.0419  1.0175
 5124SOL     OW27004   4.178   2.672   1.359 -0.4024 -0.5608 -0.0118
 5124SOL    HW127005   4.147   2.755   1.397  1.2502 -0.0993  0.3487
 5124SOL    HW227006   4.235   2.642   1.429  1.0362 -0.2931 -1.0712
 5125SOL     OW27007   2.281   1.027  15.601 -0.5204  0.1229  0.1000
 5125SOL    HW127008   2.228   1.057  15.675 -2.3280 -0.7556 -0.8617
 5125SOL    HW227009   2.228   0.974  15.542  0.9651 -0.4913 -0.6835
 5126SOL     OW27010   4.152   3.568   2.735 -0.4217 -0.1667  0.5342
 5126SOL    HW127011   4.089   3.504   2.704  0.2388 -0.5577  0.0116
 5126SOL    HW227012   4.207   3.581   2.657 -1.1498 -0.4926 -0.0273
 5127SOL     OW27013   0.002   1.018   2.246  0.4826 -0.1241 -0.0714
 5127SOL    HW127014   4.656   0.978   2.279 -0.8249  1.5611 -1.2549
 5127SOL    HW227015   0.043   1.035   2.331  1.5502  0.6036 -0.7273
 5128SOL     OW27016   4.229   0.229  14.590  0.4352  0.6979  0.1013
 5128SOL    HW127017   4.141   0.263  14.607  0.2895 -0.2852  1.2684
 5128SOL    HW227018   4.266   0.292  14.528 -0.6077  1.5264  0.3317
 5129SOL     OW27019   0.127   1.452   5.333  0.3664  0.6185 -0.7211
 5129SOL    HW127020   0.147   1.362   5.305  0.4818  0.1566  0.8424
 5129SOL    HW227021   0.169   1.512   5.271  0.6686  1.6283  0.4665
 5130SOL     OW27022   3.098   4.537   3.183 -0.4294 -0.3004 -0.1528
 5130SOL    HW127023   3.017   4.496   3.152 -0.7677  0.9997 -1.0069
 5130SOL    HW227024   3.160   4.518   3.113 -0.9036 -0.2628 -0.5851
 5131SOL     OW27025   4.111   3.703   7.337  0.0186  0.4215 -0.0570
 5131SOL    HW127026   4.028   3.706   7.290 -0.9312  2.6549  1.7589
 5131SOL    HW227027   4.092   3.679   7.427 -0.5472 -0.3730 -0.3891
 5132SOL     OW27028   1.261   3.198   7.651  0.4595  0.1852  0.6668
 5132SOL    HW127029   1.210   3.237   7.722 -0.2117 -2.4310  1.6151
 5132SOL    HW227030   1.231   3.108   7.663  0.2419  0.2651  0.7159
 5133SOL     OW27031   0.853   0.422   8.829  0.3888  0.2342  0.3058
 5133SOL    HW127032   0.941   0.429   8.792 -0.4303  1.5469 -1.4037
 5133SOL    HW227033   0.803   0.399   8.751 -0.1060 -1.2029  1.0600
 5134SOL     OW27034   0.664   3.459   2.949  0.0872  0.4924  0.1080
 5134SOL    HW127035   0.608   3.522   2.903 -0.1419 -1.4473 -2.2697
 5134SOL    HW227036   0.617   3.464   3.032  0.5826 -3.2906  0.5905
 5135SOL     OW27037   1.028   4.384   7.212 -0.2728  0.3042  0.1764
 5135SOL    HW127038   1.090   4.360   7.142 -0.1781 -0.4967  0.5320
 5135SOL    HW227039   1.030   4.305   7.266 -1.8638 -0.0299 -0.2508
 5136SOL     OW27040   1.274   2.597   5.594 -0.6039  0.3143  0.3174
 5136SOL    HW127041   1.288   2.536   5.522 -0.5310  0.8151 -0.0908
 5136SOL    HW227042   1.281   2.677   5.543  0.3672 -0.4678 -0.7862
 5137SOL     OW27043   3.331   4.712   8.935 -0.6285  0.1973  0.0766
 5137SOL    HW127044   3.348   4.674   9.022 -1.5042  0.0030  0.1645
 5137SOL    HW227045   3.282   0.057   8.952  0.5756  1.2269 -1.2550
 5138SOL     OW27046   2.315   2.380   1.241  0.1611  0.3299  0.0807
 5138SOL    HW127047   2.231   2.422   1.263  1.3628  3.1505 -0.7054
 5138SOL    HW227048   2.327   2.321   1.315 -0.6708  0.3981  0.2707
 5139SOL     OW27049   0.574   0.337   6.844  0.2117  0.8802  0.1061
 5139SOL    HW127050   0.480   0.335   6.863 -0.2558  0.7530 -2.2933
 5139SOL    HW227051   0.609   0.275   6.909 -1.6694  2.1812  2.3924
 5140SOL     OW27052   3.990   1.207   4.074  0.3733  0.1922 -0.0338
 5140SOL    HW127053   3.959   1.232   4.161  1.2488 -0.6698  0.5235
 5140SOL    HW227054   3.973   1.114   4.059  0.2504  0.3348 -0.7842
 5141SOL     OW27055   0.470   4.405   6.339  0.7205 -0.3530 -0.3067
 5141SOL    HW127056   0.550   4.378   6.294 -0.8199  0.8277 -3.7441
 5141SOL    HW227057   0.483   4.500   6.348  1.8659 -0.3846 -1.5029
 5142SOL     OW27058   2.450   1.333   9.348 -0.7273  0.6156  0.2714
 5142SOL    HW127059   2.370   1.333   9.296  0.4825 -2.0487 -1.5557
 5142SOL    HW227060   2.484   1.244   9.345  2.1159  1.7045  0.7532
 5143SOL     OW27061   2.768   4.699   7.579 -0.4277 -0.3844 -0.6098
 5143SOL    HW127062   2.690   0.018   7.588  2.2132  3.2649  0.7425
 5143SOL    HW227063   2.733   4.610   7.582  0.6545 -0.8031 -0.5050
 5144SOL     OW27064   1.966   2.657   6.640  0.0886  0.2775 -0.0785
 5144SOL    HW127065   1.982   2.694   6.553  1.2487 -0.3226 -0.1315
 5144SOL    HW227066   1.945   2.738   6.686  0.3197  0.4352 -0.2473
 5145SOL     OW27067   3.428   1.136   4.480  0.1609 -0.6078  0.4439
 5145SOL    HW127068   3.367   1.093   4.421  1.1844 -1.4221 -0.0157
 5145SOL    HW227069   3.408   1.227   4.455  1.9910 -0.2805  0.1453
 5146SOL     OW27070   2.892   0.878   2.591 -0.5817  0.1239 -0.1637
 5146SOL    HW127071   2.924   0.824   2.518  0.7658  0.6887  0.0121
 5146SOL    HW227072   2.796   0.877   2.583 -0.7148  0.2437  1.3300
 5147SOL     OW27073   3.239   2.739   2.244 -0.3623 -0.0358  0.0426
 5147SOL    HW127074   3.218   2.828   2.271 -0.8250  0.2106 -1.1409
 5147SOL    HW227075   3.324   2.722   2.284  0.8080  0.6562 -2.2016
 5148SOL     OW27076   2.863   3.043  12.191  0.5620 -0.1040 -0.5863
 5148SOL    HW127077   2.896   3.022  12.278  2.0986 -0.4545 -1.2456
 5148SOL    HW227078   2.915   2.984  12.136  2.1777 -0.9853  1.8776
 5149SOL     OW27079   1.468   2.924   7.632  0.5014  0.2593  0.2673
 5149SOL    HW127080   1.462   2.888   7.721 -1.3018  0.0603  0.0592
 5149SOL    HW227081   1.375   2.939   7.616  0.4316 -2.0366 -1.4151
 5150SOL     OW27082   0.216   2.059   9.709 -0.4190  0.4404  0.2422
 5150SOL    HW127083   0.167   2.117   9.650 -0.6724  1.4221  1.4181
 5150SOL    HW227084   0.212   1.978   9.659 -1.8936  1.6572 -1.6218
 5151SOL     OW27085   2.530   3.663   9.373 -0.9024  0.1815 -0.2429
 5151SOL    HW127086   2.442   3.652   9.411 -1.7410 -1.0273 -2.5819
 5151SOL    HW227087   2.580   3.688   9.451  1.1015 -0.2486 -1.4027
 5152SOL     OW27088   3.372   1.488  15.169  0.3660  0.3981 -0.1469
 5152SOL    HW127089   3.345   1.499  15.260  0.4973 -0.9806  0.0519
 5152SOL    HW227090   3.463   1.461  15.178  0.8675  2.2352  0.2165
 5153SOL     OW27091   2.702   2.158   8.488 -0.0991  0.2379  0.4934
 5153SOL    HW127092   2.712   2.066   8.509 -0.1184 -0.1214 -1.0316
 5153SOL    HW227093   2.781   2.194   8.529  2.5128 -1.5436 -2.8822
 5154SOL     OW27094   1.277   2.338   4.204 -0.3798 -0.2318  0.4377
 5154SOL    HW127095   1.308   2.428   4.193 -2.5316  0.3705 -0.8202
 5154SOL    HW227096   1.302   2.314   4.115 -2.0371 -3.2680  0.7986
 5155SOL     OW27097   0.801   3.002   8.458 -0.2942 -0.1490 -0.2307
 5155SOL    HW127098   0.732   3.017   8.523 -0.9396  0.8654 -1.1360
 5155SOL    HW227099   0.799   2.907   8.464  0.9489 -0.0823  1.1123
 5156SOL     OW27100   4.635   3.539   4.933 -0.2482 -0.5501  0.2614
 5156SOL    HW127101   4.699   3.531   4.862  1.0352  1.2612  1.2298
 5156SOL    HW227102   4.556   3.508   4.888  0.3116  0.2056 -1.2603
 5157SOL     OW27103   1.075   0.421   9.135  0.1425  0.7471 -0.2275
 5157SOL    HW127104   1.003   0.474   9.100 -0.9501 -1.5754 -1.4905
 5157SOL    HW227105   1.071   0.434   9.230 -0.1592  2.0167 -0.4204
 5158SOL     OW27106   3.000   0.368   7.740  0.5661 -0.4791 -0.2203
 5158SOL    HW127107   2.960   0.297   7.790  1.3220 -0.2436  0.7035
 5158SOL    HW227108   3.063   0.393   7.807  0.7475 -0.4351 -0.4093
 5159SOL     OW27109   1.421   2.914   1.915  0.1467 -0.3155  0.2259
 5159SOL    HW127110   1.394   2.975   1.983  0.1044 -1.0945  0.9076
 5159SOL    HW227111   1.338   2.896   1.871 -1.1785  1.4335  2.0673
 5160SOL     OW27112   3.343   0.784   4.386 -0.2713  0.4711 -0.8662
 5160SOL    HW127113   3.384   0.753   4.305 -0.2897 -1.4857 -0.1236
 5160SOL    HW227114   3.408   0.755   4.450  0.5443  0.5814 -1.6418
 5161SOL     OW27115   0.645   1.817   1.766 -0.1665  0.4489 -0.5285
 5161SOL    HW127116   0.641   1.786   1.675 -1.8956 -1.7139  0.2921
 5161SOL    HW227117   0.736   1.806   1.792 -0.2884 -2.3458 -1.3066
 5162SOL     OW27118   2.237   1.111   0.491 -0.1132  0.9210  0.5895
 5162SOL    HW127119   2.242   1.140   0.401  0.1000 -1.4347 -0.1685
 5162SOL    HW227120   2.152   1.146   0.516  0.2244  2.1544 -0.0075
 5163SOL     OW27121   3.690   4.570  11.965  0.4098 -0.3886  0.3365
 5163SOL    HW127122   3.607   4.560  11.918 -1.3251 -0.4102  3.4331
 5163SOL    HW227123   3.739   4.617  11.897 -0.7630  1.6034  0.8353
 5164SOL     OW27124   4.373   4.154   5.663 -0.0075  0.3629 -0.6867
 5164SOL    HW127125   4.387   4.229   5.605 -0.3380 -0.5852 -1.9957
 5164SOL    HW227126   4.283   4.160   5.695  0.6580 -0.9372  1.4105
 5165SOL     OW27127   3.523   0.051   8.479  0.1645 -0.4753  0.3288
 5165SOL    HW127128   3.566   0.002   8.549 -1.5092 -1.1629  0.8810
 5165SOL    HW227129   3.437   0.074   8.514 -0.1423 -3.2074  1.3628
 5166SOL     OW27130   2.518   3.042   3.473  0.5194  0.0448 -0.1266
 5166SOL    HW127131   2.547   3.101   3.542  1.1121  0.3936 -0.6717
 5166SOL    HW227132   2.497   2.956   3.508 -2.5140  1.1950  0.9052
 5167SOL     OW27133   0.070   3.578   1.781 -0.4811 -0.2896  0.6012
 5167SOL    HW127134   0.088   3.602   1.690 -2.7776 -0.7125  0.0247
 5167SOL    HW227135   4.709   3.581   1.778 -0.4081  0.8209 -0.6524
 5168SOL     OW27136   2.778   4.646   8.227 -0.6680 -0.5738 -0.1735
 5168SOL    HW127137   2.830   4.640   8.147 -0.2362  2.2048 -0.0986
 5168SOL    HW227138   2.762   4.553   8.243 -0.6447  0.0098  3.1980
 5169SOL     OW27139   3.990   4.261   4.813 -0.0832  0.2166  0.0229
 5169SOL    HW127140   4.032   4.187   4.858  1.9308  2.6393  2.1070
 5169SOL    HW227141   3.946   4.219   4.739  0.9954  1.9468 -1.5733
 5170SOL     OW27142   2.595   1.440   0.676  0.7025 -0.4572  0.4596
 5170SOL    HW127143   2.527   1.397   0.624  0.9148 -0.8383  0.4961
 5170SOL    HW227144   2.608   1.524   0.632  0.7120  0.0424  1.4119
 5171SOL     OW27145   3.609   2.533   6.891 -0.3577  0.5722 -0.2598
 5171SOL    HW127146   3.703   2.546   6.907 -0.5544 -0.4291  1.7193
 5171SOL    HW227147   3.580   2.603   6.949 -0.2184  0.0714  0.4092
 5172SOL     OW27148   1.006   2.659   8.051 -0.1821  0.1100 -0.5382
 5172SOL    HW127149   0.999   2.619   8.138 -1.9228  2.8723  0.5627
 5172SOL    HW227150   0.933   2.720   8.057 -0.5533 -0.0561 -3.3580
 5173SOL     OW27151   0.183   0.670  10.284  0.9006  0.0924  0.1825
 5173SOL    HW127152   0.201   0.689  10.192 -0.5487 -1.4911 -0.4314
 5173SOL    HW227153   0.096   0.698  10.312  1.1302  0.0533  0.9415
 5174SOL     OW27154   0.506   2.036   5.211 -0.4381 -0.5155 -0.1793
 5174SOL    HW127155   0.488   1.992   5.128  0.3119 -0.3141 -0.4446
 5174SOL    HW227156   0.486   2.125   5.182 -0.2898 -0.6105 -0.5697
 5175SOL     OW27157   2.259   0.585   9.114  0.0226  0.6684  0.6123
 5175SOL    HW127158   2.168   0.607   9.092  0.3536  0.5391 -0.8718
 5175SOL    HW227159   2.261   0.625   9.201  1.0206  0.0012  0.8986
 5176SOL     OW27160   3.828   2.862  16.826 -0.4262 -0.1901 -0.1928
 5176SOL    HW127161   3.908   2.878  16.876 -0.1853  0.5319 -0.7993
 5176SOL    HW227162   3.810   2.775  16.860  0.2971  1.8543  5.3528
 5177SOL     OW27163   0.355   2.372   5.431  0.4235  0.2711 -0.0196
 5177SOL    HW127164   0.271   2.348   5.392 -0.1013 -0.3872  1.5122
 5177SOL    HW227165   0.409   2.293   5.430  1.4550  0.9674  0.4249
 5178SOL     OW27166   3.563   0.751  11.350 -0.0966 -0.5143  0.4695
 5178SOL    HW127167   3.646   0.706  11.364 -0.0509 -1.0299 -1.5174
 5178SOL    HW227168   3.587   0.792  11.266 -1.8793  1.1417  0.7651
 5179SOL     OW27169   4.564   1.094   6.864 -0.2395 -0.4767 -0.4840
 5179SOL    HW127170   4.641   1.046   6.832  0.1926 -1.0147  1.3936
 5179SOL    HW227171   4.492   1.036   6.839  0.5178 -1.4225 -0.5034
 5180SOL     OW27172   4.186   3.449  15.771 -0.3282 -0.0662  0.0596
 5180SOL    HW127173   4.133   3.505  15.827 -0.8721  0.5220 -1.0430
 5180SOL    HW227174   4.264   3.463  15.823  0.7122 -1.3363 -1.1584
 5181SOL     OW27175   2.574   2.593   4.208 -0.0936  0.1041  0.3841
 5181SOL    HW127176   2.641   2.658   4.226  0.2333 -0.4255  1.0740
 5181SOL    HW227177   2.544   2.623   4.122 -2.3936  2.2876  1.9743
 5182SOL     OW27178   0.589   0.656   8.157 -0.2259  0.6113  0.4102
 5182SOL    HW127179   0.670   0.706   8.163 -0.9019  1.4624  2.4786
 5182SOL    HW227180   0.593   0.596   8.232  2.4411  1.8514  1.2537
 5183SOL     OW27181   4.691   1.025  10.517  0.1116 -0.4233  0.0016
 5183SOL    HW127182   4.626   1.041  10.585  1.2573  2.2562  0.4642
 5183SOL    HW227183   4.655   1.068  10.440  0.2905  1.9181  1.2313
 5184SOL     OW27184   0.011   3.391   4.654 -0.0337 -0.1527 -0.0919
 5184SOL    HW127185   0.038   3.333   4.726  0.0197 -1.4508 -1.1382
 5184SOL    HW227186   4.732   3.327   4.584 -0.7338 -0.4660  0.3355
 5185SOL     OW27187   1.105   0.660   2.711  0.4737  0.4120  0.2460
 5185SOL    HW127188   1.178   0.691   2.764  1.0291  0.6102 -0.6249
 5185SOL    HW227189   1.108   0.568   2.736  1.8944  0.6175  0.8486
 5186SOL     OW27190   3.510   4.056  14.337 -0.1194  0.1031  0.1386
 5186SOL    HW127191   3.488   3.974  14.382 -1.5390  0.7692  0.6624
 5186SOL    HW227192   3.452   4.053  14.261  0.5518  0.7373 -0.3983
 5187SOL     OW27193   4.037   0.185   5.669  0.1022  0.7817  0.2160
 5187SOL    HW127194   4.081   0.177   5.585  0.0725  1.2745  0.1516
 5187SOL    HW227195   3.956   0.224   5.636  0.0226  1.9288  1.7548
 5188SOL     OW27196   4.412   0.539   0.556 -0.3423  1.0152  0.8647
 5188SOL    HW127197   4.335   0.594   0.574 -2.9425 -2.0749 -0.7211
 5188SOL    HW227198   4.419   0.550   0.461  0.4546  0.7178  0.8913
 5189SOL     OW27199   2.488   0.018   8.295 -0.0352 -1.0888  0.3634
 5189SOL    HW127200   2.553   0.071   8.341 -1.5355 -0.0553  1.2932
 5189SOL    HW227201   2.546   4.693   8.248 -0.6450 -0.5022 -1.1520
 5190SOL     OW27202   3.249   2.556   3.542  0.3848 -0.4416  0.3090
 5190SOL    HW127203   3.327   2.599   3.576  0.1498  1.1464 -1.1447
 5190SOL    HW227204   3.195   2.566   3.621  1.8639 -2.2636  1.5442
 5191SOL     OW27205   3.425   4.024   1.740 -0.4232 -0.1695 -0.7599
 5191SOL    HW127206   3.477   4.035   1.660 -0.3407  0.3173 -0.6379
 5191SOL    HW227207   3.354   3.975   1.699 -0.6430 -0.0375 -0.5376
 5192SOL     OW27208   3.592   4.286   4.034  0.1350 -0.1218 -0.4992
 5192SOL    HW127209   3.621   4.326   4.115  1.0586 -3.2480  0.7350
 5192SOL    HW227210   3.663   4.309   3.974  2.2201 -0.9103  1.6924
 5193SOL     OW27211   1.583   0.271   7.802  0.3278  0.1172 -0.4249
 5193SOL    HW127212   1.495   0.265   7.766  0.1594 -0.8005  0.1479
 5193SOL    HW227213   1.583   0.177   7.818  1.9121  0.4434  1.5395
 5194SOL     OW27214   1.631   2.977   3.241  0.4193 -0.1536  0.0291
 5194SOL    HW127215   1.715   2.988   3.286 -0.1855  1.0874  0.8496
 5194SOL    HW227216   1.589   3.058   3.269 -1.6479 -0.9424 -0.7540
 5195SOL     OW27217   2.401   1.236  15.180 -0.3089 -0.1050 -0.5647
 5195SOL    HW127218   2.403   1.186  15.262 -0.9516 -0.5365 -0.8003
 5195SOL    HW227219   2.405   1.323  15.219 -0.1518 -0.7457  0.8721
 5196SOL     OW27220   2.495   3.376   7.626 -0.0933  0.1988 -0.0557
 5196SOL    HW127221   2.519   3.352   7.537 -0.2078 -0.0782 -0.0116
 5196SOL    HW227222   2.463   3.292   7.659  1.5112 -0.5458 -0.4183
 5197SOL     OW27223   4.722   0.086  17.512 -0.4660 -0.8912 -0.1225
 5197SOL    HW127224   0.065   0.107  17.460 -0.5290  2.2064  1.0544
 5197SOL    HW227225   4.669   0.066  17.435 -1.3962 -2.2748  0.8709
 5198SOL     OW27226   3.403   1.726   6.073 -0.0849  0.2169  0.2252
 5198SOL    HW127227   3.415   1.661   6.004 -1.2101 -0.7456  0.9284
 5198SOL    HW227228   3.392   1.804   6.019  1.5545 -0.2047 -0.7228
 5199SOL     OW27229   0.879   0.122  14.173 -0.2710 -0.1115  0.4205
 5199SOL    HW127230   0.845   0.094  14.258  0.3354 -0.8052  0.4413
 5199SOL    HW227231   0.801   0.153  14.126 -0.3222 -2.0074 -0.7458
 5200SOL     OW27232   2.515   3.672   0.802  0.8039  0.8471  0.2596
 5200SOL    HW127233   2.546   3.585   0.827 -2.6570  0.1183  1.9715
 5200SOL    HW227234   2.586   3.691   0.742  2.7988 -0.1974  2.2876
 5201SOL     OW27235   0.233   0.364  10.050 -0.3847  0.0555 -0.7324
 5201SOL    HW127236   0.204   0.284  10.094  0.1442 -1.0941 -2.5040
 5201SOL    HW227237   0.324   0.354  10.078 -0.3952 -0.0514 -0.7358
 5202SOL     OW27238   2.808   4.017   7.460 -0.1869  0.6167  0.5862
 5202SOL    HW127239   2.858   4.086   7.417  2.4843 -1.9605 -0.4272
 5202SOL    HW227240   2.817   3.941   7.403 -0.5111  2.2761 -1.6597
 5203SOL     OW27241   3.255   1.225  11.543 -0.0897 -0.2701 -0.0890
 5203SOL    HW127242   3.234   1.260  11.630  1.0376 -1.7611  0.7893
 5203SOL    HW227243   3.182   1.167  11.522 -2.1693  1.9981  0.8631
 5204SOL     OW27244   2.288   2.611   4.286 -0.6824 -0.5625 -1.0315
 5204SOL    HW127245   2.258   2.686   4.234  1.3083 -0.4242 -1.9689
 5204SOL    HW227246   2.377   2.637   4.309 -0.4283 -0.3575 -2.2744
 5205SOL     OW27247   3.541   1.863   2.589  0.2730  0.4358  0.6842
 5205SOL    HW127248   3.612   1.829   2.534 -0.0704  0.1666  0.4115
 5205SOL    HW227249   3.594   1.909   2.655 -1.1461  0.6920  1.6400
 5206SOL     OW27250   0.001   3.520   5.406  0.7459 -0.0382 -0.7985
 5206SOL    HW127251   0.091   3.539   5.379  1.2713 -0.9377  0.3061
 5206SOL    HW227252   4.692   3.547   5.326 -2.1301  3.2903  1.9075
 5207SOL     OW27253   2.017   3.749   9.759 -0.8875 -0.0001  0.3939
 5207SOL    HW127254   2.060   3.792   9.685 -1.5722 -1.0656 -0.6115
 5207SOL    HW227255   1.981   3.821   9.812 -0.5970  0.1457  0.3933
 5208SOL     OW27256   4.455   0.310   7.358  0.3098 -0.0290 -0.7159
 5208SOL    HW127257   4.367   0.341   7.379  1.1916  0.2546  2.6998
 5208SOL    HW227258   4.453   0.219   7.387 -0.3668  0.0687 -0.4460
 5209SOL     OW27259   1.195   0.181   1.889 -0.5538 -0.5077  0.1704
 5209SOL    HW127260   1.122   0.129   1.921 -0.1261 -0.5822  1.0244
 5209SOL    HW227261   1.261   0.114   1.905  0.2198 -0.7852 -4.3412
 5210SOL     OW27262   3.907   0.871   6.517  0.5634 -0.2068  0.3028
 5210SOL    HW127263   3.955   0.832   6.590  0.0924 -1.0922  0.1302
 5210SOL    HW227264   3.973   0.884   6.448  2.6199  1.7850  2.6103
 5211SOL     OW27265   0.034   0.278   6.990  0.7155 -0.8947  0.4190
 5211SOL    HW127266   0.008   0.207   7.049 -0.3790 -1.4704 -0.7442
 5211SOL    HW227267   0.129   0.273   7.002  0.8129 -1.4519 -0.5539
 5212SOL     OW27268   1.350   4.164  14.628 -0.1025 -0.3461 -0.4391
 5212SOL    HW127269   1.393   4.193  14.547  0.2522  0.6411  0.1056
 5212SOL    HW227270   1.349   4.250  14.670 -0.8980  0.6128 -2.4042
 5213SOL     OW27271   3.654   2.660   9.387 -0.7638  0.3097  0.6312
 5213SOL    HW127272   3.672   2.751   9.366  1.8095  0.0088  1.6076
 5213SOL    HW227273   3.560   2.662   9.368 -0.9128 -0.5829  1.2641
 5214SOL     OW27274   0.962   1.787  12.805  0.6667  0.1883 -0.2000
 5214SOL    HW127275   0.905   1.766  12.731  1.1922 -1.0300 -0.2501
 5214SOL    HW227276   0.969   1.880  12.786 -0.1290 -0.1214 -2.0269
 5215SOL     OW27277   3.617   1.891  10.293  0.2887  0.3111  0.5298
 5215SOL    HW127278   3.571   1.922  10.372  1.3300  0.8592  0.9245
 5215SOL    HW227279   3.576   1.806  10.281  0.3433  0.5236 -1.0581
 5216SOL     OW27280   2.744   4.652  17.045  0.0674  0.1493 -0.0534
 5216SOL    HW127281   2.767   4.708  16.971 -0.0992  0.6650  0.2862
 5216SOL    HW227282   2.796   4.572  17.035 -1.7258 -1.1310  0.9636
 5217SOL     OW27283   0.250   2.392   7.392 -0.4749 -0.2042  0.7331
 5217SOL    HW127284   0.203   2.445   7.456  0.7435  0.3414  1.1763
 5217SOL    HW227285   0.179   2.328   7.394 -1.6805  1.0964 -0.8966
 5218SOL     OW27286   1.392   0.737   8.416  0.3590  0.0347  0.0563
 5218SOL    HW127287   1.355   0.814   8.373  1.2701 -0.0774 -0.9026
 5218SOL    HW227288   1.438   0.696   8.343 -1.5576 -0.7350 -0.7413
 5219SOL     OW27289   0.699   4.612   5.213 -0.1878  0.0326 -0.7119
 5219SOL    HW127290   0.636   4.576   5.151 -0.2081  2.2875 -2.0196
 5219SOL    HW227291   0.731   4.685   5.159  2.2798  0.8234  1.8281
 5220SOL     OW27292   3.967   0.285   3.125  0.3982  0.5073 -0.4435
 5220SOL    HW127293   3.945   0.369   3.165 -0.6334  0.0292 -0.0097
 5220SOL    HW227294   3.965   0.217   3.191 -1.8453  0.0485 -0.9570
 5221SOL     OW27295   0.104   0.272   8.210  0.0222 -0.1193 -0.0748
 5221SOL    HW127296   0.171   0.337   8.187 -0.1271 -0.2505 -0.8775
 5221SOL    HW227297   0.071   0.300   8.296 -0.1300 -1.1172  0.1848
 5222SOL     OW27298   0.447   1.278  12.979  0.1526  0.1609  0.0049
 5222SOL    HW127299   0.435   1.333  13.055  0.3795  1.1815 -0.7003
 5222SOL    HW227300   0.382   1.318  12.920 -0.7905 -1.1708  0.1315
 5223SOL     OW27301   0.940   4.174  16.570 -0.7520  0.1328 -0.5708
 5223SOL    HW127302   0.850   4.146  16.583 -1.3631  1.3146 -2.2845
 5223SOL    HW227303   0.962   4.216  16.654 -1.4145 -1.5389  0.4471
 5224SOL     OW27304   3.584   3.467   0.653  0.1368 -0.0969 -0.2374
 5224SOL    HW127305   3.619   3.383   0.682 -1.6678 -1.4014 -1.8479
 5224SOL    HW227306   3.514   3.475   0.718 -1.0638 -1.1680 -1.4021
 5225SOL     OW27307   2.845   1.619   9.466  0.0710  0.5406 -0.5346
 5225SOL    HW127308   2.903   1.553   9.429  0.9793  0.1485  1.5662
 5225SOL    HW227309   2.763   1.572   9.482 -0.3607  0.9562 -1.5585
 5226SOL     OW27310   4.651   4.088   1.239 -0.0966  0.8804 -0.4359
 5226SOL    HW127311   4.709   4.059   1.309  0.2374  0.4017 -0.9114
 5226SOL    HW227312   4.576   4.120   1.289  0.6017  1.6582  0.1199
 5227SOL     OW27313   3.982   0.873   7.096 -0.3862  0.2614 -0.2485
 5227SOL    HW127314   3.987   0.936   7.024 -0.0452  0.6090  0.0753
 5227SOL    HW227315   3.965   0.801   7.036  0.3512  0.9471 -1.2812
 5228SOL     OW27316   3.805   2.227   5.504  0.0687  0.3054  0.1537
 5228SOL    HW127317   3.768   2.154   5.454 -0.6102  2.4761 -2.4937
 5228SOL    HW227318   3.771   2.307   5.465 -0.0415 -0.4044 -1.1914
 5229SOL     OW27319   0.534   1.623  14.586  0.0790  0.7244 -0.3136
 5229SOL    HW127320   0.582   1.597  14.508 -3.3099 -4.1037 -0.7463
 5229SOL    HW227321   0.455   1.658  14.544 -0.0006  0.9757  0.0410
 5230SOL     OW27322   0.172   1.363   6.339 -0.1288 -0.5406  0.5971
 5230SOL    HW127323   0.212   1.435   6.387  0.3698 -0.1597 -0.3874
 5230SOL    HW227324   0.247   1.304   6.339  2.2329  2.4866  0.6163
 5231SOL     OW27325   0.915   2.469   3.280 -0.5850 -0.3590  0.4186
 5231SOL    HW127326   0.834   2.418   3.279  0.7671 -2.4488 -1.8503
 5231SOL    HW227327   0.928   2.474   3.375  1.8255 -2.0381  0.1604
 5232SOL     OW27328   4.524   3.502   4.121  0.0737 -0.5578  0.3536
 5232SOL    HW127329   4.522   3.507   4.025  1.7469 -1.6774  0.2558
 5232SOL    HW227330   4.434   3.521   4.145 -0.4119 -0.1979 -1.7614
 5233SOL     OW27331   1.603   2.728   7.022 -1.2110 -0.1748  0.3198
 5233SOL    HW127332   1.665   2.706   6.952  0.5336  3.8955  0.6050
 5233SOL    HW227333   1.641   2.667   7.085  0.5813  0.5766 -0.0473
 5234SOL     OW27334   2.873   2.886  13.311  0.2509 -0.2616 -0.1334
 5234SOL    HW127335   2.803   2.876  13.375  1.9857 -1.1002  1.6126
 5234SOL    HW227336   2.894   2.978  13.327  0.6743 -0.4701  0.4918
 5235SOL     OW27337   3.484   1.500   9.210 -0.1013 -0.0010 -0.2423
 5235SOL    HW127338   3.567   1.454   9.218  0.4764  1.4423  2.0148
 5235SOL    HW227339   3.489   1.527   9.118  0.4540 -0.9052 -0.4811
 5236SOL     OW27340   1.305   0.005   5.733  0.0173  0.4822  0.0320
 5236SOL    HW127341   1.358   4.664   5.759 -0.6743 -0.5801 -1.6220
 5236SOL    HW227342   1.367   0.074   5.709  2.1639 -0.9076  1.6340
 5237SOL     OW27343   0.985   0.808  16.095 -0.3607 -0.0308 -0.4183
 5237SOL    HW127344   1.031   0.891  16.081 -3.3600  1.6963  0.0869
 5237SOL    HW227345   0.989   0.809  16.191  0.3369 -0.6137 -0.4416
 5238SOL     OW27346   0.304   1.127   3.315  0.3509 -0.2478  0.1135
 5238SOL    HW127347   0.218   1.100   3.284  0.3911  0.8568 -0.9751
 5238SOL    HW227348   0.333   1.204   3.266 -0.0496 -1.0456 -1.3532
 5239SOL     OW27349   2.563   0.831   6.384  0.3887  0.0213  0.8891
 5239SOL    HW127350   2.639   0.827   6.442  0.5563 -0.3654  0.6429
 5239SOL    HW227351   2.566   0.912   6.333 -3.0694 -1.7916 -2.2185
 5240SOL     OW27352   3.344   0.513   3.668  0.2097  0.2329  0.1014
 5240SOL    HW127353   3.313   0.479   3.584 -1.1495 -1.4338  1.2777
 5240SOL    HW227354   3.373   0.600   3.639  0.1643  0.2184  0.0098
 5241SOL     OW27355   3.882   2.401  15.875 -0.5057  0.4645  0.5652
 5241SOL    HW127356   3.904   2.480  15.826 -0.4346  0.2422  0.2333
 5241SOL    HW227357   3.795   2.411  15.913 -0.2320  0.1727  1.2795
 5242SOL     OW27358   1.129   4.394   6.594  0.1827  0.1902 -0.3086
 5242SOL    HW127359   1.123   4.301   6.618 -1.2370  0.4744  0.4370
 5242SOL    HW227360   1.041   4.398   6.556  0.6005 -1.5615 -1.4495
 5243SOL     OW27361   2.217   1.424  17.680 -0.2428  0.4313 -0.2176
 5243SOL    HW127362   2.162   1.448   0.016 -0.7835  0.0668 -0.4940
 5243SOL    HW227363   2.147   1.378  17.633  1.1957 -1.6985 -0.3083
 5244SOL     OW27364   4.119   2.875  15.300  0.5965 -0.1700  0.0061
 5244SOL    HW127365   4.190   2.826  15.341  2.2548  1.1779 -1.2743
 5244SOL    HW227366   4.093   2.941  15.364  2.0541  0.0758  0.3339
 5245SOL     OW27367   1.368   0.545   6.883  1.1594  0.3920  0.3943
 5245SOL    HW127368   1.337   0.579   6.966  2.1731  0.4532  0.7473
 5245SOL    HW227369   1.439   0.492   6.919  0.2311 -1.2029 -0.1126
 5246SOL     OW27370   3.022   0.533   8.381 -0.2466  0.0294 -0.0109
 5246SOL    HW127371   3.024   0.437   8.383 -0.0350  0.0115 -1.5872
 5246SOL    HW227372   3.032   0.548   8.475 -1.1260 -0.9832  0.2398
 5247SOL     OW27373   0.392   3.180   4.527  0.7682  0.1989  0.0182
 5247SOL    HW127374   0.433   3.259   4.492  2.1170  0.2004  1.5958
 5247SOL    HW227375   0.444   3.113   4.482  1.7014  1.0493 -0.1759
 5248SOL     OW27376   1.115   0.536  14.136 -0.1410  0.1052  1.0244
 5248SOL    HW127377   1.023   0.509  14.142 -0.0326 -0.3818  0.5875
 5248SOL    HW227378   1.121   0.604  14.202 -0.5595 -0.3839  1.5674
 5249SOL     OW27379   2.803   0.801   8.029 -0.6150 -0.2787  0.3246
 5249SOL    HW127380   2.864   0.841   7.967  0.4184 -0.7659  1.0277
 5249SOL    HW227381   2.734   0.765   7.972 -1.3560  1.3101  0.2167
 5250SOL     OW27382   3.582   1.346   3.451 -0.4273 -1.1501 -0.6854
 5250SOL    HW127383   3.557   1.277   3.390  1.3568 -1.6467 -0.8635
 5250SOL    HW227384   3.656   1.302   3.495  0.0637  0.6936  0.3187
 5251SOL     OW27385   3.481   1.317   7.261 -0.7671  0.2840  0.1929
 5251SOL    HW127386   3.505   1.280   7.345 -0.5629 -4.2755 -1.8944
 5251SOL    HW227387   3.511   1.258   7.192  1.1519 -2.0621  3.0397
 5252SOL     OW27388   4.012   0.621   7.630 -0.0677 -0.5336 -0.2127
 5252SOL    HW127389   4.022   0.696   7.688 -1.4601 -0.2581 -0.3100
 5252SOL    HW227390   4.014   0.672   7.548 -1.4471 -1.5981 -0.9138
 5253SOL     OW27391   1.081   0.134   5.739  0.0305 -0.3440  0.2386
 5253SOL    HW127392   1.063   0.083   5.818 -0.7092 -1.1960 -0.4868
 5253SOL    HW227393   1.148   0.075   5.705  0.2898  0.8823 -1.4334
 5254SOL     OW27394   1.422   2.404   7.095  0.0703  0.8024  0.2181
 5254SOL    HW127395   1.459   2.352   7.024 -2.9537 -1.3716  0.2054
 5254SOL    HW227396   1.350   2.448   7.050  0.4685 -0.9290 -2.1128
 5255SOL     OW27397   2.358   0.804   4.363  0.1701  0.2814  0.0606
 5255SOL    HW127398   2.316   0.879   4.405 -0.1625  0.4476 -0.5653
 5255SOL    HW227399   2.397   0.753   4.434  0.0228 -0.5183 -0.4336
 5256SOL     OW27400   0.369   0.100   1.680 -0.3321  0.2798 -0.0410
 5256SOL    HW127401   0.417   0.059   1.752 -1.4126  0.7622  0.9686
 5256SOL    HW227402   0.351   0.182   1.727 -1.2840  1.0805 -1.8184
 5257SOL     OW27403   1.558   3.662  15.377  0.3767  0.3112  0.0417
 5257SOL    HW127404   1.601   3.581  15.403 -0.8116  0.3668  2.1780
 5257SOL    HW227405   1.561   3.715  15.457  0.1459  1.1866 -0.5206
 5258SOL     OW27406   2.739   1.646   1.548 -0.1118 -0.2665 -0.3628
 5258SOL    HW127407   2.719   1.724   1.600  0.6025  0.2710 -0.9031
 5258SOL    HW227408   2.827   1.670   1.519 -0.5799  2.3350  0.3642
 5259SOL     OW27409   2.654   2.712   6.024 -0.1519 -0.1548 -0.2694
 5259SOL    HW127410   2.716   2.694   6.095 -0.5669  1.7270  0.5643
 5259SOL    HW227411   2.685   2.638   5.971 -0.1965  1.5635 -2.6847
 5260SOL     OW27412   0.769   0.856   5.613  0.1230  0.6000 -0.3561
 5260SOL    HW127413   0.787   0.768   5.581 -1.0585 -1.3029  4.3151
 5260SOL    HW227414   0.675   0.864   5.593 -0.3372 -2.9680  0.5066
 5261SOL     OW27415   0.462   2.529   7.132 -0.0519 -0.3090 -0.1082
 5261SOL    HW127416   0.514   2.491   7.061 -0.5909  0.9748 -1.1757
 5261SOL    HW227417   0.387   2.565   7.086 -0.8433  2.7679  3.6193
 5262SOL     OW27418   2.700   1.508  15.751  0.5005 -0.2971  0.2848
 5262SOL    HW127419   2.678   1.476  15.663 -0.3987  0.8220  0.0999
 5262SOL    HW227420   2.733   1.597  15.741 -3.0984  0.7819 -1.9933
 5263SOL     OW27421   1.288   0.131   5.435 -0.0537 -0.6716  0.3357
 5263SOL    HW127422   1.304   0.038   5.421 -0.3795 -0.4553 -1.4405
 5263SOL    HW227423   1.369   0.162   5.395 -1.2883  0.6882 -1.1290
 5264SOL     OW27424   3.478   2.411   9.459  0.7010 -0.4159  0.4558
 5264SOL    HW127425   3.569   2.438   9.445  1.2251 -3.3219 -1.5900
 5264SOL    HW227426   3.431   2.488   9.428  2.0438  0.7558  1.3057
 5265SOL     OW27427   2.965   0.397   4.854 -0.1030  0.2704 -0.4124
 5265SOL    HW127428   2.954   0.467   4.919  0.6281  0.2936 -0.3209
 5265SOL    HW227429   2.901   0.412   4.784  0.6771 -0.4841 -1.2814
 5266SOL     OW27430   2.730   0.726   4.247  0.1591 -0.1207  1.2422
 5266SOL    HW127431   2.681   0.655   4.289  3.1494 -3.8813 -1.6642
 5266SOL    HW227432   2.656   0.770   4.204 -0.1126 -0.5254  1.2958
 5267SOL     OW27433   0.806   2.887   4.778 -0.3944 -0.1780 -0.2982
 5267SOL    HW127434   0.879   2.914   4.723 -0.4997  3.6255  1.4411
 5267SOL    HW227435   0.812   2.792   4.783 -1.8471 -0.2487  0.1345
 5268SOL     OW27436   4.507   3.815   4.650 -0.2816 -0.0077  0.0336
 5268SOL    HW127437   4.534   3.735   4.605  0.4430 -0.6142  1.5788
 5268SOL    HW227438   4.454   3.867   4.588  0.1543  0.9507  0.4664
 5269SOL     OW27439   1.584   3.591   9.343  0.2048 -0.8748  0.4278
 5269SOL    HW127440   1.568   3.588   9.249 -2.0287 -0.7935  0.7900
 5269SOL    HW227441   1.679   3.592   9.347  0.2121  1.9894 -0.1012
 5270SOL     OW27442   3.639   2.179   4.285 -0.1325  0.6770 -0.4825
 5270SOL    HW127443   3.633   2.271   4.311 -0.6535  0.8827 -1.3377
 5270SOL    HW227444   3.558   2.167   4.236  0.6402  1.3107 -1.8977
 5271SOL     OW27445   1.491   2.666   8.492  0.1069  0.3845 -0.3368
 5271SOL    HW127446   1.532   2.701   8.413 -0.0994 -0.4960 -0.8279
 5271SOL    HW227447   1.570   2.651   8.545 -0.2268 -1.5809 -0.3932
 5272SOL     OW27448   4.733   0.487   6.648 -0.4991 -0.3434 -0.3242
 5272SOL    HW127449   0.089   0.459   6.634 -0.4998 -1.4258  1.8758
 5272SOL    HW227450   4.734   0.507   6.741  0.6702  3.9668 -1.2472
 5273SOL     OW27451   0.442   4.659  17.139 -0.2019 -0.3944 -0.0925
 5273SOL    HW127452   0.385   4.588  17.108  2.6272 -2.6285 -0.1106
 5273SOL    HW227453   0.389   0.004  17.130  0.6818  0.4144  1.8114
 5274SOL     OW27454   1.960   0.156   2.421  0.3425 -0.0803 -0.1630
 5274SOL    HW127455   1.867   0.144   2.441  0.2420 -0.3841 -0.8172
 5274SOL    HW227456   2.001   0.104   2.490 -0.9774  1.1175  1.5246
 5275SOL     OW27457   4.442   0.208   5.571 -0.2516  0.3416 -0.0449
 5275SOL    HW127458   4.396   0.245   5.495 -0.7910  2.0690  1.1129
 5275SOL    HW227459   4.471   0.288   5.615 -2.0992  1.5847 -1.0807
 5276SOL     OW27460   1.869   3.440   0.690  0.0006 -0.9351 -0.0621
 5276SOL    HW127461   1.921   3.521   0.690 -0.4869 -0.6200 -3.4451
 5276SOL    HW227462   1.874   3.420   0.783  0.5209 -1.8193 -0.2820
 5277SOL     OW27463   1.188   0.170   6.570  0.1786  0.1754 -0.7853
 5277SOL    HW127464   1.270   0.166   6.520  2.3263 -0.5401  2.8403
 5277SOL    HW227465   1.196   0.250   6.622 -2.6642  2.7216 -4.2645
 5278SOL     OW27466   3.553   4.375   2.753  0.1643  0.3494  0.2398
 5278SOL    HW127467   3.511   4.292   2.778  1.4388 -1.2868 -3.1320
 5278SOL    HW227468   3.636   4.339   2.725  0.0962  0.0306  0.4484
 5279SOL     OW27469   4.404   1.437  17.682 -0.2213  0.0042 -0.3576
 5279SOL    HW127470   4.383   1.345  17.697  1.5190 -0.5195 -1.0929
 5279SOL    HW227471   4.338   1.485  17.731 -0.6554  0.5958 -1.5336
 5280SOL     OW27472   3.233   3.485   2.896 -0.2941  0.2004 -0.3866
 5280SOL    HW127473   3.201   3.425   2.963  1.7741  1.5084  1.7815
 5280SOL    HW227474   3.301   3.540   2.936 -1.5920  1.8002 -0.3698
 5281SOL     OW27475   1.131   1.691  13.212  0.0241  0.1420  0.3664
 5281SOL    HW127476   1.209   1.637  13.225 -0.8140 -1.8798 -2.7363
 5281SOL    HW227477   1.146   1.761  13.276  0.1713  0.3757  0.0748
 5282SOL     OW27478   0.383   2.473   1.751 -0.1593  0.1518 -0.6568
 5282SOL    HW127479   0.331   2.533   1.805  0.2609  0.0875 -0.1740
 5282SOL    HW227480   0.377   2.401   1.814  1.3325  0.6925  0.1216
 5283SOL     OW27481   2.843   3.244   7.110 -0.3285  0.2688 -0.0397
 5283SOL    HW127482   2.901   3.303   7.158 -0.5697  0.9152 -0.5390
 5283SOL    HW227483   2.871   3.158   7.143  0.6655  0.1824 -1.1146
 5284SOL     OW27484   1.232   3.060  13.250 -0.0927  0.4262 -0.1567
 5284SOL    HW127485   1.181   3.128  13.206 -0.9760 -0.2443 -0.1548
 5284SOL    HW227486   1.161   3.000  13.270  3.7308 -4.4286 -1.0219
 5285SOL     OW27487   2.260   1.177   1.619  0.6422  0.0867 -0.2983
 5285SOL    HW127488   2.266   1.228   1.538  0.0506  1.0343  0.2645
 5285SOL    HW227489   2.251   1.244   1.686 -1.9706  1.1586 -1.7003
 5286SOL     OW27490   0.989   0.968  10.836  0.1991  0.0686 -0.1198
 5286SOL    HW127491   0.918   0.909  10.860  1.8737 -2.5648 -1.5598
 5286SOL    HW227492   1.044   0.963  10.914  0.8344 -4.1400 -0.8695
 5287SOL     OW27493   4.308   2.288   8.916 -0.6601 -0.3135 -0.2901
 5287SOL    HW127494   4.332   2.199   8.942  0.0025  0.2953  1.1312
 5287SOL    HW227495   4.240   2.305   8.981 -1.2606 -2.7447 -0.2949
 5288SOL     OW27496   3.775   2.185   5.769 -0.2286  0.1623 -0.3741
 5288SOL    HW127497   3.805   2.200   5.680  2.6379  0.7661  0.6922
 5288SOL    HW227498   3.687   2.220   5.755 -1.0231 -1.3375  0.8783
 5289SOL     OW27499   1.250   1.750   7.851  0.0892 -0.4113  0.0034
 5289SOL    HW127500   1.242   1.800   7.770  0.9551  0.9246  0.7458
 5289SOL    HW227501   1.219   1.662   7.831  0.8426 -0.4705 -0.9041
 5290SOL     OW27502   2.945   0.113  16.424  0.3472 -0.1420 -0.0234
 5290SOL    HW127503   2.915   0.028  16.456 -0.7170  0.0919 -0.3899
 5290SOL    HW227504   2.870   0.131  16.368  1.2597  1.6694 -0.6651
 5291SOL     OW27505   3.464   2.265   9.178  0.0689  0.1944 -0.9735
 5291SOL    HW127506   3.457   2.307   9.264 -1.5127 -0.7932 -0.6308
 5291SOL    HW227507   3.555   2.287   9.155  0.2185 -0.0388 -0.6009
 5292SOL     OW27508   4.213   2.196   1.897  0.0787 -0.4621  0.0775
 5292SOL    HW127509   4.191   2.112   1.858  0.7327 -0.8330  0.5122
 5292SOL    HW227510   4.177   2.259   1.834 -2.2082 -1.7775  0.0506
 5293SOL     OW27511   1.583   3.279  15.067  0.0837 -0.0308 -0.5112
 5293SOL    HW127512   1.617   3.192  15.046  0.4036 -0.5955  2.3263
 5293SOL    HW227513   1.578   3.330  14.986 -1.1235  0.8395  0.1049
 5294SOL     OW27514   0.024   2.338   8.279 -0.0783  0.5236 -0.1042
 5294SOL    HW127515   0.098   2.391   8.250  0.2533  0.4221  0.5413
 5294SOL    HW227516   0.004   2.382   8.362  0.1594  1.1544 -0.3840
 5295SOL     OW27517   0.798   0.698   5.015  0.3181  0.2750  0.1722
 5295SOL    HW127518   0.803   0.639   5.091 -1.1986  0.9397  0.7897
 5295SOL    HW227519   0.810   0.783   5.058 -1.4994  0.0062  1.2222
 5296SOL     OW27520   3.425   0.176   3.904  0.0037  0.0088  0.5532
 5296SOL    HW127521   3.373   0.099   3.926  0.6992 -0.3090  1.0685
 5296SOL    HW227522   3.422   0.228   3.984 -1.0760  0.7712  0.0185
 5297SOL     OW27523   4.283   4.363   7.388  0.3729  0.3088 -0.8942
 5297SOL    HW127524   4.329   4.434   7.432  1.1709  0.4879 -2.0196
 5297SOL    HW227525   4.207   4.414   7.362  0.3579  0.9817  0.4852
 5298SOL     OW27526   0.331   2.926   2.459 -0.1552 -0.3206  0.3958
 5298SOL    HW127527   0.324   2.962   2.371 -1.9119 -0.7886  0.3469
 5298SOL    HW227528   0.242   2.893   2.472 -0.1780 -0.5621 -0.3415
 5299SOL     OW27529   4.440   4.012   3.417  0.3504  0.0560 -0.0346
 5299SOL    HW127530   4.401   4.040   3.334 -0.6342  1.0368  0.7584
 5299SOL    HW227531   4.378   3.942   3.441  1.1249 -0.1927  1.1943
 5300SOL     OW27532   2.099   4.015  10.266  0.4948  0.6990  0.3990
 5300SOL    HW127533   2.143   3.941  10.224 -0.8993  0.9435 -1.4371
 5300SOL    HW227534   2.141   4.011  10.352  1.2318  2.6780  0.1220
 5301SOL     OW27535   0.163   0.789  16.905  0.3877 -0.1368  0.0107
 5301SOL    HW127536   0.257   0.801  16.889 -0.0484 -0.4618 -2.7728
 5301SOL    HW227537   0.133   0.864  16.957 -1.1761  1.2269 -2.8775
 5302SOL     OW27538   3.784   0.505  14.880  0.2701  0.3792 -0.1561
 5302SOL    HW127539   3.833   0.448  14.941  0.6266  1.5850  0.6902
 5302SOL    HW227540   3.852   0.567  14.854  1.1453 -0.7673 -0.5796
 5303SOL     OW27541   4.731   3.339   8.567 -0.2662  0.6974 -0.0253
 5303SOL    HW127542   0.068   3.290   8.525 -0.6467  0.5269 -0.4840
 5303SOL    HW227543   0.043   3.343   8.650 -1.1206  4.4960  0.2526
 5304SOL     OW27544   2.762   3.712   8.509 -0.1051  0.0132 -0.0941
 5304SOL    HW127545   2.694   3.770   8.543  1.2163  1.6536 -0.2609
 5304SOL    HW227546   2.711   3.631   8.505  0.4732 -0.1377 -3.9427
 5305SOL     OW27547   2.899   3.142   8.406  0.0582  0.5918  0.4468
 5305SOL    HW127548   2.826   3.167   8.463 -0.1271  1.8459 -0.3558
 5305SOL    HW227549   2.925   3.055   8.437  0.0724  0.2897 -0.4037
 5306SOL     OW27550   0.207   3.365   3.093 -0.2482 -0.0913  0.8999
 5306SOL    HW127551   0.225   3.300   3.025  1.0079  0.6368  0.5268
 5306SOL    HW227552   0.287   3.356   3.146  0.5037  2.5280  0.2434
 5307SOL     OW27553   2.483   0.313   2.572  0.0420  0.4787 -0.1513
 5307SOL    HW127554   2.548   0.285   2.637 -0.3573  1.5554  0.7093
 5307SOL    HW227555   2.504   0.262   2.493 -1.5048 -1.2636  0.5595
 5308SOL     OW27556   4.204   2.511   5.693 -0.3846 -0.2725  0.4421
 5308SOL    HW127557   4.116   2.487   5.664 -0.2962  0.5280 -0.4610
 5308SOL    HW227558   4.191   2.519   5.787  0.4060 -0.4737  0.5763
 5309SOL     OW27559   4.254   2.822   6.334 -0.0635 -0.0353 -0.4901
 5309SOL    HW127560   4.256   2.782   6.246  0.8976 -3.1535  0.9401
 5309SOL    HW227561   4.167   2.791   6.360 -0.3188  1.0913 -0.0127
 5310SOL     OW27562   2.283   1.348   1.397 -0.0517 -0.3001 -0.0287
 5310SOL    HW127563   2.261   1.313   1.311 -1.0042 -0.7977  0.4165
 5310SOL    HW227564   2.262   1.441   1.394 -0.8171 -0.6114 -3.5631
 5311SOL     OW27565   0.386   4.001   1.622  0.1884 -0.0431 -0.3021
 5311SOL    HW127566   0.455   4.012   1.557 -0.0958 -1.5836 -0.8818
 5311SOL    HW227567   0.402   4.065   1.691 -2.1896  0.2394 -0.0262
 5312SOL     OW27568   2.226   2.200   9.487  0.3794  0.0479  0.1498
 5312SOL    HW127569   2.221   2.277   9.431  2.4900 -0.5099 -0.8133
 5312SOL    HW227570   2.285   2.223   9.559  0.8213 -0.7547  0.0504
 5313SOL     OW27571   0.439   3.557   4.203  0.2588 -0.4596  0.7015
 5313SOL    HW127572   0.365   3.497   4.190 -1.2265  1.5644 -0.2620
 5313SOL    HW227573   0.400   3.640   4.176 -0.7633 -0.4929  2.0708
 5314SOL     OW27574   1.533   0.218  14.853 -0.8635 -0.1525 -0.2997
 5314SOL    HW127575   1.536   0.265  14.936 -1.1620  1.7266 -1.3760
 5314SOL    HW227576   1.622   0.214  14.818 -0.4858 -0.6867  0.7194
 5315SOL     OW27577   0.028   0.644  16.286 -0.4762  0.4047 -0.2956
 5315SOL    HW127578   0.062   0.658  16.198  2.8956  0.3027  0.9527
 5315SOL    HW227579   4.682   0.695  16.287 -2.2508 -2.3944  1.3674
 5316SOL     OW27580   1.498   0.218   7.309  0.2371 -0.3357 -0.1830
 5316SOL    HW127581   1.511   0.164   7.387  0.1900 -0.0175  0.0439
 5316SOL    HW227582   1.588   0.228   7.279  0.4761  0.2365  0.7249
 5317SOL     OW27583   0.770   4.110  11.691 -0.0127 -0.1262  0.3550
 5317SOL    HW127584   0.736   4.188  11.649 -1.7427 -1.2825 -0.4115
 5317SOL    HW227585   0.738   4.051  11.623  1.3167 -1.4656  0.8898
 5318SOL     OW27586   3.777   1.571   5.170 -0.2827  0.3160  0.0281
 5318SOL    HW127587   3.847   1.616   5.123 -0.0615  0.1158  0.1651
 5318SOL    HW227588   3.712   1.571   5.100 -0.1712 -1.4049 -0.0750
 5319SOL     OW27589   2.982   4.228   3.724  0.2039  0.6137  0.1179
 5319SOL    HW127590   2.916   4.165   3.751 -0.7397  1.2094 -0.7460
 5319SOL    HW227591   2.948   4.305   3.770 -3.1894 -0.7437 -0.1082
 5320SOL     OW27592   3.753   3.660   8.722  0.5688 -0.1485  0.0303
 5320SOL    HW127593   3.672   3.624   8.760 -0.2055 -0.2212 -1.6775
 5320SOL    HW227594   3.724   3.737   8.673  1.8779 -0.1825 -0.8055
 5321SOL     OW27595   2.704   2.229   4.866 -0.0749  0.1962 -0.8277
 5321SOL    HW127596   2.682   2.321   4.849 -0.0049  0.5911  1.2054
 5321SOL    HW227597   2.751   2.229   4.949  0.8030 -0.9627 -1.3298
 5322SOL     OW27598   0.244   3.987   8.081  0.0986 -0.2043  0.1572
 5322SOL    HW127599   0.209   4.037   8.154 -0.4563  1.2285 -1.1040
 5322SOL    HW227600   0.174   3.926   8.057  1.1865 -1.7873  0.9715
 5323SOL     OW27601   1.023   2.942   2.550  0.3968 -0.0128 -0.2691
 5323SOL    HW127602   1.061   3.025   2.578 -1.3623  0.7375 -0.1416
 5323SOL    HW227603   0.981   2.930   2.635  0.1156  1.9094 -0.1347
 5324SOL     OW27604   3.836   0.488   3.254 -0.2051  0.0903 -0.2211
 5324SOL    HW127605   3.850   0.577   3.287 -2.8557 -0.3397  2.1034
 5324SOL    HW227606   3.764   0.455   3.307 -0.3025  0.8810  0.1499
 5325SOL     OW27607   2.056   2.544   1.798 -0.0072  0.1997 -0.3366
 5325SOL    HW127608   2.141   2.510   1.771  0.6599 -1.2122  3.5388
 5325SOL    HW227609   2.044   2.495   1.880  0.5844 -1.3790 -1.2028
 5326SOL     OW27610   4.149   2.808  10.723 -0.0360  0.5601 -0.3145
 5326SOL    HW127611   4.245   2.814  10.722  0.0599 -0.4516  2.0515
 5326SOL    HW227612   4.141   2.717  10.693 -0.1191  0.8324 -1.1419
 5327SOL     OW27613   3.021   4.553   9.131  0.2400  0.6550  0.0074
 5327SOL    HW127614   3.002   4.459   9.125 -2.2507  1.0657  1.2666
 5327SOL    HW227615   3.013   4.575   9.038 -2.4996 -0.6415 -0.0771
 5328SOL     OW27616   2.522   1.219   3.370  0.0483  0.0615 -0.3904
 5328SOL    HW127617   2.604   1.227   3.322 -0.5909  0.7292 -1.3555
 5328SOL    HW227618   2.553   1.157   3.436  1.5607  1.9712  0.7191
 5329SOL     OW27619   2.702   1.168   2.505 -0.5306 -0.1194  0.5054
 5329SOL    HW127620   2.640   1.095   2.499 -0.0926 -0.3070 -1.8646
 5329SOL    HW227621   2.778   1.111   2.516  1.4472  2.2422 -0.8053
 5330SOL     OW27622   2.968   1.899   9.072 -0.6479 -0.5742 -0.4376
 5330SOL    HW127623   2.956   1.836   9.001 -0.3843  0.3833 -1.3331
 5330SOL    HW227624   2.944   1.985   9.038 -1.4304  0.5758  3.0536
 5331SOL     OW27625   3.369   1.318   8.377 -0.6593  0.3194 -0.8169
 5331SOL    HW127626   3.316   1.270   8.314  0.1884 -1.4468 -0.1815
 5331SOL    HW227627   3.344   1.273   8.458 -0.3007  1.7268  0.0807
 5332SOL     OW27628   0.435   1.009  17.372 -0.7528  0.2152  0.0018
 5332SOL    HW127629   0.421   0.951  17.297 -0.4762 -1.3686  1.1700
 5332SOL    HW227630   0.483   0.963  17.441 -2.6187  1.7322  2.2947
 5333SOL     OW27631   2.675   0.137  12.972  0.0013 -0.0432 -0.7516
 5333SOL    HW127632   2.767   0.135  12.999 -0.5991  0.1750  1.3567
 5333SOL    HW227633   2.651   0.053  13.011  0.9019  0.1517  0.2444
 5334SOL     OW27634   3.547   4.106   2.789 -0.4218  0.1365 -0.3321
 5334SOL    HW127635   3.487   4.036   2.762  1.3047 -1.4843 -0.0008
 5334SOL    HW227636   3.521   4.129   2.878  1.7302  1.0000  0.0533
 5335SOL     OW27637   1.085   1.042  11.446 -0.6325 -0.6093  1.0745
 5335SOL    HW127638   1.083   1.046  11.542  0.8711  2.3365  0.9751
 5335SOL    HW227639   1.081   0.946  11.441 -0.3645 -0.4937 -1.0722
 5336SOL     OW27640   3.194   1.884   4.581 -0.3083  0.5404 -0.7907
 5336SOL    HW127641   3.174   1.796   4.549 -1.6751  0.6392 -0.1823
 5336SOL    HW227642   3.244   1.870   4.661  0.7602 -2.1788 -1.9343
 5337SOL     OW27643   4.078   0.818  17.554 -0.4315  0.7983 -0.2980
 5337SOL    HW127644   4.044   0.908  17.554 -0.7515  0.6784  0.6404
 5337SOL    HW227645   4.142   0.824  17.625  0.1593 -2.4852 -0.5465
 5338SOL     OW27646   1.895   0.521   2.198  0.6001 -0.7015  0.3109
 5338SOL    HW127647   1.885   0.616   2.204 -1.0306 -0.8986  0.8543
 5338SOL    HW227648   1.821   0.477   2.241 -0.9569  0.6290 -0.9881
 5339SOL     OW27649   2.865   1.166   3.959  0.2169 -0.5190  0.3724
 5339SOL    HW127650   2.959   1.170   3.943  0.1318  1.5723  0.2867
 5339SOL    HW227651   2.839   1.250   3.921 -0.0325 -0.1406  1.3893
 5340SOL     OW27652   4.635   4.047   8.373  0.1372  0.4863 -0.3898
 5340SOL    HW127653   4.653   3.972   8.429 -0.9739  0.8978  0.5049
 5340SOL    HW227654   4.595   4.008   8.295 -1.7026  1.4829  0.0600
 5341SOL     OW27655   2.194   3.016  13.860 -0.0251 -0.1877  0.1590
 5341SOL    HW127656   2.145   2.943  13.898 -1.8862  0.3620 -1.1886
 5341SOL    HW227657   2.283   3.000  13.892 -0.5775 -1.1296  1.2198
 5342SOL     OW27658   1.719   2.601  13.759 -0.4365 -0.2333  0.3822
 5342SOL    HW127659   1.634   2.602  13.804 -0.9179  0.8474 -0.5539
 5342SOL    HW227660   1.734   2.511  13.729  0.7014  0.0330  0.1876
 5343SOL     OW27661   1.458   0.983   7.681  0.1599  0.4972 -0.5530
 5343SOL    HW127662   1.473   0.928   7.604  0.5107  3.1644 -2.3958
 5343SOL    HW227663   1.522   0.948   7.743  0.2152 -0.3826 -1.1067
 5344SOL     OW27664   1.442   0.524   4.018  0.1917  0.3212 -0.2958
 5344SOL    HW127665   1.499   0.540   4.094 -0.2534 -0.5548  0.2112
 5344SOL    HW227666   1.362   0.571   4.042  1.3953  2.0137  0.4533
 5345SOL     OW27667   3.011   0.528   9.994 -0.4939 -0.1465 -0.2920
 5345SOL    HW127668   3.016   0.464  10.064 -0.1165  0.3346  0.1190
 5345SOL    HW227669   3.073   0.588  10.035 -0.0476 -0.5583 -0.3758
 5346SOL     OW27670   1.330   3.528   3.984 -0.3127  0.7342 -0.0566
 5346SOL    HW127671   1.303   3.439   3.963  0.2876  0.2149  1.3454
 5346SOL    HW227672   1.241   3.554   4.006 -0.0173  0.0876  1.9481
 5347SOL     OW27673   3.801   2.150  11.515  0.1573  0.1837  0.4299
 5347SOL    HW127674   3.783   2.068  11.470 -0.5680  0.4557  0.2307
 5347SOL    HW227675   3.894   2.158  11.494  0.7183 -1.6818  2.2084
 5348SOL     OW27676   2.993   2.051   2.683  0.0359 -0.0756 -0.0953
 5348SOL    HW127677   3.072   2.023   2.636  0.6375  2.1443 -0.4133
 5348SOL    HW227678   2.961   2.121   2.626 -0.4215 -0.7521 -0.6557
 5349SOL     OW27679   2.375   0.683   0.200  0.5840 -0.2293  0.0107
 5349SOL    HW127680   2.417   0.714   0.280  0.6002  2.5522 -1.0679
 5349SOL    HW227681   2.393   0.589   0.203 -2.3427 -0.8206 -1.1047
 5350SOL     OW27682   2.499   3.949   3.594 -0.2925  0.2849  0.0911
 5350SOL    HW127683   2.497   3.916   3.504  0.7785  2.3111 -0.6716
 5350SOL    HW227684   2.592   3.970   3.603  0.2545 -1.5081 -1.4174
 5351SOL     OW27685   4.034   3.850   8.347 -0.4242  0.6825 -0.0720
 5351SOL    HW127686   4.007   3.761   8.323  0.6046 -0.1486  1.8993
 5351SOL    HW227687   4.123   3.826   8.372 -0.3198  0.2351 -0.8491
 5352SOL     OW27688   2.999   1.028  11.796  0.0358 -0.5100  0.4254
 5352SOL    HW127689   2.982   1.038  11.890 -1.0057 -2.0612  0.4091
 5352SOL    HW227690   2.985   1.118  11.766  2.5195 -0.7151 -1.3394
 5353SOL     OW27691   2.153   1.827  16.570  0.0278  0.0197  0.4972
 5353SOL    HW127692   2.161   1.884  16.646  2.1761 -0.8251  0.9066
 5353SOL    HW227693   2.108   1.869  16.497 -2.0929  0.1002  1.8315
 5354SOL     OW27694   2.342   0.509  16.896 -0.0100 -0.1344 -0.0758
 5354SOL    HW127695   2.277   0.543  16.835 -0.2051 -2.1311 -0.9656
 5354SOL    HW227696   2.314   0.418  16.903 -0.3096 -0.0836 -0.6496
 5355SOL     OW27697   4.185   0.758   3.240 -0.2381 -0.0914  0.1995
 5355SOL    HW127698   4.205   0.674   3.283  1.6367 -0.6940 -1.8507
 5355SOL    HW227699   4.162   0.819   3.310 -1.7675  0.7421 -1.0327
 5356SOL     OW27700   0.716   3.021   2.998 -0.3631  0.8519 -0.4974
 5356SOL    HW127701   0.709   2.931   3.029  2.9066  0.1853 -1.6257
 5356SOL    HW227702   0.631   3.034   2.956  0.0080 -1.1465 -1.8641
 5357SOL     OW27703   3.104   2.520   8.051  0.2498 -0.1254  0.2668
 5357SOL    HW127704   3.193   2.489   8.068  0.4853 -0.2269 -1.1147
 5357SOL    HW227705   3.120   2.614   8.047  1.5651 -0.2744  2.2934
 5358SOL     OW27706   3.614   2.395   6.356  0.4276 -0.4884 -0.5497
 5358SOL    HW127707   3.631   2.403   6.450  1.3308  0.5500 -0.7969
 5358SOL    HW227708   3.707   2.403   6.336  0.9565 -1.4709  1.4831
 5359SOL     OW27709   2.285   1.233   0.213  0.1666  0.2801 -0.2090
 5359SOL    HW127710   2.206   1.287   0.209  0.6972  0.9865 -1.1465
 5359SOL    HW227711   2.269   1.193   0.127  0.0710 -0.6520  0.2382
 5360SOL     OW27712   4.053   1.137   2.214  0.5523  0.5911 -0.1428
 5360SOL    HW127713   4.115   1.209   2.199  0.0349  0.6102 -2.2312
 5360SOL    HW227714   3.976   1.194   2.221  0.5126  0.6059 -0.6409
 5361SOL     OW27715   3.167   1.088  17.497  0.2989 -0.0583  0.5347
 5361SOL    HW127716   3.137   1.169  17.536 -0.4769  0.7706 -1.7391
 5361SOL    HW227717   3.203   1.114  17.412 -1.2641 -1.1815 -0.4694
 5362SOL     OW27718   0.019   3.726   7.052 -0.3320 -0.4705 -0.5068
 5362SOL    HW127719   4.671   3.775   7.054  0.7528  1.3954 -1.4753
 5362SOL    HW227720   4.731   3.645   7.098  1.3769 -0.1156  0.9488
 5363SOL     OW27721   0.433   1.448   6.831  0.5576  0.2960 -0.6177
 5363SOL    HW127722   0.345   1.411   6.840  1.5377 -1.9146 -0.1325
 5363SOL    HW227723   0.459   1.381   6.767 -2.7640 -1.2541 -0.3448
 5364SOL     OW27724   4.496   3.225  16.213  0.2868 -0.7152  0.3672
 5364SOL    HW127725   4.531   3.154  16.159  0.9839 -1.1461  1.3885
 5364SOL    HW227726   4.566   3.291  16.212 -0.3106 -0.0946 -0.2892
 5365SOL     OW27727   3.881   3.699  13.091  0.1659  0.4337 -0.7062
 5365SOL    HW127728   3.822   3.726  13.021  0.6466  0.8391 -0.9546
 5365SOL    HW227729   3.899   3.784  13.131 -0.6676  0.2734  0.0015
 5366SOL     OW27730   0.991   0.820   1.470  0.1143  0.6917 -0.1789
 5366SOL    HW127731   1.058   0.837   1.404 -0.6725 -1.4381 -1.5347
 5366SOL    HW227732   0.946   0.903   1.482 -0.6714  0.4711 -1.5187
 5367SOL     OW27733   3.225   2.430   0.865 -0.3974  0.1026  0.2957
 5367SOL    HW127734   3.254   2.484   0.791  1.3915 -1.0164  0.1763
 5367SOL    HW227735   3.130   2.433   0.855 -0.2644  1.7369 -0.5301
 5368SOL     OW27736   1.497   3.223   3.302  0.4801  0.0063 -0.4513
 5368SOL    HW127737   1.548   3.285   3.355 -1.8068 -0.2003  1.9901
 5368SOL    HW227738   1.502   3.256   3.212  0.1114  0.2680 -0.3723
 5369SOL     OW27739   2.781   2.118  11.010 -0.0206  0.1369  0.3082
 5369SOL    HW127740   2.826   2.068  11.078 -2.2095 -1.4262  0.6138
 5369SOL    HW227741   2.857   2.133  10.954  0.5060 -2.2558  0.3811
 5370SOL     OW27742   2.363   1.684  12.639 -0.2167 -0.4332  0.0576
 5370SOL    HW127743   2.434   1.679  12.576 -1.7337  0.3266 -1.7022
 5370SOL    HW227744   2.326   1.769  12.615 -1.1630 -0.5396  1.1259
 5371SOL     OW27745   1.765   3.698   2.698  0.1905  0.0410  0.7079
 5371SOL    HW127746   1.705   3.672   2.768 -1.7334  0.8932 -0.6113
 5371SOL    HW227747   1.754   3.792   2.686  2.2130  0.1018 -0.6561
 5372SOL     OW27748   2.931   3.564   3.613 -0.0135 -0.4628  0.6084
 5372SOL    HW127749   2.901   3.565   3.703  1.7811  0.7431  1.1869
 5372SOL    HW227750   3.022   3.536   3.623  1.5594  3.4224 -2.6564
 5373SOL     OW27751   3.569   1.987   9.301  0.0671  0.3072 -0.2675
 5373SOL    HW127752   3.546   2.065   9.251  0.3204  0.6235  0.1141
 5373SOL    HW227753   3.485   1.979   9.347 -0.9515 -0.2629 -2.2181
 5374SOL     OW27754   1.003   3.554   5.451  0.4355 -0.1546 -0.0098
 5374SOL    HW127755   1.073   3.617   5.465 -0.2649  0.8694 -1.1093
 5374SOL    HW227756   1.041   3.469   5.473  0.5015 -0.2550 -0.5242
 5375SOL     OW27757   4.644   0.474  16.619 -0.3432  0.7205  0.2129
 5375SOL    HW127758   4.583   0.409  16.585 -0.1236  0.4536  0.3223
 5375SOL    HW227759   4.725   0.424  16.608 -0.8893 -0.5671  1.9598
 5376SOL     OW27760   1.874   3.149   5.023  0.1499 -0.0060 -0.0863
 5376SOL    HW127761   1.955   3.157   5.074 -0.2249  0.3826  0.4455
 5376SOL    HW227762   1.842   3.238   5.006  0.2864 -0.5232 -2.9600
 5377SOL     OW27763   3.056   0.221  16.656  0.5551  0.3337 -0.3772
 5377SOL    HW127764   3.028   0.198  16.568  0.1333 -2.2735  0.4593
 5377SOL    HW227765   3.009   0.302  16.676  1.7030  1.0720 -0.6515
 5378SOL     OW27766   2.533   4.023   4.749  0.3363 -0.1058  0.3823
 5378SOL    HW127767   2.472   4.060   4.812 -0.5148 -0.3873 -0.2736
 5378SOL    HW227768   2.488   3.942   4.725 -0.3991  0.1392  0.9611
 5379SOL     OW27769   0.857   3.717   6.131  0.3826 -0.0646  0.7116
 5379SOL    HW127770   0.941   3.670   6.124 -1.3785 -3.0443 -0.4726
 5379SOL    HW227771   0.806   3.659   6.186 -1.5477 -1.8517 -2.9220
 5380SOL     OW27772   2.571   0.416  15.467 -0.2144  0.0513  0.3807
 5380SOL    HW127773   2.524   0.499  15.477 -0.2025  0.3444 -2.2056
 5380SOL    HW227774   2.540   0.362  15.541 -0.8744  2.5537  1.9297
 5381SOL     OW27775   3.708   2.350   9.078 -0.2352 -0.6965 -0.2155
 5381SOL    HW127776   3.782   2.339   9.017 -2.1600 -0.7681 -2.5301
 5381SOL    HW227777   3.651   2.404   9.023  1.8753  2.3174  0.5368
 5382SOL     OW27778   2.925   0.920   1.324  0.1833 -0.1851  0.0556
 5382SOL    HW127779   3.013   0.900   1.291  0.0525  1.3236 -1.2238
 5382SOL    HW227780   2.858   0.893   1.261  1.8553 -0.5409 -1.5894
 5383SOL     OW27781   1.906   3.175   6.554  0.2165  0.3797 -0.9555
 5383SOL    HW127782   1.892   3.246   6.491 -0.6289  0.7684 -0.3198
 5383SOL    HW227783   1.926   3.217   6.637  0.6480  0.6544 -1.1976
 5384SOL     OW27784   0.725   2.314  14.101  0.5504  0.8155 -0.1260
 5384SOL    HW127785   0.666   2.257  14.150  0.8687 -1.5474 -2.4823
 5384SOL    HW227786   0.715   2.274  14.015  0.0978  0.0480  0.2876
 5385SOL     OW27787   4.260   2.683  13.771  0.7082  0.2630  0.0507
 5385SOL    HW127788   4.221   2.741  13.706 -0.7747 -0.4092  0.3350
 5385SOL    HW227789   4.328   2.647  13.714  0.6420 -0.4308  0.4035
 5386SOL     OW27790   0.935   3.047   8.224 -0.0866  0.3037 -0.1590
 5386SOL    HW127791   0.906   3.137   8.211  0.8990  1.1054  3.1822
 5386SOL    HW227792   0.886   3.039   8.305 -1.7152  0.1842 -1.1587
 5387SOL     OW27793   0.643   2.893   5.458  0.0270  0.5596 -0.8142
 5387SOL    HW127794   0.670   2.804   5.435  2.8087  1.5785 -1.5020
 5387SOL    HW227795   0.576   2.876   5.524  0.3747 -0.5512 -0.7491
 5388SOL     OW27796   2.027   3.565  11.844  0.0886  0.5696 -0.5729
 5388SOL    HW127797   1.990   3.627  11.907  2.1248  2.2412 -1.0199
 5388SOL    HW227798   2.094   3.619  11.802  2.1437 -2.0076 -0.6158
 5389SOL     OW27799   1.844   0.972  12.035  0.4652 -0.6258  0.5882
 5389SOL    HW127800   1.812   1.055  12.070 -0.6790 -0.8716  0.0957
 5389SOL    HW227801   1.759   0.931  12.022  0.0428  0.3508  0.2240
 5390SOL     OW27802   2.803   3.039   8.088 -0.4509  0.0398  0.1750
 5390SOL    HW127803   2.895   3.049   8.115 -0.5555  1.6441 -0.0565
 5390SOL    HW227804   2.811   3.048   7.993 -1.0174 -2.1192 -0.0682
 5391SOL     OW27805   2.691   3.137   9.378 -0.1036  0.3053  0.4371
 5391SOL    HW127806   2.620   3.096   9.328  0.5908  2.5778 -2.4113
 5391SOL    HW227807   2.655   3.226   9.374 -1.7341 -0.2669  2.5860
 5392SOL     OW27808   3.826   3.646   7.919 -0.4783 -0.1302 -0.2677
 5392SOL    HW127809   3.788   3.708   7.982 -0.4906 -0.6467  0.2331
 5392SOL    HW227810   3.904   3.695   7.894 -1.9413  1.3319 -1.9632
 5393SOL     OW27811   2.698   1.745   7.284  0.0616  0.2509  0.3093
 5393SOL    HW127812   2.723   1.667   7.334 -1.2424 -0.3062  0.0941
 5393SOL    HW227813   2.608   1.726   7.259  0.5957 -1.7936 -0.0474
 5394SOL     OW27814   3.204   3.557   6.967 -0.3151 -0.3433  0.0454
 5394SOL    HW127815   3.189   3.503   6.890 -0.4804  0.2697 -0.3554
 5394SOL    HW227816   3.297   3.539   6.979  0.0781  2.2976  1.1878
 5395SOL     OW27817   0.436   4.398   3.547 -0.5258 -0.3530 -0.1050
 5395SOL    HW127818   0.384   4.473   3.520  0.9975  0.9541  0.6096
 5395SOL    HW227819   0.450   4.368   3.457 -2.1936  0.7779 -0.7232
 5396SOL     OW27820   2.968   0.796   7.795 -0.0394 -0.4150  0.1801
 5396SOL    HW127821   2.915   0.726   7.758 -1.2004 -0.4113  1.8534
 5396SOL    HW227822   3.018   0.833   7.722 -1.2713 -0.4612 -0.6966
 5397SOL     OW27823   2.897   4.474  12.231  0.4450 -0.0313  0.0967
 5397SOL    HW127824   2.941   4.415  12.170 -1.4442 -1.0435 -0.2922
 5397SOL    HW227825   2.901   4.410  12.302 -1.6974  0.4221  0.6217
 5398SOL     OW27826   4.311   4.671   1.807  0.1113 -0.2771 -0.6634
 5398SOL    HW127827   4.383   4.734   1.808  1.2564 -1.6797  2.2753
 5398SOL    HW227828   4.259   4.710   1.877  2.3192  1.0420  0.2445
 5399SOL     OW27829   4.294   2.032   8.981  0.4086  0.0662  0.3302
 5399SOL    HW127830   4.256   1.946   8.996  1.3453 -0.1007  1.7483
 5399SOL    HW227831   4.283   2.060   9.071  1.0030 -2.5521  1.2217
 5400SOL     OW27832   3.404   3.735   2.946 -0.5011 -0.0344 -0.6608
 5400SOL    HW127833   3.371   3.780   2.869 -0.4860  0.1432 -0.5637
 5400SOL    HW227834   3.401   3.813   3.001  0.6820 -0.5123  0.0966
 5401SOL     OW27835   3.867   4.342   5.039 -0.2746 -0.2385  0.0585
 5401SOL    HW127836   3.863   4.252   5.071  0.7427  0.4447  2.1627
 5401SOL    HW227837   3.919   4.317   4.962 -4.4212 -2.2948 -2.0577
 5402SOL     OW27838   4.319   4.568   6.656  0.4119 -0.5326 -0.5142
 5402SOL    HW127839   4.328   4.663   6.650 -0.8807 -0.5067 -2.0289
 5402SOL    HW227840   4.394   4.545   6.711 -0.1593 -1.3289 -0.0664
 5403SOL     OW27841   0.970   3.678  12.478  0.0392 -0.4714 -0.0611
 5403SOL    HW127842   1.042   3.735  12.452 -0.1862 -0.5616 -0.8610
 5403SOL    HW227843   0.962   3.706  12.570 -1.3202 -2.7162  0.5052
 5404SOL     OW27844   0.859   3.282   5.965  0.0610  0.2656 -0.1977
 5404SOL    HW127845   0.827   3.369   5.942  1.2733  0.6551 -0.4401
 5404SOL    HW227846   0.777   3.242   5.994  0.8086  0.0905  1.7210
 5405SOL     OW27847   1.983   4.323   8.783 -0.1247 -0.4109  0.9021
 5405SOL    HW127848   2.075   4.308   8.804 -0.2649 -1.0796  1.0353
 5405SOL    HW227849   1.986   4.348   8.691 -0.0034  0.7873  1.2253
 5406SOL     OW27850   3.846   2.190   0.788 -1.0727  0.5240  0.1404
 5406SOL    HW127851   3.915   2.236   0.834  0.3362 -0.2221 -1.2471
 5406SOL    HW227852   3.861   2.225   0.700  2.9563  1.0037  1.0508
 5407SOL     OW27853   1.539   2.598   5.346  0.3346 -0.3182 -0.3140
 5407SOL    HW127854   1.616   2.543   5.361  1.1361 -0.6495 -5.5091
 5407SOL    HW227855   1.516   2.570   5.257 -0.5077  1.4551 -0.6453
 5408SOL     OW27856   1.712   1.304   8.658  0.2008  0.3716  0.1667
 5408SOL    HW127857   1.717   1.319   8.752 -0.2324 -1.8876  0.5598
 5408SOL    HW227858   1.742   1.389   8.628 -1.1693  0.2473 -1.6129
 5409SOL     OW27859   2.236   0.977   4.033 -0.5107  0.3296  0.5148
 5409SOL    HW127860   2.201   0.993   4.121 -0.4977  1.5602  0.2935
 5409SOL    HW227861   2.278   1.061   4.015  1.8995 -0.3019  3.2192
 5410SOL     OW27862   4.281   0.427  12.592 -0.4420  0.0941 -0.3100
 5410SOL    HW127863   4.325   0.479  12.525 -1.5481  0.9797 -0.3348
 5410SOL    HW227864   4.299   0.484  12.667 -1.1679 -0.4615  0.2890
 5411SOL     OW27865   1.239   2.901  12.821  0.6917 -0.0224  0.1748
 5411SOL    HW127866   1.164   2.847  12.846 -0.5562  1.1631 -0.9870
 5411SOL    HW227867   1.236   2.887  12.726  0.7796 -2.9953  0.5904
 5412SOL     OW27868   2.256   4.114   3.645  0.1193 -0.4506 -0.3245
 5412SOL    HW127869   2.350   4.095   3.650  0.7247  2.7175  0.1295
 5412SOL    HW227870   2.227   4.025   3.621 -1.1968 -0.1377  0.1409
 5413SOL     OW27871   4.009   2.006   2.513  0.1207 -0.0059 -0.2983
 5413SOL    HW127872   4.023   1.945   2.585  0.8152 -1.8757 -2.0203
 5413SOL    HW227873   4.027   1.949   2.439  1.3776  0.1735 -0.1434
 5414SOL     OW27874   3.142   2.257   6.312  0.0646 -0.1472 -0.1486
 5414SOL    HW127875   3.207   2.211   6.365 -0.1570 -0.2242  0.0550
 5414SOL    HW227876   3.161   2.237   6.221 -1.6666 -0.9280 -0.3425
 5415SOL     OW27877   3.945   4.317   8.720  0.1982 -0.1250  0.6363
 5415SOL    HW127878   3.882   4.388   8.704  1.0920  0.2152 -1.3588
 5415SOL    HW227879   3.979   4.337   8.808 -0.0353  1.0307  0.4668
 5416SOL     OW27880   2.999   0.062  16.086 -0.0059  0.0735 -0.1358
 5416SOL    HW127881   2.999   4.702  16.095 -0.4788  0.1460  0.6235
 5416SOL    HW227882   3.093   0.080  16.086  0.2506 -1.3185  1.6986
 5417SOL     OW27883   3.125   0.326   4.645 -0.7585  0.5633 -0.6316
 5417SOL    HW127884   3.145   0.414   4.616 -0.4235  0.4262 -0.8187
 5417SOL    HW227885   3.083   0.361   4.723  2.4953 -1.5915  2.0750
 5418SOL     OW27886   4.152   2.618  16.300 -0.5632 -0.1352 -0.5438
 5418SOL    HW127887   4.079   2.679  16.297  1.5035  2.3379 -1.1373
 5418SOL    HW227888   4.133   2.547  16.238 -2.9780 -0.1422  0.2129
 5419SOL     OW27889   4.365   1.945   7.237  0.2362  0.3853 -0.2766
 5419SOL    HW127890   4.321   1.866   7.206  1.4152 -0.8917  1.3768
 5419SOL    HW227891   4.455   1.913   7.240 -0.4639 -1.9050 -3.0898
 5420SOL     OW27892   1.752   4.128   9.871 -0.3440  0.3409 -0.6160
 5420SOL    HW127893   1.771   4.042   9.909 -2.1705 -0.4236 -1.3972
 5420SOL    HW227894   1.784   4.185   9.940  1.3292 -0.3982 -0.7795
 5421SOL     OW27895   0.435   1.006   2.276 -0.4306 -0.2951 -1.0237
 5421SOL    HW127896   0.476   1.022   2.361 -0.1060  0.9784 -1.4212
 5421SOL    HW227897   0.510   0.969   2.228 -0.2645 -1.3518  0.0376
 5422SOL     OW27898   2.461   1.008   6.608 -0.6808 -0.7551 -0.6789
 5422SOL    HW127899   2.497   0.982   6.523  0.7118 -2.1029  0.3309
 5422SOL    HW227900   2.522   0.975   6.674 -0.6758  1.7860  0.5761
 5423SOL     OW27901   2.933   4.334   3.046  0.1034  0.0182 -0.3343
 5423SOL    HW127902   2.859   4.309   3.101  0.7648 -2.0446 -0.3704
 5423SOL    HW227903   2.904   4.358   2.959 -2.9901  0.6082  0.8604
 5424SOL     OW27904   1.210   2.603  17.458 -0.6046  0.3784  0.9774
 5424SOL    HW127905   1.269   2.528  17.470 -1.0514 -0.4057 -1.5613
 5424SOL    HW227906   1.149   2.593  17.530 -0.2751  1.4468  1.3926
 5425SOL     OW27907   4.071   0.992  17.072 -0.4853 -0.0270  0.5056
 5425SOL    HW127908   4.059   1.034  17.158 -2.5935  0.2997  0.0558
 5425SOL    HW227909   3.981   0.995  17.039  0.2120 -0.0133 -1.3497
 5426SOL     OW27910   1.439   4.059   4.764 -0.5527  0.3528  0.3989
 5426SOL    HW127911   1.441   4.140   4.712 -0.4880 -0.0858 -0.2854
 5426SOL    HW227912   1.533   4.051   4.779 -0.0746  2.1555 -1.5937
 5427SOL     OW27913   1.433   2.823  13.726  1.3245 -0.3976 -0.1013
 5427SOL    HW127914   1.417   2.905  13.772  1.9103 -0.3115 -0.0486
 5427SOL    HW227915   1.362   2.773  13.766  1.1527 -0.8772 -1.0214
 5428SOL     OW27916   2.058   4.188  16.415 -0.3496  0.3014  0.4450
 5428SOL    HW127917   1.974   4.144  16.426 -0.5386  0.8625  1.2487
 5428SOL    HW227918   2.029   4.251  16.350 -1.7425  0.3827  1.1415
 5429SOL     OW27919   0.473   3.624   2.820 -0.3076 -0.4413  0.7603
 5429SOL    HW127920   0.391   3.658   2.783  0.6277 -0.8593 -1.7015
 5429SOL    HW227921   0.516   3.591   2.741 -1.4812  1.4406 -0.6678
 5430SOL     OW27922   1.650   3.051  15.637  0.0909  0.1573  0.1446
 5430SOL    HW127923   1.563   3.035  15.675  0.0399  0.0433 -0.0232
 5430SOL    HW227924   1.628   3.130  15.588 -0.4739  0.9313  1.6374
 5431SOL     OW27925   0.346   2.086  17.151 -0.4199 -0.2890  0.1226
 5431SOL    HW127926   0.406   2.031  17.201 -1.9298 -1.1374  0.9807
 5431SOL    HW227927   0.371   2.081  17.059  1.2098 -3.1001  0.7083
 5432SOL     OW27928   3.978   4.542   4.560  0.1087 -0.5623  0.2354
 5432SOL    HW127929   4.074   4.533   4.562  0.0307 -1.3651  0.4392
 5432SOL    HW227930   3.978   4.633   4.530  0.9077 -0.3542  0.8800
 5433SOL     OW27931   2.751   1.692   8.199  0.2500  0.3425  0.1293
 5433SOL    HW127932   2.659   1.721   8.201  0.5471  1.5472 -2.8807
 5433SOL    HW227933   2.796   1.773   8.174 -0.3260  1.6082  3.1286
 5434SOL     OW27934   1.540   3.671   4.097  0.2163 -0.7327 -0.2514
 5434SOL    HW127935   1.476   3.609   4.062 -1.2507  1.3484 -1.2620
 5434SOL    HW227936   1.488   3.751   4.104  2.3727  0.5387  1.2292
 5435SOL     OW27937   2.187   0.244   7.201 -0.2477  0.3477  0.0143
 5435SOL    HW127938   2.135   0.173   7.240  0.2439 -1.1797 -2.1559
 5435SOL    HW227939   2.214   0.201   7.120  1.7622 -1.8822  1.8798
 5436SOL     OW27940   3.553   2.451  10.044 -0.0519  0.4926  0.5649
 5436SOL    HW127941   3.552   2.451   9.948  0.3486  0.8351  0.5622
 5436SOL    HW227942   3.462   2.467  10.068  1.0852  0.8972  4.6106
 5437SOL     OW27943   2.774   0.361   4.027 -0.1443  0.3731  0.4925
 5437SOL    HW127944   2.697   0.418   4.020  0.1034  0.2755 -2.8368
 5437SOL    HW227945   2.748   0.304   4.100  1.9496  1.0169  1.7160
 5438SOL     OW27946   2.158   4.668   8.737  0.0405 -0.5755  0.5456
 5438SOL    HW127947   2.078   4.620   8.757  0.0926 -1.3325 -1.0312
 5438SOL    HW227948   2.214   4.650   8.812 -0.3640 -0.1232  0.9523
 5439SOL     OW27949   2.867   2.721  10.547  0.3926  0.6206 -0.0675
 5439SOL    HW127950   2.915   2.763  10.618  1.2514 -1.3169  0.4986
 5439SOL    HW227951   2.920   2.730  10.468  2.8776  1.1338  1.6603
 5440SOL     OW27952   4.165   0.778   8.799  0.6746  0.1873  0.1606
 5440SOL    HW127953   4.098   0.712   8.785  2.2831 -1.2916 -0.6306
 5440SOL    HW227954   4.240   0.723   8.822  1.2080  0.0949 -1.7893
 5441SOL     OW27955   0.513   3.634  10.610 -0.7235  0.2550 -0.2563
 5441SOL    HW127956   0.468   3.699  10.557 -0.3319  0.1999 -0.6561
 5441SOL    HW227957   0.571   3.695  10.655 -0.3805  1.3035 -2.1283
 5442SOL     OW27958   4.493   0.094   7.093  0.1207 -0.5221  0.7611
 5442SOL    HW127959   4.484   0.187   7.115  1.5342 -0.2970  0.3949
 5442SOL    HW227960   4.503   0.062   7.183  0.5770  1.0736  1.2817
 5443SOL     OW27961   0.907   0.859   2.787  0.0803  0.2910  0.4913
 5443SOL    HW127962   0.884   0.844   2.879  0.4284 -0.1170  0.5104
 5443SOL    HW227963   0.993   0.820   2.773  0.0890  0.1764  0.8668
 5444SOL     OW27964   1.889   1.537   4.070 -0.1017 -0.5492 -0.1418
 5444SOL    HW127965   1.976   1.498   4.063  0.2738  0.2783 -0.0917
 5444SOL    HW227966   1.842   1.468   4.117 -2.2550  0.3457 -0.9572
 5445SOL     OW27967   4.699   1.817   4.089  0.1296 -0.3102 -0.2874
 5445SOL    HW127968   4.706   1.823   3.994 -1.0534  2.2666 -0.2141
 5445SOL    HW227969   4.653   1.736   4.109 -0.6211 -0.2835 -1.8591
 5446SOL     OW27970   2.651   2.451   4.631  0.1481 -0.2200 -0.7462
 5446SOL    HW127971   2.742   2.468   4.609  0.0917  1.7852  0.6174
 5446SOL    HW227972   2.614   2.428   4.545 -0.8272  1.8229 -0.8696
 5447SOL     OW27973   1.571   1.620   9.630  0.4877 -0.2306 -0.2954
 5447SOL    HW127974   1.499   1.666   9.586 -0.1687  0.2157  1.2711
 5447SOL    HW227975   1.643   1.683   9.630 -1.2437  1.7460  1.3906
 5448SOL     OW27976   2.637   3.653   3.760  0.0651 -0.1927 -0.1544
 5448SOL    HW127977   2.712   3.619   3.809  1.7298  1.1591 -1.7917
 5448SOL    HW227978   2.589   3.573   3.739  1.0308 -0.8882  0.2781
 5449SOL     OW27979   1.468   3.469   6.668 -0.0615 -0.3656 -0.2593
 5449SOL    HW127980   1.512   3.427   6.594  3.2984 -0.5202  1.7970
 5449SOL    HW227981   1.537   3.520   6.711 -1.3642  0.3265  1.0129
 5450SOL     OW27982   4.711   2.327   7.721  0.7011  0.0415  0.6204
 5450SOL    HW127983   4.661   2.249   7.696  1.2368  0.7871 -2.8235
 5450SOL    HW227984   0.016   2.289   7.800  0.7303  0.3903  0.7718
 5451SOL     OW27985   0.766   1.696   6.817 -0.1042  0.1185 -0.2028
 5451SOL    HW127986   0.853   1.674   6.784  0.8903  1.7248  1.3270
 5451SOL    HW227987   0.742   1.621   6.871 -0.2190  0.2620 -0.0532
 5452SOL     OW27988   1.681   3.651   5.049  0.4702 -0.0642 -0.4625
 5452SOL    HW127989   1.592   3.666   5.018  0.5917  1.0732 -0.2714
 5452SOL    HW227990   1.724   3.733   5.023  2.5332  0.0748  3.4009
 5453SOL     OW27991   3.467   1.642   1.949  0.1026  0.2806  0.7435
 5453SOL    HW127992   3.391   1.619   2.002  0.5666 -1.4783  0.6449
 5453SOL    HW227993   3.435   1.687   1.870  0.6344  0.2181  0.4873
 5454SOL     OW27994   1.095   4.568  13.510  0.4507 -0.2742 -0.1106
 5454SOL    HW127995   1.162   4.598  13.449  0.8817 -2.6578 -0.8110
 5454SOL    HW227996   1.147   4.522  13.576  0.4915  0.4689  0.3662
 5455SOL     OW27997   0.529   2.320   4.443  0.6757  0.2148  0.0935
 5455SOL    HW127998   0.560   2.261   4.512  0.6910 -0.9654 -0.9076
 5455SOL    HW227999   0.579   2.298   4.364 -0.1732 -0.2215 -0.3284
 5456SOL     OW28000   3.881   4.539   1.013  0.0095 -0.1255  0.0715
 5456SOL    HW128001   3.920   4.457   1.043  0.3697 -0.2305 -0.6838
 5456SOL    HW228002   3.950   4.571   0.955  0.7853 -2.2481 -0.1812
 5457SOL     OW28003   3.216   2.867   7.599 -0.4226  0.6585 -0.1691
 5457SOL    HW128004   3.294   2.897   7.552  0.8926 -2.0511  0.2802
 5457SOL    HW228005   3.233   2.773   7.604  0.6336  0.8555 -0.0791
 5458SOL     OW28006   2.144   0.066   0.308  0.2008  0.1883 -0.1890
 5458SOL    HW128007   2.236   0.088   0.300  0.2425 -0.5569 -1.7133
 5458SOL    HW228008   2.143   0.034   0.399 -1.5377 -0.0800 -0.2953
 5459SOL     OW28009   1.095   4.203   3.599 -0.1659 -0.4587  0.0767
 5459SOL    HW128010   1.042   4.279   3.622 -0.2167  0.7835 -4.1765
 5459SOL    HW228011   1.163   4.254   3.555 -2.0987  2.5240  0.5367
 5460SOL     OW28012   2.856   2.132   9.003  0.3719 -0.3329  0.3700
 5460SOL    HW128013   2.809   2.101   9.080  0.7224  1.0001  1.1014
 5460SOL    HW228014   2.778   2.162   8.957 -0.1388 -0.3157  1.2433
 5461SOL     OW28015   4.195   4.321   6.691  0.0571  0.0113  0.2816
 5461SOL    HW128016   4.143   4.306   6.770  0.4437  2.0440  0.9215
 5461SOL    HW228017   4.226   4.410   6.709  0.0928 -0.0901  0.7251
 5462SOL     OW28018   4.527   3.170   6.784  0.0142 -0.5655 -0.2518
 5462SOL    HW128019   4.620   3.169   6.808  0.2624  2.1728 -1.0570
 5462SOL    HW228020   4.538   3.087   6.737  2.6257  0.4534 -1.4670
 5463SOL     OW28021   3.950   4.287   7.851 -0.2788 -0.4320 -0.8390
 5463SOL    HW128022   4.019   4.316   7.791 -0.0349 -0.3163 -0.5015
 5463SOL    HW228023   3.917   4.368   7.890 -0.6250  0.3641 -2.7566
 5464SOL     OW28024   2.108   2.651   8.078 -0.0073 -0.4247  0.1765
 5464SOL    HW128025   2.139   2.561   8.065  0.7814  0.1444 -2.0160
 5464SOL    HW228026   2.059   2.647   8.159  0.6458 -0.8304  0.5517
 5465SOL     OW28027   2.905   4.611   1.554  0.6811 -0.0097 -0.1482
 5465SOL    HW128028   2.825   4.640   1.598  1.3422 -0.3211  1.2569
 5465SOL    HW228029   2.876   4.527   1.519 -0.3142 -0.3372  1.4551
 5466SOL     OW28030   2.488   3.650   4.483 -0.6448  0.2227 -0.1209
 5466SOL    HW128031   2.478   3.653   4.388 -0.5160 -1.5638 -0.2034
 5466SOL    HW228032   2.537   3.568   4.493 -1.2129 -0.0120  0.8195
 5467SOL     OW28033   1.682   2.551   1.674 -0.4067 -0.1410  0.2729
 5467SOL    HW128034   1.689   2.616   1.745 -1.7767  0.6916 -0.3737
 5467SOL    HW228035   1.592   2.566   1.646 -0.3442  0.3645  0.3487
 5468SOL     OW28036   1.091   2.164   6.081 -0.1517 -0.5614  0.0199
 5468SOL    HW128037   1.080   2.149   6.175 -0.7846 -1.9327 -0.2844
 5468SOL    HW228038   1.162   2.228   6.091 -0.4879 -0.0145 -1.0304
 5469SOL     OW28039   2.235   1.496   4.518 -0.2055 -0.3102  0.5308
 5469SOL    HW128040   2.147   1.533   4.506  0.1615  0.0958 -0.9775
 5469SOL    HW228041   2.247   1.511   4.611  1.9031  0.8021  0.0713
 5470SOL     OW28042   3.856   3.251   9.172 -0.0810  0.2975  0.3070
 5470SOL    HW128043   3.921   3.294   9.116  1.7871 -1.1075  1.4070
 5470SOL    HW228044   3.889   3.163   9.158 -2.0822 -0.2605 -0.8830
 5471SOL     OW28045   0.565   1.880  11.015 -0.9998  0.3684 -0.5523
 5471SOL    HW128046   0.609   1.891  11.099 -0.6121 -1.7515 -0.4880
 5471SOL    HW228047   0.490   1.827  11.042 -0.0137  0.1164  1.6672
 5472SOL     OW28048   0.360   2.255   1.917 -0.0392  0.0001  0.2288
 5472SOL    HW128049   0.283   2.199   1.910  1.3438 -1.7011 -1.4145
 5472SOL    HW228050   0.382   2.241   2.009 -0.1148 -0.2201  0.2121
 5473SOL     OW28051   0.245   1.308  11.068  0.0567 -0.2535  0.2235
 5473SOL    HW128052   0.266   1.353  11.149 -0.1107  0.3734 -0.0829
 5473SOL    HW228053   0.306   1.349  11.006  1.2295 -0.1910  1.4419
 5474SOL     OW28054   3.569   2.918   8.809 -0.3005 -0.3682 -0.2315
 5474SOL    HW128055   3.561   3.013   8.801 -3.3303 -0.4913  1.1915
 5474SOL    HW228056   3.602   2.918   8.899 -1.1786  0.8794  0.0963
 5475SOL     OW28057   2.352   3.528  17.264 -0.2591  0.2657 -0.2159
 5475SOL    HW128058   2.420   3.479  17.218  1.3789  2.2981  0.0312
 5475SOL    HW228059   2.308   3.457  17.311  3.5037 -2.5735 -1.0410
 5476SOL     OW28060   0.235   2.884  16.396 -0.5392  0.6621 -0.3882
 5476SOL    HW128061   0.210   2.962  16.446 -0.5732  0.8427 -0.6834
 5476SOL    HW228062   0.326   2.876  16.425 -0.8752 -1.1048  0.1332
 5477SOL     OW28063   2.284   3.897   6.450  0.0281 -0.1442 -0.0449
 5477SOL    HW128064   2.375   3.924   6.440 -0.2519  1.5171  1.8286
 5477SOL    HW228065   2.268   3.858   6.364 -4.5419 -0.3076  0.8711
 5478SOL     OW28066   0.296   3.463  16.823 -0.3224 -0.6526 -0.0740
 5478SOL    HW128067   0.224   3.509  16.781  0.2527  0.4606  0.1639
 5478SOL    HW228068   0.371   3.506  16.783  0.1212 -0.6460  0.7691
 5479SOL     OW28069   0.788   3.834   6.465 -0.0221 -0.1058  0.7315
 5479SOL    HW128070   0.834   3.794   6.540 -1.4944 -2.4724  0.3743
 5479SOL    HW228071   0.740   3.761   6.426 -2.5044  1.6790  0.5151
 5480SOL     OW28072   2.284   4.026   5.572 -0.1205  0.0514  0.0128
 5480SOL    HW128073   2.296   4.118   5.551 -0.2286  0.0204 -0.1849
 5480SOL    HW228074   2.207   3.993   5.526  0.2700 -0.2742 -0.4082
 5481SOL     OW28075   2.954   2.444   3.070 -0.7626 -0.2557 -0.2523
 5481SOL    HW128076   2.971   2.433   2.977 -1.2209  1.2533 -0.5101
 5481SOL    HW228077   2.991   2.532   3.075 -3.0486  0.7968 -1.5544
 5482SOL     OW28078   4.423   2.273  10.612  0.0315 -0.0027  0.1651
 5482SOL    HW128079   4.385   2.229  10.688  0.4211 -0.1333  0.2843
 5482SOL    HW228080   4.339   2.291  10.568 -1.4746  1.5681  3.6838
 5483SOL     OW28081   1.997   2.636  17.042 -0.5446 -0.1758  0.3333
 5483SOL    HW128082   1.909   2.670  17.058 -0.3760 -1.0858  3.1174
 5483SOL    HW228083   2.029   2.721  17.011 -0.9152  0.3365  1.3467
 5484SOL     OW28084   1.842   0.444   5.492 -0.2765 -0.0515 -0.3524
 5484SOL    HW128085   1.921   0.487   5.460  0.0111 -0.2578  0.0830
 5484SOL    HW228086   1.866   0.351   5.490 -0.1866  0.0262 -3.5052
 5485SOL     OW28087   2.335   3.943   9.867 -0.0505  0.8818  0.0927
 5485SOL    HW128088   2.394   3.914   9.797 -1.0638 -0.6956 -0.1076
 5485SOL    HW228089   2.372   3.902   9.946 -3.1309 -0.4387  0.8539
 5486SOL     OW28090   0.611   2.985   4.142  0.1471 -0.0075 -0.2072
 5486SOL    HW128091   0.639   3.076   4.144  2.3793 -0.6659 -1.3896
 5486SOL    HW228092   0.691   2.947   4.179 -0.7377 -0.6979  0.9805
 5487SOL     OW28093   1.469   0.029   1.354  0.2369 -0.3433  0.7205
 5487SOL    HW128094   1.383   0.068   1.340 -0.1085 -1.5913 -0.7239
 5487SOL    HW228095   1.523   0.108   1.351 -0.5947  0.2200  0.6790
 5488SOL     OW28096   2.870   3.679   9.817 -0.4124 -0.0466  0.0047
 5488SOL    HW128097   2.886   3.761   9.864 -1.5052  1.2944 -1.9328
 5488SOL    HW228098   2.837   3.630   9.892 -0.9623  0.2536 -0.0428
 5489SOL     OW28099   1.794   2.924   6.492 -0.3929  0.0666  0.0783
 5489SOL    HW128100   1.849   3.000   6.509  0.7933 -1.3449  2.6525
 5489SOL    HW228101   1.846   2.854   6.453 -1.6265 -1.5447  1.2715
 5490SOL     OW28102   2.682   1.732   5.566 -0.3391 -0.0329 -0.4903
 5490SOL    HW128103   2.595   1.765   5.588 -0.5979 -2.8762  2.7968
 5490SOL    HW228104   2.706   1.681   5.644  0.3208  1.1973  0.1272
 5491SOL     OW28105   1.532   1.249   6.446 -0.9613 -0.1103 -0.3009
 5491SOL    HW128106   1.561   1.217   6.360 -0.2105 -2.2004  0.7374
 5491SOL    HW228107   1.595   1.208   6.504  0.6312 -0.3202 -2.1623
 5492SOL     OW28108   4.661   2.132  14.007 -0.0373 -0.0408 -0.2288
 5492SOL    HW128109   4.707   2.169  14.082  0.6744 -1.8618  0.2393
 5492SOL    HW228110   4.581   2.105  14.052  0.5598 -1.7021 -0.1363
 5493SOL     OW28111   2.149   4.494   3.202  0.1217  0.4839  0.3531
 5493SOL    HW128112   2.094   4.480   3.279 -1.3730  1.5583 -0.5125
 5493SOL    HW228113   2.080   4.520   3.141  0.3259 -0.1418 -0.1558
 5494SOL     OW28114   3.949   2.509   5.561 -0.4191  0.0168 -0.2613
 5494SOL    HW128115   3.954   2.604   5.559 -0.3994 -0.0018 -1.0414
 5494SOL    HW228116   3.879   2.491   5.624 -1.2109 -1.0956 -1.4737
 5495SOL     OW28117   0.400   4.214   6.502  0.5540  0.0340  0.0429
 5495SOL    HW128118   0.415   4.284   6.439 -0.3516  0.5352  0.3797
 5495SOL    HW228119   0.489   4.200   6.532  0.2787  1.6003  1.6010
 5496SOL     OW28120   3.547   4.586   6.049  0.0341  0.2037  0.1715
 5496SOL    HW128121   3.628   4.637   6.042  1.0743 -1.5705 -0.6402
 5496SOL    HW228122   3.506   4.628   6.124  0.1206  1.6049 -0.5681
 5497SOL     OW28123   0.200   0.526   9.455  0.5710  0.1326 -0.6708
 5497SOL    HW128124   0.132   0.593   9.446 -1.0776 -1.4354  0.3663
 5497SOL    HW228125   0.148   0.451   9.481  2.1767 -0.0241  2.1286
 5498SOL     OW28126   2.394   3.610   8.756  0.1139 -0.1003 -0.2349
 5498SOL    HW128127   2.365   3.601   8.666  0.0905 -1.1814 -0.1188
 5498SOL    HW228128   2.397   3.518   8.784  0.3938  0.3453  1.2375
 5499SOL     OW28129   1.188   2.902  14.364  0.5131  0.0167  0.2970
 5499SOL    HW128130   1.118   2.839  14.379  0.4611  0.5972  2.5215
 5499SOL    HW228131   1.264   2.845  14.349  1.3055  1.1274  0.0581
 5500SOL     OW28132   3.562   3.436   6.239  0.0813  0.4335  0.3671
 5500SOL    HW128133   3.591   3.494   6.310  1.0346 -1.0254  1.1800
 5500SOL    HW228134   3.569   3.348   6.278 -2.6820 -0.0994 -0.3094
 5501SOL     OW28135   1.425   3.398   4.824  0.0541 -0.0558 -0.2418
 5501SOL    HW128136   1.461   3.388   4.912 -1.2582  3.2096  0.6757
 5501SOL    HW228137   1.492   3.359   4.769 -0.9829  0.5784 -1.9521
 5502SOL     OW28138   2.496   0.009   0.128  0.0814 -0.0946  0.1151
 5502SOL    HW128139   2.521   0.035   0.216  0.4945  0.1709 -0.0809
 5502SOL    HW228140   2.400   0.010   0.124  0.0798 -2.3164 -0.5857
 5503SOL     OW28141   3.080   0.440   2.172  0.5768 -0.0545  0.1217
 5503SOL    HW128142   3.095   0.347   2.187  1.3271 -0.1180 -1.0076
 5503SOL    HW228143   3.100   0.470   2.260 -1.0159  0.7935  0.1847
 5504SOL     OW28144   0.691   4.581  16.471  0.5582 -0.2306 -0.1923
 5504SOL    HW128145   0.635   4.585  16.394  0.8564  1.5290 -0.3303
 5504SOL    HW228146   0.760   4.526  16.434 -1.4115 -1.3102 -2.2827
 5505SOL     OW28147   3.067   4.446  16.624 -0.0296 -0.2431  0.1004
 5505SOL    HW128148   3.100   4.514  16.565 -0.0505 -0.8666 -0.6345
 5505SOL    HW228149   3.028   4.496  16.695 -1.1768  1.1348 -1.5171
 5506SOL     OW28150   1.034   4.108   0.168 -0.6082 -0.2475  0.5151
 5506SOL    HW128151   1.000   4.157   0.093 -1.0492  1.3180  1.7277
 5506SOL    HW228152   1.027   4.021   0.130 -0.1810 -0.8197  1.7501
 5507SOL     OW28153   3.199   2.098   8.416 -0.4825  0.0814 -0.3188
 5507SOL    HW128154   3.170   2.103   8.324  0.8502 -1.1055 -0.8069
 5507SOL    HW228155   3.261   2.171   8.412 -1.2615  0.7860  0.6202
 5508SOL     OW28156   4.493   1.793   8.085  0.2262  0.1573 -0.3781
 5508SOL    HW128157   4.427   1.732   8.053 -2.0260  1.6357  1.5099
 5508SOL    HW228158   4.490   1.782   8.180 -1.0654 -1.8657 -0.6687
 5509SOL     OW28159   0.526   3.334   9.784  0.4285  0.2951 -0.0567
 5509SOL    HW128160   0.534   3.354   9.877  1.8016 -2.7841  0.5106
 5509SOL    HW228161   0.509   3.423   9.755  0.1867  0.1872 -0.2400
 5510SOL     OW28162   3.704   2.037   8.753 -0.1091 -0.3623 -0.8929
 5510SOL    HW128163   3.691   2.130   8.769  0.3287 -0.6840  1.3346
 5510SOL    HW228164   3.667   1.992   8.829 -0.9239  0.5320 -0.7694
 5511SOL     OW28165   2.727   1.934  10.677  0.4236 -0.3927 -0.2179
 5511SOL    HW128166   2.778   1.882  10.616  2.3030  0.5069  0.5888
 5511SOL    HW228167   2.793   1.950  10.745 -0.0557  0.4224  0.0615
 5512SOL     OW28168   3.858   2.381   9.316  0.1910 -0.3264 -0.2028
 5512SOL    HW128169   3.795   2.352   9.250 -0.1093 -0.5558  0.1850
 5512SOL    HW228170   3.909   2.301   9.329  0.4887  0.1898  1.8773
 5513SOL     OW28171   3.653   2.840   4.702  0.3343  0.1800 -0.6882
 5513SOL    HW128172   3.640   2.874   4.791 -0.7847 -1.1156 -0.3594
 5513SOL    HW228173   3.708   2.914   4.676 -2.2755  2.2129 -0.4299
 5514SOL     OW28174   4.300   0.812  14.759 -0.7014  0.2864  0.2559
 5514SOL    HW128175   4.314   0.820  14.665 -0.6803 -3.5501 -0.0518
 5514SOL    HW228176   4.225   0.870  14.771 -0.5100  0.7392 -0.7508
 5515SOL     OW28177   2.305   1.832  12.229  0.0155  0.3817  0.3496
 5515SOL    HW128178   2.211   1.829  12.211  0.4148  0.5295 -1.7288
 5515SOL    HW228179   2.325   1.877  12.147  1.1704 -0.0031  0.4249
 5516SOL     OW28180   0.247   2.146   6.670 -0.6233  0.6807  0.6622
 5516SOL    HW128181   0.212   2.189   6.592 -0.2388 -1.7694 -0.8560
 5516SOL    HW228182   0.327   2.106   6.637 -0.6552 -0.3554  1.8234
 5517SOL     OW28183   1.806   3.703   6.126 -0.0961  0.5036 -0.1061
 5517SOL    HW128184   1.881   3.749   6.165 -1.0221  0.3492  1.8412
 5517SOL    HW228185   1.732   3.750   6.163 -0.2668 -0.1260  0.3553
 5518SOL     OW28186   1.110   4.386   8.178  0.1926  0.2679  0.0244
 5518SOL    HW128187   1.051   4.382   8.102  1.4624  0.0631 -0.9429
 5518SOL    HW228188   1.144   4.298   8.161  0.8132  1.0009 -2.4842
 5519SOL     OW28189   3.961   0.751   9.011 -0.0714 -0.0501  0.7834
 5519SOL    HW128190   3.988   0.677   8.957 -0.9698 -0.8754  1.4741
 5519SOL    HW228191   3.921   0.703   9.083 -0.7934 -0.7421 -0.0820
 5520SOL     OW28192   3.718   0.107  15.755 -0.5706 -0.3805  0.2448
 5520SOL    HW128193   3.795   0.068  15.714 -0.9312 -0.5224 -0.3015
 5520SOL    HW228194   3.655   0.094  15.684  0.6128 -2.0119 -0.5048
 5521SOL     OW28195   4.601   1.939   3.543 -0.2211  0.2198 -0.1199
 5521SOL    HW128196   4.569   2.029   3.545  0.3791  0.4316  0.0949
 5521SOL    HW228197   4.588   1.908   3.454 -3.7119 -1.3259  0.9115
 5522SOL     OW28198   1.898   0.800  17.281  0.1583  0.1538  0.4895
 5522SOL    HW128199   1.859   0.840  17.358  0.6551  1.5329  0.0327
 5522SOL    HW228200   1.977   0.765  17.322  0.4226  1.3353  1.0078
 5523SOL     OW28201   4.514   1.392   5.825 -0.5521  0.1549  0.5910
 5523SOL    HW128202   4.562   1.470   5.800  1.4655 -1.4378 -0.5022
 5523SOL    HW228203   4.584   1.352   5.877 -0.0118  1.1502  0.6204
 5524SOL     OW28204   4.204   0.500   7.265 -0.7716  0.2531 -0.2138
 5524SOL    HW128205   4.160   0.491   7.180 -2.6763  0.5056  0.7300
 5524SOL    HW228206   4.249   0.582   7.247  0.9811 -0.2397  1.9513
 5525SOL     OW28207   4.635   0.398  17.309 -0.5236  0.2172 -0.3897
 5525SOL    HW128208   4.632   0.312  17.266  1.9540  0.6098 -1.3266
 5525SOL    HW228209   4.549   0.419  17.272 -1.0788  0.2768  0.9227
 5526SOL     OW28210   0.470   0.544   5.231  0.1072 -0.3327  0.6266
 5526SOL    HW128211   0.384   0.520   5.196  0.3338 -0.1395 -0.0675
 5526SOL    HW228212   0.493   0.458   5.268 -1.8829 -1.7311 -1.3900
 5527SOL     OW28213   2.970   3.534   5.363  0.9188  0.4012  0.0838
 5527SOL    HW128214   2.903   3.572   5.306 -1.9097 -2.4791  1.4580
 5527SOL    HW228215   2.917   3.489   5.428 -0.2184 -0.6118 -1.5457
 5528SOL     OW28216   4.349   1.558   1.317  0.2094 -0.2563 -0.0880
 5528SOL    HW128217   4.424   1.611   1.290  0.1787 -0.3078 -0.2715
 5528SOL    HW228218   4.374   1.525   1.403 -0.2471  0.7694  0.4390
 5529SOL     OW28219   3.475   1.366  10.861 -0.0509  0.4499  0.0482
 5529SOL    HW128220   3.548   1.309  10.887 -0.2507  0.9191  1.6531
 5529SOL    HW228221   3.479   1.433  10.929  0.3063  0.1886  0.2819
 5530SOL     OW28222   0.652   2.256   3.954 -0.5675 -0.6741 -0.1735
 5530SOL    HW128223   0.662   2.260   4.049  3.6295 -0.2514 -0.6266
 5530SOL    HW228224   0.576   2.200   3.945 -0.3287 -1.1386  0.7611
 5531SOL     OW28225   2.129   3.947   5.954  0.4255 -0.1133  0.1636
 5531SOL    HW128226   2.123   3.971   6.046 -0.2518  3.5998 -0.8537
 5531SOL    HW228227   2.065   3.876   5.963 -2.0331  2.0114 -0.6256
 5532SOL     OW28228   0.335   3.906   7.528 -0.1111  0.0114  0.1955
 5532SOL    HW128229   0.350   3.998   7.548  1.0753 -0.4150  1.2652
 5532SOL    HW228230   0.418   3.872   7.495  0.5775  0.3279  1.6055
 5533SOL     OW28231   0.483   2.970   4.387 -0.0183 -0.2764  0.1348
 5533SOL    HW128232   0.538   2.983   4.310 -3.4382  0.6760 -2.1242
 5533SOL    HW228233   0.487   2.875   4.400 -0.6706 -0.3405 -0.1622
 5534SOL     OW28234   0.284   2.650   3.430 -0.1179  0.3276 -0.2399
 5534SOL    HW128235   0.262   2.562   3.399 -2.6791  0.3044  1.7078
 5534SOL    HW228236   0.340   2.641   3.507  0.9323 -0.3138 -1.0792
 5535SOL     OW28237   4.026   2.898   3.930  0.1002 -0.2730  0.2334
 5535SOL    HW128238   3.974   2.978   3.916  2.3438  1.5852  2.6380
 5535SOL    HW228239   4.110   2.935   3.904  0.3957 -1.8905 -1.1444
 5536SOL     OW28240   1.907   3.603   7.603  0.3794  0.5219  0.1255
 5536SOL    HW128241   1.833   3.650   7.640 -0.7374  0.1206 -1.5970
 5536SOL    HW228242   1.878   3.615   7.513  3.5899  0.6427 -0.9072
 5537SOL     OW28243   2.577   1.093   6.298 -0.5043  0.1737  0.2774
 5537SOL    HW128244   2.640   1.147   6.344  2.3123  0.0316 -3.3993
 5537SOL    HW228245   2.607   1.099   6.207  1.8251 -2.1546  0.8860
 5538SOL     OW28246   1.746   3.616   8.507  0.0334 -0.5620 -0.0352
 5538SOL    HW128247   1.736   3.573   8.592 -2.5046 -0.8924 -0.5026
 5538SOL    HW228248   1.824   3.575   8.470 -0.3183 -0.5425 -0.7836
 5539SOL     OW28249   1.173   2.428   1.943 -0.6596 -0.3474 -0.3808
 5539SOL    HW128250   1.251   2.460   1.898 -0.4707 -1.5592 -0.9159
 5539SOL    HW228251   1.193   2.462   2.030  1.8335 -0.9286 -0.7316
 5540SOL     OW28252   4.387   4.663   0.344 -0.4472 -0.0243 -0.0257
 5540SOL    HW128253   4.318   4.725   0.369 -1.5930 -0.5412 -1.9324
 5540SOL    HW228254   4.444   4.721   0.294  2.0531 -0.9870  1.7313
 5541SOL     OW28255   1.840   3.876   5.059 -0.8992  0.5087 -0.1475
 5541SOL    HW128256   1.909   3.883   5.125 -2.2942  1.9500  1.1469
 5541SOL    HW228257   1.780   3.948   5.079 -1.8687 -0.6632  1.1576
 5542SOL     OW28258   3.663   1.593   6.661  0.3274 -0.2613 -0.4526
 5542SOL    HW128259   3.723   1.628   6.596  1.0139 -1.3949 -0.4211
 5542SOL    HW228260   3.680   1.643   6.741 -0.1493  2.1148 -1.8537
 5543SOL     OW28261   1.440   0.774   2.327  0.0308  0.1054 -0.2454
 5543SOL    HW128262   1.355   0.770   2.372 -0.0207  0.9105 -0.2685
 5543SOL    HW228263   1.431   0.848   2.267 -2.9615  0.6969  0.8919
 5544SOL     OW28264   4.680   4.112  14.014  0.0483 -0.1897  0.1039
 5544SOL    HW128265   0.012   4.121  13.946  1.7788  0.1612  1.8403
 5544SOL    HW228266   4.690   4.021  14.040 -1.1490 -0.4075 -0.2043
 5545SOL     OW28267   2.205   2.069  13.615 -0.5673  0.2888 -0.0520
 5545SOL    HW128268   2.235   2.046  13.527  0.5938 -2.0108  0.9377
 5545SOL    HW228269   2.114   2.039  13.614  0.4214 -2.6807 -0.1334
 5546SOL     OW28270   2.992   0.165  12.491  0.7730 -0.5526 -0.1767
 5546SOL    HW128271   3.007   0.167  12.586 -0.8483 -1.8838  0.1162
 5546SOL    HW228272   3.068   0.206  12.452  0.3200 -1.1136 -1.6430
 5547SOL     OW28273   3.869   3.546   3.591  0.1867  0.1584 -0.2739
 5547SOL    HW128274   3.862   3.556   3.496 -0.8366 -1.5674 -0.3887
 5547SOL    HW228275   3.869   3.452   3.608 -0.8409  0.3147  0.6418
 5548SOL     OW28276   3.329   0.318  15.624  0.0804  0.1444  0.1193
 5548SOL    HW128277   3.247   0.280  15.594 -0.8950  1.1236  1.5755
 5548SOL    HW228278   3.303   0.348  15.711  1.2773  0.5000  0.3594
 5549SOL     OW28279   4.703   3.802   6.507  0.2005  0.0083 -0.1584
 5549SOL    HW128280   4.689   3.893   6.484 -1.1275 -0.5163 -1.4037
 5549SOL    HW228281   4.713   3.768   6.418  1.4339 -3.8071  1.4237
 5550SOL     OW28282   2.041   0.546   5.784 -0.1475  0.4531 -0.4472
 5550SOL    HW128283   2.065   0.499   5.705  0.0064  1.0346 -0.7463
 5550SOL    HW228284   1.957   0.583   5.756  0.1485 -0.4179 -2.4794
 5551SOL     OW28285   0.148   1.777   3.061  0.0998  0.1467  0.4681
 5551SOL    HW128286   0.201   1.709   3.018  0.6438 -0.0317  1.4390
 5551SOL    HW228287   0.086   1.731   3.118 -1.5048 -0.2842 -1.6101
 5552SOL     OW28288   1.684   1.060   8.329 -0.1449  0.3124 -0.1659
 5552SOL    HW128289   1.645   1.003   8.263  1.9300  1.0310 -2.0207
 5552SOL    HW228290   1.769   1.014   8.329  0.1489  0.8331 -1.4926
 5553SOL     OW28291   3.714   0.057   7.707 -0.0487 -0.7028  0.4875
 5553SOL    HW128292   3.683   0.146   7.720  2.0352  0.3008 -1.3982
 5553SOL    HW228293   3.656   0.010   7.768 -0.7169  2.4994  2.3293
 5554SOL     OW28294   0.495   3.222   5.775  0.4495 -0.1164  0.2611
 5554SOL    HW128295   0.471   3.214   5.867 -1.5024  1.2112 -0.1314
 5554SOL    HW228296   0.419   3.183   5.733 -0.1299 -1.0477  2.2081
 5555SOL     OW28297   1.860   3.126   5.317 -0.1731 -0.2678  0.0879
 5555SOL    HW128298   1.767   3.116   5.299 -0.4901  1.6528  0.6163
 5555SOL    HW228299   1.856   3.148   5.410 -1.9648  0.0854 -0.0864
 5556SOL     OW28300   4.473   1.579   3.788 -0.1376 -0.6947 -0.6021
 5556SOL    HW128301   4.381   1.601   3.772 -0.4124  0.4930  2.5406
 5556SOL    HW228302   4.520   1.585   3.705 -0.1213  2.3671 -0.3739
 5557SOL     OW28303   0.372   3.273  10.138  0.0112 -0.1361 -0.4560
 5557SOL    HW128304   0.301   3.247  10.198 -0.2442  0.7797 -0.3645
 5557SOL    HW228305   0.370   3.199  10.077  0.1600 -1.6531  1.3758
 5558SOL     OW28306   2.777   3.812  10.245 -0.6858  0.2790  0.3199
 5558SOL    HW128307   2.697   3.767  10.272 -0.9304  1.0659  0.8858
 5558SOL    HW228308   2.817   3.848  10.324 -0.6660  1.8716 -0.4174
 5559SOL     OW28309   3.855   3.134  11.883  0.5158 -0.0038  0.6491
 5559SOL    HW128310   3.856   3.129  11.978 -0.7857  1.4733  0.7324
 5559SOL    HW228311   3.940   3.177  11.871 -1.0395  2.0847 -2.9371
 5560SOL     OW28312   2.346   0.270  17.719  0.1055 -0.0644  0.1057
 5560SOL    HW128313   2.361   0.342  17.658  0.1773 -0.0726  0.1139
 5560SOL    HW228314   2.321   0.204  17.655 -3.6239  0.8314  0.6571
 5561SOL     OW28315   1.926   3.735  16.922  0.5625 -0.3602 -0.3990
 5561SOL    HW128316   1.856   3.800  16.918  0.9037  0.0672  0.7337
 5561SOL    HW228317   1.956   3.744  16.831  2.4650  0.7677  0.3382
 5562SOL     OW28318   1.527   0.374  12.620  0.2649  0.1505  0.1633
 5562SOL    HW128319   1.535   0.461  12.581  0.8354 -1.4020 -3.1308
 5562SOL    HW228320   1.432   0.377  12.612  0.5839 -0.5330 -3.4867
 5563SOL     OW28321   2.879   0.701   8.882  0.3805  0.0755  0.5134
 5563SOL    HW128322   2.938   0.772   8.909 -0.0595  0.6954 -0.1374
 5563SOL    HW228323   2.789   0.735   8.886 -0.0554 -1.2526  1.8138
 5564SOL     OW28324   4.163   4.008   6.719 -0.2662  0.1054 -0.3990
 5564SOL    HW128325   4.072   3.993   6.742 -0.9176  0.1223 -2.9211
 5564SOL    HW228326   4.188   4.076   6.781  3.1542 -1.1253 -0.3810
 5565SOL     OW28327   2.611   4.283  13.325 -0.0335 -0.0906  0.5697
 5565SOL    HW128328   2.694   4.307  13.367 -0.2356 -2.4116  2.2711
 5565SOL    HW228329   2.639   4.254  13.238  1.0287  2.2355  0.1198
 5566SOL     OW28330   0.576   2.948  14.113 -0.4195 -1.0668  0.3871
 5566SOL    HW128331   0.530   2.905  14.041 -0.0164 -0.4623 -0.2294
 5566SOL    HW228332   0.597   2.867  14.160 -0.1239 -0.9197  0.5088
 5567SOL     OW28333   4.118   2.381   1.706  0.3375  0.2339  0.1213
 5567SOL    HW128334   4.133   2.411   1.616  1.8250  0.6066  0.4973
 5567SOL    HW228335   4.025   2.399   1.719 -0.1287 -2.4089  0.2710
 5568SOL     OW28336   0.302   1.729   8.400 -0.4027  0.3252 -0.3353
 5568SOL    HW128337   0.216   1.689   8.412 -0.1571 -0.3518 -0.8542
 5568SOL    HW228338   0.282   1.812   8.356  1.0189 -0.8009 -3.1083
 5569SOL     OW28339   0.558   3.485   1.524  0.1329  0.2635 -0.2678
 5569SOL    HW128340   0.605   3.526   1.451 -1.3630 -0.0218 -1.4169
 5569SOL    HW228341   0.579   3.549   1.591 -0.3398 -0.7280  0.8157
 5570SOL     OW28342   4.551   0.273  14.722  0.4423  0.4387  0.3407
 5570SOL    HW128343   4.521   0.323  14.798 -0.3551  2.5911 -1.3752
 5570SOL    HW228344   4.504   0.192  14.741 -2.4813  1.7840 -1.1114
 5571SOL     OW28345   2.811   4.476  12.998 -0.2019 -0.1960 -0.0298
 5571SOL    HW128346   2.736   4.530  13.021  0.2048  0.0945  0.5961
 5571SOL    HW228347   2.826   4.517  12.913  0.2922  0.9383  0.6104
 5572SOL     OW28348   0.141   0.115  14.571  0.2443  0.3115 -0.3666
 5572SOL    HW128349   0.173   0.195  14.529  1.3023  0.6460  1.0409
 5572SOL    HW228350   0.217   0.088  14.623  0.4373  1.9268  0.1940
 5573SOL     OW28351   2.322   1.417   2.627 -0.1924  0.2922  0.1595
 5573SOL    HW128352   2.265   1.358   2.677 -2.0796  2.3037  0.3613
 5573SOL    HW228353   2.408   1.405   2.668  0.0027 -3.2701 -1.2130
 5574SOL     OW28354   4.449   2.949   7.433  0.0616 -0.4562 -0.5074
 5574SOL    HW128355   4.531   2.931   7.478  0.3993 -1.3481 -1.4875
 5574SOL    HW228356   4.456   3.045   7.435  0.6296 -0.4774 -1.7438
 5575SOL     OW28357   3.511   3.999   6.151 -0.0520 -0.2463 -0.0374
 5575SOL    HW128358   3.435   3.968   6.201 -0.5110  0.9817  0.0151
 5575SOL    HW228359   3.517   4.088   6.185 -1.3688  0.5045 -1.8174
 5576SOL     OW28360   1.715   2.739   8.375  0.0639  0.0325  0.2861
 5576SOL    HW128361   1.796   2.690   8.361 -0.1399  0.6844 -3.0302
 5576SOL    HW228362   1.756   2.819   8.408 -0.8821 -0.0482  1.6811
 5577SOL     OW28363   0.727   4.356   6.767 -0.2102  0.0343  0.1508
 5577SOL    HW128364   0.654   4.308   6.729  0.1417 -1.1323  0.9431
 5577SOL    HW228365   0.730   4.420   6.696  1.5971 -2.9211 -2.4437
 5578SOL     OW28366   1.178   4.101   2.588 -0.1835  0.5902 -0.1477
 5578SOL    HW128367   1.260   4.146   2.612  1.1499 -1.8382 -0.1349
 5578SOL    HW228368   1.213   4.012   2.577 -0.6512  0.1766  1.6458
 5579SOL     OW28369   1.542   2.920   3.878 -0.2112 -0.1996 -0.1361
 5579SOL    HW128370   1.458   2.940   3.919 -0.4436 -1.7909  0.1612
 5579SOL    HW228371   1.571   3.010   3.862  1.3289 -0.1115  3.1475
 5580SOL     OW28372   0.489   2.960   7.548  0.3415  0.3937  0.4240
 5580SOL    HW128373   0.496   3.047   7.587  1.0762  0.4825  0.0837
 5580SOL    HW228374   0.580   2.932   7.543 -0.2141 -0.9168 -2.0940
 5581SOL     OW28375   4.539   3.693   2.546  0.7194 -0.2576 -0.2187
 5581SOL    HW128376   4.610   3.754   2.527  0.3460  0.2567  0.0471
 5581SOL    HW228377   4.587   3.646   2.615  2.0027  0.4866 -0.6134
 5582SOL     OW28378   1.103   0.009  16.647  0.1725  0.3150 -0.1061
 5582SOL    HW128379   1.008   4.729  16.644  0.0260  1.2116 -0.0176
 5582SOL    HW228380   1.134   4.697  16.569 -1.2303 -1.3864  0.3641
 5583SOL     OW28381   3.800   4.003   2.762  0.2735 -0.1007 -0.0248
 5583SOL    HW128382   3.794   3.908   2.751  0.9315  0.0027 -1.2845
 5583SOL    HW228383   3.710   4.028   2.783  0.0578  0.8796 -2.1672
 5584SOL     OW28384   2.593   3.776   1.050  0.0874  0.0479 -0.5973
 5584SOL    HW128385   2.673   3.795   1.000  0.5798 -1.2733 -0.3380
 5584SOL    HW228386   2.542   3.731   0.983 -1.2493 -0.5527  0.8255
 5585SOL     OW28387   1.586   0.507   3.427  0.3298  0.3123 -0.0313
 5585SOL    HW128388   1.558   0.568   3.359  3.7328  1.2850 -0.5492
 5585SOL    HW228389   1.529   0.525   3.502  0.8972 -0.1613  0.5124
 5586SOL     OW28390   0.250   0.900   1.783  0.4154 -0.0103 -0.8285
 5586SOL    HW128391   0.265   0.990   1.757 -1.1910  0.2836 -0.7659
 5586SOL    HW228392   0.238   0.908   1.878 -1.3414 -0.5873 -1.0066
 5587SOL     OW28393   2.883   3.729   9.338  0.1620 -0.4516 -0.2957
 5587SOL    HW128394   2.814   3.728   9.405 -0.6145  2.5719 -1.0444
 5587SOL    HW228395   2.947   3.676   9.385  0.2023  1.2390  1.5290
 5588SOL     OW28396   4.677   0.715  12.976  0.0505 -0.1390 -0.0902
 5588SOL    HW128397   4.687   0.741  13.068  0.6314 -1.1662  0.1362
 5588SOL    HW228398   0.035   0.727  12.956  0.2696  0.6424  1.3706
 5589SOL     OW28399   3.070   3.316   9.239  0.4282 -0.6337 -0.2148
 5589SOL    HW128400   2.975   3.314   9.226  0.3305 -0.7831  0.5395
 5589SOL    HW228401   3.087   3.287   9.150  0.1630 -0.3451 -0.3633
 5590SOL     OW28402   3.964   2.999   9.074 -0.3348  0.1231 -0.6674
 5590SOL    HW128403   4.016   2.983   9.153  0.2118  0.4106 -0.9648
 5590SOL    HW228404   4.004   2.932   9.017 -1.5108 -1.6206  0.5679
 5591SOL     OW28405   1.374   1.868   8.403  0.3908 -0.5431  0.0462
 5591SOL    HW128406   1.283   1.875   8.374  1.4095  2.0121 -2.5822
 5591SOL    HW228407   1.406   1.855   8.314  0.9408  2.4200 -0.1924
 5592SOL     OW28408   0.854   0.023  10.792 -0.1671  0.0708 -0.3190
 5592SOL    HW128409   0.846   0.094  10.728  0.7852 -0.9842 -1.6158
 5592SOL    HW228410   0.933   4.714  10.758 -0.3124  0.4924 -1.1879
 5593SOL     OW28411   0.589   1.299   4.155  0.2901  0.2540 -0.6217
 5593SOL    HW128412   0.629   1.217   4.185 -0.5953  0.3168  0.6908
 5593SOL    HW228413   0.586   1.291   4.060 -1.2611 -2.4647 -0.3267
 5594SOL     OW28414   2.297   4.009  16.276 -0.4260  0.2795  0.4766
 5594SOL    HW128415   2.250   3.949  16.334 -0.9612  1.7586  1.5728
 5594SOL    HW228416   2.306   4.085  16.333  3.4056  1.7288 -1.9770
 5595SOL     OW28417   1.780   3.514  17.587  0.3511 -0.8442 -0.5926
 5595SOL    HW128418   1.874   3.523  17.605  0.5389 -1.7408 -1.1319
 5595SOL    HW228419   1.773   3.608  17.568 -0.0301 -0.3248  2.1025
 5596SOL     OW28420   2.056   3.747   5.213 -0.7139 -0.2477 -0.0402
 5596SOL    HW128421   1.996   3.683   5.251 -1.3129  0.3644  0.0354
 5596SOL    HW228422   2.046   3.815   5.280 -1.3498 -0.0249 -0.3670
 5597SOL     OW28423   2.311   3.542   6.684  0.3656  0.3291 -0.5010
 5597SOL    HW128424   2.325   3.491   6.764 -1.1680  1.4780  0.5029
 5597SOL    HW228425   2.399   3.571   6.659  1.2952 -1.8754  0.1855
 5598SOL     OW28426   0.179   3.271   4.840  0.4838  0.0399  0.1015
 5598SOL    HW128427   0.240   3.344   4.851  0.4216 -0.0848  1.2512
 5598SOL    HW228428   0.220   3.214   4.905  1.5986 -1.1079 -1.6301
 5599SOL     OW28429   3.821   2.598   7.248 -1.0123  0.1990  0.2177
 5599SOL    HW128430   3.836   2.636   7.161 -2.6277 -0.4495 -0.3476
 5599SOL    HW228431   3.895   2.539   7.256 -2.0097 -0.9907  0.7116
 5600SOL     OW28432   4.184   0.101   9.403  0.0718 -0.0423 -0.6386
 5600SOL    HW128433   4.222   0.127   9.486  0.3683 -3.0249  0.1753
 5600SOL    HW228434   4.125   0.175   9.395 -0.4799 -0.4782 -0.6132
 5601SOL     OW28435   0.681   0.694  10.464 -0.2049  0.2277  0.3250
 5601SOL    HW128436   0.621   0.724  10.396 -0.9269  0.1045  0.9036
 5601SOL    HW228437   0.762   0.742  10.448  0.0643 -0.5360 -0.6035
 5602SOL     OW28438   0.099   1.136   7.343  0.1008  0.1885  0.7383
 5602SOL    HW128439   0.134   1.113   7.257  0.7871  1.1874  0.7564
 5602SOL    HW228440   0.023   1.078   7.352 -0.1522  0.4410  0.2274
 5603SOL     OW28441   3.842   4.062   5.132 -0.0286  0.2254 -0.2625
 5603SOL    HW128442   3.928   4.036   5.166 -0.9944  0.3880  2.3518
 5603SOL    HW228443   3.780   3.999   5.168 -1.4263  1.1784 -1.0151
 5604SOL     OW28444   1.329   4.121   9.961 -0.3659  0.2792  0.1832
 5604SOL    HW128445   1.399   4.162  10.013  1.0335 -1.2741 -0.4667
 5604SOL    HW228446   1.296   4.198   9.913  2.9929  1.7666  0.2389
 5605SOL     OW28447   2.042   4.069   4.682 -0.4002 -0.1935  0.0652
 5605SOL    HW128448   2.100   4.105   4.749 -0.4491  0.1120 -0.0590
 5605SOL    HW228449   2.099   4.020   4.624  0.5221 -1.2965  1.9082
 5606SOL     OW28450   3.591   0.711   6.242  0.3190  0.3375  0.4547
 5606SOL    HW128451   3.518   0.767   6.268 -1.0361  0.3872 -3.4000
 5606SOL    HW228452   3.558   0.622   6.254  0.0943  0.2509 -0.7469
 5607SOL     OW28453   0.294   3.112   7.330 -0.2163  0.3989  0.5734
 5607SOL    HW128454   0.304   3.028   7.374  0.9533 -0.4017 -1.2475
 5607SOL    HW228455   0.199   3.117   7.319 -0.3288 -3.0902 -0.1308
 5608SOL     OW28456   3.743   1.930   6.759 -0.2630 -0.3813  0.5583
 5608SOL    HW128457   3.828   1.910   6.720 -1.9708  2.1717 -4.5652
 5608SOL    HW228458   3.726   1.865   6.827 -2.1574  1.4520  1.8191
 5609SOL     OW28459   4.501   3.334  14.325 -0.4278 -0.3828  0.0079
 5609SOL    HW128460   4.471   3.251  14.289 -1.8220  0.2241 -0.2391
 5609SOL    HW228461   4.538   3.375  14.247  2.4477 -2.7443  0.1490
 5610SOL     OW28462   2.084   2.591  10.056 -0.0421 -0.5499  0.9707
 5610SOL    HW128463   2.065   2.527   9.988 -0.4849  0.1962  0.3787
 5610SOL    HW228464   2.155   2.555  10.108  0.8509 -0.2074 -0.0264
 5611SOL     OW28465   2.132   2.966   7.336 -0.2522  0.6920  0.2271
 5611SOL    HW128466   2.071   2.976   7.263  0.7109 -0.4907 -0.7440
 5611SOL    HW228467   2.121   2.872   7.351  1.0266  0.6826  1.1108
 5612SOL     OW28468   4.482   4.682   9.424  0.3684 -0.1590 -0.0029
 5612SOL    HW128469   4.440   4.656   9.506 -0.6688 -0.3657 -0.5948
 5612SOL    HW228470   4.529   0.021   9.463  0.2285  0.2708 -0.6529
 5613SOL     OW28471   4.267   4.470  16.283  0.4485  0.1099 -0.0351
 5613SOL    HW128472   4.303   4.553  16.253  1.7045 -0.2928  0.3342
 5613SOL    HW228473   4.245   4.442  16.194 -1.2985 -0.7247  0.6495
 5614SOL     OW28474   1.562   1.318   6.805  0.1621 -0.3656  0.1836
 5614SOL    HW128475   1.620   1.393   6.812 -1.6576  1.1223 -0.6082
 5614SOL    HW228476   1.615   1.255   6.756 -0.8874 -1.2274  0.1594
 5615SOL     OW28477   3.390   1.619   1.348 -0.2328  0.4162 -0.1511
 5615SOL    HW128478   3.399   1.524   1.357  1.0774  0.4596 -1.0009
 5615SOL    HW228479   3.297   1.620   1.327  0.3202  0.3732 -2.5633
 5616SOL     OW28480   3.603   1.519   3.061 -0.1864  0.0705  0.0607
 5616SOL    HW128481   3.616   1.611   3.036  0.3487  0.0967  0.4414
 5616SOL    HW228482   3.676   1.460   3.042 -0.5793 -1.1406  2.3682
 5617SOL     OW28483   2.902   4.455   3.847 -0.9112 -0.1302 -0.3988
 5617SOL    HW128484   2.966   4.495   3.787 -2.0703 -0.0847 -1.6212
 5617SOL    HW228485   2.875   4.533   3.896 -0.0012 -1.7340  2.6503
 5618SOL     OW28486   2.821   0.358   1.215  0.4167  0.0816  0.0212
 5618SOL    HW128487   2.801   0.282   1.270  0.7411  1.1821  1.6704
 5618SOL    HW228488   2.764   0.332   1.142  0.5481  1.6084 -0.6172
 5619SOL     OW28489   0.834   0.799   6.827  0.0388 -0.1751 -0.1828
 5619SOL    HW128490   0.921   0.780   6.861 -1.0860 -1.3138  2.0693
 5619SOL    HW228491   0.784   0.718   6.839 -0.2042  0.1375  0.8878
 5620SOL     OW28492   3.107   1.939   6.575  0.0661  0.2626 -1.0972
 5620SOL    HW128493   3.124   2.032   6.592 -1.2589  0.1100  1.1388
 5620SOL    HW228494   3.053   1.931   6.497  0.6126 -0.4154 -1.4089
 5621SOL     OW28495   2.380   0.455   7.110 -0.1963 -0.3781 -0.0054
 5621SOL    HW128496   2.403   0.377   7.059  0.5687 -0.1190 -0.0578
 5621SOL    HW228497   2.319   0.412   7.171 -0.1024 -0.4130  0.0637
 5622SOL     OW28498   2.729   0.039  16.265  0.0755 -0.0084 -0.1378
 5622SOL    HW128499   2.723   4.712  16.192  0.6334  0.2983 -0.4379
 5622SOL    HW228500   2.651   0.088  16.241 -0.0903  0.3369  1.0955
 5623SOL     OW28501   2.882   3.924   5.613 -0.3131 -0.0556  0.3805
 5623SOL    HW128502   2.900   3.958   5.526 -1.6339 -1.0415 -0.2692
 5623SOL    HW228503   2.797   3.883   5.604 -0.8141  0.9021  0.7355
 5624SOL     OW28504   2.193   4.432  14.508  0.2969  0.1455  0.1555
 5624SOL    HW128505   2.213   4.344  14.540  0.5939  0.7265  1.5652
 5624SOL    HW228506   2.224   4.483  14.582 -1.4254 -1.2058  1.8131
 5625SOL     OW28507   0.106   1.804   2.342 -0.1368  0.3209 -0.0345
 5625SOL    HW128508   0.129   1.896   2.327 -1.0763  0.4251 -0.8096
 5625SOL    HW228509   0.100   1.772   2.252  4.9190 -0.5973 -0.0395
 5626SOL     OW28510   4.304   1.209   8.671 -0.2113 -0.3269 -0.3329
 5626SOL    HW128511   4.220   1.166   8.691  0.3934 -1.6918 -0.7650
 5626SOL    HW228512   4.348   1.147   8.729  0.1391  1.0304  0.8570
 5627SOL     OW28513   4.344   3.327   7.188 -0.1935 -0.6047 -0.0392
 5627SOL    HW128514   4.362   3.328   7.094  0.8440  0.6622  0.1692
 5627SOL    HW228515   4.252   3.352   7.182  0.0752  0.3111 -0.4751
 5628SOL     OW28516   1.655   2.509   4.481  0.2429 -0.0719 -0.2158
 5628SOL    HW128517   1.700   2.593   4.493 -0.3018  0.4100 -1.5247
 5628SOL    HW228518   1.647   2.465   4.566 -0.9496  0.7773  0.1158
 5629SOL     OW28519   2.479   3.397   7.957  0.6176  0.5778  0.1402
 5629SOL    HW128520   2.435   3.478   7.932 -0.6241  0.6113  2.3571
 5629SOL    HW228521   2.435   3.341   7.893 -0.4448  1.7109 -0.1151
 5630SOL     OW28522   4.199   1.553   4.899  0.3339  0.0902  0.7182
 5630SOL    HW128523   4.276   1.549   4.842 -0.6491 -0.2155 -0.5782
 5630SOL    HW228524   4.147   1.475   4.877  0.2474  1.3348 -3.4074
 5631SOL     OW28525   2.726   2.673   1.880  0.0728  0.1603  0.3662
 5631SOL    HW128526   2.795   2.699   1.819 -1.5406  0.5307 -1.3055
 5631SOL    HW228527   2.658   2.735   1.852  1.5983  1.1350 -1.1957
 5632SOL     OW28528   0.600   0.484  10.996 -0.1534  0.4310  0.5478
 5632SOL    HW128529   0.565   0.445  10.916  0.6637 -1.1354  0.9603
 5632SOL    HW228530   0.693   0.466  10.979 -0.0635  3.1258 -1.8847
 5633SOL     OW28531   0.099   1.728   1.371 -0.1880  0.0492 -0.2442
 5633SOL    HW128532   0.103   1.823   1.365 -1.3944  0.1272  0.2376
 5633SOL    HW228533   0.191   1.712   1.348  0.0181  3.0730 -1.5094
 5634SOL     OW28534   0.785   3.290   3.560 -0.5422  0.6440  0.2247
 5634SOL    HW128535   0.868   3.243   3.571 -2.3735 -2.4269  0.6675
 5634SOL    HW228536   0.791   3.318   3.468 -2.2920  0.4790  0.0722
 5635SOL     OW28537   1.844   1.198  12.870  0.5507 -0.0399  0.0362
 5635SOL    HW128538   1.808   1.275  12.825  1.4728 -0.9503 -2.2790
 5635SOL    HW228539   1.917   1.248  12.907  0.8698  0.4064 -1.1934
 5636SOL     OW28540   3.772   0.261   9.451  0.1439 -1.0058 -0.0857
 5636SOL    HW128541   3.794   0.271   9.359 -1.5909  2.6700 -0.1321
 5636SOL    HW228542   3.678   0.243   9.455 -0.1843  0.6804 -0.0343
 5637SOL     OW28543   0.557   4.218   8.602  0.5290  0.4142  0.2647
 5637SOL    HW128544   0.585   4.166   8.527 -0.7055 -0.8338  0.6577
 5637SOL    HW228545   0.494   4.279   8.567  0.1254 -1.7471 -2.7282
 5638SOL     OW28546   1.437   0.340   6.230  0.1210  0.4691 -0.1347
 5638SOL    HW128547   1.447   0.299   6.315  0.1740 -0.9239 -0.8102
 5638SOL    HW228548   1.466   0.429   6.248 -2.8268  1.5929 -0.9092
 5639SOL     OW28549   2.327   2.393   1.765  0.1360 -0.1091  0.4419
 5639SOL    HW128550   2.407   2.348   1.739 -1.3081 -1.1755 -2.1523
 5639SOL    HW228551   2.347   2.481   1.797  0.8638 -0.0538 -0.1745
 5640SOL     OW28552   4.441   0.595   0.281  0.2803 -0.6350 -0.3840
 5640SOL    HW128553   4.444   0.596   0.185  3.7808 -0.6544 -0.2938
 5640SOL    HW228554   4.532   0.607   0.307  0.6101 -0.4877 -1.6447
 5641SOL     OW28555   2.504   2.887   6.680 -0.0381  0.0205 -0.1659
 5641SOL    HW128556   2.531   2.946   6.750 -0.7911  0.9378 -0.6640
 5641SOL    HW228557   2.418   2.852   6.703  0.7096 -3.1532 -2.1600
 5642SOL     OW28558   3.742   0.284   8.534 -0.4933 -1.0682  0.1142
 5642SOL    HW128559   3.687   0.206   8.532 -0.3009 -1.1689 -1.3573
 5642SOL    HW228560   3.686   0.355   8.503  0.6709 -0.6568 -1.0708
 5643SOL     OW28561   2.180   3.078   4.953 -0.2130  0.0137  0.1742
 5643SOL    HW128562   2.152   2.988   4.937 -1.8118  0.5488  0.0024
 5643SOL    HW228563   2.152   3.096   5.043 -0.9131 -2.4378  0.4244
 5644SOL     OW28564   0.510   4.221  12.161 -0.1538  0.0369  0.4737
 5644SOL    HW128565   0.513   4.243  12.068  2.5598  0.1991  0.5998
 5644SOL    HW228566   0.438   4.158  12.159  0.4427 -0.6552  1.0034
 5645SOL     OW28567   3.607   2.519  14.345 -0.3904 -0.3087 -0.0808
 5645SOL    HW128568   3.530   2.552  14.391  0.2467  1.1338 -0.0645
 5645SOL    HW228569   3.679   2.579  14.365 -0.9083  0.6065 -0.9177
 5646SOL     OW28570   1.933   0.190  11.397  0.7496 -0.7192 -0.0811
 5646SOL    HW128571   1.929   0.268  11.342  0.8849  1.0667  2.4356
 5646SOL    HW228572   1.938   0.126  11.326 -1.9599 -0.4167 -0.5334
 5647SOL     OW28573   4.337   1.048   6.126 -0.2102  0.5736 -0.7151
 5647SOL    HW128574   4.252   1.059   6.084  0.3666 -2.2712 -2.6012
 5647SOL    HW228575   4.344   0.958   6.097 -1.3090 -0.1729  1.3539
 5648SOL     OW28576   2.416   1.051   3.134 -0.1093  0.5586 -0.7563
 5648SOL    HW128577   2.487   1.062   3.070 -0.3505 -0.1617 -1.1478
 5648SOL    HW228578   2.458   1.086   3.212 -1.6215  2.2307 -0.6930
 5649SOL     OW28579   4.479   4.659   2.657 -0.4347  0.5842  0.3739
 5649SOL    HW128580   4.536   4.598   2.703 -2.9182 -0.5934  1.8885
 5649SOL    HW228581   4.485   4.731   2.720  0.5693 -0.1286  1.0864
 5650SOL     OW28582   0.371   1.685  11.030 -0.1819  0.2617 -0.2750
 5650SOL    HW128583   0.402   1.608  10.983 -1.6251 -0.3369 -0.2305
 5650SOL    HW228584   0.306   1.720  10.969  0.4406  1.8298 -0.0369
 5651SOL     OW28585   3.651   2.370  11.922  0.0105 -0.2796 -0.2450
 5651SOL    HW128586   3.719   2.316  11.963  0.2028 -0.4110 -0.7333
 5651SOL    HW228587   3.646   2.328  11.836 -0.8920  1.9915 -1.2990
 5652SOL     OW28588   2.165   2.329   7.506  0.5448  0.0835 -0.0010
 5652SOL    HW128589   2.231   2.391   7.476 -0.0030  1.6248  1.9550
 5652SOL    HW228590   2.089   2.386   7.512  1.2783  1.1451 -0.7823
 5653SOL     OW28591   1.695   0.191   4.462 -0.6041  0.0554 -0.0816
 5653SOL    HW128592   1.782   0.213   4.498 -1.2579 -0.2254  1.6798
 5653SOL    HW228593   1.692   0.098   4.442 -3.9516 -0.0905  1.2700
 5654SOL     OW28594   3.988   2.670   4.055  0.2313  0.2484 -0.0724
 5654SOL    HW128595   4.080   2.643   4.056 -0.3651 -1.7539  0.1350
 5654SOL    HW228596   3.996   2.760   4.024  0.1128 -0.7897 -3.1619
 5655SOL     OW28597   3.257   3.685   0.284 -0.3068 -0.0152  0.5249
 5655SOL    HW128598   3.165   3.710   0.277  0.0596  1.1458 -0.1670
 5655SOL    HW228599   3.266   3.682   0.379  1.1729  1.4947  0.4381
 5656SOL     OW28600   3.407   3.925  13.711 -0.2518 -0.4345  0.1497
 5656SOL    HW128601   3.458   3.863  13.659 -1.1495  1.4273 -2.9308
 5656SOL    HW228602   3.343   3.875  13.762 -1.3352  0.6716 -0.1445
 5657SOL     OW28603   3.900   0.821  11.139  0.3723 -0.2727  0.7863
 5657SOL    HW128604   3.963   0.783  11.078  0.6571  1.0887  0.2262
 5657SOL    HW228605   3.958   0.870  11.199 -0.1607  1.7683 -0.3604
 5658SOL     OW28606   3.995   1.059   6.917  0.8845  0.8488 -0.6697
 5658SOL    HW128607   3.979   1.150   6.942 -1.4441  0.7242 -1.7054
 5658SOL    HW228608   3.994   1.069   6.822 -0.0253 -2.4832 -1.0093
 5659SOL     OW28609   1.060   2.498  13.350  0.0145 -0.6471  0.1646
 5659SOL    HW128610   1.123   2.567  13.328  0.8506 -0.6019  2.6750
 5659SOL    HW228611   1.003   2.504  13.273  0.7890  1.6715 -0.2461
 5660SOL     OW28612   1.462   3.846   5.494 -0.2382  0.5689 -0.1793
 5660SOL    HW128613   1.503   3.771   5.449  0.4052  1.1633 -0.5821
 5660SOL    HW228614   1.524   3.916   5.475  0.6681  0.3375  2.0212
 5661SOL     OW28615   3.460   0.006  16.509 -0.4288 -0.2321  0.3092
 5661SOL    HW128616   3.428   0.087  16.548  4.2710  2.1858 -0.8693
 5661SOL    HW228617   3.381   4.689  16.492  0.9514 -1.6632 -1.7479
 5662SOL     OW28618   4.271   2.102   9.237 -0.1757 -0.1419 -0.2556
 5662SOL    HW128619   4.333   2.153   9.289 -1.7910  0.5046  1.0267
 5662SOL    HW228620   4.317   2.018   9.233  0.1959  0.1436 -2.1335
 5663SOL     OW28621   2.982   1.703   7.191 -0.1418 -0.7199  0.1435
 5663SOL    HW128622   2.918   1.646   7.146 -0.2656 -0.3968 -0.0899
 5663SOL    HW228623   2.936   1.769   7.242  1.3662 -0.2041  0.8168
 5664SOL     OW28624   1.388   1.363   8.816  0.2286  0.5740  0.2242
 5664SOL    HW128625   1.467   1.313   8.837 -0.1245 -0.7631 -1.6201
 5664SOL    HW228626   1.346   1.362   8.902 -0.8525 -1.4822 -0.3432
 5665SOL     OW28627   0.235   1.600   4.136 -0.0688 -0.0395 -0.0583
 5665SOL    HW128628   0.205   1.676   4.186 -0.1715  0.3351 -0.6993
 5665SOL    HW228629   0.182   1.532   4.178 -0.2530 -0.4321 -0.9300
 5666SOL     OW28630   0.522   0.002   6.658 -0.3783  0.0555  0.7668
 5666SOL    HW128631   0.579   0.031   6.730 -0.7299  0.5570  0.8452
 5666SOL    HW228632   0.445   4.696   6.699 -1.6997  0.8807 -0.8780
 5667SOL     OW28633   0.938   3.069  16.302 -0.2047 -0.6242 -0.7426
 5667SOL    HW128634   0.983   3.108  16.227 -0.4396  0.0073 -0.5595
 5667SOL    HW228635   0.927   3.147  16.356  2.8209 -1.6029  1.2718
 5668SOL     OW28636   4.178   0.246   2.131 -0.2213  0.4031 -0.2064
 5668SOL    HW128637   4.256   0.224   2.182 -0.1586  0.2729 -0.3593
 5668SOL    HW228638   4.122   0.284   2.198  0.0638  1.6344 -0.6664
 5669SOL     OW28639   0.639   2.691  14.227 -0.3441  0.5694 -0.2935
 5669SOL    HW128640   0.629   2.625  14.296  4.8386  1.4370  1.2332
 5669SOL    HW228641   0.727   2.686  14.191 -0.7362 -1.3238 -1.0277
 5670SOL     OW28642   2.403   3.432   3.168 -0.1911  0.2755 -0.7944
 5670SOL    HW128643   2.476   3.399   3.116  0.1626  0.9269 -0.7128
 5670SOL    HW228644   2.334   3.370   3.146 -1.6353  0.4094  3.3100
 5671SOL     OW28645   0.367   4.144   3.087 -0.7357  0.6881 -0.2199
 5671SOL    HW128646   0.375   4.050   3.068  0.8809  0.6995  0.3699
 5671SOL    HW228647   0.273   4.159   3.093 -0.2553  2.7669  1.9140
 5672SOL     OW28648   4.560   4.252   1.783 -0.4674  0.1999  0.5411
 5672SOL    HW128649   4.616   4.309   1.836 -1.1428 -0.4658  1.9552
 5672SOL    HW228650   4.478   4.298   1.764 -0.3564  0.0095 -0.3961
 5673SOL     OW28651   3.590   2.544  15.689  0.0926 -0.1590 -0.6836
 5673SOL    HW128652   3.610   2.520  15.780 -2.6803  0.9648  0.2278
 5673SOL    HW228653   3.551   2.631  15.704 -1.5297 -0.3238 -3.9700
 5674SOL     OW28654   2.107   1.943   8.128 -0.2123 -0.3932 -0.3414
 5674SOL    HW128655   2.065   1.910   8.048  0.0694  0.4693 -0.8567
 5674SOL    HW228656   2.073   2.033   8.121  0.0673 -0.3978 -1.7650
 5675SOL     OW28657   2.787   0.891   5.622  0.1027  0.1066  0.3272
 5675SOL    HW128658   2.828   0.961   5.673 -1.4772  1.6541 -0.5218
 5675SOL    HW228659   2.763   0.932   5.538 -2.1489  0.5386  1.1968
 5676SOL     OW28660   4.589   0.987  13.302 -0.7716 -0.1133 -0.0707
 5676SOL    HW128661   4.571   1.043  13.378  0.2603 -1.8634  1.4701
 5676SOL    HW228662   4.534   1.017  13.230  0.2251  0.5215 -0.5670
 5677SOL     OW28663   2.432   1.165   7.356  0.3267 -0.2571  0.2249
 5677SOL    HW128664   2.440   1.204   7.444  0.6315 -1.6900  0.8285
 5677SOL    HW228665   2.353   1.215   7.335 -0.5139 -1.3106  0.9005
 5678SOL     OW28666   1.945   4.232   2.043  0.2079 -0.1095  0.7359
 5678SOL    HW128667   1.923   4.299   1.978  1.5671 -0.1295  0.2505
 5678SOL    HW228668   2.038   4.247   2.061  0.0476  0.1870  1.3021
 5679SOL     OW28669   1.537   4.096   8.178 -0.3313 -0.1008 -0.1436
 5679SOL    HW128670   1.511   4.019   8.228  1.8294  0.6282  2.1119
 5679SOL    HW228671   1.618   4.118   8.224 -1.0832 -0.9645  1.6028
 5680SOL     OW28672   4.387   3.471   4.806 -0.0972  0.0707  0.0179
 5680SOL    HW128673   4.380   3.395   4.749 -3.4099  0.1800  0.2744
 5680SOL    HW228674   4.310   3.519   4.774 -0.4243  0.1097  0.8614
 5681SOL     OW28675   3.941   3.402   7.459 -0.2236  0.5778  0.1596
 5681SOL    HW128676   3.954   3.495   7.474  0.0214  0.4351  0.8507
 5681SOL    HW228677   3.960   3.363   7.545 -0.2819  2.9061  1.2180
 5682SOL     OW28678   0.082   4.637   2.616  0.5286 -0.4021  1.1419
 5682SOL    HW128679   0.011   4.602   2.671  0.1247 -0.7031  0.4333
 5682SOL    HW228680   0.094   4.719   2.664 -0.7506  0.7760 -0.5379
 5683SOL     OW28681   1.794   3.929   2.910  0.0470  0.1992 -0.0530
 5683SOL    HW128682   1.725   3.863   2.925  0.7160 -0.6561 -0.7620
 5683SOL    HW228683   1.743   4.009   2.899  0.3313  0.3763 -0.0678
 5684SOL     OW28684   1.482   4.081   5.968 -0.2230 -0.2073 -0.2063
 5684SOL    HW128685   1.462   4.042   5.883 -0.9006 -1.3821  0.4857
 5684SOL    HW228686   1.441   4.167   5.976  2.0355  0.6056  2.7400
 5685SOL     OW28687   2.525   2.286   3.426  0.4659 -0.0437 -0.3835
 5685SOL    HW128688   2.501   2.194   3.426  1.4499 -0.3065 -0.2631
 5685SOL    HW228689   2.602   2.279   3.369  1.1633  2.7276  0.1983
 5686SOL     OW28690   3.278   1.453   4.003  0.2282  0.6604  0.3481
 5686SOL    HW128691   3.216   1.464   3.931  0.8261 -0.6610 -0.3783
 5686SOL    HW228692   3.354   1.501   3.969 -0.4602  0.2845 -1.7220
 5687SOL     OW28693   2.834   1.850   9.642  0.3011 -0.0306 -0.1790
 5687SOL    HW128694   2.893   1.831   9.715  0.2747  1.8958  0.3375
 5687SOL    HW228695   2.853   1.772   9.590  2.7567  0.2216  0.3367
 5688SOL     OW28696   4.593   2.139   8.234  0.5262 -0.1373  0.1827
 5688SOL    HW128697   4.570   2.115   8.324  0.4508 -0.5313  0.0564
 5688SOL    HW228698   4.648   2.216   8.252  1.3908 -0.5901 -0.5645
 5689SOL     OW28699   4.691   2.692  11.436 -0.2110  0.1282  0.2680
 5689SOL    HW128700   4.609   2.650  11.462  1.1820 -0.4965  3.6874
 5689SOL    HW228701   4.685   2.767  11.495  0.5660 -0.5819  1.2541
 5690SOL     OW28702   4.205   0.681   0.645  0.7347  0.0250  0.3335
 5690SOL    HW128703   4.149   0.612   0.682 -0.3263  0.3726 -0.6458
 5690SOL    HW228704   4.216   0.747   0.714 -2.6700 -0.1965  1.0776
 5691SOL     OW28705   1.933   3.757   2.266  0.1917 -0.4556  0.2217
 5691SOL    HW128706   1.962   3.838   2.224 -4.2458  0.0587 -1.9287
 5691SOL    HW228707   1.979   3.760   2.350  1.5023 -0.8704 -0.4898
 5692SOL     OW28708   2.029   0.859   4.512  0.1482 -0.1544  0.2565
 5692SOL    HW128709   2.024   0.954   4.526  0.0027  0.2442 -2.4669
 5692SOL    HW228710   1.974   0.834   4.586 -1.8300  0.1349 -1.1288
 5693SOL     OW28711   1.000   4.586   3.359  0.1202  0.4564  0.0509
 5693SOL    HW128712   0.940   4.620   3.293  0.0941 -0.5655 -0.4486
 5693SOL    HW228713   1.074   4.640   3.332  2.8438 -3.1117  0.2846
 5694SOL     OW28714   2.260   1.520   8.331 -0.3362 -0.4939 -0.0612
 5694SOL    HW128715   2.227   1.554   8.248  0.6151  1.2082  0.2562
 5694SOL    HW228716   2.249   1.427   8.314 -0.3892 -0.6757  0.9958
 5695SOL     OW28717   2.562   1.952  10.910  0.0353 -0.4463 -0.0010
 5695SOL    HW128718   2.588   1.941  10.819 -0.0503 -0.2038 -0.0544
 5695SOL    HW228719   2.611   2.030  10.939  0.7976 -1.5680  1.7005
 5696SOL     OW28720   2.609   2.875   9.861  0.9152  0.5770 -0.0006
 5696SOL    HW128721   2.623   2.784   9.834  0.4931  0.1453  1.2504
 5696SOL    HW228722   2.642   2.924   9.786 -0.3505 -1.6229 -2.0090
 5697SOL     OW28723   4.324   0.344   5.958 -0.1353  0.1446  0.0754
 5697SOL    HW128724   4.373   0.262   5.949  1.4318  0.9594  1.1362
 5697SOL    HW228725   4.234   0.316   5.973 -1.2887  3.1472 -1.2758
 5698SOL     OW28726   3.556   1.039   4.714  0.0637  0.6954  0.1812
 5698SOL    HW128727   3.527   1.113   4.660 -0.6404 -0.6847 -1.3234
 5698SOL    HW228728   3.473   1.008   4.749  0.1596  1.2514  0.8962
 5699SOL     OW28729   2.985   4.007  16.428 -0.1651  0.1673  0.4134
 5699SOL    HW128730   3.046   3.977  16.496  1.0373 -1.5652 -1.4274
 5699SOL    HW228731   2.994   4.101  16.441 -1.6222  0.6378 -2.1539
 5700SOL     OW28732   2.068   2.185   5.221  0.0672  0.4371 -0.3161
 5700SOL    HW128733   2.113   2.264   5.191  0.7177 -0.8489 -2.7304
 5700SOL    HW228734   2.049   2.217   5.309 -0.3866 -0.6349 -0.0345
 5701SOL     OW28735   3.866   3.010   3.512  0.3235  0.6900 -0.6718
 5701SOL    HW128736   3.860   3.092   3.561 -0.5483  0.4028 -0.3045
 5701SOL    HW228737   3.934   3.027   3.447  1.2720 -0.9375 -0.1025
 5702SOL     OW28738   4.076   0.933   5.300 -0.5743  0.5209 -0.1907
 5702SOL    HW128739   4.035   1.003   5.249 -0.9390 -1.2808 -2.3777
 5702SOL    HW228740   4.160   0.933   5.255  0.7174 -0.7406  2.2607
 5703SOL     OW28741   2.667   0.739   4.731  0.1030  0.2924  0.3982
 5703SOL    HW128742   2.677   0.772   4.820  0.1995 -0.4781  0.6693
 5703SOL    HW228743   2.757   0.711   4.719 -0.3890 -0.2005 -2.2235
 5704SOL     OW28744   4.191   2.871   6.740  0.4770  0.0751 -0.2398
 5704SOL    HW128745   4.141   2.806   6.691  0.6245 -1.6732  1.9244
 5704SOL    HW228746   4.259   2.808   6.766 -1.8420 -1.5678  1.9225
 5705SOL     OW28747   0.042   2.547   5.291  0.4174 -0.4828 -0.4229
 5705SOL    HW128748   4.734   2.495   5.359  3.7655 -0.5814  1.6038
 5705SOL    HW228749   0.087   2.481   5.239  2.7485  0.9424 -0.1924
 5706SOL     OW28750   1.396   3.081  11.518  0.0723 -0.1649  0.1746
 5706SOL    HW128751   1.376   3.173  11.537 -2.6908 -0.8154  0.4100
 5706SOL    HW228752   1.378   3.069  11.425 -1.5254 -0.6941  0.5561
 5707SOL     OW28753   0.597   2.994   9.817  0.5220 -0.1689 -0.3689
 5707SOL    HW128754   0.661   2.924   9.815  2.0390  1.2699 -1.5403
 5707SOL    HW228755   0.656   3.065   9.844  0.3755  0.1950 -1.0132
 5708SOL     OW28756   3.929   0.210   8.270  0.2970  0.0033 -0.2992
 5708SOL    HW128757   3.873   0.219   8.193 -1.4458 -1.3379  0.8270
 5708SOL    HW228758   3.868   0.199   8.342 -0.6825 -0.4876 -1.2053
 5709SOL     OW28759   2.115   1.808   2.214  0.3451  0.2679  0.8961
 5709SOL    HW128760   2.124   1.872   2.284 -0.3078  0.7411  0.5464
 5709SOL    HW228761   2.174   1.737   2.240  0.9297  1.0990  1.8344
 5710SOL     OW28762   3.630   0.854   9.256 -0.0562 -0.3137  0.3782
 5710SOL    HW128763   3.599   0.783   9.199 -0.3625  0.4625 -0.4200
 5710SOL    HW228764   3.706   0.817   9.301  1.3970  0.6089 -1.3196
 5711SOL     OW28765   0.858   4.529   8.608 -0.1112 -0.2770 -0.3056
 5711SOL    HW128766   0.827   4.496   8.524 -1.8360 -1.1481  0.6588
 5711SOL    HW228767   0.791   4.487   8.662 -0.8040  1.7579  0.4005
 5712SOL     OW28768   0.245   3.917  10.023  0.5069  0.8646  0.0653
 5712SOL    HW128769   0.214   3.937   9.935  1.7627 -0.1288 -0.6090
 5712SOL    HW228770   0.335   3.891  10.002  0.6327  0.1441  1.4938
 5713SOL     OW28771   1.911   2.481   9.143  0.2260  0.3759  0.1736
 5713SOL    HW128772   1.863   2.411   9.099  0.6552 -1.5378  2.7164
 5713SOL    HW228773   1.977   2.491   9.075  0.1357 -0.4725 -0.0385
 5714SOL     OW28774   0.688   2.974   1.504  0.5661 -0.5689 -0.4367
 5714SOL    HW128775   0.697   3.054   1.556 -1.2297 -1.1157  0.6931
 5714SOL    HW228776   0.606   2.935   1.533 -0.0582  1.2920  0.2677
 5715SOL     OW28777   0.092   0.642  17.635  0.1965  0.2375 -0.4439
 5715SOL    HW128778   0.051   0.570  17.587 -0.5627 -0.2121  0.8863
 5715SOL    HW228779   0.123   0.688  17.557 -0.5963  1.5241  0.0105
 5716SOL     OW28780   0.360   1.446   7.537  0.3212 -0.2539 -0.4982
 5716SOL    HW128781   0.388   1.432   7.627 -0.0698  0.8991 -0.1931
 5716SOL    HW228782   0.347   1.541   7.527 -0.2436 -0.3989 -1.1410
 5717SOL     OW28783   0.476   2.449   6.860  0.1553  0.4938  0.2369
 5717SOL    HW128784   0.435   2.366   6.882 -0.8526 -0.1262 -3.8963
 5717SOL    HW228785   0.400   2.502   6.836 -0.7730 -0.5347  0.9363
 5718SOL     OW28786   4.099   3.254  11.839  0.4532  0.1679 -0.4845
 5718SOL    HW128787   4.168   3.190  11.857  0.4597 -0.3513 -2.2940
 5718SOL    HW228788   4.141   3.305  11.770  1.2395  0.5142  0.2516
 5719SOL     OW28789   3.814   2.360  11.311  0.9720 -0.2917  0.1234
 5719SOL    HW128790   3.741   2.376  11.370  1.9722 -0.9031  1.5097
 5719SOL    HW228791   3.817   2.265  11.302 -0.3306 -0.4143  0.9778
 5720SOL     OW28792   3.925   0.163  15.062  0.4994 -0.6274 -0.1810
 5720SOL    HW128793   3.976   0.233  15.020  3.0594 -2.0636  0.5505
 5720SOL    HW228794   3.843   0.165  15.012 -0.6442  1.5122  1.8098
 5721SOL     OW28795   3.602   4.030   3.210  0.2560  0.2677 -0.3477
 5721SOL    HW128796   3.630   3.947   3.247 -0.6089 -0.4363 -1.2860
 5721SOL    HW228797   3.516   4.005   3.176  1.2437 -0.8616 -2.0174
 5722SOL     OW28798   3.361   0.482   9.755  0.5677 -0.6460 -0.1087
 5722SOL    HW128799   3.349   0.479   9.660  0.3694 -2.8266 -0.0040
 5722SOL    HW228800   3.346   0.576   9.768  1.4144 -0.4566 -0.5018
 5723SOL     OW28801   1.286   0.906   7.248  0.7338 -0.0990 -0.1363
 5723SOL    HW128802   1.340   0.955   7.311  1.5668 -0.9722 -0.1668
 5723SOL    HW228803   1.348   0.870   7.185  0.2237  2.0853 -1.8971
 5724SOL     OW28804   2.810   3.330   9.145 -0.6358 -0.2528 -0.1194
 5724SOL    HW128805   2.786   3.379   9.067  0.5976 -0.9793 -0.9423
 5724SOL    HW228806   2.732   3.331   9.201 -0.5409 -2.5128  0.0425
 5725SOL     OW28807   2.882   3.358   2.013 -0.5680 -0.0771  0.1772
 5725SOL    HW128808   2.827   3.282   1.993 -0.3838  0.4105 -2.1142
 5725SOL    HW228809   2.890   3.402   1.928 -0.4545  1.4685  0.9918
 5726SOL     OW28810   4.188   3.484   3.192  0.4467 -0.4975  0.2223
 5726SOL    HW128811   4.173   3.543   3.117 -0.2871 -0.6175  0.2774
 5726SOL    HW228812   4.283   3.489   3.189  0.3942  1.1009  1.0479
 5727SOL     OW28813   0.324   3.521   9.174 -0.2184 -0.3344 -0.4944
 5727SOL    HW128814   0.293   3.606   9.204  1.2392  0.5258 -1.4683
 5727SOL    HW228815   0.267   3.510   9.098 -1.2224  0.6614  0.1091
 5728SOL     OW28816   0.392   1.674   7.363 -0.4941  0.3477 -0.3807
 5728SOL    HW128817   0.421   1.764   7.345 -1.1095  0.7366  0.5263
 5728SOL    HW228818   0.313   1.674   7.308 -0.4111  0.6625 -0.5041
 5729SOL     OW28819   2.425   4.311   1.625  0.1742 -0.1159  0.1095
 5729SOL    HW128820   2.470   4.227   1.637 -0.3270 -0.0451  2.6079
 5729SOL    HW228821   2.336   4.278   1.632 -0.2443  1.4004  2.0629
 5730SOL     OW28822   2.193   1.336   7.346 -0.3605  0.2430  0.1686
 5730SOL    HW128823   2.115   1.336   7.289 -2.8869 -1.0329  3.6495
 5730SOL    HW228824   2.139   1.320   7.424  2.1362  1.6712  2.1806
 5731SOL     OW28825   1.234   0.346  10.552  0.0129 -0.3781 -0.0929
 5731SOL    HW128826   1.285   0.348  10.471 -3.6431  1.5130 -2.3609
 5731SOL    HW228827   1.165   0.412  10.543  1.3042  0.9467 -0.0976
 5732SOL     OW28828   2.648   2.056   3.031 -0.0635 -0.6770 -0.2036
 5732SOL    HW128829   2.725   2.065   2.974  0.8656  1.5837  1.4079
 5732SOL    HW228830   2.574   2.070   2.972 -0.5885 -0.0979  0.6069
 5733SOL     OW28831   2.242   3.681   6.292 -0.4649 -0.3635  0.4230
 5733SOL    HW128832   2.250   3.599   6.341 -0.4133 -0.5713  0.0596
 5733SOL    HW228833   2.251   3.634   6.210  1.2498 -1.2745  1.1334
 5734SOL     OW28834   0.674   2.536  11.087 -0.2333  0.0855 -0.4537
 5734SOL    HW128835   0.614   2.559  11.016 -0.8563 -2.1774 -0.6826
 5734SOL    HW228836   0.726   2.462  11.056 -1.6517 -1.0048 -0.2596
 5735SOL     OW28837   4.051   0.355   3.789 -0.0011  0.3518 -0.0605
 5735SOL    HW128838   4.004   0.295   3.847 -0.2907  0.3874 -0.2565
 5735SOL    HW228839   3.999   0.367   3.709  1.3708 -0.8469 -1.1199
 5736SOL     OW28840   2.912   3.501   1.762  0.1706 -0.8016 -0.0418
 5736SOL    HW128841   2.904   3.421   1.711 -1.9792  0.7265 -2.1128
 5736SOL    HW228842   2.987   3.544   1.720  1.2357 -2.4331  0.2192
 5737SOL     OW28843   0.866   0.452   6.791 -0.1274 -0.0503  0.5531
 5737SOL    HW128844   0.782   0.412   6.816  0.2698 -1.4978 -0.4371
 5737SOL    HW228845   0.848   0.468   6.699  2.1846  0.1092  0.1331
 5738SOL     OW28846   0.901   3.299   8.298  0.8632 -0.5972  0.7610
 5738SOL    HW128847   0.823   3.315   8.351  0.4057 -0.0941 -0.0722
 5738SOL    HW228848   0.952   3.380   8.298  0.2602 -0.2168 -1.6118
 5739SOL     OW28849   0.300   2.205  12.632  0.2272 -0.0030  0.2496
 5739SOL    HW128850   0.258   2.121  12.615 -2.1456  0.9797  1.1727
 5739SOL    HW228851   0.290   2.218  12.726  0.1070  2.7002 -0.1172
 5740SOL     OW28852   4.063   0.014   4.385  0.4768 -0.5350  0.4203
 5740SOL    HW128853   4.131   0.053   4.439  1.5049  0.2048 -1.4240
 5740SOL    HW228854   4.123   4.719   4.317  0.6695 -2.0649  1.2492
 5741SOL     OW28855   2.192   4.162   1.544  0.2295 -0.6981 -0.3630
 5741SOL    HW128856   2.149   4.115   1.614  1.8447  2.4824  2.7545
 5741SOL    HW228857   2.127   4.230   1.530  0.0024 -1.1344 -1.4183
 5742SOL     OW28858   3.139   2.535   0.048 -0.4141  0.2445 -0.4810
 5742SOL    HW128859   3.181   2.550   0.133  1.0686 -1.1330 -0.9748
 5742SOL    HW228860   3.049   2.529   0.080  0.1622 -0.9224  0.9289
 5743SOL     OW28861   3.679   1.079   1.943 -0.3249  0.0929 -0.0664
 5743SOL    HW128862   3.748   1.041   1.998 -1.6096 -0.0229  1.4820
 5743SOL    HW228863   3.619   1.011   1.911  0.0601 -0.4612  0.3823
 5744SOL     OW28864   1.272   4.388   3.482 -0.5636  0.4304  0.4104
 5744SOL    HW128865   1.251   4.473   3.522  0.6963  1.2519 -0.6795
 5744SOL    HW228866   1.367   4.393   3.481 -0.5578  0.0486 -0.6516
 5745SOL     OW28867   4.295   3.815   8.427  0.4654 -0.4976 -0.0669
 5745SOL    HW128868   4.388   3.829   8.447  0.7516  1.9126 -3.1840
 5745SOL    HW228869   4.268   3.833   8.517  1.8744  1.0924  0.0512
 5746SOL     OW28870   2.470   1.983  15.275 -0.0067 -0.1835 -0.7135
 5746SOL    HW128871   2.528   1.933  15.218 -0.4902 -0.3081 -1.0999
 5746SOL    HW228872   2.411   2.012  15.206 -0.1272  0.0873 -0.4970
 5747SOL     OW28873   2.957   0.746   3.253 -0.0044 -0.0991 -0.4745
 5747SOL    HW128874   2.887   0.791   3.205 -2.1302 -2.5085  0.4099
 5747SOL    HW228875   2.909   0.676   3.296 -0.6677  0.1786 -0.7598
 5748SOL     OW28876   0.777   2.181  14.743 -0.0851 -0.3371 -0.0657
 5748SOL    HW128877   0.690   2.192  14.783  1.6519 -0.3241  3.6561
 5748SOL    HW228878   0.823   2.241  14.800 -1.7171 -0.7061  1.6332
 5749SOL     OW28879   3.790   4.197  16.838 -0.2231 -0.3265  0.3328
 5749SOL    HW128880   3.847   4.207  16.914  0.8897 -0.2399 -0.5013
 5749SOL    HW228881   3.847   4.148  16.778  1.1801 -0.4594  1.7568
 5750SOL     OW28882   2.871   1.223  14.265  0.2730 -0.2030 -0.7288
 5750SOL    HW128883   2.797   1.230  14.325  0.4159  0.1572 -0.5922
 5750SOL    HW228884   2.933   1.250  14.333  1.0220 -0.8039 -1.1655
 5751SOL     OW28885   2.672   4.610   2.878  0.0141 -0.0100 -0.0445
 5751SOL    HW128886   2.673   4.554   2.800 -0.7753  0.9623 -0.7478
 5751SOL    HW228887   2.759   4.595   2.914  0.0389 -1.2077 -0.6011
 5752SOL     OW28888   4.224   1.766   6.125 -0.0086  0.1410 -0.5314
 5752SOL    HW128889   4.288   1.718   6.072 -0.2085 -0.0286 -0.6201
 5752SOL    HW228890   4.285   1.792   6.194 -1.0852 -0.2121  0.5504
 5753SOL     OW28891   1.868   3.026   3.685  0.0191  0.2548 -0.1361
 5753SOL    HW128892   1.810   3.089   3.642  0.3870  0.2744 -0.5962
 5753SOL    HW228893   1.943   3.070   3.726  1.1598 -0.6276 -1.2682
 5754SOL     OW28894   1.557   4.167   3.333 -0.1005 -0.1698  0.1714
 5754SOL    HW128895   1.517   4.107   3.395 -0.7758  1.3154  1.1569
 5754SOL    HW228896   1.564   4.248   3.384 -0.5095 -0.1884  0.2567
 5755SOL     OW28897   2.928   0.959   1.826  0.2253 -0.1088  0.1518
 5755SOL    HW128898   2.974   1.031   1.783 -0.3442  0.5080  0.5821
 5755SOL    HW228899   2.838   0.987   1.809 -0.5947 -1.7838  1.6863
 5756SOL     OW28900   2.765   4.000   6.367 -0.4674 -0.0086 -0.5245
 5756SOL    HW128901   2.773   4.062   6.294 -2.1255 -1.1940 -1.7164
 5756SOL    HW228902   2.771   4.064   6.438  0.6602 -2.3464  1.4488
 5757SOL     OW28903   3.714   2.211   1.615 -0.2600 -0.2032  0.2320
 5757SOL    HW128904   3.727   2.295   1.658 -1.9129 -0.5305  1.3578
 5757SOL    HW228905   3.742   2.146   1.679 -2.2584 -1.9539 -0.6729
 5758SOL     OW28906   1.745   3.955  11.713 -0.0449  0.0293 -0.0832
 5758SOL    HW128907   1.824   3.974  11.763  2.1888 -6.3112 -1.2123
 5758SOL    HW228908   1.679   3.990  11.773 -1.0094 -2.3836  0.2465
 5759SOL     OW28909   3.810   2.470   4.994  0.1397  0.1256 -0.4219
 5759SOL    HW128910   3.824   2.450   4.902  1.1395 -1.0698 -0.0099
 5759SOL    HW228911   3.804   2.565   4.981  0.6904  0.3520  0.9299
 5760SOL     OW28912   2.150   0.568   4.540 -0.2994  0.4196  0.2470
 5760SOL    HW128913   2.120   0.618   4.464 -0.5229 -0.0394  0.0340
 5760SOL    HW228914   2.213   0.507   4.501 -1.4358 -1.4217  1.2930
 5761SOL     OW28915   2.188   1.683   6.141  0.1200  0.5922  0.3384
 5761SOL    HW128916   2.115   1.685   6.203  0.5315 -0.3488  0.8563
 5761SOL    HW228917   2.144   1.686   6.057  2.8239 -0.4125 -1.1149
 5762SOL     OW28918   4.399   1.736   7.697 -0.3712 -0.0925 -0.1208
 5762SOL    HW128919   4.426   1.692   7.617 -2.6219 -0.2524 -0.7925
 5762SOL    HW228920   4.455   1.688   7.757 -0.0892  0.3684 -0.0145
 5763SOL     OW28921   2.945   1.923  16.180 -0.3869 -0.3719  0.2297
 5763SOL    HW128922   3.027   1.938  16.133  1.0464 -0.3442  2.6940
 5763SOL    HW228923   2.888   1.974  16.122  1.0676  1.5692  0.5103
 5764SOL     OW28924   1.981   4.286  13.710 -0.4150  0.2790 -0.3059
 5764SOL    HW128925   2.018   4.290  13.798 -0.0003 -1.2796 -0.4086
 5764SOL    HW228926   2.023   4.363  13.672 -2.3356  1.0737 -0.8398
 5765SOL     OW28927   1.801   3.205   4.479 -0.6048 -0.8984  0.0712
 5765SOL    HW128928   1.813   3.290   4.438 -0.7707 -0.5099  0.8288
 5765SOL    HW228929   1.887   3.201   4.521 -0.1235 -1.5152 -0.9657
 5766SOL     OW28930   3.331   4.691   4.688 -0.5208 -0.0686 -0.5044
 5766SOL    HW128931   3.261   4.722   4.630 -0.5375  1.6007  0.3834
 5766SOL    HW228932   3.354   4.614   4.636  0.5891 -1.2053  1.6719
 5767SOL     OW28933   2.564   3.344   2.556 -0.1047  0.2454 -0.1968
 5767SOL    HW128934   2.509   3.267   2.540 -0.1509  0.2795 -0.2016
 5767SOL    HW228935   2.636   3.293   2.594 -0.7013  0.6753  1.4690
 5768SOL     OW28936   2.079   2.207  10.375  0.1278  0.6488  0.0382
 5768SOL    HW128937   2.052   2.289  10.417 -2.7911 -0.4535  0.3565
 5768SOL    HW228938   2.163   2.191  10.418 -1.0945 -0.0345  2.2163
 5769SOL     OW28939   0.633   0.998   1.933  0.0997 -0.3448 -0.2241
 5769SOL    HW128940   0.558   0.989   1.873 -0.5936  0.4012  0.5295
 5769SOL    HW228941   0.692   1.060   1.890 -0.5698  0.3493 -0.1570
 5770SOL     OW28942   2.555   1.018   1.363 -0.1161 -0.3173 -0.6715
 5770SOL    HW128943   2.495   1.005   1.290  0.5366 -0.5699 -1.1637
 5770SOL    HW228944   2.630   0.972   1.326 -0.8171  0.2128 -2.7386
 5771SOL     OW28945   0.467   3.669   1.937  0.2993 -0.2385 -0.3622
 5771SOL    HW128946   0.501   3.596   1.987  1.7720  0.6283 -0.0916
 5771SOL    HW228947   0.524   3.742   1.959 -0.5673  0.4467 -0.3585
 5772SOL     OW28948   3.590   1.835   4.505 -0.3636  0.0562 -0.3956
 5772SOL    HW128949   3.553   1.792   4.582  1.0062  0.6106  0.5656
 5772SOL    HW228950   3.516   1.856   4.448 -2.7986  0.3751  2.8947
 5773SOL     OW28951   2.852   3.012   9.885  0.5325 -0.7328 -0.1920
 5773SOL    HW128952   2.916   2.941   9.885  1.5656  0.1813 -0.5442
 5773SOL    HW228953   2.774   2.975   9.926  1.0258 -0.6873  0.7819
 5774SOL     OW28954   4.337   0.072  13.359 -0.1805  0.1328 -0.2789
 5774SOL    HW128955   4.357   0.054  13.267 -1.2108  0.6853 -0.6102
 5774SOL    HW228956   4.265   0.010  13.373  0.2598  0.0482  1.6075
 5775SOL     OW28957   3.465   0.247   7.390 -0.1652  0.9940 -0.4755
 5775SOL    HW128958   3.406   0.212   7.323 -1.4664 -1.2617  1.7903
 5775SOL    HW228959   3.421   0.262   7.474 -1.4408  2.7908 -1.4504
 5776SOL     OW28960   1.018   4.073  17.472 -0.3623  0.4329  0.3510
 5776SOL    HW128961   1.094   4.065  17.414 -0.4205  0.0201  0.3327
 5776SOL    HW228962   1.038   4.009  17.540 -0.2698  0.1426  0.0510
 5777SOL     OW28963   0.552   3.428   2.028 -0.4767  0.3171 -0.4260
 5777SOL    HW128964   0.556   3.425   2.123 -0.0260  0.8571 -0.4265
 5777SOL    HW228965   0.642   3.406   2.004 -1.0489 -2.2937 -0.1185
 5778SOL     OW28966   1.123   3.518  14.488  0.6048 -0.2860 -0.3374
 5778SOL    HW128967   1.092   3.463  14.416 -0.0999 -0.4626  0.1109
 5778SOL    HW228968   1.100   3.608  14.465  0.4962 -0.3747 -0.5754
 5779SOL     OW28969   0.483   0.519  17.308  0.0044  0.2177 -0.0291
 5779SOL    HW128970   0.550   0.453  17.292  0.2196  0.1391  1.1611
 5779SOL    HW228971   0.541   0.578  17.358 -0.7578 -0.4870  1.6737
 5780SOL     OW28972   0.512   0.053   1.892 -0.0037 -0.5623  0.4538
 5780SOL    HW128973   0.482   0.120   1.953 -1.9920  0.7094 -1.9158
 5780SOL    HW228974   0.602   0.081   1.872  0.1137 -0.8070  0.6439
 5781SOL     OW28975   3.907   2.995   4.912  0.6108  0.0751  0.3590
 5781SOL    HW128976   4.002   3.008   4.914  0.4577  1.1143  0.6544
 5781SOL    HW228977   3.898   2.915   4.965  0.2501  0.0367  0.2346
 5782SOL     OW28978   3.047   2.698   8.659  0.8772  0.0806  0.3918
 5782SOL    HW128979   3.141   2.691   8.642  1.1011 -0.9704  2.0559
 5782SOL    HW228980   3.046   2.693   8.755  0.2990 -0.4896  0.3588
 5783SOL     OW28981   1.594   4.531   2.029  0.0585  0.2274  1.0470
 5783SOL    HW128982   1.652   4.538   2.105  3.3712 -1.3411 -1.3256
 5783SOL    HW228983   1.655   4.558   1.960 -0.8785  1.2961  0.6447
 5784SOL     OW28984   2.825   2.181   8.258 -0.3183 -0.6123  0.2354
 5784SOL    HW128985   2.771   2.161   8.334 -0.2117 -0.7953  0.2624
 5784SOL    HW228986   2.826   2.277   8.256  0.2402 -0.6013  1.1751
 5785SOL     OW28987   1.980   3.611   3.154  0.5729 -0.2419  0.5710
 5785SOL    HW128988   2.054   3.649   3.201 -0.4572 -0.8204  2.6637
 5785SOL    HW228989   2.003   3.656   3.073  0.3015 -2.0326 -0.4963
 5786SOL     OW28990   0.990   1.348  16.420  0.0031  0.6535 -0.1606
 5786SOL    HW128991   1.008   1.357  16.326  2.8541 -3.4702 -0.0341
 5786SOL    HW228992   0.901   1.384  16.418 -1.3954 -2.7607  0.4833
 5787SOL     OW28993   2.000   1.125  12.613 -0.5463  0.3783 -0.2274
 5787SOL    HW128994   2.011   1.182  12.537 -2.7752 -0.2704 -1.0349
 5787SOL    HW228995   1.985   1.195  12.677  0.7004 -0.3101  0.8072
 5788SOL     OW28996   3.349   4.230  16.378  0.3487 -0.1221  0.2653
 5788SOL    HW128997   3.288   4.168  16.339  1.1004 -0.4410 -0.3940
 5788SOL    HW228998   3.339   4.238  16.473  1.1054  0.1696  0.3238
 5789SOL     OW28999   3.909   1.547  11.672  0.0896 -0.6448 -0.0922
 5789SOL    HW129000   3.911   1.639  11.645 -0.1987 -1.1224 -1.7575
 5789SOL    HW229001   3.847   1.514  11.607 -0.9531  0.5368  0.2971
 5790SOL     OW29002   4.426   1.470   6.218  0.4740  0.0494  0.4717
 5790SOL    HW129003   4.421   1.543   6.156  0.1440  0.4222  0.9375
 5790SOL    HW229004   4.486   1.506   6.283 -0.0199 -0.8071  1.4120
 5791SOL     OW29005   3.772   0.204   5.550  0.3102 -0.5608  0.0929
 5791SOL    HW129006   3.700   0.145   5.575 -1.7612  1.4919 -1.0086
 5791SOL    HW229007   3.772   0.191   5.455 -0.2877 -1.2913  0.1967
 5792SOL     OW29008   2.133   1.420   5.712 -0.0016  0.5341  0.7808
 5792SOL    HW129009   2.045   1.457   5.720 -0.7223 -1.0537  0.1700
 5792SOL    HW229010   2.136   1.347   5.774  1.4473  1.2514  1.5560
 5793SOL     OW29011   0.679   0.348   7.974  0.3340 -0.4244 -0.2879
 5793SOL    HW129012   0.629   0.422   7.940 -0.7310 -0.4727  1.2066
 5793SOL    HW229013   0.623   0.274   7.954 -2.0343  1.6536 -1.4177
 5794SOL     OW29014   4.391   1.214   4.792 -0.5319  0.2368 -0.1317
 5794SOL    HW129015   4.323   1.174   4.846  0.5045 -0.8039  0.3946
 5794SOL    HW229016   4.422   1.134   4.750  0.5229  0.4328  0.2844
 5795SOL     OW29017   1.355   3.616  16.411  0.0724  0.8953  0.7517
 5795SOL    HW129018   1.394   3.651  16.331  0.8338  0.4063  0.9153
 5795SOL    HW229019   1.316   3.531  16.392  0.6740  0.8143 -0.0793
 5796SOL     OW29020   1.033   1.391   0.678  0.4684  0.2452  0.3272
 5796SOL    HW129021   1.028   1.340   0.598  2.1190 -0.8873  0.9646
 5796SOL    HW229022   0.951   1.441   0.677  0.6404  0.5457  2.0804
 5797SOL     OW29023   0.486   3.127   8.226 -0.0435  0.1686 -0.5115
 5797SOL    HW129024   0.462   3.062   8.292  0.5497 -1.6500 -2.1036
 5797SOL    HW229025   0.425   3.194   8.258  0.3617  0.8590 -1.1912
 5798SOL     OW29026   2.100   3.186  16.654  0.0320 -0.3906  0.0000
 5798SOL    HW129027   2.142   3.164  16.737  0.1398 -1.5475 -0.3583
 5798SOL    HW229028   2.148   3.265  16.630  0.0801 -0.2798  0.4535
 5799SOL     OW29029   0.164   0.120  10.169  0.1636 -0.1074 -0.2265
 5799SOL    HW129030   0.134   0.029  10.163  1.2753 -0.5634  0.9818
 5799SOL    HW229031   0.096   0.160  10.222 -1.2084 -3.4055  0.5123
 5800SOL     OW29032   0.266   3.991   2.548  0.1702  0.4460 -0.1058
 5800SOL    HW129033   0.338   4.044   2.513 -0.1793 -0.0529 -1.6051
 5800SOL    HW229034   0.274   4.001   2.642  0.8566 -1.1165  0.0088
 5801SOL     OW29035   3.573   4.035  11.625  0.1958  0.2486  0.0212
 5801SOL    HW129036   3.596   4.121  11.661  0.3831  0.4966 -0.6907
 5801SOL    HW229037   3.658   3.994  11.612 -0.0199 -0.7832  1.9476
 5802SOL     OW29038   3.705   2.850   6.944  0.0516 -0.1137  0.0827
 5802SOL    HW129039   3.635   2.827   7.004 -1.6159  0.0682 -1.7798
 5802SOL    HW229040   3.762   2.773   6.947  0.3537  0.0139 -2.0258
 5803SOL     OW29041   0.435   2.256   7.244 -0.2735 -0.1043 -0.2681
 5803SOL    HW129042   0.476   2.339   7.223 -1.1308  0.1005 -1.1260
 5803SOL    HW229043   0.362   2.296   7.290 -0.2264 -0.0504 -0.2407
 5804SOL     OW29044   0.854   3.718  13.222 -0.1885  0.4781  0.2105
 5804SOL    HW129045   0.865   3.667  13.302  0.8281 -0.7176 -0.6903
 5804SOL    HW229046   0.758   3.719  13.218 -0.2560 -1.1868  1.9222
 5805SOL     OW29047   3.894   2.028   9.055  0.3357 -0.4057 -0.2402
 5805SOL    HW129048   3.816   1.972   9.053  2.6796 -3.7143  0.3860
 5805SOL    HW229049   3.945   1.947   9.046  1.1725  0.0464  0.4859
 5806SOL     OW29050   4.115   3.328   3.729 -0.4760  0.9092  0.7676
 5806SOL    HW129051   4.061   3.290   3.660  0.7652 -0.0178  0.2893
 5806SOL    HW229052   4.181   3.380   3.683 -0.9217 -0.1717 -1.1327
 5807SOL     OW29053   1.322   3.992  11.041  0.1257  0.0979 -0.0772
 5807SOL    HW129054   1.392   3.959  10.984 -0.1199 -1.2281  0.3862
 5807SOL    HW229055   1.356   4.076  11.073  5.2970 -2.1497  0.3052
 5808SOL     OW29056   4.234   3.762  10.955  0.4054  0.0083  0.0124
 5808SOL    HW129057   4.285   3.697  11.004 -0.4858 -0.9779 -0.3557
 5808SOL    HW229058   4.303   3.802  10.904 -2.3465  1.6058 -2.4406
 5809SOL     OW29059   2.894   0.768   2.307 -0.1313  0.5871 -0.1409
 5809SOL    HW129060   2.869   0.860   2.303 -1.8028  0.1749  0.6234
 5809SOL    HW229061   2.872   0.729   2.222  0.3191  3.0278 -1.3864
 5810SOL     OW29062   4.570   1.491  10.000 -0.0013 -1.1587  0.7998
 5810SOL    HW129063   4.583   1.586  10.008 -1.3793 -0.8277 -0.7003
 5810SOL    HW229064   4.650   1.459  10.041  1.1961 -2.3244 -2.4541
 5811SOL     OW29065   4.481   3.655   5.512  0.3774 -0.7219 -0.1885
 5811SOL    HW129066   4.527   3.630   5.432  2.7230  0.6856  0.7303
 5811SOL    HW229067   4.484   3.750   5.498  1.7640 -0.6766  0.4588
 5812SOL     OW29068   1.062   4.228   4.679  0.3408 -0.0270  0.2931
 5812SOL    HW129069   1.127   4.250   4.612 -0.2162  1.6863  0.3145
 5812SOL    HW229070   1.040   4.138   4.657 -0.5099  0.2418  0.0221
 5813SOL     OW29071   1.512   4.508   3.173 -0.1363 -0.1407 -0.3739
 5813SOL    HW129072   1.484   4.447   3.105 -1.0713  2.2390 -2.0946
 5813SOL    HW229073   1.597   4.476   3.205  1.0828  1.8246 -1.6337
 5814SOL     OW29074   1.638   2.481  15.133 -0.4799  0.4614 -0.2151
 5814SOL    HW129075   1.593   2.446  15.056  1.9893  0.3113 -1.6090
 5814SOL    HW229076   1.726   2.457  15.103 -0.2745 -1.4305  1.9243
 5815SOL     OW29077   4.598   3.871   6.775  0.7510 -0.2899 -0.0305
 5815SOL    HW129078   4.506   3.848   6.790  0.3881  0.3914 -1.1752
 5815SOL    HW229079   4.617   3.836   6.688 -1.1258 -1.0662 -0.1310
 5816SOL     OW29080   0.675   1.937  12.002  0.1290  0.1001 -0.0237
 5816SOL    HW129081   0.769   1.940  11.986 -0.0944  1.4958 -1.0885
 5816SOL    HW229082   0.658   1.856  11.954 -0.9980  0.6532 -0.5514
 5817SOL     OW29083   2.405   2.005   1.807 -0.4290 -0.3043 -0.3378
 5817SOL    HW129084   2.382   2.064   1.879  1.1182 -0.8277  0.6001
 5817SOL    HW229085   2.431   2.068   1.740 -1.5077  0.5670  0.0634
 5818SOL     OW29086   3.036   4.480   2.254  0.2757  0.4985 -0.6233
 5818SOL    HW129087   3.060   4.570   2.273  1.5231  0.0659 -0.1302
 5818SOL    HW229088   2.965   4.472   2.317  0.5228  0.5475 -0.3416
 5819SOL     OW29089   1.584   0.579   2.941  0.6294 -0.2464  0.3034
 5819SOL    HW129090   1.578   0.659   2.889  1.9458  0.0314  0.5722
 5819SOL    HW229091   1.652   0.598   3.006  2.5746 -1.1888 -1.4538
 5820SOL     OW29092   2.988   4.654   2.882  0.0560 -0.1880  0.1071
 5820SOL    HW129093   3.070   4.607   2.892  0.8586  1.2177  0.1018
 5820SOL    HW229094   2.965   4.633   2.791  1.4988  0.9629 -0.5216
 5821SOL     OW29095   3.459   1.586   3.877 -0.2440  0.2525 -0.4487
 5821SOL    HW129096   3.539   1.637   3.890 -1.6047  1.8294  1.9697
 5821SOL    HW229097   3.447   1.595   3.783 -2.9710  0.9197 -0.0447
 5822SOL     OW29098   0.538   2.606   1.560 -0.2535  0.1679  0.3007
 5822SOL    HW129099   0.491   2.568   1.635  1.0409  2.1488  2.1438
 5822SOL    HW229100   0.620   2.635   1.601 -0.4608 -0.8006  1.4106
 5823SOL     OW29101   2.577   2.567   8.523  0.0280 -0.4551  0.3221
 5823SOL    HW129102   2.531   2.559   8.439  2.7184  0.6165 -1.2385
 5823SOL    HW229103   2.647   2.629   8.503 -2.2842  1.9536 -0.2954
 5824SOL     OW29104   3.102   1.038  15.191 -0.3979  0.3565  0.4446
 5824SOL    HW129105   3.178   1.071  15.143  0.0304  0.1947  1.0167
 5824SOL    HW229106   3.138   1.014  15.276  1.5956 -0.7567 -0.7172
 5825SOL     OW29107   3.685   0.997   2.431 -0.2963  0.0381 -0.2070
 5825SOL    HW129108   3.619   0.999   2.361  1.7475 -2.0707 -2.1841
 5825SOL    HW229109   3.690   1.087   2.463 -0.7111  0.0148 -0.0726
 5826SOL     OW29110   0.011   1.575  15.146 -0.0018  0.5909  0.0159
 5826SOL    HW129111   4.672   1.636  15.148 -0.0899  0.4367  1.6219
 5826SOL    HW229112   4.716   1.504  15.089  0.7363  2.1088 -2.2657
 5827SOL     OW29113   3.384   2.245   5.882  0.2371  0.0669 -0.1233
 5827SOL    HW129114   3.289   2.258   5.873  0.0043 -1.2151  0.4045
 5827SOL    HW229115   3.401   2.282   5.969  0.4359 -1.6621  0.5799
 5828SOL     OW29116   4.567   0.704   2.263 -0.2370  0.4902  0.5627
 5828SOL    HW129117   4.592   0.749   2.344 -2.5365  0.5291  1.2647
 5828SOL    HW229118   4.591   0.613   2.280  2.4641  1.5001  2.0097
 5829SOL     OW29119   0.082   3.194   3.701 -0.3044 -0.4354 -0.1701
 5829SOL    HW129120   0.103   3.107   3.668 -0.0392  0.2712 -1.9151
 5829SOL    HW229121   0.076   3.252   3.625  0.3814 -0.8350 -0.5252
 5830SOL     OW29122   2.908   0.231   7.170 -0.1638  0.1292  0.4232
 5830SOL    HW129123   2.923   0.244   7.263  3.5668 -1.1164  0.0241
 5830SOL    HW229124   2.991   0.267   7.138 -1.0052  0.3637 -1.5133
 5831SOL     OW29125   0.714   1.284  15.306 -0.1984 -0.0869  0.3363
 5831SOL    HW129126   0.689   1.327  15.224 -1.0029 -0.9562  0.1236
 5831SOL    HW229127   0.674   1.345  15.367 -0.6577  0.2565 -0.3182
 5832SOL     OW29128   3.119   2.779   6.026  0.1436  0.0856  0.0898
 5832SOL    HW129129   3.207   2.756   5.995 -1.0710 -1.9606 -1.8052
 5832SOL    HW229130   3.108   2.698   6.076 -1.4119 -0.8780 -1.7995
 5833SOL     OW29131   2.105   0.533   5.430 -0.5462  0.2034 -0.2471
 5833SOL    HW129132   2.198   0.511   5.435 -0.3631  0.6835 -1.5759
 5833SOL    HW229133   2.110   0.617   5.476 -0.7360  1.4467 -2.4709
 5834SOL     OW29134   0.765   0.840  15.942 -0.2834  0.0856 -0.1345
 5834SOL    HW129135   0.833   0.840  15.875  0.4659 -0.0911  0.6292
 5834SOL    HW229136   0.816   0.842  16.023 -0.2576  1.6058 -0.1845
 5835SOL     OW29137   3.245   0.430  10.743  0.4991  0.4346 -0.1429
 5835SOL    HW129138   3.172   0.372  10.724  0.0237  0.3230  1.9775
 5835SOL    HW229139   3.222   0.517  10.711  0.6531 -0.0493 -1.5242
 5836SOL     OW29140   0.443   1.091   7.773  0.5127  0.0131  0.5647
 5836SOL    HW129141   0.532   1.062   7.754  0.1967 -1.0897  0.7868
 5836SOL    HW229142   0.398   1.076   7.690  3.2184 -1.4115 -0.6337
 5837SOL     OW29143   0.205   3.384   3.853 -0.0084  0.1968  0.4023
 5837SOL    HW129144   0.146   3.329   3.801  0.1768 -0.0291  0.4312
 5837SOL    HW229145   0.270   3.332   3.902  0.1753 -0.6717 -0.7390
 5838SOL     OW29146   3.641   0.834  15.071 -0.1636  0.2021  0.2849
 5838SOL    HW129147   3.594   0.779  15.007 -0.3664  0.2834  0.3657
 5838SOL    HW229148   3.635   0.920  15.030 -1.1231 -1.5778 -3.3281
 5839SOL     OW29149   0.306   2.843  10.243 -0.7284  0.0821 -0.0434
 5839SOL    HW129150   0.364   2.851  10.319 -0.5904  1.7049 -0.3024
 5839SOL    HW229151   0.368   2.829  10.172  0.1179 -1.3810  0.9791
 5840SOL     OW29152   3.732   1.275  10.981 -0.0847 -0.7665  0.4521
 5840SOL    HW129153   3.759   1.184  10.967 -0.4807 -0.9133  0.6526
 5840SOL    HW229154   3.814   1.323  10.971 -1.0614  1.3885  2.7113
 5841SOL     OW29155   1.324   0.925  11.705  0.0499 -0.2453  0.5493
 5841SOL    HW129156   1.369   0.951  11.785  0.5011  1.2010 -0.1844
 5841SOL    HW229157   1.243   0.974  11.715  0.1008 -0.3761  1.6120
 5842SOL     OW29158   1.836   3.811  16.606 -0.4531  0.1416 -0.3605
 5842SOL    HW129159   1.772   3.833  16.539 -1.4090  2.3516  1.2912
 5842SOL    HW229160   1.918   3.849  16.574  0.9702 -1.4619  1.4233
 5843SOL     OW29161   1.497   2.501   3.853  0.3611 -0.4620  0.4547
 5843SOL    HW129162   1.587   2.534   3.855  0.3406 -0.3955  0.2879
 5843SOL    HW229163   1.461   2.554   3.782  0.4557  0.2854  0.9688
 5844SOL     OW29164   0.241   1.173  17.471 -0.1024  0.1970 -0.4511
 5844SOL    HW129165   0.307   1.120  17.426  0.7221  1.0307 -0.2229
 5844SOL    HW229166   0.214   1.112  17.539 -0.9973 -0.2859 -1.2430
 5845SOL     OW29167   4.024   2.624  11.031  0.2263 -0.0314  0.5924
 5845SOL    HW129168   3.971   2.584  11.100 -1.9894 -1.9262 -2.2449
 5845SOL    HW229169   3.969   2.700  11.016  0.4144  0.2646  1.3738
 5846SOL     OW29170   1.656   1.693   6.555  0.5116  0.0360  0.2228
 5846SOL    HW129171   1.593   1.724   6.490 -0.5386 -1.6022  0.4830
 5846SOL    HW229172   1.737   1.744   6.546  0.6279 -0.2791 -0.5214
 5847SOL     OW29173   3.426   0.953   8.547 -0.5029  0.1302  0.1148
 5847SOL    HW129174   3.376   1.026   8.584  0.0014  0.1381  0.7835
 5847SOL    HW229175   3.384   0.936   8.463 -1.0803 -2.5413  0.9379
 5848SOL     OW29176   2.876   3.026   3.421  0.2942  0.7061 -0.4874
 5848SOL    HW129177   2.904   3.091   3.487 -0.2679  1.4911 -1.0169
 5848SOL    HW229178   2.873   2.941   3.464 -2.4546  1.7509  1.4502
 5849SOL     OW29179   0.295   3.268   2.125 -0.0800  0.2055 -0.6049
 5849SOL    HW129180   0.264   3.184   2.158  0.5117  1.0559  2.1115
 5849SOL    HW229181   0.372   3.252   2.070  0.0227 -0.0206 -0.3905
 5850SOL     OW29182   1.125   2.149   9.200  0.0133 -0.2654 -0.0455
 5850SOL    HW129183   1.078   2.078   9.157  0.1711  0.1830 -0.9747
 5850SOL    HW229184   1.216   2.135   9.177  0.7471  2.0634  1.3999
 5851SOL     OW29185   0.188   3.039   8.140  0.3309 -0.5532 -0.5737
 5851SOL    HW129186   0.203   3.017   8.048 -0.6897  0.4704 -0.9845
 5851SOL    HW229187   0.196   2.957   8.189 -0.0228 -0.9679 -1.1974
 5852SOL     OW29188   3.850   0.734   3.864  0.0885 -0.1587 -0.1566
 5852SOL    HW129189   3.815   0.712   3.778  1.3164 -0.9285 -0.4571
 5852SOL    HW229190   3.776   0.775   3.908 -0.4316  0.0717 -1.2411
 5853SOL     OW29191   3.144   0.175   2.160  0.3194 -0.5973  0.2524
 5853SOL    HW129192   3.165   0.146   2.072  0.5318  2.0087 -0.5671
 5853SOL    HW229193   3.126   0.095   2.209  0.1367 -0.7982 -0.1544
 5854SOL     OW29194   1.903   2.822   3.002  0.2707  0.1443  0.6156
 5854SOL    HW129195   1.823   2.804   2.954 -0.0075  0.5847  0.9090
 5854SOL    HW229196   1.872   2.808   3.092  0.7933 -0.9183  0.6301
 5855SOL     OW29197   2.654   4.542   3.520 -0.3030  0.8317  0.6687
 5855SOL    HW129198   2.718   4.570   3.454 -2.2083 -0.5814 -1.7862
 5855SOL    HW229199   2.574   4.593   3.508 -1.7285 -1.2103  1.4894
 5856SOL     OW29200   0.704   3.902   2.915 -0.1193  0.1069  0.3787
 5856SOL    HW129201   0.742   3.825   2.873 -0.1395  0.3145 -0.0164
 5856SOL    HW229202   0.678   3.855   2.995  0.1415 -0.3194  0.2061
 5857SOL     OW29203   2.109   3.336   9.797 -0.6694  0.0700  0.3887
 5857SOL    HW129204   2.169   3.275   9.840 -0.8344  1.5968  2.7687
 5857SOL    HW229205   2.173   3.406   9.783 -0.0746 -0.9574 -2.0296
 5858SOL     OW29206   3.321   0.688   2.352 -0.3225 -0.2317  0.1318
 5858SOL    HW129207   3.401   0.735   2.376 -0.3698 -0.5725  0.9587
 5858SOL    HW229208   3.332   0.662   2.260  1.4733  0.9780 -0.0010
 5859SOL     OW29209   3.813   2.877   6.408  0.3050 -0.2248  0.3875
 5859SOL    HW129210   3.867   2.858   6.331 -0.6148 -0.2832 -0.2414
 5859SOL    HW229211   3.726   2.858   6.374  0.0635 -1.5055  1.7154
 5860SOL     OW29212   0.197   4.263   8.241 -0.1086  0.4098  0.2009
 5860SOL    HW129213   0.292   4.258   8.228  0.0775 -0.6811  1.9638
 5860SOL    HW229214   0.159   4.268   8.153 -0.5734 -0.7041  0.3305
 5861SOL     OW29215   0.399   3.483   4.758 -0.0631 -0.3391 -0.0824
 5861SOL    HW129216   0.398   3.405   4.703  1.8815  0.2391 -0.9585
 5861SOL    HW229217   0.485   3.485   4.801 -0.4025  0.6906  0.5432
 5862SOL     OW29218   1.036   3.761  14.436 -0.0249  0.4133  0.3387
 5862SOL    HW129219   1.124   3.799  14.434  0.5106 -0.8138  0.4026
 5862SOL    HW229220   0.987   3.843  14.439  1.5990  1.2765  2.8469
 5863SOL     OW29221   3.840   0.326  11.829 -0.5096 -0.2784  0.0746
 5863SOL    HW129222   3.881   0.384  11.891 -0.5319 -0.8074  0.5850
 5863SOL    HW229223   3.862   0.361  11.742 -0.4337 -1.0136 -0.2096
 5864SOL     OW29224   2.995   2.106  12.392 -0.3910  0.5120  0.2109
 5864SOL    HW129225   2.970   2.116  12.484  0.2118 -0.6543  0.5086
 5864SOL    HW229226   2.931   2.044  12.358  0.3319 -0.9328  1.4704
 5865SOL     OW29227   4.371   0.063   5.251  0.0685  0.3455 -0.7335
 5865SOL    HW129228   4.373   0.148   5.207 -2.3772  0.4183 -0.7079
 5865SOL    HW229229   4.286   0.025   5.229  0.5569  0.0166 -2.0787
 5866SOL     OW29230   0.217   0.152  17.249 -0.4594  0.1566  0.1023
 5866SOL    HW129231   0.246   0.173  17.159 -1.7354  0.3412 -0.2612
 5866SOL    HW229232   0.228   0.227  17.307  0.0508 -1.0610  1.5572
 5867SOL     OW29233   2.462   0.212  11.560 -0.2862  0.2554  0.0470
 5867SOL    HW129234   2.432   0.149  11.625 -0.1991  2.1756  1.9558
 5867SOL    HW229235   2.551   0.235  11.587 -0.0918 -0.0141 -0.3640
 5868SOL     OW29236   3.253   4.670  16.755 -1.0226 -0.0871 -0.2286
 5868SOL    HW129237   3.327   4.610  16.764 -0.0582  1.1275 -0.0150
 5868SOL    HW229238   3.180   4.623  16.796 -0.0916  0.2234  1.7836
 5869SOL     OW29239   3.580   1.627   9.673  0.1074  0.2642 -0.1781
 5869SOL    HW129240   3.627   1.697   9.719 -0.2864  0.4442 -0.0431
 5869SOL    HW229241   3.652   1.597   9.617 -0.4573  1.5104 -1.5644
 5870SOL     OW29242   1.817   0.300  11.860  0.2955  0.6340  0.2483
 5870SOL    HW129243   1.821   0.299  11.955 -2.2193  2.3532  0.3520
 5870SOL    HW229244   1.837   0.389  11.831  0.2244  0.4462 -0.3855
 5871SOL     OW29245   3.404   1.248   6.275  0.4836  0.1083  0.0573
 5871SOL    HW129246   3.387   1.326   6.328 -0.5601  0.5559 -0.9154
 5871SOL    HW229247   3.430   1.188   6.345 -0.3530 -0.2868  0.0423
 5872SOL     OW29248   4.256   1.226   7.784  0.2895  0.6790 -0.1856
 5872SOL    HW129249   4.351   1.235   7.796  0.1884  3.0330 -1.1930
 5872SOL    HW229250   4.256   1.165   7.711 -0.2223  1.5981 -0.9480
 5873SOL     OW29251   0.147   3.925   3.272  0.1763 -0.2330  0.0500
 5873SOL    HW129252   0.098   3.843   3.267  0.0420 -0.1232 -0.4317
 5873SOL    HW229253   0.099   3.967   3.343 -0.8094 -1.0484 -0.1231
 5874SOL     OW29254   0.128   3.528   6.390 -0.0161 -0.4689  0.7682
 5874SOL    HW129255   0.215   3.493   6.409 -0.4352 -0.4931  2.6163
 5874SOL    HW229256   0.098   3.530   6.481 -1.0049 -0.6941  0.4477
 5875SOL     OW29257   3.777   0.831   5.319  0.0455 -0.3177  0.1496
 5875SOL    HW129258   3.859   0.879   5.309 -0.7528  0.7072 -1.3761
 5875SOL    HW229259   3.768   0.780   5.238 -0.5340 -0.0236  0.0298
 5876SOL     OW29260   2.983   2.460   7.585  0.3828 -0.4282  0.4314
 5876SOL    HW129261   3.023   2.385   7.542  1.2573  0.6580 -0.6555
 5876SOL    HW229262   2.894   2.427   7.596 -0.2928  1.8239  1.6414
 5877SOL     OW29263   1.336   4.595   8.215  0.6222  0.2169 -0.5624
 5877SOL    HW129264   1.336   4.642   8.298  0.7543 -0.3117 -0.2633
 5877SOL    HW229265   1.262   4.535   8.226  1.0306 -0.1125  0.3951
 5878SOL     OW29266   2.799   1.013   8.292 -0.3971  0.2640  0.6454
 5878SOL    HW129267   2.835   1.011   8.203  2.4960  0.1892  1.7977
 5878SOL    HW229268   2.803   1.108   8.305 -2.7967  0.4838 -0.3022
 5879SOL     OW29269   3.517   0.300   2.228 -0.3381  0.1574 -0.2182
 5879SOL    HW129270   3.486   0.221   2.273 -0.3305  1.0237  1.2724
 5879SOL    HW229271   3.603   0.312   2.266 -1.6236  0.1674  2.6678
 5880SOL     OW29272   2.342   0.613   0.906 -0.1854 -0.0021 -0.0153
 5880SOL    HW129273   2.394   0.537   0.878  0.8701  0.2163  1.3686
 5880SOL    HW229274   2.357   0.625   1.000  2.4533  2.3392 -0.7445
 5881SOL     OW29275   2.985   0.912   6.048 -0.0385 -0.4097  0.0154
 5881SOL    HW129276   2.905   0.864   6.029  0.2576 -0.5769 -0.7939
 5881SOL    HW229277   3.020   0.905   5.959 -0.2531 -1.7770  0.0388
 5882SOL     OW29278   3.076   0.419   2.800 -0.2345  0.2639 -0.2670
 5882SOL    HW129279   3.067   0.331   2.836 -0.5239 -0.3458 -1.8198
 5882SOL    HW229280   3.074   0.467   2.882 -2.2101 -0.8315  0.3264
 5883SOL     OW29281   0.812   1.804   4.479 -1.0253 -0.0010  0.0704
 5883SOL    HW129282   0.795   1.792   4.386 -0.5414 -1.3607  0.1708
 5883SOL    HW229283   0.907   1.799   4.471 -0.8351  2.2599  0.8228
 5884SOL     OW29284   3.525   2.346   7.134  0.0813 -0.1749 -0.1959
 5884SOL    HW129285   3.518   2.367   7.041 -3.5720 -0.5494 -0.0008
 5884SOL    HW229286   3.493   2.256   7.137  1.4207 -0.5715  2.3990
 5885SOL     OW29287   0.986   0.661   1.129  0.7120  0.0269 -0.1662
 5885SOL    HW129288   0.993   0.591   1.194  1.2337  1.7371  1.6232
 5885SOL    HW229289   1.067   0.710   1.140  0.9936 -0.1792 -1.2972
 5886SOL     OW29290   2.480   3.905   2.830 -0.3781 -0.0132  0.0645
 5886SOL    HW129291   2.464   3.823   2.782 -0.5025 -0.1061  0.2643
 5886SOL    HW229292   2.394   3.942   2.851 -1.7479 -2.6993 -0.7747
 5887SOL     OW29293   0.834   2.573   5.209 -0.7136  0.7394 -0.0505
 5887SOL    HW129294   0.818   2.657   5.167 -2.2141 -0.2642 -1.4900
 5887SOL    HW229295   0.901   2.594   5.274  0.9835  0.4156 -1.6900
 5888SOL     OW29296   0.816   4.308   6.446  0.0102 -0.3278  0.2592
 5888SOL    HW129297   0.781   4.316   6.357  0.0431  1.8173  0.4577
 5888SOL    HW229298   0.783   4.389   6.485 -1.0264 -0.5629 -0.1195
 5889SOL     OW29299   0.122   1.326   7.554  0.3019  0.2736 -0.0778
 5889SOL    HW129300   0.121   1.257   7.487 -2.1398 -0.1704  0.4320
 5889SOL    HW229301   0.210   1.363   7.555  0.6907 -0.6646  0.6540
 5890SOL     OW29302   2.672   3.170   8.588 -0.3963 -0.1323 -0.3557
 5890SOL    HW129303   2.616   3.096   8.610  0.5279 -0.1868  1.8443
 5890SOL    HW229304   2.755   3.173   8.636 -0.6932 -2.9591  0.3701
 5891SOL     OW29305   1.526   4.584   4.594  0.2287  0.7748 -0.5666
 5891SOL    HW129306   1.612   4.551   4.622  0.0076 -1.2607 -2.2962
 5891SOL    HW229307   1.540   4.566   4.501  1.4537  2.8982 -0.7826
 5892SOL     OW29308   1.621   1.572   7.556 -0.3092  0.1322  0.0778
 5892SOL    HW129309   1.671   1.628   7.496  2.1986 -2.0713  0.1050
 5892SOL    HW229310   1.683   1.565   7.629  1.1907 -1.3140 -1.3421
 5893SOL     OW29311   3.010   2.788   6.440  0.2176  0.0006  0.1887
 5893SOL    HW129312   3.074   2.741   6.386 -0.0790  2.8886 -2.6544
 5893SOL    HW229313   3.005   2.738   6.522 -2.4070 -0.4490 -0.2385
 5894SOL     OW29314   0.339   3.888   3.078 -0.5916 -0.0082  0.3269
 5894SOL    HW129315   0.267   3.858   3.022 -0.1139  0.1402 -0.3616
 5894SOL    HW229316   0.288   3.892   3.159  1.7583  2.6123  1.6901
 5895SOL     OW29317   4.612   3.908   5.241  0.2414  0.1627 -0.2254
 5895SOL    HW129318   4.633   3.961   5.318  0.4390 -3.1834  1.9902
 5895SOL    HW229319   4.667   3.943   5.171 -1.1843  1.5732 -0.6277
 5896SOL     OW29320   2.710   3.900   0.777 -0.3269 -0.5872  0.4936
 5896SOL    HW129321   2.658   3.976   0.805 -3.6178 -0.6093 -5.4399
 5896SOL    HW229322   2.787   3.904   0.834  0.0161  0.1112 -0.0205
 5897SOL     OW29323   4.511   4.067   9.653  0.0501  0.4939 -0.0310
 5897SOL    HW129324   4.492   4.091   9.562 -0.1086 -0.4431 -0.2555
 5897SOL    HW229325   4.425   4.027   9.665  0.5024  0.1041  1.9436
 5898SOL     OW29326   2.329   3.093   7.102  0.5738 -0.1317 -0.3859
 5898SOL    HW129327   2.297   3.160   7.162  3.6195 -0.5236  1.7138
 5898SOL    HW229328   2.420   3.079   7.129 -0.2711 -1.5763  1.6758
 5899SOL     OW29329   2.202   4.374   3.668 -0.0140 -0.1216  0.2495
 5899SOL    HW129330   2.145   4.372   3.744 -1.2458 -3.3776 -0.7573
 5899SOL    HW229331   2.239   4.286   3.668 -0.9814 -0.5137  2.2011
 5900SOL     OW29332   4.474   2.490   1.706  0.0481 -0.4085 -0.2181
 5900SOL    HW129333   4.432   2.408   1.681 -0.5647 -0.0289 -0.4197
 5900SOL    HW229334   4.517   2.465   1.788  1.8448 -0.1050 -1.0475
 5901SOL     OW29335   2.697   2.277   9.712  0.1190  0.5840 -0.0913
 5901SOL    HW129336   2.771   2.219   9.730 -1.4874 -2.0562 -1.9881
 5901SOL    HW229337   2.724   2.297   9.622  0.7661 -0.7147 -0.1859
 5902SOL     OW29338   1.174   2.014   4.832  0.1807 -0.3847 -0.2270
 5902SOL    HW129339   1.119   1.940   4.807  0.3396  0.3060 -2.6586
 5902SOL    HW229340   1.122   2.051   4.904 -1.7937 -3.0043 -0.3280
 5903SOL     OW29341   2.439   2.576   9.758  0.5153 -0.0312  0.0402
 5903SOL    HW129342   2.475   2.556   9.672  1.0611  0.2692  0.2010
 5903SOL    HW229343   2.367   2.626   9.720  0.5849 -1.5134 -2.0282
 5904SOL     OW29344   4.231   1.650   6.469  0.0830 -0.2982  0.4554
 5904SOL    HW129345   4.278   1.658   6.552  2.0880 -1.8753 -0.5340
 5904SOL    HW229346   4.293   1.694   6.410 -0.8039 -1.4236 -1.3327
 5905SOL     OW29347   3.765   1.037  14.896  0.1732 -0.1846  0.3602
 5905SOL    HW129348   3.786   1.049  14.803  1.2340  1.8368  0.8698
 5905SOL    HW229349   3.706   1.111  14.914  1.0236  0.5340  0.1939
 5906SOL     OW29350   0.838   4.545  12.084 -0.2292 -0.0291  0.4732
 5906SOL    HW129351   0.774   4.505  12.025  1.7248 -2.0605 -0.2836
 5906SOL    HW229352   0.814   4.502  12.166  0.0045 -1.2987 -0.1146
 5907SOL     OW29353   0.118   1.626   4.656  0.1682  0.4345 -0.3325
 5907SOL    HW129354   0.106   1.631   4.561 -0.6164 -1.2489 -0.3098
 5907SOL    HW229355   0.037   1.667   4.686 -0.8246 -1.4500 -0.4364
 5908SOL     OW29356   3.538   3.677  16.113  0.1290  0.1318  0.2078
 5908SOL    HW129357   3.537   3.629  16.196 -2.0026 -0.6869 -0.3042
 5908SOL    HW229358   3.591   3.613  16.065  0.6208  0.4585  0.3052
 5909SOL     OW29359   3.868   2.674  10.297 -0.3032 -0.5191  0.6482
 5909SOL    HW129360   3.920   2.748  10.328 -0.3410  0.5433 -1.7969
 5909SOL    HW229361   3.789   2.722  10.270 -1.7336 -4.1830 -1.7258
 5910SOL     OW29362   1.570   1.443   7.175 -0.4251  0.2869  0.1451
 5910SOL    HW129363   1.614   1.505   7.116 -1.1110  1.1690  0.5493
 5910SOL    HW229364   1.479   1.456   7.148 -0.1724 -0.6002 -1.1424
 5911SOL     OW29365   2.422   0.713   8.690 -0.4907  0.7043  0.2923
 5911SOL    HW129366   2.443   0.645   8.753 -0.0303  2.9830  2.6257
 5911SOL    HW229367   2.514   0.736   8.674 -0.8818  2.7316  0.9613
 5912SOL     OW29368   0.766   3.991   9.970 -0.4543  0.3510 -0.2546
 5912SOL    HW129369   0.779   3.901   9.941  2.7616  0.1388  1.8507
 5912SOL    HW229370   0.723   3.977  10.055  0.0500  2.0107  0.2687
 5913SOL     OW29371   3.017   4.345   2.523 -0.4407  0.8500 -0.4052
 5913SOL    HW129372   2.983   4.260   2.494 -0.0845  1.5952 -2.9457
 5913SOL    HW229373   3.109   4.334   2.496  0.1285  0.7131  1.5478
 5914SOL     OW29374   0.491   2.708   2.516 -0.1889  0.0227  0.1550
 5914SOL    HW129375   0.542   2.765   2.574 -1.7991  0.3725  1.2393
 5914SOL    HW229376   0.425   2.772   2.489  0.4705  0.3957 -0.5687
 5915SOL     OW29377   4.596   3.094   8.393  0.0537 -0.1289 -0.3428
 5915SOL    HW129378   4.562   3.023   8.339 -1.8489  1.2255 -0.9375
 5915SOL    HW229379   4.599   3.050   8.478 -1.3489 -0.1345 -0.3029
 5916SOL     OW29380   2.944   0.637   5.719  0.7353 -0.1545 -0.6048
 5916SOL    HW129381   2.861   0.679   5.740 -0.1746 -1.4951 -1.5290
 5916SOL    HW229382   2.980   0.601   5.800  1.5827  1.8248 -0.0958
 5917SOL     OW29383   2.433   4.338   2.091  0.9856  0.0778 -0.1487
 5917SOL    HW129384   2.387   4.260   2.060  0.0565  0.4070  0.3856
 5917SOL    HW229385   2.521   4.305   2.072  0.9362  0.1419 -0.4913
 5918SOL     OW29386   2.969   0.291  17.098 -0.4712 -0.2052 -0.1098
 5918SOL    HW129387   2.912   0.267  17.171 -2.9964 -0.6090 -2.2228
 5918SOL    HW229388   3.009   0.369  17.136 -1.1857  0.5328 -0.8953
 5919SOL     OW29389   1.183   0.838   1.089 -0.0339  0.0323  0.3369
 5919SOL    HW129390   1.263   0.845   1.143  1.3904 -1.1097 -1.6349
 5919SOL    HW229391   1.154   0.929   1.098 -1.4308 -0.5746  1.9869
 5920SOL     OW29392   1.518   1.426   3.434 -0.2713  0.3401 -0.5042
 5920SOL    HW129393   1.462   1.503   3.440 -1.6323 -0.7814  0.8433
 5920SOL    HW229394   1.491   1.388   3.350 -0.5365 -0.0162 -0.2552
 5921SOL     OW29395   2.259   1.855   8.987 -0.4967  0.0955  0.1486
 5921SOL    HW129396   2.256   1.803   9.067  3.4733 -1.4311 -0.6666
 5921SOL    HW229397   2.308   1.934   9.011  0.7932  0.1002 -2.4565
 5922SOL     OW29398   3.328   0.904   0.423 -0.5158  0.5257  0.1963
 5922SOL    HW129399   3.235   0.884   0.413 -0.2435 -1.3477  1.5315
 5922SOL    HW229400   3.316   0.991   0.461 -2.9121 -0.1101  0.9151
 5923SOL     OW29401   1.003   1.235  15.318 -0.3773 -0.0958 -0.3848
 5923SOL    HW129402   0.912   1.256  15.338 -0.4586  0.3746 -1.2576
 5923SOL    HW229403   1.047   1.317  15.340 -0.4776 -0.6564  1.8801
 5924SOL     OW29404   1.425   3.548   8.965  0.3823 -0.4459 -0.2168
 5924SOL    HW129405   1.354   3.513   9.019  1.5018 -0.5631  1.1907
 5924SOL    HW229406   1.468   3.468   8.937  1.1179 -1.1311  2.8493
 5925SOL     OW29407   0.559   2.133   6.015 -0.0700  0.1842  0.3568
 5925SOL    HW129408   0.468   2.150   6.038 -0.2369 -1.5092  0.9792
 5925SOL    HW229409   0.598   2.217   6.040 -0.2042  0.0352  1.0716
 5926SOL     OW29410   0.491   1.358   7.778 -0.4155 -0.5265  0.8006
 5926SOL    HW129411   0.497   1.406   7.861  1.0472  0.0295  0.3582
 5926SOL    HW229412   0.464   1.272   7.809 -2.3609 -0.1816  0.1298
 5927SOL     OW29413   0.633   4.057  13.597 -0.0958 -0.3275 -0.2585
 5927SOL    HW129414   0.668   3.973  13.566 -4.9683 -2.2894 -0.4720
 5927SOL    HW229415   0.704   4.116  13.572 -2.1900  2.0954 -0.3714
 5928SOL     OW29416   1.469   0.276  11.980  0.4896 -0.6974 -0.1687
 5928SOL    HW129417   1.481   0.317  12.066 -2.1839 -1.7033  0.6827
 5928SOL    HW229418   1.424   0.349  11.937  0.6803  0.2533  1.2339
 5929SOL     OW29419   1.592   0.832   2.538  0.2761 -0.4520  0.9269
 5929SOL    HW129420   1.547   0.791   2.465 -0.7078  0.2554  1.1401
 5929SOL    HW229421   1.617   0.912   2.492 -0.4329 -0.8899 -0.2030
 5930SOL     OW29422   3.326   2.249  11.781  0.1176 -0.6005  0.0094
 5930SOL    HW129423   3.370   2.264  11.698 -0.3186 -3.5064 -0.7245
 5930SOL    HW229424   3.235   2.229  11.760  0.1961  1.2342 -2.0780
 5931SOL     OW29425   2.803   3.536   3.133 -0.0148  0.8146 -0.7296
 5931SOL    HW129426   2.806   3.582   3.217 -0.1881  0.6930 -0.6541
 5931SOL    HW229427   2.889   3.556   3.099 -0.0776  0.1630 -1.2730
 5932SOL     OW29428   2.702   3.505   5.485 -0.4101  0.1804 -0.3291
 5932SOL    HW129429   2.625   3.541   5.528 -1.0651 -0.4175 -1.0033
 5932SOL    HW229430   2.737   3.433   5.538 -1.0893 -0.1001 -0.2619
 5933SOL     OW29431   1.480   1.255   2.487  0.4179 -0.4142  0.4111
 5933SOL    HW129432   1.401   1.296   2.453  0.5670  0.8195  1.5390
 5933SOL    HW229433   1.472   1.257   2.582 -3.1980 -1.0231  0.1194
 5934SOL     OW29434   1.989   0.663   3.581  0.8018  0.4264 -0.0859
 5934SOL    HW129435   2.073   0.639   3.621  0.7530  0.5070  0.0619
 5934SOL    HW229436   1.994   0.651   3.486  0.6074 -0.9368  0.0734
 5935SOL     OW29437   4.508   0.921   0.599  0.4470  0.0471 -0.2137
 5935SOL    HW129438   4.502   0.852   0.665 -1.7072  2.3618  2.0023
 5935SOL    HW229439   4.452   0.988   0.638 -0.8095 -0.4930 -1.1075
 5936SOL     OW29440   0.263   1.412  16.699 -0.0372 -0.0290 -0.2837
 5936SOL    HW129441   0.176   1.451  16.710 -0.4406 -0.4763 -1.9019
 5936SOL    HW229442   0.242   1.323  16.672 -1.5977  0.2548  0.0160
 5937SOL     OW29443   3.689   0.148  14.940 -0.5064 -0.2131 -0.1621
 5937SOL    HW129444   3.595   0.168  14.932 -0.1240  0.1930 -3.9359
 5937SOL    HW229445   3.681   0.054  14.921 -0.3140 -0.1001 -0.8049
 5938SOL     OW29446   4.462   3.731   1.732  0.2023 -0.2320  0.0448
 5938SOL    HW129447   4.371   3.741   1.759 -0.2013 -2.4948 -0.4497
 5938SOL    HW229448   4.493   3.814   1.769  0.9576 -0.2725 -0.4804
 5939SOL     OW29449   0.635   4.548   1.552  0.0982  0.0838 -0.0370
 5939SOL    HW129450   0.547   4.564   1.517  0.5086  0.2101 -0.9882
 5939SOL    HW229451   0.664   4.491   1.481 -1.4746 -0.3065 -0.3613
 5940SOL     OW29452   0.241   4.200   6.167 -0.2926  0.2313 -0.2101
 5940SOL    HW129453   0.197   4.241   6.241 -1.0414 -0.1841 -0.4284
 5940SOL    HW229454   0.182   4.239   6.102  0.7917  1.7769 -0.2598
 5941SOL     OW29455   1.402   3.901   2.069  0.0391  0.3130  0.3644
 5941SOL    HW129456   1.362   3.826   2.025  1.6997 -0.6001  0.3669
 5941SOL    HW229457   1.452   3.846   2.130  0.5316  1.6195  1.1238
 5942SOL     OW29458   0.905   1.245   3.839  0.2146 -0.0417  0.2881
 5942SOL    HW129459   0.930   1.287   3.922 -2.3417  1.7659  0.1631
 5942SOL    HW229460   0.869   1.163   3.872 -0.4194 -1.3339 -3.5590
 5943SOL     OW29461   3.617   2.390   0.559  0.6231 -0.5377 -0.0987
 5943SOL    HW129462   3.665   2.458   0.605  2.3275 -0.3838 -2.0974
 5943SOL    HW229463   3.593   2.437   0.479 -0.9109  0.9023  1.2135
 5944SOL     OW29464   0.117   2.448   3.230  0.5068  0.5926  0.0793
 5944SOL    HW129465   0.119   2.365   3.182  0.2731  0.1795  0.7916
 5944SOL    HW229466   0.049   2.509   3.201  0.3507 -1.3193 -3.6007
 5945SOL     OW29467   1.162   2.837   5.889 -0.1432  0.1389  0.3277
 5945SOL    HW129468   1.088   2.891   5.860  0.8334  1.0222 -0.5306
 5945SOL    HW229469   1.148   2.757   5.839 -0.1174 -0.9099  2.0154
 5946SOL     OW29470   1.539   0.702   8.016  0.3699 -0.1774  0.1202
 5946SOL    HW129471   1.581   0.768   7.961  0.6552 -1.5494 -1.3318
 5946SOL    HW229472   1.479   0.656   7.957  0.4085  2.2710 -1.8560
 5947SOL     OW29473   3.418   0.307   5.616 -0.0197  0.3847 -0.3807
 5947SOL    HW129474   3.412   0.211   5.608 -0.0439  0.2528  1.2117
 5947SOL    HW229475   3.484   0.315   5.547 -0.5797  1.1135 -0.8189
 5948SOL     OW29476   0.538   2.552   7.382 -0.1824 -0.1102  0.6025
 5948SOL    HW129477   0.528   2.538   7.288  0.3346  1.3090  0.3423
 5948SOL    HW229478   0.445   2.540   7.404 -0.5495  0.6654 -0.5265
 5949SOL     OW29479   0.151   3.310   1.749 -0.3438  0.0326 -0.2502
 5949SOL    HW129480   0.138   3.396   1.790 -0.0735  0.4738 -1.0791
 5949SOL    HW229481   0.246   3.308   1.736 -0.0304 -0.4329  1.9939
 5950SOL     OW29482   1.674   1.170   9.743 -0.5211  0.0825  0.0362
 5950SOL    HW129483   1.641   1.244   9.692  0.9447  0.7998  0.1542
 5950SOL    HW229484   1.619   1.102   9.701 -1.8497  1.6139 -0.7037
 5951SOL     OW29485   2.869   2.548   3.771  0.0762  0.3329  0.1212
 5951SOL    HW129486   2.829   2.516   3.690  1.8766  0.1578 -0.6858
 5951SOL    HW229487   2.891   2.462   3.808  0.3686  1.8010  3.3323
 5952SOL     OW29488   0.894   0.242   5.271 -0.4208  0.2073 -0.3239
 5952SOL    HW129489   0.860   0.180   5.206  1.2140  0.1668 -1.1423
 5952SOL    HW229490   0.844   0.223   5.350  0.5407 -2.2981 -0.3136
 5953SOL     OW29491   4.053   3.782   7.825  0.6809 -0.0558 -0.1681
 5953SOL    HW129492   4.041   3.874   7.848  0.0914  0.1417 -1.2378
 5953SOL    HW229493   4.120   3.755   7.888 -1.2250 -0.2515  1.7898
 5954SOL     OW29494   0.168   1.840  10.127  0.5560 -0.2116 -0.2860
 5954SOL    HW129495   0.189   1.934  10.120 -1.2229  0.1510 -0.7593
 5954SOL    HW229496   0.207   1.830  10.213  0.6152 -0.8483 -0.3907
 5955SOL     OW29497   0.587   3.392   0.415  0.1084  0.1326  0.1345
 5955SOL    HW129498   0.677   3.388   0.382  0.1608  0.3281  0.2529
 5955SOL    HW229499   0.606   3.438   0.497 -1.0368  0.5050  0.1997
 5956SOL     OW29500   1.613   1.446   1.113 -0.6418  0.0777 -0.4024
 5956SOL    HW129501   1.543   1.443   1.177  1.0052  0.7555  1.4225
 5956SOL    HW229502   1.556   1.462   1.038  0.5995  0.1335 -1.3454
 5957SOL     OW29503   0.089   3.878   4.362  0.6064 -0.1446 -0.2503
 5957SOL    HW129504   0.046   3.845   4.283 -0.1044 -0.2956  0.1987
 5957SOL    HW229505   0.041   3.828   4.428  1.6371  0.4073  0.9101
 5958SOL     OW29506   3.131   3.430   2.461 -0.1556  0.1560 -0.3543
 5958SOL    HW129507   3.189   3.491   2.415 -0.3229 -0.1505 -0.9765
 5958SOL    HW229508   3.183   3.414   2.540 -0.3761  0.2316 -0.1957
 5959SOL     OW29509   3.466   3.406   1.153 -0.0999 -0.7032 -0.1527
 5959SOL    HW129510   3.417   3.459   1.216  2.3158  2.0646 -0.6170
 5959SOL    HW229511   3.553   3.406   1.191 -0.9026 -1.0101  1.6940
 5960SOL     OW29512   1.569   1.510   8.007 -0.2186  0.4367  0.3470
 5960SOL    HW129513   1.561   1.455   8.085 -0.1855  2.1860  1.5821
 5960SOL    HW229514   1.512   1.586   8.018 -0.6481 -0.2010  2.3815
 5961SOL     OW29515   1.687   4.177  16.952 -0.7459  0.4429  0.4497
 5961SOL    HW129516   1.593   4.181  16.964 -0.8739  1.8224 -1.1391
 5961SOL    HW229517   1.691   4.110  16.884  1.1712  0.3966  0.5813
 5962SOL     OW29518   2.200   4.448  15.680 -0.4135  0.0117 -0.1727
 5962SOL    HW129519   2.227   4.367  15.723 -0.9274  0.1175  0.3492
 5962SOL    HW229520   2.124   4.468  15.734 -1.2361 -1.3552 -0.8314
 5963SOL     OW29521   4.411   2.829  11.932  0.3318 -0.4951  0.1119
 5963SOL    HW129522   4.355   2.906  11.930  0.2721 -0.5473 -0.4360
 5963SOL    HW229523   4.420   2.797  12.022  1.8310 -0.6986 -0.1070
 5964SOL     OW29524   4.171   2.775   5.318  0.0717  0.4730 -0.2344
 5964SOL    HW129525   4.202   2.685   5.306 -1.1582 -0.1140  1.0729
 5964SOL    HW229526   4.252   2.827   5.321  0.2163  0.3426 -2.0812
 5965SOL     OW29527   4.086   3.884  16.367  0.2938 -0.2730 -0.6364
 5965SOL    HW129528   3.993   3.894  16.348  0.5065  0.9131 -1.0534
 5965SOL    HW229529   4.112   3.972  16.396 -2.5017  0.7301 -1.1664
 5966SOL     OW29530   2.409   0.918  12.345  0.6887 -0.6696  0.0038
 5966SOL    HW129531   2.328   0.872  12.325  1.1851 -1.6310  0.2090
 5966SOL    HW229532   2.367   0.998  12.378  3.4944  1.4768 -1.6456
 5967SOL     OW29533   3.048   4.733  17.312  0.2809  0.6700  0.4865
 5967SOL    HW129534   3.117   4.723  17.378 -0.5575 -1.0423  1.1020
 5967SOL    HW229535   3.095   4.710  17.232 -4.5811 -2.1752 -1.5037
 5968SOL     OW29536   3.478   1.978   6.680 -0.8603  0.1448 -0.1028
 5968SOL    HW129537   3.565   1.962   6.715 -0.6832  0.8189 -0.2453
 5968SOL    HW229538   3.465   1.917   6.607  0.1132 -1.5360  1.1557
 5969SOL     OW29539   2.120   0.215   7.484  0.2406 -0.3379 -0.0479
 5969SOL    HW129540   2.208   0.224   7.520  1.0328  1.1204 -2.3879
 5969SOL    HW229541   2.074   0.267   7.550 -0.8087 -2.3939  0.8330
 5970SOL     OW29542   3.097   1.212   4.423  0.5550  0.0234 -0.2317
 5970SOL    HW129543   3.145   1.139   4.383  1.5570  0.6328 -0.1476
 5970SOL    HW229544   3.125   1.295   4.384  2.8516 -0.2429  0.8047
 5971SOL     OW29545   2.896   1.514   6.001 -0.2175  0.0678 -0.2418
 5971SOL    HW129546   2.963   1.575   6.030  0.4375 -1.2970  1.1224
 5971SOL    HW229547   2.945   1.432   5.991 -1.8014 -0.9214 -0.0409
 5972SOL     OW29548   1.284   1.967  13.012  0.2367  0.5139  0.1655
 5972SOL    HW129549   1.214   1.902  13.022  1.7885 -1.1068  0.3627
 5972SOL    HW229550   1.233   2.046  13.033 -1.1217 -0.7602  1.6571
 5973SOL     OW29551   0.331   2.686   4.409 -0.1092 -0.5785  0.2343
 5973SOL    HW129552   0.242   2.692   4.445  0.8826 -1.9155  2.9395
 5973SOL    HW229553   0.309   2.668   4.318  1.5505 -0.6964 -0.1416
 5974SOL     OW29554   1.116   3.656   3.245  0.1517  0.7739  0.1418
 5974SOL    HW129555   1.135   3.676   3.336  0.9188 -1.2114  0.4155
 5974SOL    HW229556   1.077   3.740   3.219 -0.7016  0.8653  1.6973
 5975SOL     OW29557   1.380   3.315   5.692 -0.0539  0.0937 -0.5225
 5975SOL    HW129558   1.408   3.224   5.678 -1.0999 -0.3763  0.4695
 5975SOL    HW229559   1.467   3.355   5.697  0.5059 -1.2583  0.4652
 5976SOL     OW29560   3.764   3.903   4.463  0.0228  0.2637  0.5576
 5976SOL    HW129561   3.771   3.839   4.534  1.8496 -1.6000 -1.3033
 5976SOL    HW229562   3.673   3.929   4.453 -1.2334 -3.4739  2.2833
 5977SOL     OW29563   3.738   0.018  14.033  0.0896  0.4517  0.0986
 5977SOL    HW129564   3.782   0.088  13.986 -0.3991 -0.1101 -1.1845
 5977SOL    HW229565   3.749   0.058  14.120 -0.0028  0.4551  0.1093
 5978SOL     OW29566   4.331   1.622   8.443  0.0521 -0.0754  0.3086
 5978SOL    HW129567   4.340   1.595   8.534 -0.8866  1.4714  0.8505
 5978SOL    HW229568   4.404   1.581   8.396  0.9770  2.2941 -0.3458
 5979SOL     OW29569   0.888   4.121   2.620  0.5083 -0.0653 -0.5931
 5979SOL    HW129570   0.980   4.143   2.636 -0.3292  0.6620  3.2870
 5979SOL    HW229571   0.868   4.175   2.544 -0.3832 -1.1545 -1.1349
 5980SOL     OW29572   0.117   0.658  10.804  0.2961  0.3713 -0.4830
 5980SOL    HW129573   0.031   0.664  10.847  0.2535 -0.8151 -0.4035
 5980SOL    HW229574   0.153   0.743  10.830  1.4959 -1.0671  2.5810
 5981SOL     OW29575   2.150   0.502   1.505 -0.7335  0.3148  0.3647
 5981SOL    HW129576   2.202   0.523   1.582  0.6517  0.1967 -0.5446
 5981SOL    HW229577   2.102   0.585   1.515 -0.5872  0.5911 -1.1561
 5982SOL     OW29578   2.974   1.262   1.840  0.6971 -0.3243 -0.4488
 5982SOL    HW129579   2.900   1.298   1.791  2.5492  0.2259 -2.8183
 5982SOL    HW229580   3.033   1.336   1.829  0.7085 -0.2934 -0.1855
 5983SOL     OW29581   1.025   4.548   4.517  0.1057  0.1620 -0.3065
 5983SOL    HW129582   0.990   4.479   4.460  1.5227  0.3891 -1.4497
 5983SOL    HW229583   1.096   4.508   4.566  0.1549  0.9308  0.2389
 5984SOL     OW29584   3.360   4.729   3.272 -0.0939  0.4131  0.7446
 5984SOL    HW129585   3.265   0.006   3.267  0.0641  1.5659  0.4645
 5984SOL    HW229586   3.381   4.696   3.184 -1.8426 -0.2579  0.5699
 5985SOL     OW29587   2.299   1.438   7.041 -0.2475 -0.1585 -0.3047
 5985SOL    HW129588   2.331   1.447   7.131  1.6423 -0.0630 -0.9873
 5985SOL    HW229589   2.208   1.466   7.051 -0.1679  0.3465 -1.0021
 5986SOL     OW29590   3.024   1.298  11.749  0.2003 -0.8141  0.5790
 5986SOL    HW129591   3.090   1.337  11.807 -0.3909 -0.2082  0.8369
 5986SOL    HW229592   2.947   1.349  11.775  2.0553  3.3739 -2.2197
 5987SOL     OW29593   3.578   0.509   3.127  0.1548  0.1624  0.1135
 5987SOL    HW129594   3.561   0.422   3.163  0.8413  0.6417  1.6058
 5987SOL    HW229595   3.674   0.507   3.129  0.1896  1.8498  0.6358
 5988SOL     OW29596   0.879   2.407   6.737  0.0061 -0.7472  0.1949
 5988SOL    HW129597   0.962   2.375   6.702  0.3661  0.4517 -0.0690
 5988SOL    HW229598   0.819   2.344   6.699  1.3467 -0.6376 -2.1461
 5989SOL     OW29599   3.360   1.569  13.280 -0.0409  0.3596  0.1445
 5989SOL    HW129600   3.453   1.567  13.258 -0.0388  0.3020  0.1591
 5989SOL    HW229601   3.347   1.649  13.332  0.1027  0.7501 -0.4216
 5990SOL     OW29602   4.244   4.206   0.868  0.1911 -0.0456 -0.4783
 5990SOL    HW129603   4.290   4.161   0.797  0.4773 -1.8014  0.7957
 5990SOL    HW229604   4.310   4.203   0.937 -0.1921  0.0929 -0.1096
 5991SOL     OW29605   0.656   4.511   6.558 -0.1297 -0.4654  0.0936
 5991SOL    HW129606   0.708   4.568   6.615 -1.1496  1.0118 -0.4622
 5991SOL    HW229607   0.579   4.566   6.548 -0.6757 -1.0537  1.1255
 5992SOL     OW29608   2.721   0.853   1.198  0.1979 -0.3350 -0.2031
 5992SOL    HW129609   2.684   0.768   1.175  1.3365 -1.5731  2.4392
 5992SOL    HW229610   2.690   0.909   1.128 -1.0986 -0.0340  0.6133
 5993SOL     OW29611   2.955   1.679   5.744  0.3461 -0.2811  0.3477
 5993SOL    HW129612   2.889   1.621   5.783 -2.1841  3.1533  1.2567
 5993SOL    HW229613   2.947   1.751   5.807  0.2070  1.0643 -1.2234
 5994SOL     OW29614   4.165   4.011   7.495  0.0973  0.6377 -0.0010
 5994SOL    HW129615   4.155   4.010   7.399 -2.1930  0.8427  0.2227
 5994SOL    HW229616   4.070   4.005   7.510 -0.0753 -0.0328 -1.2884
 5995SOL     OW29617   2.178   0.325   4.208 -0.2977 -0.2359 -0.9289
 5995SOL    HW129618   2.111   0.361   4.150  0.4577  2.2256 -0.2496
 5995SOL    HW229619   2.236   0.276   4.148  2.1824  1.3867  0.1346
 5996SOL     OW29620   2.710   1.696  13.480 -0.7375 -0.5050 -0.3968
 5996SOL    HW129621   2.648   1.709  13.552 -1.2479 -0.0923 -0.9203
 5996SOL    HW229622   2.740   1.606  13.492  0.8932 -0.3432 -3.2643
 5997SOL     OW29623   4.670   1.000   5.700  0.4043 -0.0076 -0.0223
 5997SOL    HW129624   0.007   1.031   5.755  0.1179  2.0766 -0.8312
 5997SOL    HW229625   4.592   1.020   5.751  0.2324 -2.1035  0.5491
 5998SOL     OW29626   4.147   1.141  15.295  0.2184  0.5001 -0.4089
 5998SOL    HW129627   4.115   1.190  15.220  1.1771 -1.5782 -2.1666
 5998SOL    HW229628   4.114   1.195  15.367  1.5619  1.2969 -0.3843
 5999SOL     OW29629   3.136   1.469   4.976 -0.4719 -0.4232  0.1879
 5999SOL    HW129630   3.217   1.444   5.021 -0.5956 -0.3540  0.4497
 5999SOL    HW229631   3.084   1.511   5.045  1.2219 -1.0581  1.8521
 6000SOL     OW29632   0.818   1.823   4.177  0.1395 -0.0136  0.2154
 6000SOL    HW129633   0.856   1.865   4.100 -1.0556  1.9501  0.6975
 6000SOL    HW229634   0.837   1.729   4.172 -0.1978 -0.1432  1.2348
 6001SOL     OW29635   3.667   2.717  13.815  0.2382  0.0748 -0.3921
 6001SOL    HW129636   3.754   2.757  13.816  0.5342 -0.5659 -0.0525
 6001SOL    HW229637   3.686   2.636  13.864  1.2829  0.7798  0.3778
 6002SOL     OW29638   0.458   1.991   6.562 -0.3501 -0.3737 -0.7762
 6002SOL    HW129639   0.512   2.052   6.513  1.6116 -0.9687  0.6067
 6002SOL    HW229640   0.476   1.914   6.508  1.7444 -1.4896  1.4660
 6003SOL     OW29641   2.707   4.469   5.842 -0.0389  0.0491 -0.2981
 6003SOL    HW129642   2.631   4.460   5.784 -1.3094  0.1940  1.3440
 6003SOL    HW229643   2.659   4.489   5.922 -1.8900  2.4815 -1.9854
 6004SOL     OW29644   2.543   3.990   5.445  0.1896 -0.5623 -0.1795
 6004SOL    HW129645   2.473   3.951   5.499 -0.4930 -0.8828 -1.2991
 6004SOL    HW229646   2.524   3.943   5.364  0.4323 -1.5924  0.3488
 6005SOL     OW29647   1.806   1.457   5.990 -0.2307 -0.0495 -0.8068
 6005SOL    HW129648   1.867   1.453   6.064  0.3512 -1.3027 -1.3450
 6005SOL    HW229649   1.728   1.498   6.027  1.2731  1.5429  0.6170
 6006SOL     OW29650   3.998   4.728   2.990 -0.0985  0.3845 -0.2688
 6006SOL    HW129651   3.902   4.733   2.995 -0.1861 -0.4437 -1.3541
 6006SOL    HW229652   4.025   0.009   3.081 -3.1950 -1.9755  1.0666
 6007SOL     OW29653   4.532   0.287   4.368 -0.2650 -0.3470 -1.0695
 6007SOL    HW129654   4.565   0.224   4.431  0.7357  1.0644 -0.2016
 6007SOL    HW229655   4.511   0.364   4.421  0.6577 -2.8062  2.8485
 6008SOL     OW29656   0.711   2.717  11.307 -0.0356 -0.4545  0.1080
 6008SOL    HW129657   0.709   2.629  11.346 -0.2194 -0.8331 -0.7529
 6008SOL    HW229658   0.675   2.685  11.224  0.0378  0.1878 -0.1701
 6009SOL     OW29659   3.121   4.579   8.278 -0.4114  0.3420 -0.7101
 6009SOL    HW129660   3.102   4.606   8.189 -2.7818 -1.3446 -0.6982
 6009SOL    HW229661   3.209   4.618   8.277  0.1858 -0.9779 -0.0695
 6010SOL     OW29662   1.755   0.261   5.849  0.0405  0.5174 -0.1549
 6010SOL    HW129663   1.724   0.237   5.936  0.4514  0.7985  0.0699
 6010SOL    HW229664   1.847   0.281   5.867 -0.4223  0.7518  1.9377
 6011SOL     OW29665   0.548   0.407  10.501  0.0710  0.1383  0.6366
 6011SOL    HW129666   0.472   0.411  10.443  0.1816 -0.6293  0.4335
 6011SOL    HW229667   0.593   0.487  10.475 -2.6020  1.0053 -1.2219
 6012SOL     OW29668   0.990   4.306   8.791 -0.7809 -0.0508  0.1668
 6012SOL    HW129669   0.996   4.266   8.704 -0.4604 -1.0637  0.6501
 6012SOL    HW229670   0.906   4.352   8.791 -1.3056 -1.0042 -0.5809
 6013SOL     OW29671   2.779   1.346   5.670 -0.4058  0.1291 -0.3865
 6013SOL    HW129672   2.814   1.329   5.583  0.8752 -0.9823  0.3468
 6013SOL    HW229673   2.758   1.440   5.670 -3.9520 -0.6264  3.9572
 6014SOL     OW29674   3.705   3.795   3.972  0.0729  0.5695  0.5556
 6014SOL    HW129675   3.658   3.870   3.935  0.6605 -0.1121 -1.5785
 6014SOL    HW229676   3.785   3.794   3.919 -0.1564 -0.9205  0.2194
 6015SOL     OW29677   3.022   2.077   9.961 -0.1056  0.5580  0.3009
 6015SOL    HW129678   2.996   2.083   9.869  0.5746 -2.8980 -0.0991
 6015SOL    HW229679   3.117   2.066   9.954 -0.5405 -1.8013 -1.8089
 6016SOL     OW29680   1.391   0.708  16.636 -0.4976  0.5739  0.1394
 6016SOL    HW129681   1.394   0.613  16.626 -1.4560  0.2927  2.3624
 6016SOL    HW229682   1.380   0.734  16.545 -1.4419  0.4732  0.2297
 6017SOL     OW29683   0.144   0.269   0.250 -0.2891  0.0853  0.2972
 6017SOL    HW129684   0.146   0.173   0.252  3.4087  0.0972 -2.6477
 6017SOL    HW229685   0.086   0.286   0.175  0.3306 -1.2365 -0.4800
 6018SOL     OW29686   4.105   4.191  16.354  0.2328  0.5239  0.1193
 6018SOL    HW129687   4.064   4.181  16.268  0.6038  2.9938 -0.3329
 6018SOL    HW229688   4.126   4.284  16.355 -1.6876  0.9661  0.3733
 6019SOL     OW29689   1.699   0.589  15.647 -0.4952 -0.6004  0.2482
 6019SOL    HW129690   1.627   0.538  15.610 -0.0063 -0.3019 -1.1034
 6019SOL    HW229691   1.741   0.645  15.583 -0.8186 -1.8179 -1.0311
 6020SOL     OW29692   3.207   0.983  16.300 -0.2650  0.6460 -0.2542
 6020SOL    HW129693   3.215   0.900  16.253 -0.4797  0.0238  0.8139
 6020SOL    HW229694   3.170   1.038  16.231 -2.5010  0.0889  0.5154
 6021SOL     OW29695   2.845   0.067   5.604 -0.0770  0.3705 -0.2145
 6021SOL    HW129696   2.774   0.012   5.570 -0.2811  1.0798 -0.9368
 6021SOL    HW229697   2.805   0.153   5.615  2.4484  1.5516 -0.2627
 6022SOL     OW29698   3.495   0.652   8.774 -0.6562 -0.0102  0.3537
 6022SOL    HW129699   3.477   0.558   8.784  0.7680 -0.2238  0.9663
 6022SOL    HW229700   3.417   0.698   8.804  0.6158  1.4388  1.3746
 6023SOL     OW29701   4.268   4.401   4.076 -0.1723  0.6221  0.0624
 6023SOL    HW129702   4.293   4.324   4.127 -1.2257 -0.0992 -0.5224
 6023SOL    HW229703   4.248   4.368   3.989  1.0539  2.2934 -0.8630
 6024SOL     OW29704   4.528   0.708  16.695 -0.4373  0.2596 -0.0775
 6024SOL    HW129705   4.445   0.696  16.648 -0.7798  1.3219  0.2518
 6024SOL    HW229706   4.563   0.620  16.683  0.3804  0.6423 -0.4825
 6025SOL     OW29707   1.388   1.950  16.294 -0.7735  0.3536 -0.1598
 6025SOL    HW129708   1.367   1.965  16.202  1.8782 -0.0306 -0.8366
 6025SOL    HW229709   1.418   1.859  16.281  1.7830  1.1335  0.2436
 6026SOL     OW29710   1.654   0.648   9.305  0.1036 -0.6784 -1.0871
 6026SOL    HW129711   1.567   0.612   9.320 -0.3107  1.2689  1.2447
 6026SOL    HW229712   1.698   0.586   9.363  1.1645  0.3959 -0.7417
 6027SOL     OW29713   1.797   1.837  11.847 -0.3107 -0.3586 -0.0049
 6027SOL    HW129714   1.834   1.925  11.835 -0.9891  0.0176  0.7194
 6027SOL    HW229715   1.865   1.779  11.812 -0.1978 -1.0243  1.3019
 6028SOL     OW29716   4.033   1.200  15.542 -0.4771  0.0020  0.7039
 6028SOL    HW129717   4.040   1.122  15.487  1.4996  0.7057 -0.0437
 6028SOL    HW229718   4.076   1.164  15.620  3.2490  0.0152 -1.3382
 6029SOL     OW29719   4.487   0.093   7.565  0.2822  0.0720  0.0913
 6029SOL    HW129720   4.573   0.101   7.525  0.1751 -1.1779 -0.3775
 6029SOL    HW229721   4.505   0.137   7.648  1.0788  0.4352 -0.2748
 6030SOL     OW29722   2.446   1.803   5.300 -0.4239 -0.2198  0.1825
 6030SOL    HW129723   2.367   1.856   5.307 -0.8750 -0.8983  0.1847
 6030SOL    HW229724   2.512   1.861   5.339 -2.2620  2.5245 -0.8155
 6031SOL     OW29725   2.880   0.106  13.820  0.0146 -0.2851  0.2025
 6031SOL    HW129726   2.844   0.035  13.873  1.9049 -1.3969  0.0151
 6031SOL    HW229727   2.930   0.062  13.751  1.3192  2.3480 -0.5346
 6032SOL     OW29728   2.145   1.741   6.884 -0.0242 -0.1722  0.9233
 6032SOL    HW129729   2.101   1.663   6.920 -3.8121  0.5185 -2.2030
 6032SOL    HW229730   2.212   1.766   6.947 -0.9483 -0.3938  2.0065
 6033SOL     OW29731   2.896   4.096   8.131 -0.4183  0.3359 -0.1973
 6033SOL    HW129732   2.950   4.062   8.202  0.6592 -0.1056 -1.2265
 6033SOL    HW229733   2.806   4.096   8.163  0.1276 -2.7223  1.2590
 6034SOL     OW29734   4.654   4.447   1.479 -0.5098  0.1040 -0.1548
 6034SOL    HW129735   4.689   4.419   1.563  2.4283  0.7033 -1.1952
 6034SOL    HW229736   4.605   4.528   1.494 -1.2220 -0.8198  2.4300
 6035SOL     OW29737   4.121   4.701  14.174  0.0392  0.1835 -0.1852
 6035SOL    HW129738   4.178   4.731  14.104 -0.5277 -0.8191 -1.0957
 6035SOL    HW229739   4.063   0.036  14.203  0.8316  1.2532 -1.2091
 6036SOL     OW29740   3.256   0.714   6.581 -0.0619  0.2943 -0.5648
 6036SOL    HW129741   3.167   0.711   6.545 -0.0556  0.4207 -0.5898
 6036SOL    HW229742   3.232   0.737   6.671 -1.2626 -0.3721 -0.7098
 6037SOL     OW29743   1.352   3.791   6.842  0.2213 -0.2533  0.3574
 6037SOL    HW129744   1.385   3.709   6.805  0.5523 -0.0464  0.1947
 6037SOL    HW229745   1.287   3.796   6.772  0.0906 -2.2821  0.3545
 6038SOL     OW29746   1.331   1.246   7.375 -0.2678 -0.0252  0.3945
 6038SOL    HW129747   1.310   1.292   7.294 -0.5022  1.7407  1.4439
 6038SOL    HW229748   1.361   1.312   7.438  0.5318 -0.7433  0.7659
 6039SOL     OW29749   2.505   3.110   8.923  0.3871 -0.5950 -0.1806
 6039SOL    HW129750   2.550   3.033   8.887  0.7946 -0.2190 -0.4668
 6039SOL    HW229751   2.438   3.112   8.854  0.6486 -0.0383 -0.4141
 6040SOL     OW29752   1.323   2.748   2.752  0.0659  0.0531  0.4441
 6040SOL    HW129753   1.291   2.718   2.837 -0.7950  0.7590  0.3694
 6040SOL    HW229754   1.326   2.661   2.711 -0.3179  0.1049  0.3078
 6041SOL     OW29755   0.419   2.791   6.217  0.1494 -0.0219 -0.4945
 6041SOL    HW129756   0.424   2.849   6.293 -1.9796 -0.0863 -0.3222
 6041SOL    HW229757   0.513   2.781   6.202  0.2530  0.2064  0.0291
 6042SOL     OW29758   2.444   3.774  17.354 -0.4877 -0.1613 -0.2375
 6042SOL    HW129759   2.420   3.688  17.320  1.4275  0.5969 -3.5388
 6042SOL    HW229760   2.391   3.782  17.433 -0.1160  0.6047 -0.0636
 6043SOL     OW29761   1.290   1.807   5.205  0.2718  0.4331 -0.2399
 6043SOL    HW129762   1.202   1.792   5.171  0.4191 -1.1879  0.0941
 6043SOL    HW229763   1.320   1.735   5.260  1.5421 -0.6023 -2.2683
 6044SOL     OW29764   3.236   0.905   7.704  0.1852 -0.0912  0.4386
 6044SOL    HW129765   3.231   0.929   7.611  0.8749  2.0019  0.9358
 6044SOL    HW229766   3.263   0.995   7.726  0.4507 -0.6720  2.4880
 6045SOL     OW29767   1.025   1.700   3.814  0.3897  0.2466 -0.3846
 6045SOL    HW129768   1.088   1.629   3.802  0.4417  0.3789 -0.8768
 6045SOL    HW229769   0.988   1.675   3.899 -0.3751  2.7924  0.0312
 6046SOL     OW29770   1.174   0.995   5.062 -0.3923  0.4861  0.1422
 6046SOL    HW129771   1.206   0.924   5.118  0.1945  0.2366 -0.5014
 6046SOL    HW229772   1.141   0.948   4.985 -1.3235  1.0738  0.1877
 6047SOL     OW29773   0.503   2.359   6.175  0.5077  0.2157 -0.6028
 6047SOL    HW129774   0.502   2.419   6.100  2.1094  0.6043 -0.3095
 6047SOL    HW229775   0.473   2.423   6.239  0.8782 -2.1958  1.9632
 6048SOL     OW29776   2.047   2.256   8.523 -0.0047 -0.1294  0.1705
 6048SOL    HW129777   2.076   2.347   8.515  0.4296 -0.2005  0.9015
 6048SOL    HW229778   2.079   2.218   8.441 -2.7441  0.2018 -1.0249
 6049SOL     OW29779   2.088   4.650   3.743 -0.5579  0.7721 -0.3102
 6049SOL    HW129780   2.097   4.597   3.821  2.0763  2.6454  0.6353
 6049SOL    HW229781   2.000   4.619   3.722 -0.9084  1.1372  0.6077
 6050SOL     OW29782   3.883   4.615  14.882 -1.0648  0.1532 -0.1594
 6050SOL    HW129783   3.938   4.637  14.957  2.0882 -0.6655 -2.2282
 6050SOL    HW229784   3.927   4.663  14.812 -0.6420 -1.0263 -0.7023
 6051SOL     OW29785   1.692   4.086   6.152  0.2761 -0.6995  0.1362
 6051SOL    HW129786   1.612   4.091   6.098  0.4604 -0.7064 -0.1347
 6051SOL    HW229787   1.689   4.000   6.194 -2.2649  0.0728  1.5469
 6052SOL     OW29788   1.161   4.241   7.015 -0.3652  0.4593 -0.2546
 6052SOL    HW129789   1.130   4.150   7.012  0.9371 -0.0207  0.5301
 6052SOL    HW229790   1.252   4.231   6.987 -0.2192 -4.5033  1.9130
 6053SOL     OW29791   3.309   0.503   0.444  0.6430  0.1509 -0.1306
 6053SOL    HW129792   3.379   0.483   0.382  1.5124  1.1417  0.5320
 6053SOL    HW229793   3.351   0.564   0.504 -0.2019 -0.3769  1.0072
 6054SOL     OW29794   3.253   1.968   4.161  0.0663 -0.0062 -0.0480
 6054SOL    HW129795   3.181   1.948   4.101 -0.9480  0.2042  1.0821
 6054SOL    HW229796   3.219   2.057   4.170  0.3572  0.2142 -1.2174
 6055SOL     OW29797   2.253   2.558   2.643  0.2810  0.7460  0.1899
 6055SOL    HW129798   2.218   2.628   2.698 -0.9060 -0.7025  1.2851
 6055SOL    HW229799   2.296   2.492   2.697 -1.9377 -0.4199  0.5526
 6056SOL     OW29800   4.493   3.574   4.516 -0.3114 -0.2959 -0.3948
 6056SOL    HW129801   4.494   3.486   4.553 -0.9328  0.9689  2.5938
 6056SOL    HW229802   4.588   3.588   4.514 -0.0948 -1.7797 -0.3622
 6057SOL     OW29803   1.539   4.287   4.101  0.5415 -0.4821  0.0748
 6057SOL    HW129804   1.461   4.248   4.139  0.7446 -1.0879 -0.1360
 6057SOL    HW229805   1.598   4.214   4.083 -1.1845 -1.6650 -0.8689
 6058SOL     OW29806   2.376   3.571   2.520 -0.4474 -0.4242 -0.5320
 6058SOL    HW129807   2.421   3.489   2.500 -1.3542 -1.0523  0.0326
 6058SOL    HW229808   2.308   3.572   2.452 -0.8253 -0.6522 -0.1561
 6059SOL     OW29809   3.155   4.648  16.411 -0.0569  0.2689 -0.0046
 6059SOL    HW129810   3.141   4.621  16.321 -1.0180  1.8633 -0.3229
 6059SOL    HW229811   3.111   4.733  16.410 -0.1109  0.2496  0.5496
 6060SOL     OW29812   1.625   4.707   8.450 -0.4912 -0.2013  0.4341
 6060SOL    HW129813   1.534   4.703   8.479  0.5296 -1.0829  3.5667
 6060SOL    HW229814   1.669   4.677   8.529  0.0619  0.1454  0.2529
 6061SOL     OW29815   4.713   3.089   3.957  0.1256  0.0329  0.0403
 6061SOL    HW129816   0.014   3.006   3.927  0.8961  1.1278 -2.0806
 6061SOL    HW229817   4.729   3.149   3.884  0.6836  0.5429  0.5855
 6062SOL     OW29818   0.791   3.342   7.295  0.6240  0.5254  0.2181
 6062SOL    HW129819   0.787   3.335   7.390 -3.0540 -0.4873 -0.0343
 6062SOL    HW229820   0.728   3.273   7.272  1.0455  0.6861 -1.4075
 6063SOL     OW29821   2.205   3.433   2.256  0.2808 -0.3797 -0.3668
 6063SOL    HW129822   2.228   3.393   2.172  1.8126  1.1601 -0.6763
 6063SOL    HW229823   2.114   3.459   2.242  0.6208  0.4804 -0.9534
 6064SOL     OW29824   1.195   2.713  13.243 -0.3902 -0.1759 -0.1831
 6064SOL    HW129825   1.261   2.748  13.302 -1.0418  2.0931 -0.8241
 6064SOL    HW229826   1.220   2.748  13.158  1.8388  1.1929  1.0487
 6065SOL     OW29827   0.228   3.610  14.233  0.1788  0.1533  0.5121
 6065SOL    HW129828   0.269   3.582  14.315  3.1206 -0.6864 -1.2844
 6065SOL    HW229829   0.279   3.559  14.171 -0.7028 -0.1596  0.0369
 6066SOL     OW29830   0.975   1.820   4.849 -0.1000  0.4984  1.0147
 6066SOL    HW129831   0.898   1.765   4.859 -0.2551  0.3505 -0.9821
 6066SOL    HW229832   1.028   1.798   4.926 -0.6961  0.6335  1.4608
 6067SOL     OW29833   1.805   0.373   5.049 -0.3662  0.3794  0.1800
 6067SOL    HW129834   1.849   0.421   5.119 -0.4455 -0.0537  0.5338
 6067SOL    HW229835   1.872   0.356   4.983 -0.1093  1.1479  0.2475
 6068SOL     OW29836   2.209   3.444   4.056  0.2697  0.2907  0.1276
 6068SOL    HW129837   2.130   3.488   4.024 -0.6630 -0.9395  0.7729
 6068SOL    HW229838   2.175   3.421   4.142 -1.2680 -0.2014 -0.6038
 6069SOL     OW29839   4.362   4.299  12.095  0.0593  0.6696  0.2141
 6069SOL    HW129840   4.455   4.292  12.114  0.3010  0.8033 -0.8827
 6069SOL    HW229841   4.336   4.220  12.047 -1.4553  1.4335 -0.2375
 6070SOL     OW29842   0.240   4.682   8.857 -0.1325  0.2875 -0.4426
 6070SOL    HW129843   0.299   0.020   8.876  0.0644  0.0739 -0.2231
 6070SOL    HW229844   0.199   4.697   8.772  1.4301  0.6428 -1.1400
 6071SOL     OW29845   4.598   0.105   8.705 -0.2904 -0.1646  0.1176
 6071SOL    HW129846   4.683   0.064   8.686  1.1535  1.6995  2.5516
 6071SOL    HW229847   4.626   0.196   8.703 -0.1640 -0.2165 -0.5670
 6072SOL     OW29848   3.323   2.542   0.247  0.0360 -0.2174 -0.1276
 6072SOL    HW129849   3.415   2.519   0.259 -0.0900 -1.9178 -2.3712
 6072SOL    HW229850   3.282   2.457   0.264  0.0626 -0.1868  0.0929
 6073SOL     OW29851   0.683   2.260  16.056 -0.0129  0.5168 -0.2611
 6073SOL    HW129852   0.749   2.219  16.112  0.7375  0.4104 -1.2182
 6073SOL    HW229853   0.725   2.334  16.011  1.7645 -0.5726 -0.4075
 6074SOL     OW29854   0.271   4.128   1.992  0.1363  0.3921 -0.2439
 6074SOL    HW129855   0.311   4.059   2.045  1.1731  1.9573  0.9740
 6074SOL    HW229856   0.226   4.074   1.927  0.2068  0.5038 -0.3860
 6075SOL     OW29857   4.601   1.923   8.957  0.0110 -0.2292 -0.1564
 6075SOL    HW129858   4.668   1.971   9.005 -1.1698  0.5416  0.7181
 6075SOL    HW229859   4.524   1.976   8.977 -0.0130  0.3105 -1.6273
 6076SOL     OW29860   3.368   1.615  12.598  0.2433 -0.0916  0.2043
 6076SOL    HW129861   3.326   1.585  12.679  1.2137 -0.3369  0.6142
 6076SOL    HW229862   3.353   1.710  12.604  0.0644 -0.0331 -1.3006
 6077SOL     OW29863   0.544   3.947  16.897 -0.1695 -0.2246  0.3019
 6077SOL    HW129864   0.591   3.947  16.980 -1.2237  2.1569  0.8935
 6077SOL    HW229865   0.477   3.881  16.916  1.3893 -2.4115 -1.8885
 6078SOL     OW29866   0.903   4.549   1.205 -0.1442 -0.5842  0.4583
 6078SOL    HW129867   0.913   4.626   1.262 -1.5778  0.1966 -0.3475
 6078SOL    HW229868   0.836   4.495   1.249  1.6014 -0.9636  2.6663
 6079SOL     OW29869   2.481   2.630   7.290 -0.5647 -0.1136  0.5193
 6079SOL    HW129870   2.568   2.657   7.262 -0.8263 -0.1262 -0.3185
 6079SOL    HW229871   2.441   2.712   7.318 -0.3566  0.3649 -0.5993
 6080SOL     OW29872   0.217   2.730   8.882  0.0607 -0.3008  0.6788
 6080SOL    HW129873   0.296   2.777   8.910  0.9489 -1.2348 -0.2488
 6080SOL    HW229874   0.164   2.805   8.855 -0.5758 -0.8652  0.3416
 6081SOL     OW29875   4.661   1.751  10.013 -0.4584  0.4912 -0.2226
 6081SOL    HW129876   0.006   1.768  10.063 -0.7682  0.1548  0.3835
 6081SOL    HW229877   4.598   1.791  10.072 -0.4148 -0.7999  0.6848
 6082SOL     OW29878   0.433   4.098   5.515 -0.4730 -0.4231 -0.4275
 6082SOL    HW129879   0.454   4.121   5.605 -3.1555 -2.8183  0.8044
 6082SOL    HW229880   0.398   4.008   5.517 -0.0800 -0.5417  1.1730
 6083SOL     OW29881   3.999   2.925   6.039 -0.1943 -0.2199  0.5402
 6083SOL    HW129882   4.057   2.849   6.040  0.6207  0.3953 -0.3978
 6083SOL    HW229883   3.908   2.895   6.029 -0.3332  0.0046  1.1410
 6084SOL     OW29884   4.312   1.046   0.203 -0.0886  0.1291 -0.1525
 6084SOL    HW129885   4.246   1.047   0.272  0.5304  1.3118  0.4269
 6084SOL    HW229886   4.392   1.027   0.252 -1.0916 -0.4046  1.2724
 6085SOL     OW29887   3.637   0.775   6.543 -0.7427 -0.1435  0.3274
 6085SOL    HW129888   3.722   0.787   6.501 -0.2026 -0.2109  1.4200
 6085SOL    HW229889   3.582   0.843   6.505 -1.9015 -0.6959  1.0062
 6086SOL     OW29890   2.650   0.847   8.639  0.1365 -0.1688  0.2949
 6086SOL    HW129891   2.628   0.900   8.562 -2.0395 -1.0549  0.3038
 6086SOL    HW229892   2.662   0.917   8.703  0.4258 -0.2167  0.2912
 6087SOL     OW29893   1.288   1.711  15.045  0.0929 -0.3598  0.3984
 6087SOL    HW129894   1.255   1.798  15.021  1.1617 -0.3568 -1.0843
 6087SOL    HW229895   1.203   1.670  15.051  0.2225 -0.4408  1.7155
 6088SOL     OW29896   2.129   3.971   8.896 -0.1555 -0.1776  0.5190
 6088SOL    HW129897   2.170   4.054   8.872 -1.1860  0.5707  1.3490
 6088SOL    HW229898   2.124   3.984   8.991  0.8253  1.1249  0.3827
 6089SOL     OW29899   3.739   3.194   4.848  0.3825  0.2633 -0.8521
 6089SOL    HW129900   3.785   3.175   4.766  0.4912  0.6756 -0.8841
 6089SOL    HW229901   3.799   3.151   4.910 -2.3858  2.5650  3.3946
 6090SOL     OW29902   0.237   0.620   1.753 -0.1637  0.2310 -0.1383
 6090SOL    HW129903   0.288   0.699   1.734 -1.2355  1.3424  1.5331
 6090SOL    HW229904   0.221   0.624   1.847 -1.1626  0.6257 -0.3244
 6091SOL     OW29905   3.425   1.410   4.587 -0.0078  0.6056  0.1437
 6091SOL    HW129906   3.450   1.389   4.677  0.9822  0.1175 -0.2441
 6091SOL    HW229907   3.349   1.464   4.608 -2.0572 -1.7989 -1.0930
 6092SOL     OW29908   1.113   4.056   5.534 -0.2727 -0.3936 -0.5028
 6092SOL    HW129909   1.055   4.115   5.486 -1.1302 -0.0983  0.8900
 6092SOL    HW229910   1.174   4.031   5.464  1.6937 -0.1109  1.1167
 6093SOL     OW29911   2.819   0.526   3.366  0.3783  0.6008 -0.2723
 6093SOL    HW129912   2.744   0.577   3.336  2.5641  2.5962 -2.2635
 6093SOL    HW229913   2.782   0.439   3.380 -1.2804  1.6617  2.0135
 6094SOL     OW29914   3.978   4.127   0.601 -0.2505 -0.0745  0.4576
 6094SOL    HW129915   3.987   4.059   0.667 -0.5231  0.7263  1.3087
 6094SOL    HW229916   3.896   4.164   0.635 -0.2974  1.6003 -1.4794
 6095SOL     OW29917   2.081   0.127  11.177 -0.3728  0.3524 -0.3865
 6095SOL    HW129918   2.087   0.172  11.093 -2.1145 -0.6387 -1.0224
 6095SOL    HW229919   2.151   0.169  11.226  0.3898 -1.0310 -0.2772
 6096SOL     OW29920   3.511   1.505   7.876 -0.0623  0.3619 -0.0592
 6096SOL    HW129921   3.554   1.525   7.959  0.5269 -0.2460 -0.2182
 6096SOL    HW229922   3.521   1.590   7.833 -0.2021  1.2873  1.7364
 6097SOL     OW29923   4.569   0.117   0.239  0.1497  0.0180  0.0928
 6097SOL    HW129924   4.563   0.175   0.315  1.5284  1.1011 -0.6373
 6097SOL    HW229925   4.587   0.172   0.163 -0.8625  1.0992  0.6220
 6098SOL     OW29926   4.349   3.036   7.096 -0.7218  0.1949  0.1184
 6098SOL    HW129927   4.300   3.011   7.174  0.1983 -1.4713  0.1747
 6098SOL    HW229928   4.278   3.082   7.051 -1.3221 -1.8165 -1.0316
 6099SOL     OW29929   1.509   3.432   0.785  0.0613 -0.2045  0.3107
 6099SOL    HW129930   1.556   3.363   0.737  0.6373 -0.8829  1.8197
 6099SOL    HW229931   1.483   3.498   0.722  1.0759 -1.1217 -1.0601
 6100SOL     OW29932   1.680   3.574   7.365  0.3461 -0.0826 -0.1132
 6100SOL    HW129933   1.751   3.529   7.319  0.1432 -0.4378 -0.0795
 6100SOL    HW229934   1.619   3.500   7.369 -0.1317  0.2747 -0.7529
 6101SOL     OW29935   2.614   3.383   0.183 -0.0663  0.6244 -0.3112
 6101SOL    HW129936   2.672   3.367   0.109  0.0884 -1.9384  0.3843
 6101SOL    HW229937   2.591   3.474   0.162  0.6162  1.2259  1.5506
 6102SOL     OW29938   4.391   3.724   4.043  0.3838 -0.3386 -0.2335
 6102SOL    HW129939   4.369   3.658   3.978  0.5856 -1.0816  0.4602
 6102SOL    HW229940   4.311   3.761   4.082 -0.5353 -1.0471 -1.4709
 6103SOL     OW29941   2.799   2.418   1.651  0.7431  0.5886  0.7714
 6103SOL    HW129942   2.721   2.398   1.702 -1.2718  0.5370 -2.3586
 6103SOL    HW229943   2.864   2.366   1.698 -0.6104 -1.6610  0.1067
 6104SOL     OW29944   1.570   1.713   0.059  0.9345 -0.0908  0.3566
 6104SOL    HW129945   1.541   1.732   0.149 -0.9005  0.1614 -0.2872
 6104SOL    HW229946   1.584   1.619   0.060  1.4625 -0.0360 -2.9382
 6105SOL     OW29947   3.855   3.969   7.122 -0.4350  0.1737  1.4303
 6105SOL    HW129948   3.926   3.995   7.180 -1.5338  0.0187  2.8503
 6105SOL    HW229949   3.815   4.052   7.095  0.7910  0.1318 -0.4978
 6106SOL     OW29950   1.366   3.219   7.360 -0.8008 -0.1962 -0.4297
 6106SOL    HW129951   1.317   3.292   7.322  0.7840  1.7937  1.3100
 6106SOL    HW229952   1.325   3.227   7.447 -1.0523  1.1597 -0.6731
 6107SOL     OW29953   1.287   0.093   4.644 -0.1587 -0.1835 -0.3231
 6107SOL    HW129954   1.248   0.081   4.558 -0.4327 -0.1992 -0.1964
 6107SOL    HW229955   1.379   0.069   4.632 -0.4380 -1.2568 -0.3533
 6108SOL     OW29956   0.730   2.836   5.108  0.1643 -0.6208 -0.2974
 6108SOL    HW129957   0.775   2.918   5.086 -1.6540  0.5251  0.2527
 6108SOL    HW229958   0.641   2.866   5.093  0.2390 -1.4158 -2.3618
 6109SOL     OW29959   1.193   2.952   7.719  0.3783 -0.0777 -0.0627
 6109SOL    HW129960   1.216   2.927   7.808 -0.7875  0.2939  0.3462
 6109SOL    HW229961   1.139   2.881   7.684  1.9588 -0.1918 -2.2849
 6110SOL     OW29962   0.995   4.315   5.458 -0.5465 -0.0201  0.4168
 6110SOL    HW129963   0.918   4.293   5.405  0.0043 -0.3367 -0.2459
 6110SOL    HW229964   1.001   4.408   5.436  0.0020 -0.1864 -0.1491
 6111SOL     OW29965   4.394   0.427  14.375 -0.3024  0.4755 -0.4352
 6111SOL    HW129966   4.434   0.477  14.446 -0.6268  1.7672 -1.1582
 6111SOL    HW229967   4.449   0.452  14.300  0.6842 -1.5644 -0.3933
 6112SOL     OW29968   3.585   3.397   3.369 -0.3264 -0.3799  0.1622
 6112SOL    HW129969   3.620   3.329   3.427  0.0864 -1.3546 -1.2368
 6112SOL    HW229970   3.521   3.338   3.330  0.8130 -0.5785 -1.4206
 6113SOL     OW29971   2.259   0.982   2.376 -0.2855  0.3415  0.2082
 6113SOL    HW129972   2.331   0.958   2.318 -2.0125 -0.3934 -1.6091
 6113SOL    HW229973   2.228   0.893   2.396 -1.5877  0.9137  0.7063
 6114SOL     OW29974   1.194   2.113   6.900  0.6710 -0.2074 -0.0573
 6114SOL    HW129975   1.141   2.049   6.853  1.0806 -0.6727  0.1118
 6114SOL    HW229976   1.136   2.187   6.916 -0.8292 -1.4055  0.0916
 6115SOL     OW29977   2.455   4.486   9.934 -0.0010 -0.9460 -0.4801
 6115SOL    HW129978   2.478   4.494   9.841 -0.1782 -1.2095 -0.5454
 6115SOL    HW229979   2.360   4.492   9.925 -0.1876 -2.0380  0.7013
 6116SOL     OW29980   3.220   3.876   4.959  0.0473  0.0565 -0.4142
 6116SOL    HW129981   3.158   3.926   5.011 -0.6507 -2.5632  1.2696
 6116SOL    HW229982   3.301   3.885   5.008 -1.1667 -0.3591  1.6512
 6117SOL     OW29983   2.760   2.048   4.649 -0.3232  0.5496  0.3890
 6117SOL    HW129984   2.741   2.122   4.706 -1.0938  0.7895 -0.1885
 6117SOL    HW229985   2.697   2.061   4.579 -2.2622 -1.2996  1.7664
 6118SOL     OW29986   2.007   2.936  17.690  0.0568  0.0443  0.6872
 6118SOL    HW129987   2.091   2.971  17.722  1.5313 -0.9802 -2.0925
 6118SOL    HW229988   1.944   2.981   0.008  1.3652  0.5211  1.7837
 6119SOL     OW29989   1.031   3.590  11.128 -0.2254 -0.3683 -0.1589
 6119SOL    HW129990   1.011   3.681  11.151  0.0998 -0.9408  2.4921
 6119SOL    HW229991   1.124   3.600  11.111  0.2262  0.7155  2.7882
 6120SOL     OW29992   0.953   0.647   1.828 -0.0839  0.3197  0.4332
 6120SOL    HW129993   1.014   0.608   1.764  1.3966  0.7082  1.6024
 6120SOL    HW229994   0.963   0.740   1.809 -2.5813  1.0858  2.9415
 6121SOL     OW29995   0.054   0.924   6.815 -0.4173 -0.5927  0.1838
 6121SOL    HW129996   0.080   0.950   6.727 -2.8335  1.6833  0.1397
 6121SOL    HW229997   0.096   0.839   6.828  0.4937 -0.4035 -1.5194
 6122SOL     OW29998   3.592   0.506   4.813 -0.4502  0.4625 -0.2787
 6122SOL    HW129999   3.504   0.537   4.834 -0.0869  0.5419  1.1757
 6122SOL    HW230000   3.600   0.530   4.721 -0.5670  0.8833 -0.1809
 6123SOL     OW30001   4.123   1.387   6.395 -0.2805 -0.3264 -0.0768
 6123SOL    HW130002   4.214   1.362   6.378 -0.8371 -1.0931 -1.9597
 6123SOL    HW230003   4.133   1.482   6.404 -2.4785 -0.0226 -0.8735
 6124SOL     OW30004   2.250   1.904   6.565 -0.2800 -0.6117 -0.6337
 6124SOL    HW130005   2.250   1.945   6.478  0.8758 -0.2370 -0.4582
 6124SOL    HW230006   2.272   1.980   6.619 -0.0509 -0.0910 -1.4588
 6125SOL     OW30007   3.502   1.520  13.685  0.2330  0.2788  0.6389
 6125SOL    HW130008   3.425   1.484  13.728 -1.0108 -0.2813 -2.0409
 6125SOL    HW230009   3.468   1.515  13.596 -0.0875  2.3531  0.6615
 6126SOL     OW30010   3.500   2.031   4.011 -0.2225  0.6169 -0.0479
 6126SOL    HW130011   3.432   1.997   4.070 -1.1379  2.0414 -0.2924
 6126SOL    HW230012   3.475   2.121   3.993 -3.0657 -0.2721 -0.5813
 6127SOL     OW30013   0.649   2.614   5.517 -0.0050  0.0034 -0.5882
 6127SOL    HW130014   0.734   2.583   5.549 -0.5893 -1.1327 -0.1293
 6127SOL    HW230015   0.589   2.557   5.564 -0.4338  0.9064 -0.0315
 6128SOL     OW30016   0.196   2.280   2.822  0.1394  0.2069  0.0652
 6128SOL    HW130017   0.155   2.199   2.790  1.6952 -0.6999  0.3837
 6128SOL    HW230018   0.230   2.307   2.737  0.3037 -0.0773  0.0413
 6129SOL     OW30019   2.280   1.521   7.927  0.0475  0.2214  0.1929
 6129SOL    HW130020   2.240   1.461   7.863  1.8459 -1.2682  0.4558
 6129SOL    HW230021   2.207   1.536   7.987  1.0247  1.9145  0.9606
 6130SOL     OW30022   2.482   2.387   3.860 -0.1114 -0.5665 -0.3204
 6130SOL    HW130023   2.494   2.457   3.796 -2.4697 -0.2449 -0.4321
 6130SOL    HW230024   2.498   2.430   3.943 -0.8386  1.3400 -1.1772
 6131SOL     OW30025   1.640   2.300   3.176 -0.3434  0.4074 -0.2696
 6131SOL    HW130026   1.692   2.245   3.234  0.1043 -0.6995 -1.7323
 6131SOL    HW230027   1.622   2.377   3.231 -2.1177 -1.1438  1.2986
 6132SOL     OW30028   2.310   1.444  11.333  0.5687  0.0902  0.4374
 6132SOL    HW130029   2.355   1.435  11.417  3.6295  6.1274 -0.5233
 6132SOL    HW230030   2.348   1.373  11.283 -1.1321 -0.0361 -0.6844
 6133SOL     OW30031   2.568   0.541   5.588  0.2402  0.0053 -0.0530
 6133SOL    HW130032   2.601   0.576   5.505 -1.0149 -0.5568 -0.7898
 6133SOL    HW230033   2.473   0.538   5.576  0.1041  0.3267  0.9889
 6134SOL     OW30034   0.376   3.300  12.770  0.0806 -0.2893  0.1466
 6134SOL    HW130035   0.435   3.374  12.754 -2.5710  1.6683 -0.7227
 6134SOL    HW230036   0.327   3.297  12.687  1.7047  0.0695 -0.8186
 6135SOL     OW30037   2.477   3.186   5.762  0.9099  0.0941 -0.0949
 6135SOL    HW130038   2.414   3.256   5.745  0.1409 -0.1581  1.6955
 6135SOL    HW230039   2.460   3.161   5.853 -0.5941 -0.9756 -0.6574
 6136SOL     OW30040   4.036   3.480   1.405  1.0902 -0.0294  0.2588
 6136SOL    HW130041   4.124   3.511   1.426  1.4098 -0.5247 -0.3636
 6136SOL    HW230042   3.995   3.567   1.399 -0.5404 -0.8008  0.4134
 6137SOL     OW30043   2.918   0.424   8.890  0.1561 -0.2138  0.2548
 6137SOL    HW130044   3.001   0.451   8.930  0.0333  0.4218  0.0702
 6137SOL    HW230045   2.866   0.504   8.890  0.2970 -0.1328 -0.9909
 6138SOL     OW30046   4.190   4.050  13.157  0.2012  0.0789 -0.0167
 6138SOL    HW130047   4.231   4.107  13.222  0.6174  1.8336 -1.8004
 6138SOL    HW230048   4.269   4.029  13.107  1.2632 -0.3842  1.8780
 6139SOL     OW30049   1.881   0.148   9.081  0.2881  0.1535  0.0742
 6139SOL    HW130050   1.932   0.199   9.017 -2.6184 -0.5626 -2.7989
 6139SOL    HW230051   1.792   0.180   9.066  0.6841  1.3490  0.2422
 6140SOL     OW30052   3.673   0.639  15.245  0.7988 -0.1296  0.2794
 6140SOL    HW130053   3.676   0.718  15.191  1.1309  0.6167  1.3867
 6140SOL    HW230054   3.627   0.664  15.325 -0.7758 -1.8433 -0.0831
 6141SOL     OW30055   0.964   4.187   3.276  0.3654 -0.2505 -0.1752
 6141SOL    HW130056   0.966   4.147   3.362 -1.6699  0.0575  0.0036
 6141SOL    HW230057   1.042   4.243   3.282  0.0807  0.2295 -0.9462
 6142SOL     OW30058   3.116   0.141   8.019 -0.0792  0.0167 -0.1961
 6142SOL    HW130059   3.105   0.235   8.004  0.0212  0.0754  0.0828
 6142SOL    HW230060   3.211   0.135   8.027  0.1835  0.2082 -3.4435
 6143SOL     OW30061   2.592   1.411   4.398  0.4637 -0.1557  0.3617
 6143SOL    HW130062   2.583   1.375   4.310  1.9324  2.0276 -0.6738
 6143SOL    HW230063   2.669   1.367   4.432 -1.1452 -1.9144  1.7246
 6144SOL     OW30064   3.750   2.809  11.619  0.5353  0.7114 -0.3633
 6144SOL    HW130065   3.831   2.817  11.569  0.2953 -2.2836 -1.2163
 6144SOL    HW230066   3.693   2.842  11.549 -0.0303 -2.6376 -1.4712
 6145SOL     OW30067   3.445   0.095  15.635  0.1009  0.1077  0.9688
 6145SOL    HW130068   3.419   0.186  15.654  0.8143  0.2743  1.1283
 6145SOL    HW230069   3.365   0.058  15.597  1.0668 -1.9430  0.9910
 6146SOL     OW30070   2.621   1.295   7.890 -0.4135 -0.6552  0.2498
 6146SOL    HW130071   2.569   1.254   7.959 -1.2860 -0.2847 -0.1971
 6146SOL    HW230072   2.659   1.224   7.838 -0.0178 -0.5944  0.4511
 6147SOL     OW30073   3.024   3.889   9.009  0.2319  0.2153 -0.5244
 6147SOL    HW130074   2.934   3.906   8.981 -0.4260 -0.9979  0.8629
 6147SOL    HW230075   3.027   3.796   8.986 -1.6198  0.0111  0.1001
 6148SOL     OW30076   4.265   0.048   4.005 -0.0535 -0.5856  0.1010
 6148SOL    HW130077   4.213   0.127   4.015  1.4465  0.3833  0.1490
 6148SOL    HW230078   4.243   0.014   4.092  0.7290  0.8932  0.8631
 6149SOL     OW30079   1.921   4.597  11.086 -0.3536 -0.0350 -0.1828
 6149SOL    HW130080   1.918   4.691  11.105 -1.4307 -0.2777  0.8251
 6149SOL    HW230081   1.980   4.563  11.153 -0.5298  1.7145  0.8495
 6150SOL     OW30082   1.259   4.153   1.705 -0.3743 -0.0600 -0.0507
 6150SOL    HW130083   1.297   4.232   1.744  0.2093 -0.2529 -0.2424
 6150SOL    HW230084   1.172   4.191   1.688 -1.5261 -2.1477  1.1370
 6151SOL     OW30085   3.863   1.619   4.606  0.6182 -0.1743 -0.4567
 6151SOL    HW130086   3.837   1.537   4.649 -0.9439  0.4453 -0.2455
 6151SOL    HW230087   3.781   1.666   4.618  0.3076 -0.8129 -0.0646
 6152SOL     OW30088   2.387   2.473   7.512  0.0102  0.5180  0.3059
 6152SOL    HW130089   2.446   2.514   7.575  1.9669  0.5026 -1.5150
 6152SOL    HW230090   2.425   2.522   7.439 -1.0882 -1.3756 -1.5268
 6153SOL     OW30091   1.644   1.640   2.336  0.7564  0.1913 -0.1561
 6153SOL    HW130092   1.690   1.713   2.378 -2.2140  0.6748  2.2184
 6153SOL    HW230093   1.649   1.572   2.403 -0.6894 -0.4827 -0.7442
 6154SOL     OW30094   3.448   4.405   6.686 -0.2697 -0.1125 -0.0672
 6154SOL    HW130095   3.390   4.360   6.625  0.1477 -0.0736 -0.4983
 6154SOL    HW230096   3.395   4.472   6.730  0.8252  1.1022 -0.5912
 6155SOL     OW30097   4.586   0.871   7.851  0.0607 -0.2679  0.3930
 6155SOL    HW130098   4.637   0.798   7.887 -3.2158 -2.3226  0.8701
 6155SOL    HW230099   4.503   0.852   7.896  0.9626  0.0329  2.2023
 6156SOL     OW30100   1.444   1.446  14.529 -0.0497  0.0027  0.1989
 6156SOL    HW130101   1.425   1.407  14.444  1.7097  1.1198 -0.7006
 6156SOL    HW230102   1.490   1.374  14.573  1.1343  1.1575  0.8644
 6157SOL     OW30103   3.286   1.353   1.757  0.2680 -0.1868 -0.2446
 6157SOL    HW130104   3.221   1.423   1.749 -2.6918 -3.0868 -1.2626
 6157SOL    HW230105   3.367   1.393   1.725  0.8265 -0.1806  1.1844
 6158SOL     OW30106   3.498   3.322   8.115 -0.1273  0.0513  0.2291
 6158SOL    HW130107   3.529   3.335   8.205  2.0456 -0.0446 -0.5192
 6158SOL    HW230108   3.427   3.258   8.122  0.7086 -0.8393  0.4720
 6159SOL     OW30109   0.963   0.128  14.588 -0.1319  0.8693 -0.7146
 6159SOL    HW130110   0.922   0.085  14.663  1.7231  2.5307  1.2494
 6159SOL    HW230111   0.912   0.108  14.509 -0.3446  2.2390 -0.9217
 6160SOL     OW30112   4.097   2.009   9.990  0.6709  0.2658  0.0019
 6160SOL    HW130113   4.161   1.985  10.056 -1.0278 -2.4159  0.6399
 6160SOL    HW230114   4.093   2.105   9.995  0.4654  0.2052  0.9594
 6161SOL     OW30115   0.098   2.248   7.979  0.2000  0.3047 -0.1499
 6161SOL    HW130116   0.053   2.246   8.063 -2.8307 -1.2267 -1.8282
 6161SOL    HW230117   0.138   2.162   7.971 -1.2305 -0.1366 -2.5455
 6162SOL     OW30118   2.791   4.474   6.289 -0.4749  0.3247 -0.0483
 6162SOL    HW130119   2.706   4.446   6.321  0.9588 -1.9080  1.7580
 6162SOL    HW230120   2.769   4.502   6.200 -0.7452  0.1754 -0.0270
 6163SOL     OW30121   2.322   1.097   1.945 -0.4484 -0.1970 -0.0073
 6163SOL    HW130122   2.300   1.009   1.974  0.6866  0.5570  3.1947
 6163SOL    HW230123   2.237   1.142   1.945 -0.1362  0.4111  0.8616
 6164SOL     OW30124   4.518   4.502   4.267  0.1247  0.4444 -0.0960
 6164SOL    HW130125   4.486   4.414   4.248  0.7127  0.8272 -2.8591
 6164SOL    HW230126   4.594   4.474   4.317  0.8354 -0.7850 -1.9030
 6165SOL     OW30127   1.308   3.536   7.818 -0.1328 -0.0982  0.3610
 6165SOL    HW130128   1.360   3.456   7.828  0.0201  0.0062  0.3981
 6165SOL    HW230129   1.222   3.495   7.816 -0.4146  0.5683 -0.8384
 6166SOL     OW30130   0.366   1.158   1.816  0.2189  0.1019 -0.5723
 6166SOL    HW130131   0.363   1.169   1.911  2.1573 -1.0350 -0.3908
 6166SOL    HW230132   0.283   1.200   1.791 -0.2362 -0.8091 -0.5751
 6167SOL     OW30133   2.759   1.053   2.864  1.1284 -0.3440  0.4263
 6167SOL    HW130134   2.843   1.085   2.899  0.1740  0.0438  2.3864
 6167SOL    HW230135   2.712   1.132   2.838  0.0782 -1.2743 -0.4619
 6168SOL     OW30136   0.159   1.428   1.167 -0.2100  0.2689  0.0893
 6168SOL    HW130137   0.075   1.428   1.121 -0.3337  1.5952  0.3205
 6168SOL    HW230138   0.131   1.388   1.250  0.6709  0.7226  0.6002
 6169SOL     OW30139   2.246   0.828   3.193 -0.2653  0.3297  0.3777
 6169SOL    HW130140   2.312   0.886   3.156 -0.3584 -0.2490 -0.6984
 6169SOL    HW230141   2.202   0.891   3.249  1.3590  1.1145  0.7796
 6170SOL     OW30142   3.538   2.696   7.124 -0.2030 -0.0399  0.4062
 6170SOL    HW130143   3.578   2.624   7.172  1.0731 -0.5444 -1.4339
 6170SOL    HW230144   3.517   2.763   7.189  2.0886 -0.5602  1.6594
 6171SOL     OW30145   4.681   0.605   5.038 -0.5342 -0.4253 -0.1969
 6171SOL    HW130146   4.602   0.623   4.987 -0.8267  0.9934  0.7582
 6171SOL    HW230147   4.708   0.697   5.035  3.2090 -1.5684 -1.8088
 6172SOL     OW30148   0.776   0.638   4.282  0.5836  0.2334 -0.9531
 6172SOL    HW130149   0.772   0.625   4.377 -2.8946  2.2757 -0.8150
 6172SOL    HW230150   0.683   0.645   4.258  0.1448 -1.6768  0.1676
 6173SOL     OW30151   1.314   2.451   4.941  0.2424 -0.2086  0.0132
 6173SOL    HW130152   1.280   2.375   4.987 -0.7375 -0.0532 -0.4603
 6173SOL    HW230153   1.252   2.515   4.977 -0.6689 -0.9671 -0.2038
 6174SOL     OW30154   2.431   3.949  15.048 -0.4502 -0.3476  0.6427
 6174SOL    HW130155   2.430   3.948  14.952 -0.5173  2.5925  0.6055
 6174SOL    HW230156   2.336   3.956  15.058 -0.0989  3.9831  1.1672
 6175SOL     OW30157   3.770   2.884   9.302  0.4968  0.1092 -0.5868
 6175SOL    HW130158   3.803   2.930   9.379 -0.0750 -1.0478  0.3431
 6175SOL    HW230159   3.846   2.863   9.247  1.1665 -0.4384  0.5725
 6176SOL     OW30160   4.697   2.494   5.561 -0.0466  0.3353 -0.2128
 6176SOL    HW130161   0.019   2.460   5.629 -0.3425  1.9223  0.8312
 6176SOL    HW230162   4.632   2.426   5.577  1.4240 -1.2148 -0.8398
 6177SOL     OW30163   4.489   2.610  16.903 -0.0786  0.1281  0.0595
 6177SOL    HW130164   4.408   2.567  16.929  0.6957 -1.2313  0.2286
 6177SOL    HW230165   4.548   2.534  16.899  2.5070  2.0907  0.5715
 6178SOL     OW30166   1.395   2.508   1.600  0.2389  0.4089  0.2607
 6178SOL    HW130167   1.322   2.529   1.658 -0.1595 -0.9694  0.2479
 6178SOL    HW230168   1.359   2.542   1.518  0.5390  1.8176  0.7012
 6179SOL     OW30169   2.392   3.095   8.273 -0.4878  0.0643 -0.0317
 6179SOL    HW130170   2.370   3.186   8.254  0.2973  0.3753  0.5370
 6179SOL    HW230171   2.312   3.045   8.253 -2.1512  2.7586 -0.1259
 6180SOL     OW30172   2.289   3.476   7.023  0.0627 -0.4549 -0.1682
 6180SOL    HW130173   2.257   3.558   7.061  0.7250 -0.5381  0.5948
 6180SOL    HW230174   2.207   3.428   7.021  0.4357 -1.0238 -1.2886
 6181SOL     OW30175   4.050   2.787   3.193 -0.1775  0.6831 -0.3804
 6181SOL    HW130176   4.141   2.767   3.215  0.0136 -0.5985 -2.3806
 6181SOL    HW230177   4.065   2.840   3.115 -0.3711  2.4114  0.7303
 6182SOL     OW30178   2.858   2.965   3.864  0.4406  0.3558 -0.3199
 6182SOL    HW130179   2.856   3.060   3.852 -2.2229  0.6341  2.6416
 6182SOL    HW230180   2.905   2.964   3.947  1.5642  0.7690 -0.9488
 6183SOL     OW30181   2.424   4.306   7.187  0.3649 -0.1102 -0.3394
 6183SOL    HW130182   2.425   4.399   7.211 -0.4219 -0.2471  0.2132
 6183SOL    HW230183   2.388   4.263   7.265 -0.3522  1.3121  0.1122
 6184SOL     OW30184   4.289   3.940   4.501 -0.1276  0.1509 -0.6974
 6184SOL    HW130185   4.207   3.965   4.459  0.3122  1.1404 -0.9809
 6184SOL    HW230186   4.301   4.019   4.554  4.4720 -0.6846 -0.4848
 6185SOL     OW30187   0.331   0.542   1.438  0.0300  0.1680 -0.5229
 6185SOL    HW130188   0.402   0.479   1.435  1.3665  1.5298  2.7849
 6185SOL    HW230189   0.381   0.621   1.418  1.7249 -0.9802 -0.7490
 6186SOL     OW30190   3.298   1.767   3.048 -0.3831 -0.0328  0.3136
 6186SOL    HW130191   3.276   1.686   3.094 -1.8769 -0.2727 -0.8024
 6186SOL    HW230192   3.374   1.799   3.097 -0.2524  1.3937 -0.7937
 6187SOL     OW30193   1.556   4.216   0.683  0.5611  0.2392 -0.6084
 6187SOL    HW130194   1.552   4.121   0.673 -0.1935  0.2442 -0.3242
 6187SOL    HW230195   1.647   4.212   0.715  1.0700  1.7005 -1.8777
 6188SOL     OW30196   0.006   1.874   0.561 -0.0287  0.1738 -0.5388
 6188SOL    HW130197   0.034   1.824   0.484 -1.1698  1.1815 -1.6197
 6188SOL    HW230198   0.086   1.892   0.609 -0.3569 -0.3652  0.2038
 6189SOL     OW30199   3.821   3.844  14.015  0.0967 -0.0154 -0.3871
 6189SOL    HW130200   3.784   3.839  14.103  2.6989  1.6927  0.8135
 6189SOL    HW230201   3.742   3.876  13.970  0.7136  0.5430 -1.0793
 6190SOL     OW30202   3.925   3.669  16.213  0.2846  0.4178  0.1781
 6190SOL    HW130203   3.907   3.609  16.285  0.4733 -0.2819 -0.3514
 6190SOL    HW230204   3.992   3.616  16.169 -1.0809 -1.2118  0.0683
 6191SOL     OW30205   0.149   1.731  12.145 -0.5660  0.3246  0.0162
 6191SOL    HW130206   0.139   1.654  12.200 -2.3453 -0.9314 -2.0608
 6191SOL    HW230207   0.100   1.804  12.185 -0.9859 -1.0024  1.9023
 6192SOL     OW30208   0.212   2.664  16.214  0.4050  0.1665  0.6638
 6192SOL    HW130209   0.233   2.675  16.121 -2.3487  0.2729  0.0276
 6192SOL    HW230210   0.246   2.744  16.253  3.1323 -1.2349  1.1096
 6193SOL     OW30211   0.727   4.542   2.735  0.2089 -0.2148  0.3622
 6193SOL    HW130212   0.778   4.524   2.656 -1.1037 -2.3651  0.0198
 6193SOL    HW230213   0.751   4.460   2.777  0.5252  0.7188  2.0118
 6194SOL     OW30214   0.868   1.479   3.179  0.3053  0.2738 -0.2666
 6194SOL    HW130215   0.788   1.432   3.203 -0.2258  0.1202 -2.3785
 6194SOL    HW230216   0.856   1.479   3.084  1.0338  2.1725 -0.3690
 6195SOL     OW30217   1.080   4.549   2.688  0.0837  0.2533  1.1403
 6195SOL    HW130218   1.092   4.468   2.737 -2.4932  0.3031  1.8575
 6195SOL    HW230219   1.010   4.591   2.737 -0.0887 -0.2917  1.3657
 6196SOL     OW30220   0.152   0.790   0.728 -0.1395 -0.1302  0.0344
 6196SOL    HW130221   0.137   0.849   0.802  1.2959  1.9909 -1.3920
 6196SOL    HW230222   0.204   0.729   0.782 -1.5237 -2.0940 -0.8642
 6197SOL     OW30223   1.920   3.755   3.607  0.4459  0.2647  0.3432
 6197SOL    HW130224   1.871   3.742   3.526  0.6449 -1.2138  0.4674
 6197SOL    HW230225   1.893   3.685   3.667  0.4753 -0.4455 -0.4822
 6198SOL     OW30226   3.048   4.357   5.351  0.5374 -0.4170 -0.2800
 6198SOL    HW130227   2.999   4.355   5.269  0.8213 -1.5553 -0.4197
 6198SOL    HW230228   2.981   4.368   5.418  0.5858 -3.9099  0.3475
 6199SOL     OW30229   2.092   2.552   5.385  0.1348  0.3252  0.5223
 6199SOL    HW130230   2.040   2.514   5.456  0.2276  0.4370  0.6507
 6199SOL    HW230231   2.129   2.634   5.418  1.4261  0.9556 -2.5083
 6200SOL     OW30232   0.709   2.491   8.425  0.0125  0.5915  0.3977
 6200SOL    HW130233   0.619   2.466   8.444  0.1795 -0.0693  0.3092
 6200SOL    HW230234   0.750   2.505   8.511  0.6983 -0.3595  0.2277
 6201SOL     OW30235   1.422   0.135   3.290  0.2095 -0.3422 -0.0179
 6201SOL    HW130236   1.369   0.213   3.272 -0.0415 -0.3153  0.8776
 6201SOL    HW230237   1.504   0.183   3.290  0.6942 -1.1676 -0.7294
 6202SOL     OW30238   1.013   4.537  10.684  0.6798 -0.2237 -0.3650
 6202SOL    HW130239   1.083   4.588  10.726 -0.8482  0.4270  1.3963
 6202SOL    HW230240   1.001   4.588  10.603 -3.1800 -1.5090 -0.6082
 6203SOL     OW30241   4.727   2.821   4.931  0.0100  0.2820  0.3259
 6203SOL    HW130242   0.059   2.818   4.862 -0.1651 -0.6728  0.1852
 6203SOL    HW230243   0.039   2.773   4.999 -1.4735  1.1918  1.9977
 6204SOL     OW30244   0.619   1.891   3.909  0.8095  0.3100  0.2077
 6204SOL    HW130245   0.695   1.938   3.941  0.8204 -0.7631  1.7514
 6204SOL    HW230246   0.595   1.842   3.987  0.5917 -0.4730 -0.3475
 6205SOL     OW30247   0.764   2.898  12.375 -0.2000  0.1675  0.9591
 6205SOL    HW130248   0.768   2.815  12.328 -2.3323 -0.2602  1.5698
 6205SOL    HW230249   0.836   2.879  12.435  1.3924  0.7695 -0.7474
 6206SOL     OW30250   3.216   2.783   1.790  0.1374  0.1853  0.0604
 6206SOL    HW130251   3.299   2.829   1.797  1.4214 -1.7347 -2.8729
 6206SOL    HW230252   3.228   2.718   1.859  2.5992  0.6071  0.0338
 6207SOL     OW30253   0.486   2.086   3.251  0.4892 -0.1305 -0.5257
 6207SOL    HW130254   0.464   1.999   3.216  1.3176 -0.6279  0.1967
 6207SOL    HW230255   0.521   2.064   3.337 -0.5848 -0.9477 -0.2953
 6208SOL     OW30256   1.069   1.753  16.472  0.2352  0.4050 -0.0976
 6208SOL    HW130257   1.093   1.663  16.495 -1.3865  0.2770  1.0856
 6208SOL    HW230258   1.069   1.791  16.560 -4.1447  0.2334 -0.0230
 6209SOL     OW30259   0.818   0.406   3.031  0.7547  0.0700 -0.0961
 6209SOL    HW130260   0.766   0.421   2.952  2.5082 -1.1924 -1.4790
 6209SOL    HW230261   0.898   0.371   2.993  1.0019  0.4750  0.0463
 6210SOL     OW30262   3.263   4.624   4.959  0.3812 -0.0493 -0.8113
 6210SOL    HW130263   3.354   4.625   4.990  0.5331  0.8493 -1.2953
 6210SOL    HW230264   3.275   4.678   4.881  0.9026 -0.6636 -1.1637
 6211SOL     OW30265   0.123   4.451   3.601  0.1220 -0.1589  0.3694
 6211SOL    HW130266   0.123   4.540   3.637  0.5675  0.3040 -0.7878
 6211SOL    HW230267   0.111   4.462   3.507 -0.5455 -0.4027  0.4288
 6212SOL     OW30268   4.271   2.128   1.315  0.2353  0.4359 -0.7322
 6212SOL    HW130269   4.205   2.134   1.245 -0.9028  1.1177  0.3890
 6212SOL    HW230270   4.290   2.035   1.321  0.4136  0.5440  0.3469
 6213SOL     OW30271   0.217   3.238   7.607  0.0629  0.0360 -0.0411
 6213SOL    HW130272   0.281   3.238   7.678 -1.7892 -1.7661  1.6294
 6213SOL    HW230273   0.253   3.298   7.541  0.3216 -2.2415 -1.9652
 6214SOL     OW30274   4.648   2.879   9.961 -0.6251 -0.1248  0.0088
 6214SOL    HW130275   4.698   2.801   9.986 -0.8754 -1.1998 -2.7990
 6214SOL    HW230276   4.718   2.942   9.950 -0.4775 -0.3433 -0.2820
 6215SOL     OW30277   0.093   1.967   4.672 -0.0466 -0.0856  0.4112
 6215SOL    HW130278   0.104   2.040   4.611 -0.4637 -1.8463 -1.7815
 6215SOL    HW230279   0.178   1.926   4.655 -0.3215 -0.5086  0.0328
 6216SOL     OW30280   0.967   2.030  12.689 -0.5684 -0.0712 -0.1896
 6216SOL    HW130281   1.010   2.035  12.604  0.5903 -0.4818  0.3642
 6216SOL    HW230282   0.930   2.118  12.682  0.9112  0.5956  0.4853
 6217SOL     OW30283   4.040   1.685   6.765  0.3191  0.6009 -0.1272
 6217SOL    HW130284   3.974   1.722   6.707  0.5439  1.1158 -0.0558
 6217SOL    HW230285   4.119   1.733   6.740 -0.5284  0.5704 -2.8075
 6218SOL     OW30286   2.099   4.343  13.962 -0.0002  0.5536  0.1175
 6218SOL    HW130287   2.029   4.337  14.027  0.8400 -2.9859  0.7149
 6218SOL    HW230288   2.165   4.285  13.999  0.6983  1.0045 -0.4247
 6219SOL     OW30289   2.734   1.064   5.348 -0.3853  0.1857 -0.2423
 6219SOL    HW130290   2.729   1.142   5.403  0.9179  1.9269 -2.6005
 6219SOL    HW230291   2.691   1.092   5.268 -1.3229 -1.9928 -0.4969
 6220SOL     OW30292   0.156   1.943   5.636 -0.1361  0.3020 -0.2266
 6220SOL    HW130293   0.069   1.980   5.648  0.2505  0.2660  2.7249
 6220SOL    HW230294   0.187   1.949   5.727  2.0539 -0.2839 -0.9425
 6221SOL     OW30295   2.338   1.496  14.636  0.2242 -0.1043 -0.3634
 6221SOL    HW130296   2.271   1.474  14.571 -0.1473 -0.9940  0.3214
 6221SOL    HW230297   2.386   1.552  14.576 -0.0195 -0.3934 -0.8273
 6222SOL     OW30298   2.438   2.053   9.339 -0.1951  0.4080  0.7380
 6222SOL    HW130299   2.362   2.078   9.391 -0.3957  2.0002 -0.3292
 6222SOL    HW230300   2.484   1.997   9.402  3.1218  0.7325 -1.3916
 6223SOL     OW30301   0.702   2.126   2.322 -0.3344  0.2564 -0.0110
 6223SOL    HW130302   0.741   2.133   2.235 -1.5221  0.1367 -0.5484
 6223SOL    HW230303   0.772   2.087   2.375 -0.1400 -0.2910 -0.6671
 6224SOL     OW30304   0.249   3.138   2.921 -0.0558  0.2048  0.2578
 6224SOL    HW130305   0.334   3.105   2.891  0.8131  0.8430  2.0457
 6224SOL    HW230306   0.205   3.053   2.913 -0.9722  0.6247  0.8543
 6225SOL     OW30307   2.209   1.044   6.762 -0.6368 -0.0807  0.2678
 6225SOL    HW130308   2.289   1.019   6.715 -1.0930 -0.0217 -0.5367
 6225SOL    HW230309   2.199   0.959   6.805 -1.7481  0.9884  2.1210
 6226SOL     OW30310   1.515   4.463   6.129  0.2019  0.3106 -0.0344
 6226SOL    HW130311   1.609   4.468   6.142  0.3474 -3.6750  0.4659
 6226SOL    HW230312   1.492   4.394   6.190 -2.4078 -0.1076 -1.4610
 6227SOL     OW30313   0.424   0.834   0.535  0.5422  0.1681  0.5062
 6227SOL    HW130314   0.433   0.740   0.520 -0.2342  0.0314  0.9130
 6227SOL    HW230315   0.328   0.839   0.542  0.4262 -0.5809 -0.5308
 6228SOL     OW30316   0.465   4.093   5.798  0.0956 -0.7650  0.3611
 6228SOL    HW130317   0.422   4.063   5.878 -0.7067  0.4728  0.3981
 6228SOL    HW230318   0.511   4.172   5.827  0.4489 -1.0111  0.4582
 6229SOL     OW30319   1.335   2.321  12.872  0.1538  0.1996  0.2916
 6229SOL    HW130320   1.355   2.414  12.877  0.2107  0.2099 -0.0793
 6229SOL    HW230321   1.407   2.286  12.924  0.2039 -1.7645 -1.1053
 6230SOL     OW30322   1.757   2.162  13.130 -0.1244  0.2613  0.0623
 6230SOL    HW130323   1.794   2.239  13.086 -0.2973  1.0846  1.3695
 6230SOL    HW230324   1.790   2.183  13.217  0.8784  2.3559 -0.8100
 6231SOL     OW30325   0.560   3.720   3.065  0.1433 -0.1801 -0.0689
 6231SOL    HW130326   0.550   3.691   2.975  1.7700 -2.6766  0.5633
 6231SOL    HW230327   0.485   3.780   3.073  0.3745 -0.0920  1.5261
 6232SOL     OW30328   0.094   1.292   4.692  0.1442 -0.3406  0.2767
 6232SOL    HW130329   0.090   1.386   4.678  0.6094 -0.1474  1.3947
 6232SOL    HW230330   0.183   1.276   4.659  0.8610 -1.1850  2.5672
 6233SOL     OW30331   2.087   3.821   2.486 -0.1804  0.0789  0.0097
 6233SOL    HW130332   2.100   3.781   2.572 -1.0504  0.3890  0.2874
 6233SOL    HW230333   2.174   3.860   2.476  0.6168 -1.5545  0.6021
 6234SOL     OW30334   1.698   3.970   2.605 -0.1687  0.2676 -0.2772
 6234SOL    HW130335   1.618   3.939   2.563 -0.6101  1.9935 -0.7354
 6234SOL    HW230336   1.663   4.037   2.665  0.4733 -1.1840  1.7078
 6235SOL     OW30337   0.178   2.897   3.503 -0.7133 -0.5235 -0.0495
 6235SOL    HW130338   0.111   2.857   3.558  1.2057 -2.9219  0.5081
 6235SOL    HW230339   0.206   2.814   3.464 -0.4611 -1.0041  1.1337
 6236SOL     OW30340   2.587   3.038   7.209  0.7662 -0.2531  0.2433
 6236SOL    HW130341   2.659   3.006   7.155  1.7940  0.3921  1.2404
 6236SOL    HW230342   2.565   2.968   7.271 -1.6179 -0.6753 -1.0477
 6237SOL     OW30343   1.892   0.679  14.982  0.4717 -0.4611  0.1886
 6237SOL    HW130344   1.844   0.683  15.064 -0.3553 -2.1623 -0.2024
 6237SOL    HW230345   1.865   0.596  14.942 -1.9539  1.2546 -1.7518
 6238SOL     OW30346   1.889   0.718   7.598  0.1616 -0.1300 -0.1113
 6238SOL    HW130347   1.824   0.650   7.614 -0.1347  0.2684  0.3644
 6238SOL    HW230348   1.846   0.763   7.525  0.6602  0.5313 -0.0027
 6239SOL     OW30349   0.431   3.971   2.147  0.6444  0.1964 -0.3864
 6239SOL    HW130350   0.486   3.910   2.097 -1.1758  0.1997 -2.4052
 6239SOL    HW230351   0.492   4.025   2.197 -0.1843  0.7068  0.0751
 6240SOL     OW30352   4.413   3.619   3.281 -0.0309 -0.1830 -0.2127
 6240SOL    HW130353   4.328   3.648   3.313 -0.6704 -3.7541  1.2140
 6240SOL    HW230354   4.466   3.699   3.290 -1.5802  0.7628  0.6404
 6241SOL     OW30355   4.202   0.024   6.908  0.4872 -0.5104  0.2270
 6241SOL    HW130356   4.290   4.726   6.889  0.8792  0.1379  0.9325
 6241SOL    HW230357   4.184   0.039   7.001  1.0928  0.9243  0.1065
 6242SOL     OW30358   1.733   1.770  11.405  0.1486 -0.2779  0.0782
 6242SOL    HW130359   1.732   1.853  11.452  0.7267  0.6858 -1.6252
 6242SOL    HW230360   1.654   1.727  11.440  0.8253 -0.9527  0.7672
 6243SOL     OW30361   0.172   2.729   5.099 -0.3020 -0.6653 -0.1541
 6243SOL    HW130362   0.258   2.764   5.075 -0.4440 -0.7888 -0.8301
 6243SOL    HW230363   0.192   2.636   5.108 -0.3008 -0.3657  3.1761
 6244SOL     OW30364   1.500   2.518  15.361  0.1787 -0.4805  0.0308
 6244SOL    HW130365   1.419   2.551  15.321 -0.3391 -2.0880 -0.2235
 6244SOL    HW230366   1.556   2.507  15.284 -2.2776  1.1863 -2.0245
 6245SOL     OW30367   2.998   1.855   2.990 -0.2933  0.0994 -0.2105
 6245SOL    HW130368   2.976   1.947   2.998  0.1049  0.2729 -1.0594
 6245SOL    HW230369   3.082   1.855   2.943  0.0423 -0.2944  0.3899
 6246SOL     OW30370   1.935   3.264   7.488 -0.4302  0.4513 -0.1406
 6246SOL    HW130371   1.955   3.288   7.579  2.1753 -1.2393 -0.2665
 6246SOL    HW230372   1.984   3.183   7.500 -0.0519  1.0419  2.2570
 6247SOL     OW30373   3.124   2.232   6.032 -0.2899  0.2774  0.5387
 6247SOL    HW130374   3.092   2.146   6.007 -0.0963  0.8863 -1.7605
 6247SOL    HW230375   3.049   2.279   5.996  0.4075 -0.0031 -1.2587
 6248SOL     OW30376   4.400   2.989  13.948  0.0008 -0.6306 -0.1127
 6248SOL    HW130377   4.457   2.913  13.935  0.3518 -0.1468 -1.5184
 6248SOL    HW230378   4.349   2.975  13.868 -0.4980 -1.3602  0.3383
 6249SOL     OW30379   1.805   3.208  10.881 -0.3633  0.5711 -0.4735
 6249SOL    HW130380   1.717   3.236  10.906 -0.0870  0.5620  0.4985
 6249SOL    HW230381   1.845   3.194  10.967  0.0544  2.1626 -0.3988
 6250SOL     OW30382   1.968   2.469  10.450 -0.2916 -0.1499 -0.2025
 6250SOL    HW130383   1.888   2.493  10.496 -0.3571 -1.3327  0.3087
 6250SOL    HW230384   1.973   2.518  10.368  0.8579 -0.2720 -0.1993
 6251SOL     OW30385   0.144   0.888   4.541 -0.8643 -0.1521  0.3046
 6251SOL    HW130386   0.225   0.867   4.495 -0.9791 -0.8928  0.4517
 6251SOL    HW230387   0.168   0.921   4.627 -0.2148  1.2000 -0.3839
 6252SOL     OW30388   3.089   3.785   8.326 -0.1401 -0.0496  0.6263
 6252SOL    HW130389   3.069   3.691   8.316  2.4804 -0.4905 -0.4983
 6252SOL    HW230390   3.122   3.789   8.236  0.9281  3.2472  1.1877
 6253SOL     OW30391   4.208   3.963   6.053 -0.2097 -0.0596  0.6342
 6253SOL    HW130392   4.276   3.976   6.119  0.3243 -2.5391  0.5628
 6253SOL    HW230393   4.136   3.918   6.098 -0.7082  0.9564  0.8587
 6254SOL     OW30394   3.828   4.719   8.505 -0.5275 -0.5140 -0.6089
 6254SOL    HW130395   3.907   0.004   8.554 -1.6018  0.1589  0.8372
 6254SOL    HW230396   3.863   4.657   8.441  3.7639  0.0893  1.1815
 6255SOL     OW30397   2.262   0.712   5.763 -0.4760  0.0485 -0.1959
 6255SOL    HW130398   2.193   0.650   5.787 -0.4135 -1.5855 -4.2078
 6255SOL    HW230399   2.232   0.726   5.673  0.2447  3.0645  0.0471
 6256SOL     OW30400   3.009   2.307   1.778 -0.0063 -0.1409  0.5201
 6256SOL    HW130401   3.077   2.259   1.730 -0.3907 -1.9032  1.7638
 6256SOL    HW230402   2.998   2.258   1.859  1.5075  0.0964  0.8684
 6257SOL     OW30403   1.846   3.160  16.575 -0.0699 -0.4667 -0.0328
 6257SOL    HW130404   1.882   3.089  16.521 -0.5090 -1.9686  1.6700
 6257SOL    HW230405   1.931   3.180  16.614 -1.3204  1.3486  1.7291
 6258SOL     OW30406   1.699   2.062   4.806 -0.5636  0.4901  0.5364
 6258SOL    HW130407   1.663   2.109   4.882 -1.0691  0.9344  0.0201
 6258SOL    HW230408   1.793   2.079   4.817 -0.2256 -0.6720 -0.6164
 6259SOL     OW30409   4.023   0.986  11.299  0.7402  0.3819  0.1796
 6259SOL    HW130410   4.028   0.968  11.392  0.5999  0.2029  0.1540
 6259SOL    HW230411   3.992   1.075  11.314 -2.6778 -1.1917  2.5693
 6260SOL     OW30412   0.244   0.742   7.622  0.1099  0.3443  0.1162
 6260SOL    HW130413   0.316   0.804   7.608  0.7103 -0.0906  1.2784
 6260SOL    HW230414   0.269   0.704   7.707  2.8368 -1.7386 -1.6218
 6261SOL     OW30415   4.241   4.549  15.793  0.1768  0.8763 -0.0724
 6261SOL    HW130416   4.201   4.635  15.782  1.1617  1.1388 -1.5332
 6261SOL    HW230417   4.254   4.524  15.702 -1.3198  0.6304 -0.2174
 6262SOL     OW30418   2.265   0.304   4.708 -0.3351 -0.1688 -0.2001
 6262SOL    HW130419   2.282   0.286   4.616  0.1116 -1.1410  0.0770
 6262SOL    HW230420   2.323   0.247   4.759  1.7944  1.5529 -0.7013
 6263SOL     OW30421   1.823   2.595   6.879  1.0515 -0.0649  0.3866
 6263SOL    HW130422   1.807   2.518   6.825 -2.3741  0.2671  0.9372
 6263SOL    HW230423   1.915   2.614   6.864  0.3246  2.3300 -1.1231
 6264SOL     OW30424   0.449   4.484   9.176 -0.0744 -0.0625  0.1395
 6264SOL    HW130425   0.444   4.400   9.223  0.1161 -0.9010 -1.3431
 6264SOL    HW230426   0.461   4.543   9.250 -1.9767  0.8479 -0.2959
 6265SOL     OW30427   1.151   3.233   9.412 -0.2543 -0.2591  0.2579
 6265SOL    HW130428   1.072   3.230   9.466  0.3688  1.6759  1.2806
 6265SOL    HW230429   1.177   3.325   9.413  0.7869 -0.5361 -1.2453
 6266SOL     OW30430   2.930   4.211  17.708  0.0638 -0.3512 -0.4325
 6266SOL    HW130431   2.867   4.140  17.717 -1.7792  1.0259 -2.6684
 6266SOL    HW230432   2.873   4.288  17.714  0.1181 -0.3852  0.4840
 6267SOL     OW30433   2.553   3.634   9.099 -0.3598 -0.9853 -0.0602
 6267SOL    HW130434   2.530   3.601   9.186 -2.5367  0.8855  0.0988
 6267SOL    HW230435   2.475   3.684   9.073  0.1725  0.4935  1.1522
 6268SOL     OW30436   2.663   2.486   3.559 -0.7462 -0.1865  0.9796
 6268SOL    HW130437   2.689   2.490   3.467  1.0891  0.3579  1.5237
 6268SOL    HW230438   2.599   2.416   3.549  0.4335 -0.8395 -1.9309
 6269SOL     OW30439   2.698   1.748   2.049 -0.2074  0.0337 -0.0312
 6269SOL    HW130440   2.626   1.795   2.090 -1.2275  0.7790 -2.7080
 6269SOL    HW230441   2.683   1.659   2.081 -2.4792  0.3193 -0.3309
 6270SOL     OW30442   2.212   4.620   4.335  0.2338 -0.2138  0.1618
 6270SOL    HW130443   2.307   4.621   4.321  0.2752  0.2162  0.4662
 6270SOL    HW230444   2.198   4.527   4.317  0.2439 -0.1501 -0.1917
 6271SOL     OW30445   1.045   1.260   8.142  0.3697 -0.1394  0.0438
 6271SOL    HW130446   1.132   1.286   8.111  0.5148 -0.3997  0.2356
 6271SOL    HW230447   1.064   1.171   8.171 -0.1360 -0.3398 -0.2367
 6272SOL     OW30448   1.220   3.545   5.179  0.2936  0.1871  0.3919
 6272SOL    HW130449   1.214   3.558   5.273 -0.7688  0.9865  0.2107
 6272SOL    HW230450   1.135   3.507   5.157  0.1844  0.3038  0.6137
 6273SOL     OW30451   4.466   3.438   3.613  0.1860  0.0516 -0.5374
 6273SOL    HW130452   4.476   3.517   3.560 -0.6930  0.6125  0.1336
 6273SOL    HW230453   4.538   3.394   3.567 -1.2191 -0.8536 -1.9071
 6274SOL     OW30454   1.646   0.111   7.524  0.5452  0.0961  0.2582
 6274SOL    HW130455   1.731   0.117   7.481  0.4659  1.1619  0.2511
 6274SOL    HW230456   1.667   0.031   7.572  1.2180  0.5798  0.7715
 6275SOL     OW30457   4.009   0.849   7.785 -0.3479 -0.5081  0.1753
 6275SOL    HW130458   3.973   0.917   7.728 -0.8309  0.1715  1.2927
 6275SOL    HW230459   4.090   0.889   7.814 -0.4660 -0.1941  0.0732
 6276SOL     OW30460   3.363   1.071   1.253  0.3690  0.0486 -0.6705
 6276SOL    HW130461   3.310   1.142   1.291 -1.1859 -1.4548 -0.0442
 6276SOL    HW230462   3.297   1.006   1.227 -0.1229  0.0973  0.4307
 6277SOL     OW30463   1.393   2.951   4.245  0.2006  0.2233 -0.2711
 6277SOL    HW130464   1.386   3.001   4.164 -0.4938 -1.8049 -1.4351
 6277SOL    HW230465   1.472   2.985   4.288  1.0347 -0.7644 -1.0456
 6278SOL     OW30466   3.460   3.644   5.137  0.0088  0.0263  0.3258
 6278SOL    HW130467   3.486   3.636   5.045 -2.3358  1.1087 -0.4297
 6278SOL    HW230468   3.381   3.590   5.137 -0.2461  0.4007  0.3272
 6279SOL     OW30469   1.172   2.143   2.314 -0.2330 -0.4974 -0.2206
 6279SOL    HW130470   1.198   2.170   2.402  0.2791 -2.1610  0.1423
 6279SOL    HW230471   1.148   2.227   2.275  0.5385 -0.5831 -0.8830
 6280SOL     OW30472   4.670   4.526   2.808 -0.1447 -0.0928  0.0350
 6280SOL    HW130473   4.675   4.527   2.904  0.1638  0.3208  0.0132
 6280SOL    HW230474   4.667   4.431   2.795  1.6516  0.0069 -1.0769
 6281SOL     OW30475   3.730   2.505   5.688 -0.3084  0.1062 -0.6227
 6281SOL    HW130476   3.664   2.437   5.678 -0.4308  0.3535 -1.4425
 6281SOL    HW230477   3.684   2.567   5.745  1.4655  1.2358 -0.4020
 6282SOL     OW30478   3.267   1.091   1.536 -0.1256 -0.2836 -0.1510
 6282SOL    HW130479   3.361   1.087   1.516 -0.0300 -0.5143  0.3408
 6282SOL    HW230480   3.239   1.136   1.457 -1.3349  0.0864  0.4855
 6283SOL     OW30481   1.276   2.930   6.784  0.4765 -0.0004  0.0312
 6283SOL    HW130482   1.331   2.997   6.824  2.5827  0.1562 -3.1977
 6283SOL    HW230483   1.336   2.900   6.716  0.2087  0.7486 -0.5408
 6284SOL     OW30484   2.373   1.666   2.038 -0.6615  0.9555 -0.2115
 6284SOL    HW130485   2.359   1.746   2.088 -1.4044  0.2107  0.7728
 6284SOL    HW230486   2.369   1.699   1.948 -3.2585 -0.2365 -0.5628
 6285SOL     OW30487   3.866   0.398  11.550  0.4403 -0.0866 -0.4074
 6285SOL    HW130488   3.918   0.477  11.541 -1.0886  0.8899 -0.6689
 6285SOL    HW230489   3.884   0.347  11.470  0.4084 -1.5797  0.5337
 6286SOL     OW30490   2.912   2.106   9.695  0.0125  0.2216  0.1427
 6286SOL    HW130491   2.986   2.114   9.636  0.0509  1.5022  0.3740
 6286SOL    HW230492   2.869   2.023   9.672 -0.4442  0.6285 -0.4464
 6287SOL     OW30493   1.321   1.534   2.585  0.4383 -0.0185 -0.3892
 6287SOL    HW130494   1.267   1.467   2.629  0.8890 -0.0669  0.0920
 6287SOL    HW230495   1.261   1.586   2.531  1.7300 -0.3189 -2.0894
 6288SOL     OW30496   4.245   3.041   7.599 -0.1379  0.2769 -0.0699
 6288SOL    HW130497   4.225   2.971   7.661 -0.4659 -0.0635 -0.5648
 6288SOL    HW230498   4.325   3.008   7.558  1.5374  4.2433 -0.0614
 6289SOL     OW30499   2.631   0.255   4.637 -0.1956  0.0798 -0.1209
 6289SOL    HW130500   2.594   0.201   4.568  0.0984  0.2120 -0.3774
 6289SOL    HW230501   2.604   0.203   4.713  0.7261 -0.0003  0.1449
 6290SOL     OW30502   3.028   2.734   0.925 -0.0528 -0.2996  0.3993
 6290SOL    HW130503   2.963   2.666   0.909  1.6426 -1.4009 -1.7747
 6290SOL    HW230504   3.014   2.760   1.016 -1.8725 -0.7952  0.2389
 6291SOL     OW30505   0.103   2.876  10.746  0.8120 -0.5810  0.2807
 6291SOL    HW130506   0.059   2.799  10.782 -0.2366 -0.7466 -1.4070
 6291SOL    HW230507   0.095   2.938  10.819 -2.9993  0.1196 -0.7468
 6292SOL     OW30508   1.951   1.338   7.229  0.0667  0.1148 -0.1988
 6292SOL    HW130509   1.888   1.310   7.163 -0.9570 -1.5429  1.4995
 6292SOL    HW230510   1.892   1.374   7.296 -0.3373  0.4195 -0.7170
 6293SOL     OW30511   3.125   2.594   5.336 -0.6248  0.4209  0.1716
 6293SOL    HW130512   3.215   2.570   5.359 -0.6135  1.0781  0.8279
 6293SOL    HW230513   3.083   2.550   5.409 -1.3352 -0.9318 -1.0686
 6294SOL     OW30514   2.157   3.867   3.286 -0.2958 -0.1931  0.6311
 6294SOL    HW130515   2.067   3.869   3.253  0.1558 -0.8877 -0.6611
 6294SOL    HW230516   2.209   3.819   3.221 -1.5549 -0.3871 -0.2354
 6295SOL     OW30517   4.582   3.723   8.294 -0.1074 -0.2632 -0.4777
 6295SOL    HW130518   4.524   3.660   8.253 -0.3312  0.2721 -0.9763
 6295SOL    HW230519   4.567   3.706   8.387  2.3019  1.3826  0.2415
 6296SOL     OW30520   3.816   1.814   5.449  0.5884 -0.2231 -0.3830
 6296SOL    HW130521   3.749   1.837   5.384 -1.2843  0.3937  1.7545
 6296SOL    HW230522   3.840   1.726   5.421  0.8628 -0.3198  0.1654
 6297SOL     OW30523   2.614   2.532   9.541  0.3141 -0.2270  0.2320
 6297SOL    HW130524   2.671   2.607   9.526 -0.3774  0.5037  1.2768
 6297SOL    HW230525   2.656   2.461   9.493 -0.7546 -1.4823  1.1447
 6298SOL     OW30526   1.549   2.983   6.912  0.1217 -0.1297  0.2199
 6298SOL    HW130527   1.579   2.899   6.948  1.0662  0.0549 -0.1330
 6298SOL    HW230528   1.541   3.040   6.988 -0.7465 -0.0513  0.0697
 6299SOL     OW30529   2.443   1.025   9.305  0.5217  0.0659 -0.2043
 6299SOL    HW130530   2.481   0.961   9.246  0.0319  1.4122 -1.9824
 6299SOL    HW230531   2.369   1.065   9.258  0.1743  1.3724  1.4416
 6300SOL     OW30532   3.886   3.326   2.711 -0.0933  0.0272 -0.4010
 6300SOL    HW130533   3.857   3.351   2.799  1.1849  1.5267 -0.4048
 6300SOL    HW230534   3.814   3.348   2.652  0.2121 -1.5337 -1.3526
 6301SOL     OW30535   2.551   3.667   4.061  0.1673 -0.5059  0.0211
 6301SOL    HW130536   2.546   3.666   3.966  1.9165 -0.4631 -0.0664
 6301SOL    HW230537   2.641   3.693   4.079 -0.2268  1.9803 -1.6134
 6302SOL     OW30538   2.670   1.933   8.954  0.3234  0.5355  0.7312
 6302SOL    HW130539   2.605   1.991   8.993 -1.3121  0.3835 -1.7955
 6302SOL    HW230540   2.687   1.879   9.031 -4.3057 -0.9450  0.7187
 6303SOL     OW30541   1.960   1.977   6.009  0.6590 -0.1425 -0.6633
 6303SOL    HW130542   1.886   1.990   5.949  0.6145  2.0726 -0.1430
 6303SOL    HW230543   2.018   2.050   5.987  3.6737 -1.6573  2.3386
 6304SOL     OW30544   1.730   4.212   9.577 -0.5356  0.0560 -0.6798
 6304SOL    HW130545   1.727   4.156   9.655  1.4173 -2.2402 -2.2207
 6304SOL    HW230546   1.653   4.268   9.577  0.4348  1.3771  3.1351
 6305SOL     OW30547   0.986   4.340   9.214 -0.8416  0.6032  0.2426
 6305SOL    HW130548   1.010   4.272   9.151  1.5883  1.3373  0.3716
 6305SOL    HW230549   1.016   4.299   9.295  1.4624  1.5617 -0.1316
 6306SOL     OW30550   2.042   2.213  14.845 -0.0644 -0.2929 -0.3613
 6306SOL    HW130551   2.000   2.299  14.849 -0.8915 -0.6619 -0.9934
 6306SOL    HW230552   2.133   2.239  14.833 -0.2780 -0.5589 -2.6130
 6307SOL     OW30553   2.437   4.437   5.715  0.4843  0.7430 -0.1152
 6307SOL    HW130554   2.393   4.409   5.634 -0.6371  1.7562  0.1368
 6307SOL    HW230555   2.419   4.531   5.725 -1.4140  0.1165  2.2669
 6308SOL     OW30556   3.487   0.941   7.468 -0.2915 -0.4741  0.4135
 6308SOL    HW130557   3.392   0.945   7.456 -0.0633 -0.6454 -1.5987
 6308SOL    HW230558   3.517   0.892   7.391  1.2011  3.6654 -1.6065
 6309SOL     OW30559   3.285   2.171   4.747  0.3426  0.0901  0.3170
 6309SOL    HW130560   3.316   2.101   4.805  0.2364  2.7049  3.5330
 6309SOL    HW230561   3.365   2.224   4.736  1.3541 -1.1299  1.8240
 6310SOL     OW30562   3.907   2.481   8.769  0.3405 -0.3597 -0.4519
 6310SOL    HW130563   3.898   2.403   8.825  0.1647 -0.1345 -0.1653
 6310SOL    HW230564   3.915   2.547   8.838  2.4769  0.4031 -1.4431
 6311SOL     OW30565   0.705   1.678   8.279  0.4636  0.2490  0.1641
 6311SOL    HW130566   0.743   1.593   8.256  1.0458 -0.5268  4.0436
 6311SOL    HW230567   0.625   1.646   8.321  1.4793 -0.5126  1.5222
 6312SOL     OW30568   2.845   1.162  17.069 -0.2690  0.2671  0.4598
 6312SOL    HW130569   2.774   1.102  17.046  0.1072 -1.0249  2.5925
 6312SOL    HW230570   2.854   1.201  16.983 -0.2689 -1.4439 -0.3159
 6313SOL     OW30571   1.761   2.366   6.692  0.0321  0.1558  0.0585
 6313SOL    HW130572   1.669   2.367   6.666 -0.4655  1.1757  1.8713
 6313SOL    HW230573   1.808   2.373   6.609 -0.4380  2.5218  0.0038
 6314SOL     OW30574   0.419   1.893   4.997  0.1060 -0.0582  0.1705
 6314SOL    HW130575   0.373   1.955   4.940  0.9458  1.0042  0.6532
 6314SOL    HW230576   0.363   1.816   4.983 -0.4006  0.5030 -0.9613
 6315SOL     OW30577   1.160   4.522   8.931 -0.2842  0.2460  0.3701
 6315SOL    HW130578   1.127   4.518   9.021  0.0091  1.0164  0.5136
 6315SOL    HW230579   1.089   4.489   8.876 -0.7845  1.3724  0.3348
 6316SOL     OW30580   4.061   4.184   4.111 -0.0553  0.3617 -0.1383
 6316SOL    HW130581   4.021   4.098   4.126  1.8473 -0.5672 -0.3905
 6316SOL    HW230582   4.022   4.235   4.182  0.9571  1.3390 -0.3051
 6317SOL     OW30583   2.449   4.247   5.200 -0.0032 -0.2926  0.2970
 6317SOL    HW130584   2.424   4.332   5.165 -1.2230 -1.4796 -1.6917
 6317SOL    HW230585   2.435   4.195   5.121 -2.9869  0.3067  0.4089
 6318SOL     OW30586   0.351   0.200   7.284  0.4701 -0.3332 -0.4436
 6318SOL    HW130587   0.432   0.160   7.315  1.4932  2.3418  0.3499
 6318SOL    HW230588   0.316   0.248   7.360  2.6381  0.0908  0.2771
 6319SOL     OW30589   4.245   2.175  10.795 -0.3746 -0.2988  0.0079
 6319SOL    HW130590   4.224   2.091  10.836  1.1751  0.5724  2.5876
 6319SOL    HW230591   4.270   2.228  10.871  0.5316  0.0221 -0.5138
 6320SOL     OW30592   3.136   1.670   2.834 -0.2975  0.3089  0.0819
 6320SOL    HW130593   3.172   1.665   2.745 -0.3556  2.5617 -0.0575
 6320SOL    HW230594   3.207   1.691   2.896 -1.5397  1.1579  1.2132
 6321SOL     OW30595   0.300   4.438   0.218  0.1889  0.1008 -0.0385
 6321SOL    HW130596   0.379   4.385   0.232  0.4019  1.2214  2.8944
 6321SOL    HW230597   0.259   4.393   0.144 -2.0251  0.7714  0.7988
 6322SOL     OW30598   2.923   4.293  12.423  0.2244 -0.1162 -1.0364
 6322SOL    HW130599   3.012   4.267  12.445  0.1441 -0.1741 -0.7851
 6322SOL    HW230600   2.886   4.262  12.506  0.4927 -1.3422 -1.3849
 6323SOL     OW30601   2.868   3.860  15.897  0.2584 -0.0859  0.0095
 6323SOL    HW130602   2.926   3.798  15.940 -0.5496 -0.1618  1.0038
 6323SOL    HW230603   2.809   3.796  15.857 -2.0514  0.5826  2.3217
 6324SOL     OW30604   1.797   1.846  10.625  0.0791 -0.1352  0.1044
 6324SOL    HW130605   1.870   1.847  10.564  0.4591  1.6262  0.6014
 6324SOL    HW230606   1.732   1.803  10.570 -1.8255  0.3537  1.9484
 6325SOL     OW30607   4.701   3.662  14.275  0.3010  0.2662 -0.9789
 6325SOL    HW130608   4.721   3.749  14.308 -2.2148  0.5570 -0.1771
 6325SOL    HW230609   0.056   3.630  14.272  0.7771  1.3355  2.1647
 6326SOL     OW30610   4.432   2.894  10.279  0.2250 -0.5411  0.2941
 6326SOL    HW130611   4.514   2.937  10.257  0.1545  0.2681  1.6194
 6326SOL    HW230612   4.462   2.816  10.326 -2.0375 -0.9699  1.0515
 6327SOL     OW30613   2.194   3.402  14.642  0.2067 -0.0481  0.4161
 6327SOL    HW130614   2.223   3.312  14.628 -0.8707  0.1373 -3.2034
 6327SOL    HW230615   2.237   3.422  14.725 -1.4829  2.3862  0.7133
 6328SOL     OW30616   3.342   2.428   9.774 -0.0951 -0.3264 -0.3159
 6328SOL    HW130617   3.430   2.465   9.768  0.9605 -2.7300  0.2341
 6328SOL    HW230618   3.304   2.467   9.696  1.1820  0.5603 -0.4978
 6329SOL     OW30619   1.813   4.421  11.410 -0.2076 -0.4362  0.5707
 6329SOL    HW130620   1.780   4.508  11.429  0.2148 -0.5445  1.7887
 6329SOL    HW230621   1.790   4.407  11.318  2.1240  0.9904 -0.2233
 6330SOL     OW30622   0.722   2.723   3.401  0.3662  0.2943  0.5078
 6330SOL    HW130623   0.716   2.799   3.343  0.2213 -0.5020 -0.5230
 6330SOL    HW230624   0.783   2.762   3.464  1.5004  0.2780 -0.5892
 6331SOL     OW30625   3.553   0.630   4.543 -0.0515 -0.5304  0.4053
 6331SOL    HW130626   3.493   0.556   4.534 -0.1086 -0.5911  1.3316
 6331SOL    HW230627   3.620   0.610   4.478  0.3237 -1.1872  1.0014
 6332SOL     OW30628   1.614   1.072   4.099 -0.2525 -0.0581  0.3788
 6332SOL    HW130629   1.640   1.021   4.022  4.1887 -2.1677  3.2251
 6332SOL    HW230630   1.591   1.159   4.067  0.3579  0.1545  0.5175
 6333SOL     OW30631   3.427   1.840  16.600  0.5971 -0.1577  0.8176
 6333SOL    HW130632   3.387   1.866  16.683  1.3514 -0.0382  1.1399
 6333SOL    HW230633   3.352   1.818  16.544  0.3092 -0.3133  1.2594
 6334SOL     OW30634   0.979   0.075  17.030  0.5113 -0.3888  0.2124
 6334SOL    HW130635   0.982   0.056  16.936  0.5869 -2.6272  0.6825
 6334SOL    HW230636   0.887   0.054  17.044 -0.1367  2.8094  0.8914
 6335SOL     OW30637   4.306   3.410   7.873  0.3221 -0.1435 -0.4295
 6335SOL    HW130638   4.389   3.363   7.883 -1.5052 -3.0531  0.9156
 6335SOL    HW230639   4.296   3.408   7.778  4.2584 -0.7098 -0.8153
 6336SOL     OW30640   4.034   4.604   0.648  0.2891 -0.3285 -0.3653
 6336SOL    HW130641   4.013   4.668   0.580 -2.4783  0.1614  0.9615
 6336SOL    HW230642   3.970   4.537   0.624 -0.7044  0.4905 -0.0213
 6337SOL     OW30643   3.526   1.416   2.344 -0.0232 -0.2450  0.2220
 6337SOL    HW130644   3.449   1.377   2.303  2.0249 -4.9826  0.9085
 6337SOL    HW230645   3.498   1.421   2.436 -0.0697  0.0737  0.1899
 6338SOL     OW30646   2.328   2.234   7.703  0.1483 -0.0362 -0.7485
 6338SOL    HW130647   2.281   2.290   7.640 -2.6734 -1.0026  0.5169
 6338SOL    HW230648   2.259   2.179   7.740  0.2242  2.5495  3.1237
 6339SOL     OW30649   3.418   1.376  11.414  0.3063  0.0592  0.1725
 6339SOL    HW130650   3.376   1.307  11.465  3.5994 -1.5844  0.6532
 6339SOL    HW230651   3.483   1.330  11.360  0.1255  1.3788 -1.1760
 6340SOL     OW30652   2.712   0.806   0.720  0.4619  0.0161  0.3801
 6340SOL    HW130653   2.634   0.836   0.673 -0.6840 -1.1946  1.5246
 6340SOL    HW230654   2.758   0.738   0.671  1.4514 -0.1050  1.4994
 6341SOL     OW30655   3.503   3.587   4.469  0.2682 -0.6141  0.6164
 6341SOL    HW130656   3.537   3.500   4.445  0.7015 -0.2975  0.0848
 6341SOL    HW230657   3.519   3.594   4.563 -0.5955  2.4966  0.5159
 6342SOL     OW30658   4.611   3.440   6.911  0.2649 -0.0005  0.3009
 6342SOL    HW130659   4.675   3.495   6.865  0.0055  0.5547  0.6031
 6342SOL    HW230660   4.536   3.436   6.852  0.6714  2.7058 -0.4145
 6343SOL     OW30661   3.068   0.100   1.396 -0.1840  0.2927  0.1383
 6343SOL    HW130662   3.002   0.039   1.430 -1.2192  0.9046 -0.7670
 6343SOL    HW230663   3.117   0.036   1.345 -1.2852  0.0218 -0.5965
 6344SOL     OW30664   2.760   0.793   2.875 -0.5604 -0.2342 -0.2714
 6344SOL    HW130665   2.830   0.771   2.813  1.0973 -1.8607  2.1777
 6344SOL    HW230666   2.756   0.888   2.870 -0.8921 -0.3034 -1.2612
 6345SOL     OW30667   1.016   2.123   3.762  0.2158  0.7104  0.2204
 6345SOL    HW130668   0.968   2.203   3.782 -1.0859  0.1846 -0.8985
 6345SOL    HW230669   1.056   2.136   3.676  0.0146  1.7459  0.2892
 6346SOL     OW30670   3.135   0.058   0.794  0.7099  0.7144 -0.1320
 6346SOL    HW130671   3.115   4.719   0.738 -0.7713  1.3812 -0.4761
 6346SOL    HW230672   3.131   0.128   0.728  0.8806  0.0621 -0.8348
 6347SOL     OW30673   3.970   0.516   7.928  0.3629  0.1876 -0.0359
 6347SOL    HW130674   3.979   0.592   7.986  0.2395  0.7283 -0.7390
 6347SOL    HW230675   3.934   0.558   7.851  1.1757  2.3003  0.7468
 6348SOL     OW30676   0.920   0.211  10.590 -0.0471  0.0377  0.1677
 6348SOL    HW130677   1.009   0.241  10.611  0.3564  0.6151 -2.3326
 6348SOL    HW230678   0.927   0.222  10.495 -0.9519 -0.3067  0.0702
 6349SOL     OW30679   3.983   0.999   3.158 -0.2018 -0.4752  0.0907
 6349SOL    HW130680   3.890   1.019   3.163  0.1195  0.1250  3.7606
 6349SOL    HW230681   3.987   0.906   3.136  1.7790 -0.4192  0.1413
 6350SOL     OW30682   0.334   0.336  12.779 -0.4849  0.1847 -1.3929
 6350SOL    HW130683   0.397   0.267  12.798 -1.5325 -0.4871 -0.3252
 6350SOL    HW230684   0.392   0.410  12.794 -0.9807  0.0830  0.9766
 6351SOL     OW30685   4.398   4.083  17.089  0.4442  0.1203  0.1675
 6351SOL    HW130686   4.466   4.019  17.110  0.7903  0.4880  0.1693
 6351SOL    HW230687   4.394   4.060  16.996  1.0371 -0.2984  0.2395
 6352SOL     OW30688   3.083   0.881   5.803 -0.3363 -0.4446  0.7068
 6352SOL    HW130689   3.110   0.791   5.784 -0.4215 -0.8531  2.4761
 6352SOL    HW230690   3.108   0.928   5.724  1.3138  0.9241  2.0107
 6353SOL     OW30691   3.155   1.446   7.405  0.7197  0.0424  0.0890
 6353SOL    HW130692   3.225   1.447   7.471  2.6092 -0.0927 -1.8967
 6353SOL    HW230693   3.090   1.494   7.456 -0.6901  0.1498 -1.8311
 6354SOL     OW30694   2.377   3.055   3.219  0.2198 -0.0109  0.1177
 6354SOL    HW130695   2.421   3.040   3.303  0.7208  0.9666  0.0309
 6354SOL    HW230696   2.287   3.074   3.247  0.7436  0.3636  1.5673
 6355SOL     OW30697   1.879   1.481   5.707  1.0135 -0.1692  0.2590
 6355SOL    HW130698   1.810   1.455   5.646 -1.3742  0.4074  2.6920
 6355SOL    HW230699   1.836   1.456   5.789 -0.8927  0.6712 -0.4748
 6356SOL     OW30700   3.641   4.676   1.079 -0.2364 -0.2956 -0.0973
 6356SOL    HW130701   3.737   4.685   1.075 -0.5206  3.3106  1.4361
 6356SOL    HW230702   3.626   4.615   1.008 -0.1022 -0.5484  0.0886
 6357SOL     OW30703   0.810   1.140   1.770  0.6544  0.2783  0.6796
 6357SOL    HW130704   0.883   1.174   1.718 -1.2508  1.1010 -1.4853
 6357SOL    HW230705   0.730   1.166   1.723  1.9384  0.8041 -1.2217
 6358SOL     OW30706   0.128   3.807  16.774 -0.3215  0.0018 -0.3145
 6358SOL    HW130707   0.067   3.784  16.844 -0.5340  0.2330 -0.4262
 6358SOL    HW230708   0.081   3.878  16.730 -0.6953  1.5820  2.6598
 6359SOL     OW30709   3.891   3.918  14.381  0.0632  0.6076 -0.0893
 6359SOL    HW130710   3.981   3.901  14.409  0.3809  0.0734 -1.4406
 6359SOL    HW230711   3.864   4.000  14.423  2.2476  1.0081  0.5134
 6360SOL     OW30712   4.076   3.601   5.455 -0.3753  0.1254  0.6432
 6360SOL    HW130713   4.139   3.598   5.382 -2.7421 -0.3959 -1.3541
 6360SOL    HW230714   3.996   3.566   5.417  1.7593 -1.3792 -2.4995
 6361SOL     OW30715   0.306   0.115   4.238  0.6020 -0.2311  0.4383
 6361SOL    HW130716   0.398   0.113   4.266  0.3675  0.2622  1.2344
 6361SOL    HW230717   0.273   0.170   4.308  2.5714  1.6269 -0.0725
 6362SOL     OW30718   0.819   1.135   5.481  0.0045  0.4022 -0.0089
 6362SOL    HW130719   0.906   1.172   5.499 -0.2072 -0.2533  2.3537
 6362SOL    HW230720   0.817   1.089   5.565  0.0967  0.9235  0.2812
 6363SOL     OW30721   4.490   2.136   6.184 -0.1011  0.6625  0.2887
 6363SOL    HW130722   4.402   2.165   6.160 -0.4112 -1.1427 -0.7218
 6363SOL    HW230723   4.486   2.134   6.280  1.4511  1.3424  0.3654
 6364SOL     OW30724   1.236   4.337   4.499 -0.9073 -0.4604  0.1199
 6364SOL    HW130725   1.254   4.391   4.422  0.5235 -3.3913 -1.5975
 6364SOL    HW230726   1.315   4.286   4.518 -1.4499 -0.1887  3.2005
 6365SOL     OW30727   1.604   3.152   5.328  1.0563  0.4651  0.2583
 6365SOL    HW130728   1.585   3.103   5.248 -3.0365  0.7335  1.0748
 6365SOL    HW230729   1.521   3.143   5.375  0.5782 -0.7237 -0.8060
 6366SOL     OW30730   4.151   4.673   6.120  0.2087 -0.2031  0.2831
 6366SOL    HW130731   4.121   4.646   6.034 -0.0783 -0.1968  0.3824
 6366SOL    HW230732   4.075   4.637   6.165 -0.8105  0.4588 -0.9018
 6367SOL     OW30733   3.245   2.413   3.323 -0.8178  0.1712  0.4035
 6367SOL    HW130734   3.151   2.396   3.334 -0.4603 -1.8356  0.3005
 6367SOL    HW230735   3.251   2.475   3.396  0.6676  0.2758  0.1968
 6368SOL     OW30736   1.714   2.338  13.657 -0.2604  0.0676 -0.2385
 6368SOL    HW130737   1.622   2.337  13.685 -0.3295 -2.1649 -0.5566
 6368SOL    HW230738   1.739   2.247  13.671 -0.6497  0.0138  0.1123
 6369SOL     OW30739   2.866   4.141  12.638  0.1352 -0.5692 -0.3925
 6369SOL    HW130740   2.796   4.075  12.639  0.0479 -0.4839 -3.4406
 6369SOL    HW230741   2.938   4.093  12.678 -0.3379 -0.2622  0.8582
 6370SOL     OW30742   1.191   0.615   8.076  0.0978  0.4826  0.5027
 6370SOL    HW130743   1.271   0.651   8.039  0.6118 -0.7985  0.3821
 6370SOL    HW230744   1.202   0.521   8.065  0.1946  0.4800  0.6192
 6371SOL     OW30745   1.285   4.156   4.217 -0.4081  0.6028 -0.7990
 6371SOL    HW130746   1.222   4.164   4.146 -0.9473  1.1478 -0.2590
 6371SOL    HW230747   1.267   4.241   4.256 -2.2073 -0.2736  0.2858
 6372SOL     OW30748   0.941   2.528   6.047 -0.5678  0.8394  0.8041
 6372SOL    HW130749   1.025   2.493   6.077 -0.7273  0.0892  0.3848
 6372SOL    HW230750   0.901   2.551   6.131 -1.2309  3.9832 -0.3735
 6373SOL     OW30751   4.389   3.789   0.635  0.1543 -0.0585 -0.3606
 6373SOL    HW130752   4.452   3.742   0.580  0.6861  0.9609 -0.6284
 6373SOL    HW230753   4.405   3.744   0.718  1.8263 -0.1955 -0.7433
 6374SOL     OW30754   1.852   0.605   2.964 -0.1538 -0.0863  0.1771
 6374SOL    HW130755   1.844   0.684   2.911 -1.1811  1.1815  2.2281
 6374SOL    HW230756   1.918   0.566   2.906  0.0634  1.1289 -0.3984
 6375SOL     OW30757   1.187   3.487  10.713  0.2226 -0.0610 -0.0551
 6375SOL    HW130758   1.248   3.560  10.713 -0.5298  0.5628  1.4124
 6375SOL    HW230759   1.105   3.534  10.695  3.3457  4.6786 -1.9151
 6376SOL     OW30760   4.563   0.306   0.481  0.3364  0.0347  0.2102
 6376SOL    HW130761   4.642   0.342   0.523 -1.1726 -0.0531  3.1245
 6376SOL    HW230762   4.503   0.378   0.498  0.3903  0.5115 -1.6713
 6377SOL     OW30763   0.264   4.553  10.005 -0.3601 -0.1026 -0.2192
 6377SOL    HW130764   0.333   4.506   9.958 -1.3584 -2.0240  0.2647
 6377SOL    HW230765   0.315   4.564  10.085  0.0997  3.5953 -1.0029
 6378SOL     OW30766   2.307   3.103   8.712  0.2170  0.2884  0.3011
 6378SOL    HW130767   2.241   3.171   8.696  0.7740  1.3613  2.5027
 6378SOL    HW230768   2.350   3.103   8.627 -0.8595 -2.9376 -0.2147
 6379SOL     OW30769   2.292   2.985   5.242 -0.1720  0.0855  0.0572
 6379SOL    HW130770   2.264   3.013   5.330 -1.7794 -4.2484  0.9173
 6379SOL    HW230771   2.265   2.894   5.253  0.0130 -0.0694 -0.7620
 6380SOL     OW30772   0.664   4.117   9.174  0.5691 -0.6359  0.3174
 6380SOL    HW130773   0.700   4.204   9.154 -1.4674 -0.0997 -1.0041
 6380SOL    HW230774   0.706   4.065   9.107 -0.0666 -0.9207  0.1416
 6381SOL     OW30775   3.539   0.781   2.208 -0.1555  0.1056 -0.5131
 6381SOL    HW130776   3.533   0.876   2.200 -0.7910  0.1659  0.5922
 6381SOL    HW230777   3.627   0.757   2.179 -0.6349  2.2777 -3.7931
 6382SOL     OW30778   2.964   3.060   9.626  0.3738 -0.8163 -0.1268
 6382SOL    HW130779   3.001   3.050   9.714  0.4280 -1.3099 -0.2029
 6382SOL    HW230780   3.012   3.141   9.609 -0.8828 -0.3711 -1.5489
 6383SOL     OW30781   1.520   1.239   2.755  0.4998  0.3241 -0.4481
 6383SOL    HW130782   1.476   1.275   2.832  0.5960  0.6893 -0.5633
 6383SOL    HW230783   1.584   1.190   2.807 -0.5429  0.6407  1.1595
 6384SOL     OW30784   1.324   4.048   7.488  1.1291 -0.3307  0.3427
 6384SOL    HW130785   1.304   4.016   7.576  0.9240  1.6835  1.0308
 6384SOL    HW230786   1.386   3.978   7.467 -2.6128 -3.2285 -0.9028
 6385SOL     OW30787   2.893   2.883  13.038 -0.1414 -0.5315  0.4866
 6385SOL    HW130788   2.896   2.876  13.134 -0.7028 -0.9653  0.4699
 6385SOL    HW230789   2.986   2.863  13.022 -0.6140 -0.7238 -1.9595
 6386SOL     OW30790   3.621   2.715  16.478 -0.1644 -0.2330 -0.1789
 6386SOL    HW130791   3.586   2.626  16.482  1.4290 -0.8165  0.6887
 6386SOL    HW230792   3.550   2.768  16.515  0.7840  1.3170 -0.5990
 6387SOL     OW30793   2.732   3.535   2.873 -0.4885  0.1885  0.0677
 6387SOL    HW130794   2.750   3.529   2.967  0.6466 -1.0273 -0.2375
 6387SOL    HW230795   2.760   3.625   2.857  0.6239 -0.3982 -1.2665
 6388SOL     OW30796   4.648   0.395   3.305 -0.6851 -0.1133  0.0987
 6388SOL    HW130797   4.576   0.332   3.311  1.9033 -3.1207 -0.1382
 6388SOL    HW230798   4.692   0.395   3.390  1.2881  2.2131 -0.9167
 6389SOL     OW30799   4.527   0.868   6.548 -0.1219 -0.1299 -0.5345
 6389SOL    HW130800   4.457   0.922   6.510  1.3216  0.4679 -2.3311
 6389SOL    HW230801   4.607   0.920   6.555 -1.0427  1.3406 -0.8506
 6390SOL     OW30802   2.154   2.830   6.209 -0.3999  0.4835 -0.5468
 6390SOL    HW130803   2.235   2.805   6.164  0.1710  1.0480  0.1632
 6390SOL    HW230804   2.181   2.907   6.260  1.9544 -1.0522  0.5339
 6391SOL     OW30805   3.380   0.811  15.315  0.5478  0.2476 -0.4863
 6391SOL    HW130806   3.426   0.772  15.389  1.5585 -1.4340 -2.0143
 6391SOL    HW230807   3.291   0.819  15.350  0.1489 -0.0477 -1.4402
 6392SOL     OW30808   3.967   4.196   2.282 -0.5000  0.6827  0.0917
 6392SOL    HW130809   3.953   4.287   2.257 -3.1799 -0.6687 -3.1840
 6392SOL    HW230810   3.877   4.165   2.295 -1.1444  3.0477  1.3853
 6393SOL     OW30811   1.852   3.701   5.677  0.3545  0.3648  0.7146
 6393SOL    HW130812   1.839   3.666   5.765  0.0581 -1.7186 -0.1554
 6393SOL    HW230813   1.846   3.620   5.627  0.9137 -0.9941  2.8331
 6394SOL     OW30814   0.466   3.551  16.469  0.0759 -0.0618 -0.6716
 6394SOL    HW130815   0.417   3.615  16.418 -0.6258 -0.2535 -0.2517
 6394SOL    HW230816   0.409   3.475  16.454  0.3284 -0.0455 -1.6761
 6395SOL     OW30817   2.018   4.342   6.719 -0.1547  0.9951  0.3911
 6395SOL    HW130818   2.013   4.432   6.686 -0.4715  0.1121 -1.9883
 6395SOL    HW230819   1.954   4.303   6.660  0.2297  1.0340 -0.0581
 6396SOL     OW30820   0.952   4.719   2.019  0.4240 -0.3207 -0.2205
 6396SOL    HW130821   0.890   0.049   1.985  0.3636 -0.1099  0.2814
 6396SOL    HW230822   0.903   4.639   2.002 -1.5265  0.6496  0.7782
 6397SOL     OW30823   2.106   1.225   2.377  0.1482 -0.3933 -0.1246
 6397SOL    HW130824   2.017   1.190   2.385 -0.2978  0.6661 -0.4467
 6397SOL    HW230825   2.149   1.140   2.383 -3.2111 -2.2055 -1.6710
 6398SOL     OW30826   2.771   2.038   5.643 -0.7700 -0.0276  0.8069
 6398SOL    HW130827   2.691   2.027   5.694 -0.5021  0.2399  1.2891
 6398SOL    HW230828   2.802   1.949   5.624  1.7284  0.8492  0.7322
 6399SOL     OW30829   2.061   1.540   3.410 -0.0468  0.0636 -0.5782
 6399SOL    HW130830   2.073   1.567   3.319  1.9041  1.6088  0.1577
 6399SOL    HW230831   1.970   1.510   3.404  0.0030 -0.1171 -0.4172
 6400SOL     OW30832   0.243   1.885   4.020 -0.2098 -0.0356  0.6249
 6400SOL    HW130833   0.234   1.796   3.985 -0.6319  0.9961 -1.8605
 6400SOL    HW230834   0.310   1.872   4.087  0.6699  3.5424  0.4346
 6401SOL     OW30835   2.921   3.342  17.480  0.1612 -0.2446  0.2577
 6401SOL    HW130836   2.972   3.282  17.535 -0.0703  0.6743  1.4737
 6401SOL    HW230837   2.962   3.427  17.495  0.9677 -0.5578 -0.1127
 6402SOL     OW30838   2.576   1.441   8.165  0.1571 -0.0378 -0.0770
 6402SOL    HW130839   2.517   1.513   8.187 -1.5446 -1.6143  0.5612
 6402SOL    HW230840   2.624   1.482   8.093 -2.7158  1.2922 -1.2338
 6403SOL     OW30841   2.139   2.458   8.962 -0.1057  0.5153 -0.1806
 6403SOL    HW130842   2.124   2.444   8.869  0.7136 -2.8357  0.1959
 6403SOL    HW230843   2.231   2.438   8.977 -0.6927 -0.5887  2.1007
 6404SOL     OW30844   2.399   3.744  16.897 -0.1329  0.4735  0.7342
 6404SOL    HW130845   2.317   3.731  16.944  0.5893  1.2529  2.2312
 6404SOL    HW230846   2.386   3.828  16.854  0.2902  0.9694  1.5681
 6405SOL     OW30847   3.731   3.748   2.719  0.1197 -0.0639 -0.7319
 6405SOL    HW130848   3.798   3.699   2.672 -0.0964  0.3685 -1.4833
 6405SOL    HW230849   3.685   3.776   2.640 -0.7174 -0.3623 -0.3453
 6406SOL     OW30850   0.836   1.344   2.261  0.6296 -0.3516  0.6164
 6406SOL    HW130851   0.896   1.293   2.316  0.9044 -0.8166 -0.1154
 6406SOL    HW230852   0.866   1.315   2.174  2.3561 -0.0978  1.1268
 6407SOL     OW30853   3.157   1.399  11.008 -0.0157 -0.0924  0.7142
 6407SOL    HW130854   3.247   1.368  11.021 -0.2105 -1.1411 -0.4150
 6407SOL    HW230855   3.129   1.394  11.099 -1.5823  0.7240  0.2716
 6408SOL     OW30856   3.664   1.328   6.551  0.1200  0.2158 -0.0174
 6408SOL    HW130857   3.638   1.407   6.599 -1.3513 -0.0184 -0.4093
 6408SOL    HW230858   3.726   1.364   6.488 -1.7769  0.2605 -1.8649
 6409SOL     OW30859   2.516   0.113   7.517 -0.0675  0.0911 -0.0417
 6409SOL    HW130860   2.438   0.062   7.494 -1.8034  2.0734  1.3695
 6409SOL    HW230861   2.531   0.160   7.435  4.4931 -1.1459  0.1093
 6410SOL     OW30862   2.137   0.579   8.272  0.2846 -0.2062 -0.0595
 6410SOL    HW130863   2.201   0.553   8.206 -0.5760 -3.5412  0.4579
 6410SOL    HW230864   2.187   0.642   8.324 -0.0639 -0.9317  1.1619
 6411SOL     OW30865   2.988   4.287  16.417  0.1363 -0.2752 -0.4228
 6411SOL    HW130866   3.001   4.338  16.496 -0.2694 -3.9649  2.0223
 6411SOL    HW230867   2.956   4.344  16.347 -0.0305 -1.7249 -1.5324
 6412SOL     OW30868   4.050   4.210   1.554 -0.1299 -0.0428 -0.2197
 6412SOL    HW130869   4.108   4.164   1.615  0.2719  1.4945  0.5556
 6412SOL    HW230870   4.053   4.302   1.579  2.4296 -0.1676 -0.0274
 6413SOL     OW30871   3.966   0.717   4.213 -0.6757 -0.3958 -0.6108
 6413SOL    HW130872   3.890   0.668   4.243  0.1009  0.6127  2.9416
 6413SOL    HW230873   3.982   0.665   4.133  1.2909  1.9214 -1.7225
 6414SOL     OW30874   2.945   0.406   6.238  0.1582  0.2318  0.1579
 6414SOL    HW130875   2.984   0.376   6.156  3.6049 -2.1488  2.6732
 6414SOL    HW230876   3.002   0.482   6.248 -2.6638  2.4530 -0.9185
 6415SOL     OW30877   0.602   4.251   1.051  0.5592 -0.1407 -0.4810
 6415SOL    HW130878   0.675   4.238   1.112  1.1434 -1.1086 -1.3845
 6415SOL    HW230879   0.525   4.253   1.107  1.5941  0.4695  0.9232
 6416SOL     OW30880   1.531   3.959   9.391 -0.3964 -0.1861  0.0174
 6416SOL    HW130881   1.505   4.039   9.437 -0.0134  0.5478 -1.0479
 6416SOL    HW230882   1.473   3.898   9.436 -0.6635 -0.1798 -0.3157
 6417SOL     OW30883   4.266   4.405   3.115 -0.0035 -0.0834 -0.4613
 6417SOL    HW130884   4.196   4.392   3.179 -1.1340  1.1304 -1.4553
 6417SOL    HW230885   4.252   4.339   3.047  0.6844 -1.2566  0.5241
 6418SOL     OW30886   0.978   4.120  10.491  0.2011 -0.4192  0.5598
 6418SOL    HW130887   0.942   4.063  10.559 -0.7454  1.2905  1.4898
 6418SOL    HW230888   0.971   4.067  10.411  0.3712  1.7918 -0.8949
 6419SOL     OW30889   3.708   0.688  15.990 -0.3248  0.4107 -0.2852
 6419SOL    HW130890   3.797   0.723  15.987 -0.6855  1.3611  0.0192
 6419SOL    HW230891   3.726   0.600  16.023 -0.1492  0.2061 -0.9273
 6420SOL     OW30892   4.437   2.492   3.351 -0.0349 -0.1855 -0.3871
 6420SOL    HW130893   4.348   2.498   3.385 -0.7221 -0.6337 -2.1082
 6420SOL    HW230894   4.483   2.453   3.426  0.0012 -0.3517 -0.4951
 6421SOL     OW30895   4.115   4.541   9.484 -0.2687 -0.0658 -0.2767
 6421SOL    HW130896   4.089   4.616   9.537 -1.5691 -0.0599 -0.9325
 6421SOL    HW230897   4.037   4.489   9.467 -0.8092  0.3743  0.8581
 6422SOL     OW30898   2.497   4.053   8.707 -0.0996  0.7097 -0.0588
 6422SOL    HW130899   2.535   4.140   8.716 -3.4341  1.9513  1.4299
 6422SOL    HW230900   2.487   4.036   8.800 -0.0013  1.8203  0.1519
 6423SOL     OW30901   3.559   0.422   5.377 -0.0327  0.0598  0.0134
 6423SOL    HW130902   3.651   0.436   5.357 -0.0062  2.5442  1.9963
 6423SOL    HW230903   3.514   0.488   5.323 -0.3723 -1.1189 -1.1649
 6424SOL     OW30904   2.506   2.673   5.292 -0.2233  0.3483  0.1065
 6424SOL    HW130905   2.570   2.616   5.249  1.1426  2.4689 -0.6553
 6424SOL    HW230906   2.537   2.685   5.382 -0.4775  0.3437  0.1920
 6425SOL     OW30907   4.056   4.033   7.878 -0.2614  0.5260 -0.7282
 6425SOL    HW130908   4.141   4.035   7.922 -0.1517 -0.9772 -0.8969
 6425SOL    HW230909   4.058   4.121   7.841 -0.1027  1.6855  2.0180
 6426SOL     OW30910   0.552   1.404   4.959  0.0735 -0.6678 -0.7117
 6426SOL    HW130911   0.538   1.426   4.867 -0.2558  0.8441 -0.2923
 6426SOL    HW230912   0.648   1.404   4.962 -0.0019 -0.4490  2.1261
 6427SOL     OW30913   2.164   3.813  14.383  0.2985 -0.5074  0.6827
 6427SOL    HW130914   2.173   3.899  14.341  0.4830 -0.3887  0.9637
 6427SOL    HW230915   2.228   3.823  14.454 -0.9338 -4.1145  2.2783
 6428SOL     OW30916   1.086   0.317  10.102  0.1658 -0.0023  0.3809
 6428SOL    HW130917   1.066   0.259  10.029  0.7478  2.5230 -1.7816
 6428SOL    HW230918   1.121   0.387  10.047 -3.2908  1.7366  0.3929
 6429SOL     OW30919   3.144   0.234   6.399  0.4748 -0.4553 -0.3336
 6429SOL    HW130920   3.119   0.146   6.370 -0.8322  0.2958 -1.5466
 6429SOL    HW230921   3.081   0.289   6.351 -0.0618  0.3812  1.3567
 6430SOL     OW30922   1.508   0.127   2.669  0.3770 -0.1861  0.4591
 6430SOL    HW130923   1.521   0.128   2.764  0.3635  2.3037  0.4295
 6430SOL    HW230924   1.435   0.069   2.649 -0.1782  1.0983 -1.2886
 6431SOL     OW30925   2.405   1.016   4.984 -0.2412 -0.1758  0.6770
 6431SOL    HW130926   2.313   1.041   4.983 -0.7582 -2.1443 -1.7851
 6431SOL    HW230927   2.410   0.933   4.936 -1.6366  0.6530 -0.9151
 6432SOL     OW30928   2.728   0.176   1.452 -0.0279  0.2802 -0.2860
 6432SOL    HW130929   2.655   0.137   1.403  0.9160 -1.5216 -0.2914
 6432SOL    HW230930   2.695   0.254   1.495  2.2282  1.9604 -1.6354
 6433SOL     OW30931   2.136   3.979   7.580 -0.1139 -0.8957 -0.2243
 6433SOL    HW130932   2.110   3.988   7.671  1.6816 -0.4338  0.2480
 6433SOL    HW230933   2.049   3.996   7.545  0.1221  1.2908  0.2463
 6434SOL     OW30934   3.518   1.090  12.097 -0.0533 -0.6378 -0.2984
 6434SOL    HW130935   3.573   1.149  12.047 -2.2250  0.8848 -0.8821
 6434SOL    HW230936   3.435   1.092  12.049 -0.4199  2.5450  0.4748
 6435SOL     OW30937   2.758   3.388   3.446 -0.0248 -0.0194  0.0922
 6435SOL    HW130938   2.790   3.313   3.496  0.0968  0.8540  1.3196
 6435SOL    HW230939   2.798   3.458   3.496  1.0439 -1.0112  0.6376
 6436SOL     OW30940   3.029   4.476  13.733  0.0969  0.0695 -0.0565
 6436SOL    HW130941   2.960   4.481  13.798  0.1429 -1.1423  0.0940
 6436SOL    HW230942   3.020   4.552  13.675 -2.8215  0.9993  1.6309
 6437SOL     OW30943   4.464   1.559   6.644 -0.2622  0.0238 -0.2496
 6437SOL    HW130944   4.471   1.479   6.696 -1.4310  1.5584  2.2721
 6437SOL    HW230945   4.495   1.531   6.558 -1.7111  1.4345 -1.2329
 6438SOL     OW30946   2.529   3.367  10.188  0.3837 -0.2044 -0.3015
 6438SOL    HW130947   2.467   3.325  10.128 -0.7561  0.1776  0.5986
 6438SOL    HW230948   2.610   3.321  10.167 -0.4068 -0.3806 -2.8840
 6439SOL     OW30949   3.088   0.137   8.957 -0.0718  0.4743  0.4500
 6439SOL    HW130950   3.040   0.109   8.879  0.3663  1.5838 -0.2034
 6439SOL    HW230951   3.021   0.149   9.025  2.4362  1.5895  2.7091
 6440SOL     OW30952   2.238   1.134  12.174 -0.2407  0.6332 -0.3013
 6440SOL    HW130953   2.191   1.053  12.153 -1.7313  1.3515  0.2165
 6440SOL    HW230954   2.192   1.178  12.245  1.3451 -1.7053  2.1766
 6441SOL     OW30955   1.525   1.448  17.687 -0.1944 -0.5367 -0.6171
 6441SOL    HW130956   1.467   1.414   0.017  0.8660 -0.7236  0.1914
 6441SOL    HW230957   1.453   1.453  17.624  0.9246 -2.0446 -2.0301
 6442SOL     OW30958   0.497   3.963  13.797 -0.5746  0.3517 -0.2433
 6442SOL    HW130959   0.532   4.008  13.720  0.0573 -1.3155 -0.9266
 6442SOL    HW230960   0.412   4.005  13.811 -0.6759  0.5838 -1.6169
 6443SOL     OW30961   2.546   0.330   7.296 -0.4866 -0.0577 -0.3742
 6443SOL    HW130962   2.618   0.291   7.248 -0.6157 -1.4391  0.5524
 6443SOL    HW230963   2.500   0.382   7.230 -0.8712 -2.6435 -2.1068
 6444SOL     OW30964   2.647   1.873   1.698  0.1331 -0.3507  0.5057
 6444SOL    HW130965   2.582   1.913   1.756 -0.0631  1.2856 -0.8404
 6444SOL    HW230966   2.721   1.859   1.757  0.3061 -0.7220  0.1980
 6445SOL     OW30967   2.277   3.811  10.144 -0.6877 -0.4275  0.2051
 6445SOL    HW130968   2.236   3.732  10.109 -0.1895 -1.5229  2.0958
 6445SOL    HW230969   2.362   3.783  10.177 -0.4412  0.2866  0.1853
 6446SOL     OW30970   3.794   1.257  15.413  0.0538 -0.2024 -0.1728
 6446SOL    HW130971   3.886   1.285  15.421  0.0466 -0.3612  0.4413
 6446SOL    HW230972   3.765   1.225  15.498  1.8531  0.1942  0.6025
 6447SOL     OW30973   3.954   4.470  16.472  0.0092  1.0697 -0.1652
 6447SOL    HW130974   3.989   4.467  16.383  1.1987 -0.6131  0.3581
 6447SOL    HW230975   3.919   4.382  16.481  0.1750  1.1380  1.1991
 6448SOL     OW30976   0.222   4.558   4.813  0.1090  0.3169  0.5747
 6448SOL    HW130977   0.250   4.549   4.904  4.1680  0.1221 -0.7132
 6448SOL    HW230978   0.247   4.475   4.773 -0.2224  0.8508 -0.7202
 6449SOL     OW30979   2.000   1.593   8.720 -0.2431  0.2512 -0.4867
 6449SOL    HW130980   1.953   1.565   8.641 -1.8627 -3.6301  1.8954
 6449SOL    HW230981   2.083   1.618   8.680 -0.0828 -1.1677 -1.0346
 6450SOL     OW30982   0.225   0.519   5.076 -0.6408  0.0473 -0.1332
 6450SOL    HW130983   0.261   0.545   4.991 -1.2141  1.3663  0.0353
 6450SOL    HW230984   0.142   0.566   5.069 -2.0258 -2.0337  2.4829
 6451SOL     OW30985   0.937   3.258   8.614  0.0483 -0.3972  0.5378
 6451SOL    HW130986   0.871   3.235   8.548 -0.0747  0.0285  0.5115
 6451SOL    HW230987   0.928   3.353   8.625 -1.3230 -0.4198 -0.3778
 6452SOL     OW30988   3.387   3.341   5.140  0.3560 -0.0667  0.5268
 6452SOL    HW130989   3.383   3.371   5.050  2.6743 -1.3261  0.0003
 6452SOL    HW230990   3.299   3.349   5.177 -0.2557  1.7152 -1.3367
 6453SOL     OW30991   0.157   2.052   2.255  0.0799 -0.0474  0.2016
 6453SOL    HW130992   0.233   2.041   2.198 -1.0818 -2.1027 -0.9441
 6453SOL    HW230993   0.128   2.136   2.219  2.5639  0.4867 -0.5446
 6454SOL     OW30994   1.696   4.681  11.400 -0.5286  0.0412  0.1987
 6454SOL    HW130995   1.740   4.732  11.331 -0.2295 -1.4361 -0.7137
 6454SOL    HW230996   1.633   0.012  11.430 -0.1538  0.5394 -0.0907
 6455SOL     OW30997   4.616   2.933   8.639  0.0367 -0.1316  0.0526
 6455SOL    HW130998   4.544   2.981   8.679  1.8437  1.1144  1.8223
 6455SOL    HW230999   4.565   2.852   8.636 -1.1659  0.6624 -0.6265
 6456SOL     OW31000   3.939   1.465   5.865  0.7123  0.1518  0.3412
 6456SOL    HW131001   3.952   1.405   5.791  2.5176  2.6294 -1.3076
 6456SOL    HW231002   4.010   1.439   5.924 -1.0563 -1.0551  1.9434
 6457SOL     OW31003   1.164   2.680   8.304  0.3611 -0.2573 -0.2174
 6457SOL    HW131004   1.135   2.771   8.293 -0.9611 -0.9199 -2.1066
 6457SOL    HW231005   1.079   2.644   8.329  0.9613  0.2332  2.5848
 6458SOL     OW31006   1.218   4.281   3.241  0.1482  0.1572 -0.0774
 6458SOL    HW131007   1.252   4.294   3.329  0.0635  0.8623 -0.1542
 6458SOL    HW231008   1.226   4.366   3.199 -0.0648 -0.2365 -0.9240
 6459SOL     OW31009   2.167   1.782   3.115  0.1254  0.3324 -0.1238
 6459SOL    HW131010   2.087   1.832   3.133 -0.3029 -0.5292  0.3683
 6459SOL    HW231011   2.193   1.830   3.036 -1.7510  0.4886 -0.6382
 6460SOL     OW31012   3.298   4.234  11.879 -0.2834  0.3253 -0.3112
 6460SOL    HW131013   3.314   4.256  11.970  0.6144 -0.3555 -0.3043
 6460SOL    HW231014   3.358   4.293  11.833 -1.6553  1.5286 -0.5741
 6461SOL     OW31015   1.395   2.290   3.964 -0.0431  0.0222 -0.0891
 6461SOL    HW131016   1.444   2.359   3.919 -0.2640 -1.5163 -2.7392
 6461SOL    HW231017   1.346   2.247   3.893  0.4811  1.3725 -1.2786
 6462SOL     OW31018   4.699   2.739   3.670 -0.4551  0.5757  0.3478
 6462SOL    HW131019   0.001   2.655   3.698 -0.7916  0.4694  0.4751
 6462SOL    HW231020   4.734   2.796   3.739 -0.8268  1.4665 -0.1959
 6463SOL     OW31021   3.104   0.369   1.162  0.6702 -0.4266 -0.0030
 6463SOL    HW131022   3.011   0.388   1.154  0.7865  0.5476  1.0956
 6463SOL    HW231023   3.109   0.340   1.253  0.7783 -0.5672 -0.0532
 6464SOL     OW31024   3.192   2.697   4.268 -0.2311 -0.4291 -0.5329
 6464SOL    HW131025   3.128   2.767   4.278  0.3400  0.0675 -0.3379
 6464SOL    HW231026   3.130   2.641   4.222 -0.8255 -0.1608 -0.0662
 6465SOL     OW31027   3.516   4.578  11.741  0.1145  0.3315 -0.3410
 6465SOL    HW131028   3.429   4.547  11.715  0.5579 -0.8253 -0.4410
 6465SOL    HW231029   3.564   4.579  11.659 -0.9323  1.5315 -0.9469
 6466SOL     OW31030   2.620   2.889   3.006 -0.5649 -0.3764 -0.7286
 6466SOL    HW131031   2.692   2.843   2.963 -0.1774 -1.8454  1.5081
 6466SOL    HW231032   2.653   2.890   3.096 -0.5401 -1.7065 -0.7215
 6467SOL     OW31033   4.025   4.536   5.923  0.6965  0.3801 -0.4152
 6467SOL    HW131034   3.999   4.444   5.923  0.2805  0.4921  0.8934
 6467SOL    HW231035   3.940   4.577   5.908  0.1278 -1.0992 -1.2062
 6468SOL     OW31036   4.120   2.515   3.189 -0.2718  0.1348 -0.0577
 6468SOL    HW131037   4.115   2.537   3.282  2.2081  1.2806 -0.1871
 6468SOL    HW231038   4.032   2.538   3.161 -1.0057 -1.5321  0.8728
 6469SOL     OW31039   0.906   2.195   4.528 -0.2499 -0.1912  0.0513
 6469SOL    HW131040   0.929   2.280   4.566  2.9593 -2.1875  2.5755
 6469SOL    HW231041   0.970   2.187   4.457  0.0983  0.9675  0.2370
 6470SOL     OW31042   0.457   0.614  12.811  0.3876  0.5264  0.0040
 6470SOL    HW131043   0.455   0.553  12.738 -0.8511  0.3899  0.1560
 6470SOL    HW231044   0.478   0.700  12.774 -0.8182  1.3692  1.2526
 6471SOL     OW31045   0.161   1.191  11.398 -0.1828 -1.1099 -0.2787
 6471SOL    HW131046   0.157   1.286  11.386  1.6894 -0.8186  1.5870
 6471SOL    HW231047   0.092   1.176  11.333 -0.1455 -0.5274 -0.4564
 6472SOL     OW31048   0.249   2.669   7.877 -0.1968 -0.1908 -0.2523
 6472SOL    HW131049   0.160   2.637   7.861 -0.8094  0.9154  0.8979
 6472SOL    HW231050   0.307   2.622   7.817 -1.5880 -2.0078 -0.1737
 6473SOL     OW31051   2.823   1.805   2.699 -0.3252 -0.1469 -0.0528
 6473SOL    HW131052   2.913   1.800   2.732 -0.1429 -1.5545 -0.7838
 6473SOL    HW231053   2.774   1.765   2.770 -0.0823 -0.9750 -0.3504
 6474SOL     OW31054   2.421   0.447   3.555 -0.2717  0.5623 -0.2308
 6474SOL    HW131055   2.404   0.485   3.468 -0.7250 -1.4378 -1.0005
 6474SOL    HW231056   2.396   0.356   3.539  0.0340  0.4911 -0.3018
 6475SOL     OW31057   1.091   3.041   4.335  0.3342 -0.2357  0.0007
 6475SOL    HW131058   1.119   3.089   4.413 -2.4563  0.1191  0.7956
 6475SOL    HW231059   1.174   2.995   4.326  0.7488  0.5368 -0.0757
 6476SOL     OW31060   4.359   4.410  12.880 -0.0012  0.6415 -0.3357
 6476SOL    HW131061   4.433   4.351  12.893 -0.6055 -0.3793 -1.5925
 6476SOL    HW231062   4.295   4.378  12.943  0.9873 -0.1605  0.2731
 6477SOL     OW31063   2.016   2.685   8.777  0.2103  0.0332  0.1318
 6477SOL    HW131064   1.930   2.723   8.798  0.3787 -1.1799  2.9291
 6477SOL    HW231065   2.084   2.738   8.818  0.9441 -1.1096  0.3673
 6478SOL     OW31066   4.193   3.055  11.157 -0.0544 -0.2154 -0.4173
 6478SOL    HW131067   4.104   3.090  11.165  0.4336  0.3631  2.6163
 6478SOL    HW231068   4.231   3.098  11.081  0.9657  0.6774  0.5838
 6479SOL     OW31069   3.328   3.039  15.373 -0.0812 -0.1596 -0.3757
 6479SOL    HW131070   3.259   3.066  15.434  1.8566  2.2804  0.7130
 6479SOL    HW231071   3.300   3.069  15.286 -2.2885 -1.0581  0.0086
 6480SOL     OW31072   2.954   4.401   7.503 -0.3962 -0.4185  0.3297
 6480SOL    HW131073   2.970   4.333   7.438 -3.1055 -1.7405  1.0441
 6480SOL    HW231074   3.004   4.360   7.574  0.0546 -0.4929 -0.0347
 6481SOL     OW31075   0.374   4.340   4.728  0.2731  0.2992 -0.3200
 6481SOL    HW131076   0.389   4.261   4.676 -0.8957  1.9174 -3.1004
 6481SOL    HW231077   0.451   4.394   4.709  0.9712 -0.2298  0.9835
 6482SOL     OW31078   1.411   3.988   6.384  0.1076 -0.1117 -0.5534
 6482SOL    HW131079   1.341   3.925   6.364 -1.0838  1.1057 -0.2148
 6482SOL    HW231080   1.379   4.065   6.336  1.0696  0.4991 -0.2097
 6483SOL     OW31081   2.192   1.580  12.852  0.1759 -0.8552 -0.4040
 6483SOL    HW131082   2.258   1.614  12.791 -0.1992 -1.3906 -1.1093
 6483SOL    HW231083   2.206   1.648  12.918  0.3962 -1.2158 -0.0867
 6484SOL     OW31084   4.274   0.537   8.216  0.0236  0.4066 -0.0504
 6484SOL    HW131085   4.254   0.470   8.150  0.7353  0.6929 -0.5502
 6484SOL    HW231086   4.282   0.617   8.164  1.1605  1.9641  2.5836
 6485SOL     OW31087   1.483   3.915   2.372 -0.2942 -0.4934  0.0665
 6485SOL    HW131088   1.485   3.992   2.315  0.0624  0.0123  0.7617
 6485SOL    HW231089   1.534   3.850   2.325 -0.7668  1.0178 -2.5510
 6486SOL     OW31090   2.903   0.501   0.639 -0.0305 -0.6118 -0.4319
 6486SOL    HW131091   2.855   0.562   0.582  0.1010 -0.6161 -0.5459
 6486SOL    HW231092   2.953   0.469   0.565  0.5476 -0.2920 -0.1753
 6487SOL     OW31093   0.661   4.406  11.939  1.2155  0.2884 -0.7476
 6487SOL    HW131094   0.590   4.343  11.932 -0.2066  1.7681  0.2108
 6487SOL    HW231095   0.688   4.414  11.848 -1.6355  0.1555 -1.5836
 6488SOL     OW31096   2.764   3.525  17.326 -0.2316 -0.1718 -0.1328
 6488SOL    HW131097   2.797   3.436  17.334  0.1462 -0.0258 -0.0625
 6488SOL    HW231098   2.716   3.528  17.243 -1.0864 -0.1018  0.3564
 6489SOL     OW31099   1.824   2.069   4.503  0.1569 -0.5558 -0.3610
 6489SOL    HW131100   1.768   2.080   4.580  1.9401  0.7172  0.7821
 6489SOL    HW231101   1.896   2.025   4.550  1.7525  0.1198 -2.1629
 6490SOL     OW31102   0.337   4.503   4.178 -0.0239 -0.1646  0.5801
 6490SOL    HW131103   0.303   4.562   4.111 -2.8653 -1.0699  1.2539
 6490SOL    HW231104   0.255   4.458   4.198  0.5618 -0.0934  3.2230
 6491SOL     OW31105   1.566   3.192   6.220  0.2463 -0.0046  0.3656
 6491SOL    HW131106   1.484   3.179   6.172 -0.0071 -1.2980  1.1386
 6491SOL    HW231107   1.551   3.270   6.274  0.5170 -1.3032  2.3216
 6492SOL     OW31108   3.734   4.113   6.411 -0.0049 -0.3610  0.1160
 6492SOL    HW131109   3.805   4.052   6.432  2.6867  2.7267 -0.0227
 6492SOL    HW231110   3.665   4.091   6.474 -0.0723  0.3878  0.2948
 6493SOL     OW31111   2.571   3.346   1.646  0.0641 -0.1080  0.1363
 6493SOL    HW131112   2.643   3.330   1.707  1.4088 -1.8383 -1.9446
 6493SOL    HW231113   2.615   3.378   1.568 -0.2076 -0.3483 -0.1137
 6494SOL     OW31114   3.727   2.032   7.962  0.2077 -0.4467 -0.0525
 6494SOL    HW131115   3.762   2.023   7.873 -0.8671  0.1826 -0.5374
 6494SOL    HW231116   3.667   1.958   7.959 -2.6672  1.7893  2.1253
 6495SOL     OW31117   3.304   3.918   5.801 -0.1717  0.1297  0.6564
 6495SOL    HW131118   3.342   3.846   5.750 -0.9842 -0.0112  0.2505
 6495SOL    HW231119   3.271   3.961   5.722  0.0514 -1.0714 -0.0908
 6496SOL     OW31120   0.976   0.576  13.008 -0.3637  0.2913  0.3157
 6496SOL    HW131121   0.963   0.579  12.914 -2.2210 -1.1403  0.5331
 6496SOL    HW231122   0.891   0.565  13.050 -0.9752 -0.8511 -1.2304
 6497SOL     OW31123   1.981   2.060   3.024  0.0258  0.0229 -0.3468
 6497SOL    HW131124   2.012   2.019   2.943  2.5073  1.6796 -0.2641
 6497SOL    HW231125   1.935   1.983   3.058  0.3647 -0.6249 -1.3805
 6498SOL     OW31126   0.674   3.310   9.558 -0.5152  0.1870 -0.3432
 6498SOL    HW131127   0.587   3.330   9.523 -0.7610 -1.3717 -0.6403
 6498SOL    HW231128   0.645   3.308   9.649 -0.9465  1.1699 -0.4642
 6499SOL     OW31129   1.277   0.180   7.124 -0.0756 -0.7971 -0.2865
 6499SOL    HW131130   1.299   0.269   7.153  3.4069 -2.0196  0.8821
 6499SOL    HW231131   1.356   0.133   7.152  1.0348  1.1139 -0.1505
 6500SOL     OW31132   0.457   3.538   3.795 -0.7135  0.7337  0.0679
 6500SOL    HW131133   0.487   3.544   3.886  2.0057 -2.5763 -0.6084
 6500SOL    HW231134   0.377   3.488   3.804  0.3074 -0.9975 -0.5084
 6501SOL     OW31135   3.067   1.706   6.114  0.0934  0.0441 -0.4425
 6501SOL    HW131136   3.119   1.629   6.091 -2.8661 -2.3705  0.8485
 6501SOL    HW231137   3.071   1.705   6.210  0.9613 -0.3431 -0.4804
 6502SOL     OW31138   3.522   0.233   4.861 -0.3059 -0.1938  0.0791
 6502SOL    HW131139   3.562   0.319   4.849 -1.0907  0.1780  0.1352
 6502SOL    HW231140   3.591   0.195   4.916 -0.1354 -0.0121 -0.0071
 6503SOL     OW31141   0.243   0.535   3.907  0.1597 -0.8913 -0.2845
 6503SOL    HW131142   0.196   0.516   3.988  2.4311  0.1062  1.2478
 6503SOL    HW231143   0.212   0.617   3.870  1.9795 -0.6893 -1.3415
 6504SOL     OW31144   0.012   0.975   0.531  0.3235  0.0325  0.5164
 6504SOL    HW131145   0.064   0.896   0.519  2.3229  1.4575 -0.3468
 6504SOL    HW231146   4.664   0.929   0.542  0.0013  0.4025 -0.3622
 6505SOL     OW31147   4.474   0.861   8.568  0.1106 -0.3261 -0.4172
 6505SOL    HW131148   4.441   0.781   8.528  1.5581 -2.4286  2.5642
 6505SOL    HW231149   4.466   0.921   8.494  0.2510  0.5216  0.2545
 6506SOL     OW31150   0.402   1.871   4.569  0.4034  0.2306  0.1570
 6506SOL    HW131151   0.369   1.936   4.507 -0.2562 -0.5547 -0.3133
 6506SOL    HW231152   0.428   1.802   4.508 -0.9852  0.5500 -0.7848
 6507SOL     OW31153   4.267   3.120   8.469  0.3192 -0.7885 -0.4110
 6507SOL    HW131154   4.182   3.160   8.450  1.9466  4.1734  2.7478
 6507SOL    HW231155   4.326   3.187   8.434 -0.4139 -0.0178 -0.1693
 6508SOL     OW31156   3.137   2.516  10.548  0.2954  0.5760 -0.6838
 6508SOL    HW131157   3.063   2.576  10.544 -0.0963  0.1600  0.2345
 6508SOL    HW231158   3.132   2.486  10.457 -3.1015  1.0168 -0.6395
 6509SOL     OW31159   1.472   1.978   3.354 -0.3409 -0.4601 -0.3875
 6509SOL    HW131160   1.387   1.975   3.398  0.4440 -1.5115  1.0691
 6509SOL    HW231161   1.466   1.919   3.279 -1.0186 -1.2954  0.3252
 6510SOL     OW31162   4.723   0.544   7.109 -0.2617  1.1162  0.0522
 6510SOL    HW131163   0.008   0.524   7.018  1.9862 -1.1153  1.0197
 6510SOL    HW231164   4.700   0.636   7.102 -1.3746  0.7275 -1.4526
 6511SOL     OW31165   0.519   2.563   8.161 -0.2067  0.3952 -0.4339
 6511SOL    HW131166   0.539   2.640   8.214  0.0659 -0.8758  1.3152
 6511SOL    HW231167   0.553   2.580   8.073 -0.2796 -1.3477 -0.8045
 6512SOL     OW31168   1.613   4.689   2.946 -0.2052 -0.0839  0.0875
 6512SOL    HW131169   1.693   4.720   2.987 -0.6460 -0.2351  1.0473
 6512SOL    HW231170   1.539   4.693   3.007  1.8128  1.5272  2.3912
 6513SOL     OW31171   0.072   2.955   8.844 -0.1155 -0.5332 -0.6721
 6513SOL    HW131172   0.004   2.964   8.911  0.7681 -1.4109  0.3476
 6513SOL    HW231173   0.004   2.958   8.776 -0.8966  0.4257  0.1598
 6514SOL     OW31174   1.603   1.261   8.941  0.2496 -0.1877  0.2689
 6514SOL    HW131175   1.658   1.191   8.976 -0.7622 -1.2882 -0.3376
 6514SOL    HW231176   1.610   1.326   9.011  1.8418 -1.5030  1.3287
 6515SOL     OW31177   0.503   2.062   8.102 -0.2043  0.0485  0.1627
 6515SOL    HW131178   0.524   2.148   8.138 -2.3321  1.0198 -0.8796
 6515SOL    HW231179   0.576   2.019   8.147  1.4813  1.2132 -1.4734
 6516SOL     OW31180   4.522   0.534  10.675 -0.5970  0.5180 -0.1675
 6516SOL    HW131181   4.446   0.491  10.635 -1.0402  0.4995  0.6913
 6516SOL    HW231182   4.559   0.462  10.725 -0.2774 -0.1997 -1.4338
 6517SOL     OW31183   2.565   3.945  14.780 -0.0147 -0.1456 -0.3769
 6517SOL    HW131184   2.645   3.904  14.812 -0.3700 -1.3717 -1.0507
 6517SOL    HW231185   2.589   4.035  14.760 -1.1486 -0.2153 -2.0567
 6518SOL     OW31186   3.844   2.450   3.403 -0.3363  0.0761  0.7251
 6518SOL    HW131187   3.824   2.537   3.439  2.2026  1.8585 -2.1726
 6518SOL    HW231188   3.762   2.415   3.367  0.7917  0.3765 -2.1085
 6519SOL     OW31189   3.288   0.672   9.229 -0.1474  0.2893  0.1191
 6519SOL    HW131190   3.270   0.743   9.291  0.9462 -0.2706  1.0917
 6519SOL    HW231191   3.384   0.678   9.232 -0.0659 -0.2489 -1.4712
 6520SOL     OW31192   0.693   3.785  13.537 -0.2629 -0.5910  0.1507
 6520SOL    HW131193   0.634   3.713  13.513  0.2999 -0.5979 -1.1901
 6520SOL    HW231194   0.771   3.736  13.562  0.0109 -0.4531 -0.4248
 6521SOL     OW31195   4.377   1.283   7.473  0.0888 -0.0148  0.2079
 6521SOL    HW131196   4.330   1.357   7.513  1.1741  0.7023  0.1597
 6521SOL    HW231197   4.468   1.311   7.482  0.4353 -1.2180  0.3871
 6522SOL     OW31198   3.725   1.764  17.224  0.2022  0.1477  0.2732
 6522SOL    HW131199   3.679   1.707  17.162 -0.3715 -0.8662  1.6349
 6522SOL    HW231200   3.764   1.699  17.281  0.9055 -0.8114 -1.2923
 6523SOL     OW31201   1.407   3.815   3.239 -0.0666 -0.1547 -0.0141
 6523SOL    HW131202   1.321   3.775   3.223 -1.8078  1.7719  4.5011
 6523SOL    HW231203   1.384   3.906   3.258  1.6860  0.1391  0.6805
 6524SOL     OW31204   0.166   2.441  14.054 -0.7759  0.2452 -0.2401
 6524SOL    HW131205   0.243   2.480  14.096 -0.9060  0.0879  0.1399
 6524SOL    HW231206   0.129   2.378  14.116  0.1555 -0.2983 -0.2355
 6525SOL     OW31207   3.307   3.076   0.973  0.5457 -0.6233  0.5096
 6525SOL    HW131208   3.395   3.083   1.010  0.1991  0.7534  1.0578
 6525SOL    HW231209   3.282   2.984   0.979  2.8550 -1.4363 -2.1588
 6526SOL     OW31210   1.266   0.395  10.296 -0.4090  0.1197  0.3802
 6526SOL    HW131211   1.193   0.379  10.236 -0.3665  0.4719  0.2328
 6526SOL    HW231212   1.324   0.323  10.272  0.7307  1.8726 -2.1569
 6527SOL     OW31213   2.374   3.778   5.627  0.6058  0.7909  0.0335
 6527SOL    HW131214   2.308   3.731   5.678  1.2393 -0.2395 -0.0984
 6527SOL    HW231215   2.334   3.864   5.611 -0.9135  0.2207  0.7943
 6528SOL     OW31216   0.638   0.260  11.231 -0.0098  0.0563  0.0961
 6528SOL    HW131217   0.630   0.225  11.143 -0.3766  0.4957 -0.0398
 6528SOL    HW231218   0.552   0.248  11.271  1.0433  0.9780  2.6885
 6529SOL     OW31219   3.967   4.731  16.560  0.7404 -0.0818  0.0704
 6529SOL    HW131220   3.971   4.642  16.525  2.7012  1.6834 -4.2256
 6529SOL    HW231221   3.875   0.013  16.580  0.9995 -0.4047  1.4739
 6530SOL     OW31222   2.303   2.338   4.231 -0.1748  0.9489  1.0100
 6530SOL    HW131223   2.245   2.328   4.155 -1.5368  1.8014  1.9408
 6530SOL    HW231224   2.284   2.429   4.250  0.3164  1.1725  0.4492
 6531SOL     OW31225   4.451   2.251   4.930 -0.6465 -0.1095 -0.2400
 6531SOL    HW131226   4.460   2.229   5.023  1.4859  1.4878 -0.0644
 6531SOL    HW231227   4.441   2.161   4.900 -2.0432  0.5827 -1.8100
 6532SOL     OW31228   3.497   1.621   8.962  0.3498  0.2506  0.0767
 6532SOL    HW131229   3.420   1.679   8.962 -0.7483 -1.2338 -3.2768
 6532SOL    HW231230   3.518   1.613   8.869  0.7041  0.3248  0.1500
 6533SOL     OW31231   2.558   1.921   9.535 -0.4265  0.0710  0.1467
 6533SOL    HW131232   2.509   1.845   9.566 -0.0736 -0.8685 -1.6058
 6533SOL    HW231233   2.647   1.902   9.567 -0.3830 -0.4646 -0.3064
 6534SOL     OW31234   0.446   2.565   6.017 -0.4039 -0.2093 -0.0572
 6534SOL    HW131235   0.526   2.587   5.967  0.8978 -2.1144  1.1840
 6534SOL    HW231236   0.431   2.646   6.065 -0.9210 -0.2384 -0.1739
 6535SOL     OW31237   2.741   4.642  16.555 -0.7410 -0.0142 -0.5417
 6535SOL    HW131238   2.663   4.674  16.510 -0.8416  1.2199  0.5045
 6535SOL    HW231239   2.738   4.547  16.548 -0.9843 -0.0465 -0.0409
 6536SOL     OW31240   1.594   0.572   6.204 -0.7892  0.4397 -0.0963
 6536SOL    HW131241   1.661   0.518   6.163 -1.2277 -0.9211  0.9671
 6536SOL    HW231242   1.643   0.653   6.219  3.1250 -2.0666  0.6308
 6537SOL     OW31243   1.720   4.423  11.140  0.1501  0.4349  0.1250
 6537SOL    HW131244   1.777   4.495  11.113  1.4127 -0.7001 -0.2361
 6537SOL    HW231245   1.715   4.361  11.067  1.0900 -0.7041  1.0244
 6538SOL     OW31246   1.758   4.278   3.691  0.1157  0.2908  0.1229
 6538SOL    HW131247   1.792   4.222   3.762 -2.0482 -1.4403 -0.2345
 6538SOL    HW231248   1.782   4.223   3.616 -1.6018 -0.6941  0.3005
 6539SOL     OW31249   2.914   1.493   8.235  0.0988  0.8596 -0.7649
 6539SOL    HW131250   2.864   1.418   8.268 -0.2323  2.2903  2.0121
 6539SOL    HW231251   2.844   1.558   8.227 -0.0258  0.9228  0.7935
 6540SOL     OW31252   0.174   1.350   2.301 -0.0651 -0.9355  0.3449
 6540SOL    HW131253   0.160   1.281   2.366  0.1472 -0.8152  0.5184
 6540SOL    HW231254   0.235   1.298   2.249 -2.4028 -1.0281 -2.3104
 6541SOL     OW31255   3.531   3.267   0.106 -0.3111  0.4545 -1.0101
 6541SOL    HW131256   3.491   3.348   0.135 -2.9042 -0.9128 -0.7744
 6541SOL    HW231257   3.483   3.200   0.155  0.5408  2.3291  2.3230
 6542SOL     OW31258   3.352   2.986  13.225  0.4189  0.2622 -0.4348
 6542SOL    HW131259   3.366   3.039  13.303  1.7178  0.7080 -0.9684
 6542SOL    HW231260   3.306   3.051  13.172  1.5400 -0.1561 -1.9243
 6543SOL     OW31261   0.040   0.072  11.319 -0.1773  0.1898  0.2177
 6543SOL    HW131262   0.075   0.150  11.362  0.7568  0.0595 -0.2952
 6543SOL    HW231263   0.107   0.004  11.321 -0.1911  0.1641 -0.1233
 6544SOL     OW31264   2.872   0.927   3.594 -0.1019 -0.1335 -0.6351
 6544SOL    HW131265   2.843   0.928   3.685  1.0928 -0.7936 -0.2410
 6544SOL    HW231266   2.963   0.901   3.608 -0.2340 -0.9343 -1.2325
 6545SOL     OW31267   1.111   0.988   2.017  0.0154 -0.1378  0.1233
 6545SOL    HW131268   1.052   0.947   1.954 -0.7288  0.1146  0.6632
 6545SOL    HW231269   1.171   1.038   1.961  0.9958 -0.7822  0.5890
 6546SOL     OW31270   1.134   2.915   7.372 -0.3052  0.2409  0.4522
 6546SOL    HW131271   1.118   2.851   7.441 -2.5446 -0.3512 -0.5974
 6546SOL    HW231272   1.131   2.863   7.291 -2.9031  0.6571  0.2636
 6547SOL     OW31273   4.515   1.567  17.262 -0.2084  0.0309 -0.6242
 6547SOL    HW131274   4.522   1.652  17.306 -1.3987 -0.2745  0.1668
 6547SOL    HW231275   4.544   1.503  17.327 -0.0092  0.7462 -0.0031
 6548SOL     OW31276   3.818   4.483  14.029 -0.8079  0.3216  0.4600
 6548SOL    HW131277   3.822   4.578  14.022  2.3382  0.2098  0.4597
 6548SOL    HW231278   3.907   4.463  14.059 -1.9018 -1.2297  2.7225
 6549SOL     OW31279   4.400   0.775  10.229 -0.1768 -0.4141  0.4435
 6549SOL    HW131280   4.458   0.758  10.155 -1.3899  0.3196 -0.6872
 6549SOL    HW231281   4.464   0.761  10.298 -0.4693  1.4584  1.1041
 6550SOL     OW31282   3.364   0.548   8.059  0.1946  0.0352  0.0861
 6550SOL    HW131283   3.452   0.576   8.035  0.5619 -2.1250 -1.0228
 6550SOL    HW231284   3.321   0.628   8.027  0.8911  0.1823 -0.4751
 6551SOL     OW31285   1.275   2.009   5.501  0.4832  0.1159 -0.4701
 6551SOL    HW131286   1.324   1.954   5.563  0.6400  1.0442  0.2277
 6551SOL    HW231287   1.204   1.950   5.476 -1.7148  3.3236 -1.7138
 6552SOL     OW31288   0.369   0.767   4.466 -0.5079 -0.0169  0.2871
 6552SOL    HW131289   0.439   0.831   4.455 -0.9407  0.5028  0.5431
 6552SOL    HW231290   0.372   0.715   4.386 -2.1702  1.7995 -0.9733
 6553SOL     OW31291   0.300   4.337  11.169  0.0506 -0.0370 -0.4707
 6553SOL    HW131292   0.221   4.312  11.122 -0.4442  1.7953 -0.6276
 6553SOL    HW231293   0.364   4.280  11.126  0.5250  0.3473 -0.2744
 6554SOL     OW31294   3.197   0.826   4.045  0.1635 -0.1020  0.4383
 6554SOL    HW131295   3.267   0.780   4.092 -0.3391 -1.6461 -0.3556
 6554SOL    HW231296   3.180   0.762   3.977 -1.8474 -0.4573  1.2738
 6555SOL     OW31297   1.576   3.723   2.926  0.2170 -0.4560 -0.6154
 6555SOL    HW131298   1.564   3.690   3.015  1.0101 -0.6142 -0.5676
 6555SOL    HW231299   1.487   3.723   2.892  0.9009  0.2252 -2.4215
 6556SOL     OW31300   2.500   0.042   1.425  0.2053  0.2415  0.3788
 6556SOL    HW131301   2.418   0.090   1.437 -0.2716 -0.0807 -1.6812
 6556SOL    HW231302   2.468   4.690   1.400 -0.9331 -0.7968  5.3734
 6557SOL     OW31303   4.337   3.160   3.627  0.2562  0.7276 -0.2971
 6557SOL    HW131304   4.385   3.244   3.630 -0.1244  0.9054  0.5573
 6557SOL    HW231305   4.282   3.161   3.705 -0.0299 -2.6678 -0.4939
 6558SOL     OW31306   0.183   3.183   6.225  0.1652 -0.2864  0.1565
 6558SOL    HW131307   0.110   3.240   6.200  1.6168  0.7649 -1.7434
 6558SOL    HW231308   0.151   3.155   6.310  1.4685  1.5479  1.2371
 6559SOL     OW31309   1.725   4.457   4.696 -0.1132  0.4410 -0.3434
 6559SOL    HW131310   1.708   4.454   4.790 -0.8805 -2.6141 -0.5726
 6559SOL    HW231311   1.809   4.501   4.685 -0.1414  0.6955  0.4681
 6560SOL     OW31312   3.209   2.143   1.647  0.6001 -0.4256 -0.3864
 6560SOL    HW131313   3.207   2.081   1.575 -0.5890 -1.4281  0.4991
 6560SOL    HW231314   3.300   2.144   1.677  0.4488  2.6001 -0.0502
 6561SOL     OW31315   1.333   1.219   7.057 -0.0258  0.5492 -0.0131
 6561SOL    HW131316   1.278   1.170   6.995  0.3768  0.7151 -0.4994
 6561SOL    HW231317   1.412   1.165   7.054 -0.2699  0.1129  1.5489
 6562SOL     OW31318   0.707   0.517   0.889 -0.0238 -0.3753  0.0155
 6562SOL    HW131319   0.661   0.579   0.834 -2.3674 -1.0104  1.2814
 6562SOL    HW231320   0.697   0.559   0.975 -2.8429  0.2821 -0.6552
 6563SOL     OW31321   1.050   1.448   2.838  0.1850 -0.3029  0.1070
 6563SOL    HW131322   0.978   1.452   2.901 -1.9045 -1.1483 -2.2438
 6563SOL    HW231323   1.024   1.524   2.786 -0.2362  0.9903  2.1923
 6564SOL     OW31324   4.621   1.720   9.692  0.0936  0.0616 -0.4171
 6564SOL    HW131325   4.659   1.712   9.780 -0.1066  4.0999  0.0246
 6564SOL    HW231326   4.535   1.762   9.695  0.1963  0.2043  0.5065
 6565SOL     OW31327   3.185   0.630   3.871  0.5984  0.0368 -0.2879
 6565SOL    HW131328   3.140   0.550   3.899  1.1408  0.1685  0.9853
 6565SOL    HW231329   3.259   0.596   3.821  0.9611 -2.5152  1.9913
 6566SOL     OW31330   2.656   0.493   4.944 -0.2400  0.3655  0.0586
 6566SOL    HW131331   2.662   0.471   4.851 -1.5917  0.1108  0.0334
 6566SOL    HW231332   2.733   0.549   4.953  1.5050 -2.1079  0.3137
 6567SOL     OW31333   0.325   3.251  14.293  0.3574 -0.4182 -0.7132
 6567SOL    HW131334   0.276   3.283  14.369  1.4594  1.8697 -0.9543
 6567SOL    HW231335   0.271   3.176  14.267  1.5824 -1.4438 -0.3046
 6568SOL     OW31336   2.951   2.578   4.135  0.5339  0.0578  0.2626
 6568SOL    HW131337   2.882   2.631   4.095 -1.3990 -0.8442  2.3617
 6568SOL    HW231338   2.893   2.519   4.183  0.6769  1.0170  1.5913
 6569SOL     OW31339   3.899   0.452   5.596 -0.5352  0.1709  0.5955
 6569SOL    HW131340   3.819   0.503   5.584 -0.9462 -0.2174  1.6356
 6569SOL    HW231341   3.861   0.373   5.558 -0.0200  0.3906 -0.3663
 6570SOL     OW31342   2.391   4.551   7.272  0.5434 -0.8944  0.4279
 6570SOL    HW131343   2.336   4.595   7.337 -0.9796 -0.0169 -1.4179
 6570SOL    HW231344   2.468   4.609   7.275 -0.3389  0.3335 -0.5560
 6571SOL     OW31345   1.297   4.553   4.748 -0.7537  0.0902  0.1136
 6571SOL    HW131346   1.277   4.637   4.789 -1.2882  1.2954 -2.6365
 6571SOL    HW231347   1.366   4.565   4.682  0.7061  1.5457  1.9066
 6572SOL     OW31348   3.074   4.462   9.406 -0.5641 -0.2868  0.0701
 6572SOL    HW131349   3.053   4.369   9.418  0.1457 -0.4122  0.3501
 6572SOL    HW231350   3.068   4.469   9.311 -0.1731 -0.6821  0.0130
 6573SOL     OW31351   2.374   0.940   1.727 -0.0539  0.2231  0.4415
 6573SOL    HW131352   2.338   0.981   1.649 -1.6184  0.1815  1.1478
 6573SOL    HW231353   2.380   1.016   1.785  1.1072  1.8028 -1.7679
 6574SOL     OW31354   1.584   3.526   5.967  0.0544 -0.2263 -0.1910
 6574SOL    HW131355   1.622   3.460   5.908  2.4791  0.2182  0.8601
 6574SOL    HW231356   1.667   3.554   6.006 -1.1670  0.9374  1.5746
 6575SOL     OW31357   2.108   4.238   6.070  0.0328  0.7525  0.0448
 6575SOL    HW131358   2.048   4.242   6.145  0.8580 -0.9877  0.8135
 6575SOL    HW231359   2.037   4.231   6.007 -0.3669  3.1102  0.2231
 6576SOL     OW31360   4.268   2.867   8.365 -0.5874 -0.1403  0.0887
 6576SOL    HW131361   4.258   2.959   8.392  0.1810  0.2855 -1.0789
 6576SOL    HW231362   4.347   2.866   8.311 -1.0399 -0.8361 -0.5611
 6577SOL     OW31363   4.687   1.792   9.288  0.1035 -0.2030  0.1274
 6577SOL    HW131364   4.723   1.720   9.339  0.7979 -0.7011 -1.0855
 6577SOL    HW231365   0.007   1.866   9.315 -0.8028 -0.0835  1.6410
 6578SOL     OW31366   0.849   1.202   4.593 -0.3904  0.1685  0.5684
 6578SOL    HW131367   0.756   1.226   4.596 -0.2830  0.6099  0.3878
 6578SOL    HW231368   0.866   1.176   4.683 -1.1827  0.1723  0.7173
 6579SOL     OW31369   1.233   4.552   1.399  0.0041 -0.3605  0.3623
 6579SOL    HW131370   1.165   4.515   1.342 -2.5683 -0.6896  3.6865
 6579SOL    HW231371   1.261   4.473   1.446  0.2458 -0.6163 -0.2110
 6580SOL     OW31372   2.790   3.821  16.463 -0.3775  0.3858  0.4784
 6580SOL    HW131373   2.812   3.800  16.554 -1.5526  1.1130  0.9247
 6580SOL    HW231374   2.864   3.878  16.443 -0.3195  1.1389  2.8157
 6581SOL     OW31375   0.393   2.261   5.781 -0.3040 -0.2169  0.4596
 6581SOL    HW131376   0.437   2.225   5.703 -1.7086  3.5028 -2.0345
 6581SOL    HW231377   0.432   2.207   5.850 -0.1925 -2.0768 -1.0597
 6582SOL     OW31378   1.096   4.335   2.882  0.3329 -0.1154 -0.4007
 6582SOL    HW131379   1.089   4.398   2.953  3.1292  0.7980 -0.9111
 6582SOL    HW231380   1.039   4.262   2.905  0.3659 -0.2348 -0.6926
 6583SOL     OW31381   2.919   2.296   3.843 -0.2044 -0.0595 -0.2870
 6583SOL    HW131382   2.865   2.247   3.781 -1.4337 -1.6058  2.0302
 6583SOL    HW231383   2.905   2.249   3.925 -1.2494  2.1253  0.7842
 6584SOL     OW31384   0.789   4.186   4.055 -0.0166 -0.5024 -0.3652
 6584SOL    HW131385   0.708   4.237   4.058 -0.3163 -1.2809  4.3298
 6584SOL    HW231386   0.833   4.234   3.985  3.7954 -2.0126  1.0059
 6585SOL     OW31387   0.273   4.123   6.956 -0.2039 -0.3323  0.3317
 6585SOL    HW131388   0.291   4.116   6.862 -2.4513 -1.5650 -0.0351
 6585SOL    HW231389   0.310   4.043   6.993 -1.0717 -0.5611  0.7141
 6586SOL     OW31390   0.903   2.525   1.879 -0.3776  0.2767  0.5167
 6586SOL    HW131391   0.996   2.504   1.889 -0.5435 -0.2332  1.0082
 6586SOL    HW231392   0.877   2.528   1.972  0.4353 -0.0953  0.7504
 6587SOL     OW31393   2.843   4.135   5.778  0.3971  0.1221  1.0236
 6587SOL    HW131394   2.868   4.067   5.714 -0.7318  1.7070 -1.0871
 6587SOL    HW231395   2.749   4.120   5.782  0.4125 -0.4409 -0.8304
 6588SOL     OW31396   2.582   2.633   3.290 -0.4107 -0.3152 -0.2814
 6588SOL    HW131397   2.631   2.660   3.367 -1.2161 -0.6187  0.3359
 6588SOL    HW231398   2.600   2.690   3.215 -3.0816  0.9844  0.0823
 6589SOL     OW31399   4.256   2.456   7.153  0.5461 -0.0916  0.3606
 6589SOL    HW131400   4.279   2.532   7.206  1.2389  1.4090 -2.1091
 6589SOL    HW231401   4.345   2.421   7.150  0.0623 -1.3806  0.9770
 6590SOL     OW31402   4.403   3.129   9.083  0.1535 -0.2345  0.2002
 6590SOL    HW131403   4.397   3.037   9.108  1.1134 -0.6825 -1.1994
 6590SOL    HW231404   4.349   3.142   9.006  0.8210 -1.2015 -0.4185
 6591SOL     OW31405   3.208   3.349  15.420 -0.0552  0.1234  0.0364
 6591SOL    HW131406   3.152   3.275  15.442  2.0911 -1.6924 -0.6168
 6591SOL    HW231407   3.206   3.390  15.507  2.8574 -1.0731  0.6367
 6592SOL     OW31408   2.380   4.175   0.696  0.0775  0.3443 -0.1162
 6592SOL    HW131409   2.399   4.088   0.730  2.6245  0.4354 -1.3543
 6592SOL    HW231410   2.448   4.184   0.630  1.5857 -0.1818  1.3733
 6593SOL     OW31411   0.858   2.210   1.331 -0.2393 -0.4959 -0.6608
 6593SOL    HW131412   0.825   2.121   1.336 -2.6605  0.4187 -0.3839
 6593SOL    HW231413   0.774   2.238   1.294  0.3054  1.2220 -0.6289
 6594SOL     OW31414   3.406   2.998   9.096  0.5687 -0.7692  0.4291
 6594SOL    HW131415   3.379   3.068   9.036  0.9689 -0.5870  0.4633
 6594SOL    HW231416   3.360   3.032   9.173  1.5697  0.1705  0.6167
 6595SOL     OW31417   3.201   4.028  16.241  0.0828 -0.2333 -0.5921
 6595SOL    HW131418   3.125   4.042  16.297  0.4537 -0.2902 -0.0696
 6595SOL    HW231419   3.226   3.940  16.267  0.0219 -0.6645 -1.9847
 6596SOL     OW31420   2.602   3.436   9.619  0.1959 -0.2003  0.7915
 6596SOL    HW131421   2.572   3.363   9.564  1.5003  0.0516 -0.2636
 6596SOL    HW231422   2.645   3.383   9.686  0.9954  1.0273  1.2468
 6597SOL     OW31423   1.252   4.298  13.267  0.3449  0.3229  0.5222
 6597SOL    HW131424   1.230   4.382  13.227 -3.1983 -1.5049 -1.4194
 6597SOL    HW231425   1.164   4.271  13.295 -0.9277  1.0343 -2.7210
 6598SOL     OW31426   3.164   4.264   5.679  0.4392  0.1839  0.2262
 6598SOL    HW131427   3.124   4.234   5.761  0.3730 -0.1417  0.0766
 6598SOL    HW231428   3.162   4.180   5.634 -0.2997 -0.3656  1.2699
 6599SOL     OW31429   3.268   2.813   0.950 -0.2790 -0.0843 -0.0925
 6599SOL    HW131430   3.310   2.752   0.890 -0.2076  0.6697 -0.8126
 6599SOL    HW231431   3.178   2.784   0.931 -0.2767  0.1977 -0.5446
 6600SOL     OW31432   0.877   0.485   5.154 -0.4316  0.2241  0.3562
 6600SOL    HW131433   0.927   0.462   5.076 -1.6803 -1.1572 -0.0347
 6600SOL    HW231434   0.863   0.401   5.199 -0.7606  0.3715  0.5293
 6601SOL     OW31435   3.969   1.904   4.478 -0.0661  0.1529  0.3158
 6601SOL    HW131436   3.944   1.957   4.403 -1.2979  0.8572  1.2165
 6601SOL    HW231437   3.924   1.949   4.549  0.7408  0.3135  0.7216
 6602SOL     OW31438   2.744   2.369   3.253  0.2086 -0.1229 -0.2165
 6602SOL    HW131439   2.677   2.426   3.215 -1.5718 -0.5848  2.2009
 6602SOL    HW231440   2.802   2.360   3.178  0.4352 -3.2169  0.3378
 6603SOL     OW31441   0.014   3.533   7.228 -0.2919 -0.5243 -0.7037
 6603SOL    HW131442   0.077   3.570   7.290 -2.0297  1.0215  0.1475
 6603SOL    HW231443   4.669   3.538   7.281 -0.7042  0.8721 -1.4820
 6604SOL     OW31444   0.837   0.027  16.608  0.1493 -0.4391  0.3112
 6604SOL    HW131445   0.768   0.083  16.643  0.9367  0.4335  0.4781
 6604SOL    HW231446   0.797   4.686  16.566  0.2231 -0.2966 -0.0136
 6605SOL     OW31447   2.221   3.418  16.561 -0.3900 -0.3731 -0.2874
 6605SOL    HW131448   2.228   3.445  16.469 -0.0001 -1.4414 -0.5764
 6605SOL    HW231449   2.147   3.469  16.594  1.1554  1.3680  0.4887
 6606SOL     OW31450   0.908   0.842   3.054 -0.3652 -0.6515 -0.2698
 6606SOL    HW131451   0.973   0.873   3.118  0.4871  1.2251 -2.0343
 6606SOL    HW231452   0.869   0.770   3.104 -2.2919  0.1061 -0.7007
 6607SOL     OW31453   1.106   2.754  14.863  0.3985  0.4433  0.5022
 6607SOL    HW131454   1.108   2.727  14.955  1.3051  0.8130  0.5885
 6607SOL    HW231455   1.083   2.675  14.815  1.7331  1.1047 -1.2282
 6608SOL     OW31456   2.287   2.147   2.648  0.1605 -0.0444 -0.0719
 6608SOL    HW131457   2.322   2.201   2.577  0.4683  0.1172  0.1985
 6608SOL    HW231458   2.193   2.159   2.645 -0.0580 -0.8079  3.3942
 6609SOL     OW31459   2.021   1.511  16.714  0.7038  0.0823  0.2012
 6609SOL    HW131460   2.042   1.592  16.759 -3.0645  0.9971  0.2674
 6609SOL    HW231461   2.098   1.455  16.727  0.4972 -1.0150 -3.3894
 6610SOL     OW31462   4.321   3.064   9.743 -0.0310  0.0831  0.0856
 6610SOL    HW131463   4.338   3.057   9.837  2.5159 -0.0703 -0.3833
 6610SOL    HW231464   4.407   3.032   9.715 -0.4220 -1.3123  0.4557
 6611SOL     OW31465   0.262   3.698   4.646 -0.0235 -0.6189 -0.5279
 6611SOL    HW131466   0.332   3.635   4.665 -0.7994 -0.8885  1.3888
 6611SOL    HW231467   0.306   3.760   4.587 -0.8879 -1.1662 -1.7374
 6612SOL     OW31468   2.959   2.166   8.578  0.1391 -0.0403 -0.2380
 6612SOL    HW131469   3.043   2.150   8.537  0.4046 -0.8597  0.6248
 6612SOL    HW231470   2.979   2.244   8.629 -0.9944  1.4720 -2.1104
 6613SOL     OW31471   1.667   3.001  14.995 -0.4199 -0.6739 -0.1712
 6613SOL    HW131472   1.630   2.947  14.925 -1.1897 -1.2583  0.6896
 6613SOL    HW231473   1.709   2.927  15.040  0.5526 -0.8788 -1.4376
 6614SOL     OW31474   3.159   2.448  10.000  0.0089 -0.5626  0.7138
 6614SOL    HW131475   3.209   2.454   9.918 -0.4975 -1.8370  0.3177
 6614SOL    HW231476   3.199   2.368  10.035 -0.3607 -1.5303 -1.1100
 6615SOL     OW31477   1.636   4.585   6.476 -0.3270 -0.3224  0.0504
 6615SOL    HW131478   1.542   4.600   6.465 -0.4961  1.5855  3.8424
 6615SOL    HW231479   1.662   4.667   6.519 -0.3116  0.2740 -1.0924
 6616SOL     OW31480   1.183   1.743   2.941  0.0512  0.0592 -0.1938
 6616SOL    HW131481   1.188   1.834   2.910 -2.1534  0.0126 -0.7183
 6616SOL    HW231482   1.110   1.704   2.892 -1.5399  2.5971  0.1468
 6617SOL     OW31483   4.718   1.102   9.573  0.0652  0.0374  0.6213
 6617SOL    HW131484   4.691   1.169   9.510  0.2142 -0.3690  0.1260
 6617SOL    HW231485   4.633   1.086   9.614 -0.3306 -0.8825 -0.5592
 6618SOL     OW31486   1.152   0.193   4.843 -0.1298 -0.1165 -0.1794
 6618SOL    HW131487   1.216   0.155   4.782 -1.9225 -0.6813 -1.7119
 6618SOL    HW231488   1.073   0.143   4.822  1.4211 -1.8248 -1.9858
 6619SOL     OW31489   1.572   0.733   4.598  0.4101  0.1550 -0.1720
 6619SOL    HW131490   1.538   0.717   4.686 -2.1392  0.5856 -1.0817
 6619SOL    HW231491   1.492   0.744   4.547  1.5123  1.5203 -1.6121
 6620SOL     OW31492   3.422   3.810  14.517  0.4648  0.1532  0.1783
 6620SOL    HW131493   3.395   3.720  14.533 -0.3254  0.2356 -0.7420
 6620SOL    HW231494   3.512   3.803  14.485  0.2707  3.4679 -1.1495
 6621SOL     OW31495   3.059   3.601   0.911  0.2079 -0.1336  0.5977
 6621SOL    HW131496   3.062   3.693   0.938  2.1106 -0.2167  0.7012
 6621SOL    HW231497   3.063   3.555   0.995 -0.7334 -1.7668 -0.2443
 6622SOL     OW31498   2.848   3.029   1.668  0.2984  0.0155 -0.4606
 6622SOL    HW131499   2.867   2.940   1.699 -0.4353  0.3425  0.9298
 6622SOL    HW231500   2.805   3.004   1.586 -2.7691 -1.9590  1.7352
 6623SOL     OW31501   1.846   2.032   3.929 -0.6431  0.0389 -0.6184
 6623SOL    HW131502   1.910   1.966   3.957  0.8594  2.2064  1.1514
 6623SOL    HW231503   1.823   2.073   4.013  3.0365 -0.6193  0.7081
 6624SOL     OW31504   3.081   1.050   2.716 -0.1563  0.3299 -0.4159
 6624SOL    HW131505   3.058   1.068   2.807  1.2573  0.0197  0.0040
 6624SOL    HW231506   3.022   0.977   2.698  0.0110  0.1848 -0.3755
 6625SOL     OW31507   0.462   0.758  10.279  0.2198 -0.2709  0.5107
 6625SOL    HW131508   0.503   0.711  10.207 -0.2925  2.5369 -1.6305
 6625SOL    HW231509   0.370   0.733  10.277  0.0391  0.8519 -4.1191
 6626SOL     OW31510   4.016   4.055  14.105  0.1183  0.0396 -1.1013
 6626SOL    HW131511   3.950   3.994  14.071 -0.3627 -1.2683  2.1511
 6626SOL    HW231512   3.970   4.099  14.177 -0.7641  2.7572 -3.2955
 6627SOL     OW31513   0.631   2.405   2.233  0.6681  0.2675 -0.0506
 6627SOL    HW131514   0.625   2.314   2.260  0.2254  0.5631  0.8357
 6627SOL    HW231515   0.632   2.447   2.319 -1.9856 -0.9263  0.5496
 6628SOL     OW31516   0.506   3.536   3.501  0.0208 -0.0102  0.0574
 6628SOL    HW131517   0.524   3.497   3.586  0.6024  1.5215  0.6250
 6628SOL    HW231518   0.543   3.622   3.521  0.3202 -0.3500  0.9648
 6629SOL     OW31519   2.808   4.197   6.064 -0.7130 -0.3807  0.0214
 6629SOL    HW131520   2.843   4.163   5.981 -1.5963  0.0798 -0.5470
 6629SOL    HW231521   2.822   4.291   6.055  2.3058 -1.0811 -2.2632
 6630SOL     OW31522   2.584   1.778   7.772  0.2890  0.0672  0.5303
 6630SOL    HW131523   2.608   1.804   7.683  1.3129  0.0639  0.8015
 6630SOL    HW231524   2.668   1.737   7.794  1.2627  1.5325 -0.4944
 6631SOL     OW31525   0.694   1.494   4.402  0.2787 -0.3415 -0.3722
 6631SOL    HW131526   0.630   1.447   4.350  1.2276 -1.7923 -0.2186
 6631SOL    HW231527   0.769   1.472   4.347 -0.0251 -0.0387 -0.9061
 6632SOL     OW31528   2.373   2.326   2.433 -0.2816  0.3500 -0.3530
 6632SOL    HW131529   2.400   2.362   2.348  0.0675 -1.8793 -1.2008
 6632SOL    HW231530   2.428   2.379   2.491  1.5838  1.3443 -3.0102
 6633SOL     OW31531   2.144   2.301  15.106  0.4227 -0.6158  0.1414
 6633SOL    HW131532   2.134   2.236  15.175  0.9077 -2.0633 -1.1585
 6633SOL    HW231533   2.239   2.311  15.107  0.2182  1.0116  1.7767
 6634SOL     OW31534   1.345   4.441   7.546 -0.1454 -0.0703  0.3690
 6634SOL    HW131535   1.351   4.494   7.467 -0.3320  1.2092  1.2179
 6634SOL    HW231536   1.416   4.379   7.530 -2.4241 -2.7873  0.7839
 6635SOL     OW31537   0.616   0.486   0.297  0.8306 -0.0429  0.3246
 6635SOL    HW131538   0.632   0.458   0.387  0.6985  0.0885  0.3902
 6635SOL    HW231539   0.541   0.428   0.285  0.2083  0.9806 -0.7163
 6636SOL     OW31540   0.626   1.123   2.859  0.4392  0.0709  0.0268
 6636SOL    HW131541   0.665   1.189   2.802 -0.0744 -0.5309 -1.0259
 6636SOL    HW231542   0.687   1.104   2.931 -1.1764 -3.6306  0.4076
 6637SOL     OW31543   0.355   3.861   3.775 -0.1732  0.3420  0.4167
 6637SOL    HW131544   0.290   3.792   3.786  0.5063 -0.1762  1.2082
 6637SOL    HW231545   0.296   3.936   3.780 -0.6578 -0.1271  1.8516
 6638SOL     OW31546   1.305   4.203   6.251 -0.0348  0.2326  0.9476
 6638SOL    HW131547   1.280   4.292   6.274 -0.8236  0.0936  0.6094
 6638SOL    HW231548   1.225   4.154   6.232  0.3219 -0.3218  0.8613
 6639SOL     OW31549   1.258   0.330   9.718  0.3516 -0.0820  0.4931
 6639SOL    HW131550   1.310   0.348   9.796  0.8871 -0.2806  0.1866
 6639SOL    HW231551   1.326   0.295   9.660  0.3519  1.4403 -0.4259
 6640SOL     OW31552   0.385   0.991  12.078  0.1621 -0.1961  0.3648
 6640SOL    HW131553   0.452   0.924  12.068  0.0553 -0.6522  2.6549
 6640SOL    HW231554   0.365   1.011  11.987 -0.3711 -0.2179  0.4730
 6641SOL     OW31555   4.321   2.010   4.665  0.3617 -0.1573 -0.0905
 6641SOL    HW131556   4.375   1.936   4.637 -0.7085 -0.1822 -2.1637
 6641SOL    HW231557   4.291   1.975   4.749 -3.0265  1.2489 -0.6915
 6642SOL     OW31558   3.838   0.647   9.236 -0.6037  0.3035 -0.3401
 6642SOL    HW131559   3.808   0.602   9.315 -0.0784 -0.7923 -0.7693
 6642SOL    HW231560   3.832   0.576   9.173 -1.4269  2.2590 -2.4795
 6643SOL     OW31561   1.059   2.719  15.143 -0.2457  0.2443 -0.6245
 6643SOL    HW131562   0.970   2.728  15.178 -0.4360  2.9092 -1.8244
 6643SOL    HW231563   1.091   2.806  15.162  1.2873 -0.7935  1.5721
 6644SOL     OW31564   2.415   2.565   8.290 -0.4444  0.7155 -0.6271
 6644SOL    HW131565   2.358   2.512   8.235  0.9749  0.7489 -2.1242
 6644SOL    HW231566   2.465   2.613   8.223 -0.0830  1.1649 -0.0353
 6645SOL     OW31567   0.715   3.116   0.794 -0.0605 -0.0807  0.3156
 6645SOL    HW131568   0.711   3.021   0.779  0.5356  0.0780 -0.8697
 6645SOL    HW231569   0.771   3.132   0.870 -0.1623  1.4756  0.0508
 6646SOL     OW31570   0.252   4.706   5.073 -0.0598  0.2156  0.3623
 6646SOL    HW131571   0.226   4.716   5.165 -0.3164 -2.2993  0.5772
 6646SOL    HW231572   0.206   0.045   5.035 -0.7820 -1.3777 -1.8487
 6647SOL     OW31573   0.856   1.061   3.366 -0.2622 -0.3285 -0.0308
 6647SOL    HW131574   0.944   1.098   3.361 -0.1354 -0.4108  1.5290
 6647SOL    HW231575   0.828   1.058   3.275 -1.3413  2.0350  0.2172
 6648SOL     OW31576   1.529   2.537   7.939  0.0407 -0.1805  0.1308
 6648SOL    HW131577   1.615   2.575   7.919 -0.1214 -0.1747 -0.5527
 6648SOL    HW231578   1.508   2.572   8.026 -0.8085 -1.8398  0.5957
 6649SOL     OW31579   0.228   3.575   8.127  0.0856 -0.0322  0.6116
 6649SOL    HW131580   0.177   3.647   8.163  2.0807  1.3514  0.6865
 6649SOL    HW231581   0.288   3.632   8.078 -2.5212  0.1779 -2.3473
 6650SOL     OW31582   0.259   1.450   8.748  0.1326  0.4115  0.2816
 6650SOL    HW131583   0.179   1.473   8.795 -1.2068  1.2267 -2.3868
 6650SOL    HW231584   0.306   1.395   8.809 -0.1566  1.0112  1.0402
 6651SOL     OW31585   3.740   2.012  13.343  0.4551 -0.1630 -0.0014
 6651SOL    HW131586   3.771   2.086  13.395 -0.7578  0.1331  0.2995
 6651SOL    HW231587   3.685   1.969  13.409 -1.1528  0.9768 -0.5852
 6652SOL     OW31588   2.508   3.645  13.455 -1.1356  0.2973 -0.4494
 6652SOL    HW131589   2.467   3.696  13.525 -1.7895 -1.3832  0.3739
 6652SOL    HW231590   2.432   3.608  13.409 -2.4012  1.2753  0.8586
 6653SOL     OW31591   0.545   3.322  10.380  0.1763 -0.2368  0.3676
 6653SOL    HW131592   0.534   3.304  10.473  1.3088  0.3626  0.6185
 6653SOL    HW231593   0.454   3.334  10.353  0.3523 -0.5270 -0.3659
 6654SOL     OW31594   2.072   3.848   8.642 -0.1679 -0.0039  0.2997
 6654SOL    HW131595   2.082   3.898   8.722  1.3795 -0.9906  0.7367
 6654SOL    HW231596   1.992   3.802   8.666 -0.8227  1.1154  0.2509
 6655SOL     OW31597   1.804   4.559   6.751  0.1157  0.2648  0.8452
 6655SOL    HW131598   1.775   4.491   6.691  0.7060  0.4946  0.2923
 6655SOL    HW231599   1.793   4.516   6.836 -0.9316 -0.9204  0.1102
 6656SOL     OW31600   3.141   0.342   7.080  0.2509  0.2381  0.2477
 6656SOL    HW131601   3.179   0.430   7.090  0.8084 -0.0490  0.6361
 6656SOL    HW231602   3.134   0.329   6.985  0.1786 -0.1708  0.3105
 6657SOL     OW31603   2.786   0.225   9.023 -0.5858 -0.4053 -0.7164
 6657SOL    HW131604   2.692   0.232   9.010 -0.4525  2.2935 -0.3514
 6657SOL    HW231605   2.822   0.301   8.977  1.0275 -0.9276 -0.3364
 6658SOL     OW31606   3.493   1.551  17.186  0.3347 -0.4379  0.1625
 6658SOL    HW131607   3.461   1.609  17.254  2.8267  0.2500  0.7719
 6658SOL    HW231608   3.465   1.602  17.110  1.1198 -0.1710  0.0514
 6659SOL     OW31609   0.012   1.105   3.486  0.2047  0.1816  0.0018
 6659SOL    HW131610   4.651   1.095   3.488  0.1337  0.9208  0.3079
 6659SOL    HW231611   0.031   1.040   3.554 -0.6513 -0.4029 -0.3181
 6660SOL     OW31612   3.943   3.104   6.524 -0.3201 -1.0121  0.1606
 6660SOL    HW131613   3.984   3.085   6.439 -0.1614  0.7233 -0.1552
 6660SOL    HW231614   3.885   3.028   6.526  0.5370 -1.6118  2.0076
 6661SOL     OW31615   2.810   3.071   4.357  0.1940  0.3107 -0.7307
 6661SOL    HW131616   2.834   3.115   4.438 -1.1431 -2.2753  1.0337
 6661SOL    HW231617   2.732   3.121   4.336  0.5004  1.2677  0.4072
 6662SOL     OW31618   3.979   2.646   2.826 -0.2615 -0.1803 -0.4963
 6662SOL    HW131619   4.036   2.578   2.860  0.2292  0.1415 -0.6793
 6662SOL    HW231620   3.986   2.625   2.733  0.5115  1.8792 -0.9181
 6663SOL     OW31621   3.874   0.707   6.266 -0.2723  0.1471  0.3717
 6663SOL    HW131622   3.846   0.647   6.198  0.9314  0.3746 -0.3184
 6663SOL    HW231623   3.793   0.754   6.286  0.9659  2.4671  0.0102
 6664SOL     OW31624   4.241   0.963   9.003 -0.0622 -0.1226  0.1130
 6664SOL    HW131625   4.318   0.935   8.953 -0.3014 -0.0061 -0.3245
 6664SOL    HW231626   4.221   0.879   9.044  1.0783  0.5687  2.0781
 6665SOL     OW31627   2.850   2.173   7.719  0.7117 -0.6319  0.2499
 6665SOL    HW131628   2.897   2.210   7.794  1.8557 -2.9380  0.6447
 6665SOL    HW231629   2.780   2.137   7.773  0.2808 -2.1285 -1.3334
 6666SOL     OW31630   3.118   2.009   8.170 -0.1519 -0.0465 -0.4795
 6666SOL    HW131631   3.026   2.019   8.148 -1.0096  0.2323  3.2220
 6666SOL    HW231632   3.112   1.919   8.204  0.7277  0.1187  0.1047
 6667SOL     OW31633   4.303   3.096   3.360  0.1165 -0.0988 -0.3743
 6667SOL    HW131634   4.308   3.112   3.454 -0.8960 -0.3888 -0.2659
 6667SOL    HW231635   4.363   3.161   3.324  0.2510  0.7159  1.3432
 6668SOL     OW31636   1.802   2.109   8.334  0.0466 -0.2969  0.0696
 6668SOL    HW131637   1.737   2.044   8.363  2.0396 -1.1113  2.7317
 6668SOL    HW231638   1.849   2.122   8.417 -0.3128  0.7618  0.1191
 6669SOL     OW31639   2.274   1.966   5.899 -0.4220 -0.6541  0.0767
 6669SOL    HW131640   2.221   1.890   5.923 -2.4735  0.4978 -0.7354
 6669SOL    HW231641   2.357   1.957   5.946 -1.3007 -0.4832  1.6472
 6670SOL     OW31642   1.796   1.725   1.348  0.3340  0.2921  0.5008
 6670SOL    HW131643   1.764   1.810   1.376 -0.1288  0.0127  0.8256
 6670SOL    HW231644   1.786   1.669   1.425 -1.9569 -2.2191 -1.5912
 6671SOL     OW31645   3.227   1.610   2.102  0.1981  0.2849  0.4474
 6671SOL    HW131646   3.160   1.641   2.163 -3.2070 -1.1597 -2.5546
 6671SOL    HW231647   3.201   1.521   2.080  1.6758  0.7752 -3.2594
 6672SOL     OW31648   2.747   1.308   2.810 -0.5883  0.3949  0.2489
 6672SOL    HW131649   2.764   1.332   2.719  1.2669  0.5927  0.6402
 6672SOL    HW231650   2.784   1.386   2.851  2.4968 -0.8670 -0.1519
 6673SOL     OW31651   0.604   1.486   2.523 -0.5501 -0.0890  0.4270
 6673SOL    HW131652   0.565   1.414   2.473 -0.6985 -1.0793  1.9617
 6673SOL    HW231653   0.637   1.544   2.455 -1.6815  1.7624  1.4437
 6674SOL     OW31654   4.306   0.817   5.964  0.0009 -0.2539 -0.0601
 6674SOL    HW131655   4.267   0.789   5.882  1.0763 -3.6065  0.5767
 6674SOL    HW231656   4.345   0.735   5.995 -2.4112 -1.0181  0.9006
 6675SOL     OW31657   2.447   0.795   2.706  0.4997 -0.2635  0.0846
 6675SOL    HW131658   2.375   0.733   2.714  1.7159 -1.6565  0.2458
 6675SOL    HW231659   2.514   0.727   2.705  2.6953  1.8604  2.5598
 6676SOL     OW31660   2.301   3.820   5.090  0.0066 -0.3026 -0.5348
 6676SOL    HW131661   2.210   3.831   5.118 -0.5137 -1.6667 -1.6800
 6676SOL    HW231662   2.294   3.727   5.065 -1.3951 -0.5009  0.5651
 6677SOL     OW31663   4.683   0.927   4.375 -0.4220  0.2118  0.3742
 6677SOL    HW131664   4.690   0.847   4.324  1.4748  0.4602  0.2391
 6677SOL    HW231665   0.011   0.920   4.447  1.6331  1.1531 -1.2964
 6678SOL     OW31666   4.576   2.366   2.983 -0.1017 -0.1150  0.4609
 6678SOL    HW131667   4.617   2.448   2.954 -1.5776  1.0452  1.6578
 6678SOL    HW231668   4.652   2.321   3.020  0.3415 -0.4126 -0.8022
 6679SOL     OW31669   3.064   2.984   6.233  0.4140  0.4133 -0.0833
 6679SOL    HW131670   3.095   2.912   6.177 -2.1042  1.6242 -3.0291
 6679SOL    HW231671   2.990   2.940   6.275 -0.8215  1.6860 -0.9447
 6680SOL     OW31672   2.509   0.800   8.205  0.1949 -0.1444 -0.5977
 6680SOL    HW131673   2.567   0.819   8.132 -2.2018  0.9103 -2.2067
 6680SOL    HW231674   2.559   0.728   8.244 -2.0318 -1.5757 -0.3714
 6681SOL     OW31675   1.920   3.431   5.567 -0.1107 -0.7736 -0.8174
 6681SOL    HW131676   1.972   3.352   5.579  0.1021 -0.6298 -0.7939
 6681SOL    HW231677   1.936   3.463   5.479  2.0365  0.1036 -0.1094
 6682SOL     OW31678   4.118   4.172   1.181  0.4410 -0.3275 -0.2107
 6682SOL    HW131679   4.202   4.210   1.154 -0.3151  1.4992  0.0494
 6682SOL    HW231680   4.065   4.192   1.104 -1.7254 -0.3227  1.2787
 6683SOL     OW31681   4.081   3.534  13.129  0.3865 -0.1874 -0.4661
 6683SOL    HW131682   4.106   3.617  13.169  0.6932 -0.2431 -0.5405
 6683SOL    HW231683   3.993   3.568  13.110 -0.2382 -0.6541  1.6518
 6684SOL     OW31684   4.446   3.411   5.641  0.5229 -0.0249  0.4034
 6684SOL    HW131685   4.401   3.362   5.571  1.7843  0.6800 -0.8885
 6684SOL    HW231686   4.445   3.499   5.604 -1.3291  0.1135  0.7731
 6685SOL     OW31687   2.219   1.527   5.143 -0.4167  0.3253  0.2314
 6685SOL    HW131688   2.187   1.437   5.138  0.4810 -0.0266  1.0005
 6685SOL    HW231689   2.240   1.532   5.236 -0.0379  0.6632  0.1275
 6686SOL     OW31690   1.557   3.028   2.292  0.1851  0.0073 -0.3651
 6686SOL    HW131691   1.602   3.023   2.377  0.1831 -2.8383 -0.5382
 6686SOL    HW231692   1.496   2.955   2.292 -0.1049  0.2494 -0.5051
 6687SOL     OW31693   3.812   3.853   8.092  0.2469  0.2471  0.1456
 6687SOL    HW131694   3.833   3.798   8.167 -1.5090 -1.3392 -0.5208
 6687SOL    HW231695   3.817   3.935   8.142 -0.7395 -0.8760  2.0366
 6688SOL     OW31696   2.608   2.069   6.671  0.1485 -0.0686 -0.1414
 6688SOL    HW131697   2.700   2.048   6.656  0.1481  0.8285 -1.4416
 6688SOL    HW231698   2.588   2.137   6.606 -2.6232  1.7531  2.5780
 6689SOL     OW31699   3.418   3.890   7.718 -0.1621 -0.8246  0.4298
 6689SOL    HW131700   3.395   3.798   7.727 -0.6979 -0.9250 -1.9479
 6689SOL    HW231701   3.485   3.902   7.785 -1.8944 -0.8994  2.1805
 6690SOL     OW31702   3.080   4.292  10.723 -0.0729 -0.2685 -0.0371
 6690SOL    HW131703   3.157   4.349  10.719 -0.2448  0.0603  1.4239
 6690SOL    HW231704   3.097   4.255  10.809  1.4592 -2.6898 -1.3825
 6691SOL     OW31705   1.266   1.005   6.304 -0.5137  0.3754 -0.2019
 6691SOL    HW131706   1.210   0.934   6.271  0.5419 -0.1252 -0.9093
 6691SOL    HW231707   1.200   1.074   6.311  0.2653  1.0180  0.9779
 6692SOL     OW31708   0.034   3.399   6.157 -0.7789  0.3081 -0.1771
 6692SOL    HW131709   0.051   3.471   6.218 -1.1228 -0.1174  0.4203
 6692SOL    HW231710   0.051   3.446   6.076 -1.4963  1.8786  0.5633
 6693SOL     OW31711   2.438   1.252   7.619 -0.1596  0.1733  0.0662
 6693SOL    HW131712   2.430   1.159   7.643  3.4538 -0.0264  0.5491
 6693SOL    HW231713   2.361   1.280   7.668 -0.5071  1.2902 -1.1353
 6694SOL     OW31714   0.592   0.736   4.643 -0.4143  0.0039 -0.7707
 6694SOL    HW131715   0.636   0.652   4.659  1.7521  1.3491  0.3979
 6694SOL    HW231716   0.498   0.721   4.642 -0.8693  2.7781  1.9172
 6695SOL     OW31717   3.917   2.127   3.267 -0.0120 -0.2644 -0.0799
 6695SOL    HW131718   3.911   2.199   3.203  2.3439 -1.6679 -1.8787
 6695SOL    HW231719   3.826   2.098   3.255 -0.4575  0.9080  0.4237
 6696SOL     OW31720   2.328   0.108   6.362  0.3076  0.0472 -0.6461
 6696SOL    HW131721   2.299   0.150   6.443  2.2480  0.3938 -0.1176
 6696SOL    HW231722   2.346   0.021   6.398  2.8321  0.5726 -0.6497
 6697SOL     OW31723   3.414   4.453  16.813 -0.5363 -0.3598 -0.4703
 6697SOL    HW131724   3.401   4.421  16.902  1.1586 -0.1645 -0.1477
 6697SOL    HW231725   3.508   4.470  16.821 -0.3765 -2.0302  1.4556
 6698SOL     OW31726   4.505   0.630   3.339  0.5677  0.0154 -0.1472
 6698SOL    HW131727   4.504   0.655   3.431  0.1778  2.8569 -0.9139
 6698SOL    HW231728   4.568   0.558   3.341  0.2856 -0.2133  0.5169
 6699SOL     OW31729   1.273   0.328   8.355 -0.2687 -0.5357  0.4618
 6699SOL    HW131730   1.317   0.342   8.438  1.9236 -1.2599 -0.5712
 6699SOL    HW231731   1.336   0.362   8.291 -0.6796 -0.4120  0.1235
 6700SOL     OW31732   1.953   1.084   5.221  0.2054  0.0979 -0.1382
 6700SOL    HW131733   1.908   1.134   5.153 -0.8069 -1.6473 -0.7516
 6700SOL    HW231734   1.913   0.998   5.203  1.7670 -0.3736 -1.3360
 6701SOL     OW31735   0.472   2.546   6.372  0.2948 -0.4835 -0.4537
 6701SOL    HW131736   0.546   2.583   6.419  1.0263 -2.1657 -0.2655
 6701SOL    HW231737   0.402   2.607   6.395 -0.4284 -1.2133 -0.7150
 6702SOL     OW31738   4.220   1.343   6.845 -0.2416  0.0772 -0.0343
 6702SOL    HW131739   4.136   1.363   6.804  0.9513  3.4052 -0.8453
 6702SOL    HW231740   4.252   1.273   6.788 -2.7773  0.3783 -1.8133
 6703SOL     OW31741   0.656   1.628   5.183  0.1797 -0.0500 -0.4234
 6703SOL    HW131742   0.668   1.691   5.254 -0.3270  0.8949 -1.1789
 6703SOL    HW231743   0.655   1.671   5.097 -2.1251 -2.8164 -1.7620
 6704SOL     OW31744   1.505   1.014   3.140  0.0581 -0.0243 -0.1802
 6704SOL    HW131745   1.562   0.974   3.205 -0.6214 -1.0686 -0.2295
 6704SOL    HW231746   1.460   1.080   3.192  0.9033 -0.0642  0.6084
 6705SOL     OW31747   4.638   2.018   5.717 -0.3416 -0.1621  0.0950
 6705SOL    HW131748   4.641   2.051   5.807  1.0823 -1.2788  0.4705
 6705SOL    HW231749   4.574   1.948   5.727 -0.7262  0.2003  0.1345
 6706SOL     OW31750   1.920   4.078   4.445  0.3318 -0.4445  0.3765
 6706SOL    HW131751   1.955   4.074   4.534  0.7624 -0.2725  0.2134
 6706SOL    HW231752   1.923   4.171   4.422 -2.1745 -0.2632  0.7708
 6707SOL     OW31753   3.218   3.142  11.072  0.2141 -0.2542  0.3349
 6707SOL    HW131754   3.227   3.234  11.096 -0.3382 -0.6009  1.8840
 6707SOL    HW231755   3.300   3.102  11.102 -0.2780 -1.3835  0.1593
 6708SOL     OW31756   4.604   2.043   1.437  0.4756  0.4401  0.0635
 6708SOL    HW131757   4.697   2.022   1.434  0.3596  0.1467 -1.2114
 6708SOL    HW231758   4.588   2.041   1.532  0.9078 -0.1956  0.1281
 6709SOL     OW31759   0.011   3.582  15.553 -0.2862 -0.3584 -0.1842
 6709SOL    HW131760   0.004   3.639  15.630 -0.7915 -0.3230 -0.2596
 6709SOL    HW231761   4.698   3.632  15.487 -1.7239  0.2932  1.3536
 6710SOL     OW31762   1.184   0.325   2.650  0.4976 -0.2438 -0.7709
 6710SOL    HW131763   1.127   0.309   2.575  1.2562  1.0503 -1.6172
 6710SOL    HW231764   1.269   0.288   2.630  0.7823 -0.1901  0.3132
 6711SOL     OW31765   1.836   3.303   1.830  0.1617  0.1689 -0.0128
 6711SOL    HW131766   1.813   3.216   1.862  0.6546  1.3893  3.6234
 6711SOL    HW231767   1.915   3.317   1.882  0.3299  2.3315 -0.8500
 6712SOL     OW31768   2.086   3.204  11.532 -0.1053 -0.3403 -0.0044
 6712SOL    HW131769   2.064   3.256  11.455 -1.0167  0.5106  0.8377
 6712SOL    HW231770   2.171   3.168  11.504 -0.2403 -1.4621  0.9973
 6713SOL     OW31771   0.833   2.653  12.278 -0.0650  0.0870 -0.2395
 6713SOL    HW131772   0.777   2.576  12.290 -0.3978  0.1288 -1.5920
 6713SOL    HW231773   0.820   2.670  12.185 -1.7387 -0.7581 -0.1633
 6714SOL     OW31774   1.740   4.118   8.776  0.4817  0.1658  0.1055
 6714SOL    HW131775   1.768   4.041   8.727 -1.8940 -0.5826 -0.0618
 6714SOL    HW231776   1.693   4.165   8.708 -0.2479  0.6679  0.9583
 6715SOL     OW31777   2.711   3.297  16.965  0.5966 -0.1475  0.2436
 6715SOL    HW131778   2.806   3.290  16.951  0.3156 -2.2654 -0.6484
 6715SOL    HW231779   2.708   3.202  16.977 -0.7128  0.0725  1.6192
 6716SOL     OW31780   4.054   1.629   5.112  0.2488  0.3525  0.4616
 6716SOL    HW131781   4.106   1.609   5.035  1.3632  1.1793  0.9955
 6716SOL    HW231782   4.116   1.607   5.182 -1.1007  1.1541  1.9104
 6717SOL     OW31783   1.769   4.406   6.184 -0.0296 -0.3050 -0.1196
 6717SOL    HW131784   1.840   4.450   6.136 -1.6191  3.3565  0.8583
 6717SOL    HW231785   1.822   4.337   6.224 -1.0305  0.7433  3.0430
 6718SOL     OW31786   0.397   1.369   4.332  0.0610 -0.1856 -0.1188
 6718SOL    HW131787   0.310   1.395   4.300  0.5735  0.4361 -1.0004
 6718SOL    HW231788   0.455   1.372   4.256 -1.4040 -1.2564 -1.2803
 6719SOL     OW31789   1.389   2.153   7.285  0.3777  0.1066  0.6823
 6719SOL    HW131790   1.459   2.208   7.250  0.7411 -1.7860 -1.5681
 6719SOL    HW231791   1.397   2.078   7.226  1.5798  2.0298 -1.6066
 6720SOL     OW31792   0.152   1.730   6.419  0.3928 -0.0275 -0.2244
 6720SOL    HW131793   0.237   1.690   6.439 -0.1718 -0.7185  0.7788
 6720SOL    HW231794   0.142   1.706   6.327  0.4011  1.5688 -0.6450
 6721SOL     OW31795   0.758   4.701   3.728 -0.1775 -0.2861  0.2867
 6721SOL    HW131796   0.843   4.686   3.770 -0.1362 -0.1433  0.2553
 6721SOL    HW231797   0.787   4.669   3.642 -0.3836  0.0834  0.0793
 6722SOL     OW31798   4.538   3.773   1.307 -0.0218  0.3938 -0.1102
 6722SOL    HW131799   4.556   3.827   1.230 -0.4659  1.1153  0.3068
 6722SOL    HW231800   4.443   3.776   1.303 -0.0882 -0.6658  0.7031
 6723SOL     OW31801   3.478   2.039   8.999  0.4675  0.4956 -0.1152
 6723SOL    HW131802   3.396   2.025   8.952  0.9288  0.6191 -0.9466
 6723SOL    HW231803   3.469   2.132   9.021  1.5945  0.9910 -1.7857
 6724SOL     OW31804   2.056   1.554  11.304 -0.1228 -0.2429  0.2367
 6724SOL    HW131805   2.146   1.525  11.286 -0.5046 -1.6041  0.4949
 6724SOL    HW231806   2.012   1.537  11.220 -2.1201 -0.4900  1.3382
 6725SOL     OW31807   2.159   3.785   4.177  0.3831  0.1827  0.2365
 6725SOL    HW131808   2.168   3.729   4.253  1.1833  1.0554  0.7847
 6725SOL    HW231809   2.242   3.814   4.140  0.5352 -1.7526 -0.9198
 6726SOL     OW31810   2.481   4.690   1.140 -0.0665  0.0460 -0.0909
 6726SOL    HW131811   2.576   4.700   1.138 -0.0141 -0.2877  1.1501
 6726SOL    HW231812   2.459   0.046   1.117 -1.7279 -0.3501 -0.1168
 6727SOL     OW31813   3.065   0.301  13.652  0.2178 -0.3094 -0.2116
 6727SOL    HW131814   3.047   0.232  13.587 -0.4928 -0.5171  0.2078
 6727SOL    HW231815   3.040   0.262  13.736  0.6328 -3.1465 -1.3856
 6728SOL     OW31816   3.865   2.099  11.191  0.0921  0.3917  0.3284
 6728SOL    HW131817   3.870   2.159  11.117  0.9936  0.4714  0.4499
 6728SOL    HW231818   3.959   2.092  11.210  0.8892  1.4711 -3.2474
 6729SOL     OW31819   2.177   3.656   4.436  0.2076  0.4805 -0.4624
 6729SOL    HW131820   2.108   3.648   4.502  1.4096  1.0495  0.8660
 6729SOL    HW231821   2.251   3.627   4.489  0.3837  0.2628 -0.8310
 6730SOL     OW31822   3.416   0.685   4.144 -0.3887  0.0266 -0.1394
 6730SOL    HW131823   3.491   0.729   4.102 -0.9670  1.8731  0.7545
 6730SOL    HW231824   3.457   0.600   4.162  3.4423  1.7173 -0.8301
 6731SOL     OW31825   2.639   1.386   6.701 -0.1718  0.2570  0.3432
 6731SOL    HW131826   2.604   1.468   6.736 -0.2468  0.7254 -0.8555
 6731SOL    HW231827   2.586   1.329   6.757 -1.4881  0.1655 -1.0055
 6732SOL     OW31828   3.399   1.472   2.579  0.2503  0.1541  0.1254
 6732SOL    HW131829   3.330   1.441   2.638 -0.1043 -2.8848 -1.8941
 6732SOL    HW231830   3.442   1.536   2.635  0.5519 -3.3057  3.8477
 6733SOL     OW31831   2.878   0.888   5.213  0.0621 -0.2879 -0.0086
 6733SOL    HW131832   2.823   0.962   5.237  1.1714  0.6039 -0.2043
 6733SOL    HW231833   2.916   0.883   5.301  0.9069  0.1410 -0.3459
 6734SOL     OW31834   1.128   0.144  11.716 -0.1094  0.3102 -0.2793
 6734SOL    HW131835   1.118   0.124  11.809  1.2108 -2.2875 -0.6933
 6734SOL    HW231836   1.206   0.199  11.721 -2.2132  2.9505  3.4650
 6735SOL     OW31837   0.086   0.425  11.229  0.4411  0.5411 -0.6468
 6735SOL    HW131838   0.125   0.353  11.278 -1.0509  0.0984 -0.1319
 6735SOL    HW231839   0.150   0.495  11.245  0.3456 -0.1555  2.7163
 6736SOL     OW31840   3.543   4.060   9.137  0.0579 -0.4092 -0.3967
 6736SOL    HW131841   3.487   4.087   9.065  0.8477  1.4641 -0.3262
 6736SOL    HW231842   3.562   4.147   9.174 -0.6295 -0.2853 -0.3367
 6737SOL     OW31843   4.140   1.722   4.570 -0.1262  0.0239  0.5894
 6737SOL    HW131844   4.079   1.658   4.607 -2.1592  0.0451 -2.7362
 6737SOL    HW231845   4.080   1.790   4.538 -0.0394 -0.2187 -0.0789
 6738SOL     OW31846   1.087   0.183   9.865  0.0589 -0.1378 -0.3366
 6738SOL    HW131847   1.122   0.258   9.817  0.6396  0.0706  0.4069
 6738SOL    HW231848   1.119   0.104   9.822  1.2486 -0.5280  1.2676
 6739SOL     OW31849   0.184   2.067  16.427  0.2844  0.0693 -0.6794
 6739SOL    HW131850   0.158   1.990  16.478  2.1382 -1.2571 -1.7210
 6739SOL    HW231851   0.176   2.133  16.495  1.1717 -0.2401 -0.2816
 6740SOL     OW31852   2.295   2.022   6.312 -0.2799  0.4130  0.5014
 6740SOL    HW131853   2.375   2.054   6.353 -0.4126  1.1670  0.1741
 6740SOL    HW231854   2.328   1.955   6.252 -0.5304  0.3303  0.4548
 6741SOL     OW31855   0.158   0.231   3.800 -0.8847  0.2063 -0.2538
 6741SOL    HW131856   0.140   0.187   3.884 -0.3121 -0.0772 -0.2791
 6741SOL    HW231857   0.192   0.314   3.831  3.4635 -0.9707 -1.8721
 6742SOL     OW31858   3.915   4.700   2.629 -0.1401  0.7492  0.1320
 6742SOL    HW131859   3.992   4.642   2.634 -0.8801 -0.1570  0.9428
 6742SOL    HW231860   3.848   4.638   2.598 -0.9405  2.1251 -0.8766
 6743SOL     OW31861   1.274   0.965   5.628 -0.1893 -0.0876 -0.6918
 6743SOL    HW131862   1.329   0.938   5.555 -1.0226 -0.5845 -1.1316
 6743SOL    HW231863   1.187   0.968   5.588  1.0389  2.2990 -3.1076
 6744SOL     OW31864   2.985   4.357   2.008  0.0102 -0.1286  0.6500
 6744SOL    HW131865   3.013   4.396   2.091 -0.4574  1.9117 -0.1516
 6744SOL    HW231866   3.019   4.271   2.033 -0.5648 -0.4757  0.2267
 6745SOL     OW31867   0.799   3.251  12.976 -0.0883 -0.4819 -0.6770
 6745SOL    HW131868   0.849   3.331  12.986 -0.5634 -0.3191  0.4837
 6745SOL    HW231869   0.863   3.181  12.986  0.4992 -0.1388 -2.1831
 6746SOL     OW31870   2.487   0.988   8.948 -0.1890 -0.2757 -0.5993
 6746SOL    HW131871   2.501   1.069   8.997 -0.9645  0.7142 -2.0386
 6746SOL    HW231872   2.407   0.955   8.991  0.0300 -2.6212 -1.9850
 6747SOL     OW31873   0.101   1.201   1.927  0.1304  0.0311  0.0136
 6747SOL    HW131874   0.017   1.156   1.923  0.4751 -0.4181 -2.2176
 6747SOL    HW231875   0.155   1.141   1.977  1.9688  3.2244  1.8794
 6748SOL     OW31876   3.442   3.609   4.044 -0.7473 -0.4096 -0.2805
 6748SOL    HW131877   3.488   3.536   4.085  0.3764  0.3687 -0.1316
 6748SOL    HW231878   3.514   3.661   4.009 -0.8554  0.6167  1.0182
 6749SOL     OW31879   4.448   4.460   2.318 -0.1660 -0.1472 -0.7010
 6749SOL    HW131880   4.502   4.393   2.359 -0.1673 -0.1506 -0.7046
 6749SOL    HW231881   4.364   4.415   2.314  0.0343 -0.8498  3.0314
 6750SOL     OW31882   2.599   2.276   0.905 -0.6569  0.3944  0.0073
 6750SOL    HW131883   2.598   2.343   0.974 -2.4992 -0.4621  0.8200
 6750SOL    HW231884   2.651   2.211   0.952 -2.2817 -1.9362 -1.4451
 6751SOL     OW31885   3.412   3.435   6.758 -0.2496  0.2095  0.2666
 6751SOL    HW131886   3.485   3.398   6.807  0.1392  1.4371  0.6210
 6751SOL    HW231887   3.408   3.373   6.685 -0.4182 -0.3982  0.7997
 6752SOL     OW31888   0.406   1.286   5.896  0.0481  0.8539  0.3336
 6752SOL    HW131889   0.337   1.266   5.832 -1.2736 -1.0487  2.3570
 6752SOL    HW231890   0.486   1.276   5.845 -1.0780 -1.2286 -1.0320
 6753SOL     OW31891   1.763   1.019   0.767  0.7438  0.4615 -0.6293
 6753SOL    HW131892   1.761   1.115   0.774  2.2623  0.6903 -3.3536
 6753SOL    HW231893   1.858   1.006   0.766  0.7800  0.6873 -0.2536
 6754SOL     OW31894   2.513   3.832   5.974  0.6035  0.1996 -0.4875
 6754SOL    HW131895   2.420   3.813   5.961  0.1120  0.9722  1.8857
 6754SOL    HW231896   2.505   3.916   6.019 -0.1293  1.6390 -3.3559
 6755SOL     OW31897   4.015   0.572   2.060  0.6855  0.0245 -0.1607
 6755SOL    HW131898   4.104   0.591   2.086  0.0821  0.7135  1.3915
 6755SOL    HW231899   4.019   0.543   1.968 -2.1403 -0.2178 -0.2239
 6756SOL     OW31900   1.846   1.411   9.041  0.1542 -0.0173  0.0618
 6756SOL    HW131901   1.880   1.497   9.068  1.1641 -0.0356 -1.1671
 6756SOL    HW231902   1.902   1.394   8.966  2.2314  1.0196  1.3811
 6757SOL     OW31903   3.705   3.135   1.691  0.2832  0.0793 -0.6516
 6757SOL    HW131904   3.685   3.073   1.621 -0.7756 -0.0128 -0.2801
 6757SOL    HW231905   3.615   3.163   1.707 -0.3268  0.2552 -4.3405
 6758SOL     OW31906   1.395   1.306   9.836  0.0942  0.2336  0.0075
 6758SOL    HW131907   1.399   1.393   9.877 -0.0959 -0.2543  1.0645
 6758SOL    HW231908   1.330   1.325   9.769  0.6264  1.2300 -0.2226
 6759SOL     OW31909   3.639   2.233  10.974 -0.5853 -0.3119 -0.7855
 6759SOL    HW131910   3.673   2.179  10.903  1.2093  0.9340 -0.8633
 6759SOL    HW231911   3.573   2.170  11.004  0.9415  0.1873  3.6105
 6760SOL     OW31912   2.529   4.252   0.137  0.2240 -0.0398  0.1846
 6760SOL    HW131913   2.518   4.231   0.044  2.2868  4.5943 -1.1006
 6760SOL    HW231914   2.450   4.305   0.146  0.6584  0.7010 -0.3630
 6761SOL     OW31915   1.658   0.253   1.359 -0.4745 -0.2243  0.3750
 6761SOL    HW131916   1.741   0.274   1.401  0.3493 -0.6392 -1.0559
 6761SOL    HW231917   1.606   0.333   1.348 -0.1890 -0.3090 -1.5230
 6762SOL     OW31918   2.387   2.046   3.399 -0.3227 -0.4826  0.3489
 6762SOL    HW131919   2.344   2.025   3.482 -1.2673 -3.3749 -0.8927
 6762SOL    HW231920   2.371   1.961   3.360 -0.4323  0.8714 -2.5165
 6763SOL     OW31921   0.390   1.971  12.809  0.6541  0.0799  0.2052
 6763SOL    HW131922   0.453   1.986  12.739 -0.1332  0.2056 -0.4789
 6763SOL    HW231923   0.388   2.057  12.851  0.2537 -0.5428  1.4439
 6764SOL     OW31924   3.025   1.723  11.035 -0.9857 -0.1445 -0.0148
 6764SOL    HW131925   3.016   1.711  10.940  2.3155  0.3433 -0.3980
 6764SOL    HW231926   2.979   1.652  11.079 -0.1720 -0.8590 -0.3073
 6765SOL     OW31927   2.131   2.773   2.766  0.4309 -0.2779 -0.4742
 6765SOL    HW131928   2.083   2.789   2.848 -0.2006 -1.4346 -0.6261
 6765SOL    HW231929   2.157   2.864   2.748 -0.0508 -0.4153 -1.8228
 6766SOL     OW31930   1.543   4.164   8.599 -0.1248 -0.8843 -0.0633
 6766SOL    HW131931   1.588   4.171   8.515  0.6333 -0.2599  0.3876
 6766SOL    HW231932   1.509   4.075   8.589 -3.4893  0.5811 -1.6448
 6767SOL     OW31933   0.532   1.860   7.910 -0.1609  0.4865  0.2206
 6767SOL    HW131934   0.530   1.951   7.938 -0.5686  1.0390 -1.6379
 6767SOL    HW231935   0.478   1.866   7.831  0.9321  3.0058 -0.3305
 6768SOL     OW31936   1.906   3.589   6.549 -0.6405 -0.0018  0.0835
 6768SOL    HW131937   1.955   3.635   6.617  0.8480 -2.4865  0.6848
 6768SOL    HW231938   1.840   3.655   6.528 -1.9647 -0.8442  1.6382
 6769SOL     OW31939   1.026   0.996   4.367  0.2038  0.2800 -0.6036
 6769SOL    HW131940   1.020   0.984   4.272  0.0043 -1.3204 -0.3853
 6769SOL    HW231941   0.961   1.063   4.387  0.2851  0.8295 -2.1667
 6770SOL     OW31942   4.105   4.540  14.616  0.2967 -0.0884 -0.4202
 6770SOL    HW131943   4.079   4.615  14.670  1.1251  0.1053 -0.2994
 6770SOL    HW231944   4.168   4.574  14.553  0.3110  1.4305  0.4180
 6771SOL     OW31945   3.330   0.629   6.921 -0.0518  0.1267  0.5990
 6771SOL    HW131946   3.403   0.690   6.919 -0.5603  0.7173  0.1780
 6771SOL    HW231947   3.261   0.684   6.883  0.9594  0.2783 -0.9864
 6772SOL     OW31948   1.545   2.665  15.584  0.1742 -0.2676 -0.5513
 6772SOL    HW131949   1.592   2.599  15.635 -2.1798 -0.8773  0.7988
 6772SOL    HW231950   1.511   2.599  15.524 -1.4078 -0.7804  0.9379
 6773SOL     OW31951   0.017   0.918   1.612 -0.3476 -0.7798  0.4337
 6773SOL    HW131952   4.708   0.863   1.676 -1.8921 -1.2380 -1.0262
 6773SOL    HW231953   0.101   0.870   1.612  0.2350  0.2473 -0.0715
 6774SOL     OW31954   1.491   4.403  12.872 -0.2527 -0.3595  0.8297
 6774SOL    HW131955   1.465   4.402  12.964 -0.6519 -0.4009  0.7194
 6774SOL    HW231956   1.549   4.479  12.873  0.2940 -0.7474 -0.4993
 6775SOL     OW31957   3.876   0.742   2.805 -0.6209  0.1007 -0.1435
 6775SOL    HW131958   3.938   0.742   2.878  0.2781 -0.1006 -0.9057
 6775SOL    HW231959   3.870   0.649   2.784 -1.0398  0.0600  0.1716
 6776SOL     OW31960   0.306   1.665   4.864 -0.2669  0.2850  0.8571
 6776SOL    HW131961   0.231   1.622   4.823  0.3494  0.3692 -0.3478
 6776SOL    HW231962   0.341   1.701   4.783  2.1104  0.4003  1.9163
 6777SOL     OW31963   0.568   2.590   4.494 -0.1523  0.1013 -0.5771
 6777SOL    HW131964   0.561   2.497   4.473  2.0124 -0.2982  0.5482
 6777SOL    HW231965   0.484   2.619   4.458 -0.1473 -0.8927 -1.3752
 6778SOL     OW31966   4.619   1.290   4.980  0.0184  0.1202 -0.0639
 6778SOL    HW131967   4.575   1.295   4.895  1.5356 -0.3831 -0.8806
 6778SOL    HW231968   4.645   1.381   4.997 -0.4046 -0.2567  2.6716
 6779SOL     OW31969   3.866   2.037   4.712 -0.0377 -0.5756  0.3643
 6779SOL    HW131970   3.791   2.045   4.770  0.0268 -0.8357  0.4802
 6779SOL    HW231971   3.924   1.981   4.763 -0.2719 -2.1324 -1.0511
 6780SOL     OW31972   3.620   1.318  17.260  0.0921  0.0545  0.0836
 6780SOL    HW131973   3.580   1.245  17.213  0.2682 -0.7260  1.1500
 6780SOL    HW231974   3.561   1.391  17.241 -0.5675 -0.7119 -0.7862
 6781SOL     OW31975   3.664   3.355   9.012 -0.1398  0.0291  0.6366
 6781SOL    HW131976   3.716   3.313   9.081 -0.9332 -0.9490  0.6408
 6781SOL    HW231977   3.726   3.424   8.988 -0.8889  0.3838 -0.2774
 6782SOL     OW31978   3.502   1.966   0.412  0.4368 -0.0983 -0.3110
 6782SOL    HW131979   3.587   1.998   0.439 -0.3284  1.6287  0.0519
 6782SOL    HW231980   3.467   1.946   0.499  1.0209 -3.0856 -0.7553
 6783SOL     OW31981   1.559   1.488  12.535 -0.5994  0.4004 -0.6974
 6783SOL    HW131982   1.552   1.524  12.624 -0.4103 -0.1038 -0.4760
 6783SOL    HW231983   1.483   1.518  12.486 -0.8299  2.1389  0.7449
 6784SOL     OW31984   2.206   2.417   5.144  0.1241 -0.3587  0.4670
 6784SOL    HW131985   2.168   2.491   5.191  1.4557  1.0366 -0.6592
 6784SOL    HW231986   2.223   2.449   5.055 -2.1261 -2.1226 -0.5962
 6785SOL     OW31987   1.989   4.576   0.241 -0.4322 -0.3419 -0.0113
 6785SOL    HW131988   1.919   4.611   0.187  0.6795  0.7842 -0.7294
 6785SOL    HW231989   2.040   4.655   0.258  1.5017 -1.8376  1.2841
 6786SOL     OW31990   4.407   3.463   2.945  0.6173  0.2385 -0.1462
 6786SOL    HW131991   4.351   3.392   2.977  1.5350 -0.4415 -0.0500
 6786SOL    HW231992   4.346   3.518   2.896  0.4717 -2.0925 -2.6193
 6787SOL     OW31993   3.699   3.898  16.126 -0.7559  0.0035 -0.2286
 6787SOL    HW131994   3.651   3.817  16.107 -0.7061 -0.4259  1.4884
 6787SOL    HW231995   3.632   3.966  16.126 -0.7465 -0.0091 -2.6170
 6788SOL     OW31996   1.140   1.093   6.896 -0.4810  0.2920  0.2862
 6788SOL    HW131997   1.173   1.058   6.813  1.2836  1.5131  0.4619
 6788SOL    HW231998   1.089   1.161   6.851  0.4597  0.5684 -0.3797
 6789SOL     OW31999   1.117   0.632   4.296 -0.0334 -0.5509  0.2086
 6789SOL    HW132000   1.043   0.682   4.331 -0.5873  0.8635 -2.9080
 6789SOL    HW232001   1.114   0.649   4.201 -1.6249 -0.5023  0.2602
 6790SOL     OW32002   2.295   2.037   2.394 -0.0433  0.1275 -0.5264
 6790SOL    HW132003   2.352   2.113   2.403 -0.5379  0.2655  1.5480
 6790SOL    HW232004   2.283   2.014   2.486 -0.4507 -1.3955 -0.9465
 6791SOL     OW32005   4.580   3.648   5.191  1.3966 -0.0465  0.2391
 6791SOL    HW132006   4.570   3.742   5.198  0.2259 -0.0703 -1.2159
 6791SOL    HW232007   4.621   3.637   5.106  0.6090 -0.2504 -0.1159
 6792SOL     OW32008   0.558   1.127   9.019 -0.1851  0.6295 -0.1286
 6792SOL    HW132009   0.553   1.057   9.084 -0.0262  0.1079 -0.6746
 6792SOL    HW232010   0.651   1.122   8.997 -0.4747 -2.1570 -0.6603
 6793SOL     OW32011   4.477   2.770   3.066  0.4645  0.4510  0.3791
 6793SOL    HW132012   4.415   2.746   2.997 -0.3173  0.4947  1.0736
 6793SOL    HW232013   4.495   2.862   3.044  1.3897  0.1156 -0.2379
 6794SOL     OW32014   4.275   4.692   5.523 -0.0446 -0.4567 -0.1039
 6794SOL    HW132015   4.287   0.036   5.575  1.4629 -2.1523  2.0989
 6794SOL    HW232016   4.293   4.725   5.434 -4.4035 -0.8685 -1.1283
 6795SOL     OW32017   3.635   0.829   4.057  0.3485 -0.4228  0.3860
 6795SOL    HW132018   3.581   0.902   4.023 -0.4258 -1.4933 -0.6999
 6795SOL    HW232019   3.637   0.870   4.143  0.2647 -1.7841  1.0307
 6796SOL     OW32020   3.966   1.023   5.576 -0.3233  0.0134  0.0287
 6796SOL    HW132021   3.883   1.064   5.551  0.3379  0.4342 -1.4484
 6796SOL    HW232022   4.000   0.986   5.495 -4.0912 -2.3587 -0.4810
 6797SOL     OW32023   3.099   1.778   7.966 -0.6553  0.3650  0.1190
 6797SOL    HW132024   3.150   1.696   7.962  0.4447  1.1270 -1.3426
 6797SOL    HW232025   3.078   1.785   8.059 -0.2452  1.9800  0.0910
 6798SOL     OW32026   3.479   2.414   2.258  0.6270  0.1815  0.1541
 6798SOL    HW132027   3.403   2.462   2.290  0.5617  0.1821 -0.0002
 6798SOL    HW232028   3.547   2.444   2.318 -0.9474  1.7957  1.1337
 6799SOL     OW32029   3.486   3.911   2.425  0.2625  0.6179 -0.5565
 6799SOL    HW132030   3.396   3.923   2.395 -0.4186  0.3752  1.4077
 6799SOL    HW232031   3.526   3.994   2.398  2.4744 -0.6911 -1.2893
 6800SOL     OW32032   1.379   1.782   4.716 -0.0188 -0.4845 -0.6875
 6800SOL    HW132033   1.436   1.838   4.663  0.6265 -3.1514 -2.7903
 6800SOL    HW232034   1.450   1.762   4.777  0.5937 -0.1972 -1.3025
 6801SOL     OW32035   2.662   1.988   4.042 -0.8698  0.0416  0.7018
 6801SOL    HW132036   2.668   2.016   4.133 -1.6977 -3.2575  1.7728
 6801SOL    HW232037   2.713   2.056   3.999  0.4461 -0.3053  1.7319
 6802SOL     OW32038   2.868   3.313   2.462 -0.3594 -0.3798  0.3200
 6802SOL    HW132039   2.947   3.359   2.433 -0.4965 -0.3355  0.0234
 6802SOL    HW232040   2.902   3.273   2.542  0.8729 -1.1906 -0.6066
 6803SOL     OW32041   3.063   0.110  16.924  0.0292 -0.2036 -0.0539
 6803SOL    HW132042   3.058   0.153  16.839 -2.3334 -0.8514 -0.2450
 6803SOL    HW232043   3.022   0.179  16.976 -0.9659 -0.7671 -0.0839
 6804SOL     OW32044   1.247   3.349   9.701 -0.1581  1.1443 -0.6323
 6804SOL    HW132045   1.157   3.318   9.689  0.7651 -1.6510 -0.4956
 6804SOL    HW232046   1.313   3.283   9.680  0.3050  2.1393 -2.2695
 6805SOL     OW32047   0.395   3.950   6.033 -0.3648  0.0868 -0.1202
 6805SOL    HW132048   0.364   3.950   6.124  0.6204 -1.5998  0.2037
 6805SOL    HW232049   0.398   3.856   6.020  0.9862  0.3270 -1.4283
 6806SOL     OW32050   2.129   4.267   5.731 -0.5871  0.1107  0.5443
 6806SOL    HW132051   2.192   4.224   5.789  0.8129  0.9039 -0.4129
 6806SOL    HW232052   2.134   4.360   5.752 -1.0943  0.9135 -2.8248
 6807SOL     OW32053   4.375   3.068   2.803 -0.0439 -0.0290 -1.3276
 6807SOL    HW132054   4.334   3.137   2.856  2.9835 -0.0047  1.0017
 6807SOL    HW232055   4.314   3.065   2.730  0.7272  0.2941 -1.9875
 6808SOL     OW32056   3.670   0.110   5.056  0.6283  0.0526  0.2049
 6808SOL    HW132057   3.660   0.016   5.071  1.1692 -0.3932 -2.2151
 6808SOL    HW232058   3.611   0.131   5.129 -0.4266 -0.0811 -0.5990
 6809SOL     OW32059   2.729   1.113  15.445  0.5698  0.9265 -0.3810
 6809SOL    HW132060   2.774   1.107  15.530  0.9148  0.7834 -0.5736
 6809SOL    HW232061   2.643   1.080  15.470  0.5161  0.6872 -0.8929
 6810SOL     OW32062   0.379   0.414   1.740  0.5573 -0.3075 -0.3452
 6810SOL    HW132063   0.308   0.474   1.716 -0.6200 -1.9577 -1.0008
 6810SOL    HW232064   0.451   0.470   1.713  0.0220  0.2855 -0.5609
 6811SOL     OW32065   4.491   1.152   3.554  0.5161  0.1231  0.1577
 6811SOL    HW132066   4.447   1.174   3.472  0.2885 -0.3887  0.1426
 6811SOL    HW232067   4.444   1.199   3.623  1.4619  0.3506  0.6511
 6812SOL     OW32068   3.010   2.974   7.816  0.0147  0.4648 -0.6064
 6812SOL    HW132069   3.040   2.900   7.869 -1.1527 -0.2221 -0.9010
 6812SOL    HW232070   3.054   2.965   7.731 -1.9700 -0.1810 -1.5642
 6813SOL     OW32071   4.074   4.449   2.623  0.0465  0.2800 -0.0882
 6813SOL    HW132072   4.159   4.476   2.590  0.2534  2.4588  2.2653
 6813SOL    HW232073   4.089   4.478   2.713 -0.3593 -0.1470  0.1186
 6814SOL     OW32074   4.576   3.464   7.673 -0.4608  0.1010 -0.3186
 6814SOL    HW132075   4.512   3.534   7.686  0.6684  1.1721 -0.4347
 6814SOL    HW232076   4.647   3.525   7.651 -0.8854  1.1956  1.3271
 6815SOL     OW32077   0.045   0.315  10.298  0.4133  0.1699  0.1048
 6815SOL    HW132078   0.005   0.327  10.384 -0.7748  0.4642 -0.4874
 6815SOL    HW232079   4.734   0.381  10.246 -1.7380 -1.2643  0.1539
 6816SOL     OW32080   3.833   1.250   1.553  0.0246  0.0522  0.2794
 6816SOL    HW132081   3.738   1.243   1.562  0.1098  1.6184  2.1749
 6816SOL    HW232082   3.869   1.289   1.632  0.3858  0.2831  0.0023
 6817SOL     OW32083   0.961   1.035  11.952  0.3429 -0.1592  0.0826
 6817SOL    HW132084   1.002   1.009  12.034 -0.5420 -4.0003 -0.6479
 6817SOL    HW232085   0.918   0.954  11.923  1.3531  0.0217 -1.9464
 6818SOL     OW32086   4.485   0.734   1.610 -0.7417  0.1124 -0.0866
 6818SOL    HW132087   4.540   0.747   1.687 -1.3602 -0.4429  0.4469
 6818SOL    HW232088   4.532   0.774   1.537 -2.3616 -2.1685 -2.3772
 6819SOL     OW32089   0.391   2.575   2.121 -0.1617  0.1458  0.2407
 6819SOL    HW132090   0.456   2.511   2.151  0.5686  0.8884  0.2336
 6819SOL    HW232091   0.310   2.533   2.151  0.8591 -1.3289  0.9273
 6820SOL     OW32092   1.122   1.989   2.873 -0.4074 -0.1453 -0.3403
 6820SOL    HW132093   1.027   1.980   2.867 -0.1859 -2.7605 -0.0643
 6820SOL    HW232094   1.114   2.033   2.958  2.3840 -0.8222  0.2786
 6821SOL     OW32095   3.978   1.282   0.440  0.2506  0.9645  0.1734
 6821SOL    HW132096   3.882   1.273   0.438  0.0194  3.4470  0.2151
 6821SOL    HW232097   4.016   1.204   0.400  1.3207  0.8951  1.3374
 6822SOL     OW32098   0.432   3.585   9.786  0.1693 -0.1275 -0.0070
 6822SOL    HW132099   0.440   3.680   9.776  1.1756 -0.1311  0.7521
 6822SOL    HW232100   0.461   3.574   9.877  1.6756  1.1921 -0.3445
 6823SOL     OW32101   0.042   2.970   5.571 -0.5193 -0.4045  0.0142
 6823SOL    HW132102   4.699   2.922   5.543 -0.0297 -0.9979 -0.3162
 6823SOL    HW232103   0.006   3.006   5.653 -1.0184  2.2004 -1.3328
 6824SOL     OW32104   3.258   0.085  11.120 -0.4535 -0.4819 -0.1154
 6824SOL    HW132105   3.290   0.087  11.030  3.4092 -0.5578  1.2460
 6824SOL    HW232106   3.334   0.056  11.171  1.0133  3.1409 -0.2535
 6825SOL     OW32107   2.496   1.599  16.621 -0.0885 -0.4468 -0.4506
 6825SOL    HW132108   2.451   1.559  16.547  0.2129 -3.1874  0.8587
 6825SOL    HW232109   2.424   1.658  16.644  2.2814  1.9886  0.7833
 6826SOL     OW32110   3.817   2.009  14.485 -0.0792 -0.0807 -0.2020
 6826SOL    HW132111   3.789   2.092  14.522 -1.0299 -0.4567 -0.0839
 6826SOL    HW232112   3.834   2.043  14.397 -0.4681 -0.5793 -0.4700
 6827SOL     OW32113   3.781   4.533  15.406  0.0618 -0.5588  0.4500
 6827SOL    HW132114   3.867   4.518  15.368 -0.1636 -0.0339 -0.2630
 6827SOL    HW232115   3.787   4.626  15.429 -1.5131 -0.2230 -0.5037
 6828SOL     OW32116   0.518   4.717   6.361  0.4484  0.9725  0.2499
 6828SOL    HW132117   0.537   0.030   6.441 -0.9814  1.5048  0.2724
 6828SOL    HW232118   0.429   0.013   6.347 -0.5431 -2.1012 -0.0988
 6829SOL     OW32119   2.205   2.800   5.456 -0.2016 -0.9140 -0.0651
 6829SOL    HW132120   2.193   2.863   5.527 -0.6555 -0.2704 -0.7269
 6829SOL    HW232121   2.131   2.812   5.397 -1.1726  1.1647  1.6044
 6830SOL     OW32122   3.286   1.281   9.357  0.0109 -0.5426  0.4257
 6830SOL    HW132123   3.345   1.205   9.355 -0.5555 -0.9155 -1.5587
 6830SOL    HW232124   3.338   1.348   9.401 -0.4932 -0.2458  0.5745
 6831SOL     OW32125   1.923   0.860   7.828  0.4961  0.3638 -0.6031
 6831SOL    HW132126   1.902   0.803   7.753  0.6389  0.9282 -1.0740
 6831SOL    HW232127   1.935   0.796   7.898 -1.4333  1.3506  0.6137
 6832SOL     OW32128   3.313   0.550  11.952 -0.4880 -0.1480 -0.4369
 6832SOL    HW132129   3.293   0.558  11.858 -2.8245 -0.3034  0.0428
 6832SOL    HW232130   3.322   0.642  11.976  0.2449 -0.0912 -0.9387
 6833SOL     OW32131   0.807   0.736   8.887  0.3292 -0.0541  0.4768
 6833SOL    HW132132   0.816   0.752   8.793 -1.9509  1.5687  0.5307
 6833SOL    HW232133   0.851   0.652   8.898  1.2084  0.3391  0.0137
 6834SOL     OW32134   3.464   3.596   3.530  0.1820 -0.1299 -0.1397
 6834SOL    HW132135   3.465   3.597   3.434 -2.9509 -0.4970 -0.1739
 6834SOL    HW232136   3.495   3.506   3.540  3.2653  1.0537  0.9155
 6835SOL     OW32137   1.636   2.407   4.744  0.3349  0.2634  0.3286
 6835SOL    HW132138   1.583   2.331   4.766 -0.9849  1.7801  2.3257
 6835SOL    HW232139   1.715   2.396   4.797  0.6185  0.3303 -0.0730
 6836SOL     OW32140   3.521   2.140  17.235  0.0628  0.0767 -0.1573
 6836SOL    HW132141   3.435   2.097  17.232  0.2739 -0.4127  0.6765
 6836SOL    HW232142   3.527   2.163  17.328 -1.1761 -0.4409  0.0525
 6837SOL     OW32143   0.638   1.280   5.719  0.3017 -0.5943  0.3565
 6837SOL    HW132144   0.708   1.216   5.734  1.0764 -0.2424 -1.8089
 6837SOL    HW232145   0.612   1.258   5.630  1.3963 -0.9907  0.1323
 6838SOL     OW32146   1.495   1.918   5.664  0.4227 -0.9791 -0.3615
 6838SOL    HW132147   1.529   2.007   5.657 -1.6220 -0.1702  0.0701
 6838SOL    HW232148   1.565   1.857   5.644  1.4581  0.8012 -2.1230
 6839SOL     OW32149   0.082   3.623  11.938 -0.3810  0.0932  0.1177
 6839SOL    HW132150   0.001   3.600  11.983 -1.3326  0.5446 -1.3538
 6839SOL    HW232151   0.133   3.545  11.958 -0.1369  0.2444  0.0904
 6840SOL     OW32152   2.058   1.672   5.509  0.2191 -0.1160  0.6561
 6840SOL    HW132153   2.147   1.652   5.478  1.3846  2.8194  2.1581
 6840SOL    HW232154   2.012   1.596   5.473  0.6708 -0.2759  0.4077
 6841SOL     OW32155   2.918   1.970   6.961  0.4067 -0.2877  0.0262
 6841SOL    HW132156   2.873   2.050   6.931 -0.8980 -0.3960  1.6926
 6841SOL    HW232157   2.866   1.957   7.040  0.9897 -0.5008  0.3738
 6842SOL     OW32158   2.861   1.502   4.150 -0.0242  0.2003  0.0315
 6842SOL    HW132159   2.882   1.424   4.200  0.4619  0.4329  0.1982
 6842SOL    HW232160   2.842   1.470   4.061  5.0751 -1.4703 -0.4676
 6843SOL     OW32161   2.478   2.092   5.118  0.3519 -0.1391  0.3862
 6843SOL    HW132162   2.392   2.071   5.155  1.5276 -2.7002  1.6260
 6843SOL    HW232163   2.538   2.086   5.193  1.1482 -1.9262 -0.3942
 6844SOL     OW32164   4.579   1.872   2.959  0.4547 -0.6052 -0.0388
 6844SOL    HW132165   4.525   1.916   2.893  0.6078 -1.0035 -0.4209
 6844SOL    HW232166   4.504   1.822   2.990 -0.0399  1.9498  2.9068
 6845SOL     OW32167   3.606   4.336   4.981  0.7579  1.0629  0.3349
 6845SOL    HW132168   3.701   4.342   4.977  0.7767 -1.3107 -2.5252
 6845SOL    HW232169   3.590   4.270   5.048  0.0894  1.5667  0.6698
 6846SOL     OW32170   0.411   3.623   6.994 -0.2135  0.8867 -0.0523
 6846SOL    HW132171   0.497   3.653   6.964 -0.0954  2.2013  1.5784
 6846SOL    HW232172   0.363   3.624   6.911 -1.2516  0.4356  0.5510
 6847SOL     OW32173   0.302   1.547   5.147 -0.3228 -0.1709 -0.0304
 6847SOL    HW132174   0.378   1.597   5.176  0.2353  0.1906 -2.1148
 6847SOL    HW232175   0.317   1.542   5.053  0.6785 -1.5193  0.1957
 6848SOL     OW32176   3.685   2.772   5.179 -0.3559 -0.4890  0.1929
 6848SOL    HW132177   3.725   2.696   5.222  0.1198 -0.0237  0.5769
 6848SOL    HW232178   3.764   2.809   5.140 -1.9044 -0.7417 -3.1570
 6849SOL     OW32179   4.507   2.524   4.783 -0.0941  0.8134 -0.4293
 6849SOL    HW132180   4.458   2.442   4.785  1.3537 -0.0419 -0.2540
 6849SOL    HW232181   4.556   2.516   4.865 -0.0984 -1.6207 -0.6813
 6850SOL     OW32182   4.583   0.764   0.054 -0.0809 -0.4303 -0.4602
 6850SOL    HW132183   4.537   0.687   0.019 -1.4215 -0.0026  0.3240
 6850SOL    HW232184   4.673   0.733   0.047  0.4418  1.0483 -0.2307
 6851SOL     OW32185   2.060   2.969  15.141 -0.5006 -0.3847 -0.4098
 6851SOL    HW132186   2.001   3.041  15.165 -0.0877 -0.2288  0.1471
 6851SOL    HW232187   2.036   2.906  15.209  2.8771 -0.2058  0.9895
 6852SOL     OW32188   3.780   3.313  14.920  0.3996  0.1416 -0.0261
 6852SOL    HW132189   3.724   3.265  14.980 -0.4662 -0.7853 -1.5655
 6852SOL    HW232190   3.752   3.398  14.953  3.4370  0.7932  0.8796
 6853SOL     OW32191   4.560   0.156   4.622  0.0073  0.1585 -0.0385
 6853SOL    HW132192   4.555   0.212   4.700  0.4084 -0.2611  0.2860
 6853SOL    HW232193   4.633   0.097   4.641  0.3726  0.9902  1.1103
 6854SOL     OW32194   0.396   0.999   2.758 -0.2703  0.0681  0.0302
 6854SOL    HW132195   0.344   0.984   2.837  1.6408  0.8249  1.4391
 6854SOL    HW232196   0.470   1.046   2.797 -1.6976  1.4333  1.0931
 6855SOL     OW32197   4.116   2.290   4.433 -0.6766  0.1309  0.1213
 6855SOL    HW132198   4.127   2.268   4.341  2.0852 -0.3558  0.5694
 6855SOL    HW232199   4.024   2.265   4.442  0.1576 -2.7945  0.3341
 6856SOL     OW32200   1.086   3.918   3.849  0.6903 -0.4893 -0.2667
 6856SOL    HW132201   0.991   3.931   3.839  0.3592 -2.4544  0.3122
 6856SOL    HW232202   1.115   3.950   3.763 -1.0616  0.3974 -0.5388
 6857SOL     OW32203   0.129   4.234  17.485 -0.0468  0.1609 -0.7503
 6857SOL    HW132204   0.138   4.290  17.408 -0.6752 -0.4128 -1.2473
 6857SOL    HW232205   0.114   4.297  17.556  1.0173  0.5979 -0.9215
 6858SOL     OW32206   0.319   0.213   8.566 -0.0438  0.0816 -0.1585
 6858SOL    HW132207   0.351   0.186   8.653  3.5153 -1.5905 -1.9678
 6858SOL    HW232208   0.306   0.307   8.582  0.7478  0.2820 -0.6980
 6859SOL     OW32209   1.358   3.461   4.479 -0.5941  0.3374 -0.1041
 6859SOL    HW132210   1.267   3.456   4.450 -0.8793 -3.2383  1.4607
 6859SOL    HW232211   1.391   3.492   4.395 -0.4710  0.8713  0.1382
 6860SOL     OW32212   3.118   3.528   7.292 -0.1766  0.0219 -0.1681
 6860SOL    HW132213   3.145   3.607   7.245  0.5326 -0.3822 -0.4464
 6860SOL    HW232214   3.160   3.542   7.377  0.0634  0.0181 -0.2837
 6861SOL     OW32215   3.747   2.763   2.443 -0.2849  0.7956 -0.4928
 6861SOL    HW132216   3.715   2.852   2.460 -0.0484  1.0453 -1.3387
 6861SOL    HW232217   3.841   2.778   2.429 -0.4690  2.2892 -0.1337
 6862SOL     OW32218   4.495   3.554   7.342  0.9569 -0.1793  0.0933
 6862SOL    HW132219   4.454   3.489   7.285 -1.1062  1.2178 -0.0601
 6862SOL    HW232220   4.442   3.634   7.335 -1.6918 -1.9887 -0.2872
 6863SOL     OW32221   2.962   1.699   8.903 -0.0740 -0.1578  0.2879
 6863SOL    HW132222   2.904   1.624   8.918  0.7402 -0.3795  2.2976
 6863SOL    HW232223   2.953   1.701   8.807 -0.3749  5.7000  0.4298
 6864SOL     OW32224   2.319   4.572   2.056  0.0136  0.3022  1.0847
 6864SOL    HW132225   2.367   4.600   1.979 -1.0850  0.4322  0.4533
 6864SOL    HW232226   2.334   4.478   2.069  0.1673  0.0669 -0.8671
 6865SOL     OW32227   3.559   2.932   1.540 -0.1902 -0.4623  1.2604
 6865SOL    HW132228   3.617   2.860   1.565  1.4662  0.6040  0.5612
 6865SOL    HW232229   3.471   2.898   1.553 -1.0678  1.8472  1.3218
 6866SOL     OW32230   2.999   3.983  16.812  0.1505  0.2613 -0.6910
 6866SOL    HW132231   2.975   3.892  16.796 -1.0762  0.3947  0.4176
 6866SOL    HW232232   3.072   3.999  16.750  1.2649 -0.1808  0.5170
 6867SOL     OW32233   0.045   4.155   8.700  0.1214 -0.3185  0.1589
 6867SOL    HW132234   0.081   4.235   8.740  0.4462  0.9003 -2.5856
 6867SOL    HW232235   4.685   4.157   8.712  0.2120  1.7502  0.5480
 6868SOL     OW32236   0.497   0.408  17.694 -0.0285 -0.0855 -0.5001
 6868SOL    HW132237   0.479   0.346   0.027  2.0409 -0.1543 -0.0247
 6868SOL    HW232238   0.542   0.353  17.630 -1.6669 -1.5567 -0.3659
 6869SOL     OW32239   1.216   4.454   4.244  0.6227  0.4209  0.3074
 6869SOL    HW132240   1.210   4.548   4.262 -0.3906  0.3869  0.1627
 6869SOL    HW232241   1.125   4.431   4.228  0.5012  1.6511 -0.7431
 6870SOL     OW32242   2.712   4.399  11.037  0.4701 -0.2986  0.2253
 6870SOL    HW132243   2.783   4.434  11.090  0.8750 -1.0241  0.1562
 6870SOL    HW232244   2.685   4.481  10.995  0.6866 -0.3513 -0.0133
 6871SOL     OW32245   4.175   3.051   7.305 -0.4755 -0.1328  0.7083
 6871SOL    HW132246   4.123   2.972   7.316 -1.9583  0.8716  0.9131
 6871SOL    HW232247   4.222   3.041   7.388  0.5057  1.1627  0.3125
 6872SOL     OW32248   4.178   3.342   9.346  0.1687  0.8258 -0.1497
 6872SOL    HW132249   4.139   3.313   9.429 -1.6305  2.7737 -0.3308
 6872SOL    HW232250   4.173   3.261   9.296 -2.0110  0.4385  0.7133
 6873SOL     OW32251   4.313   4.288   7.935  0.1227  0.4072  0.0589
 6873SOL    HW132252   4.277   4.199   7.944 -1.2411  0.7359 -2.0184
 6873SOL    HW232253   4.368   4.294   8.013 -1.7671 -0.3418  1.4175
 6874SOL     OW32254   2.088   4.453   1.186  0.4237  0.2712 -0.1939
 6874SOL    HW132255   2.016   4.439   1.125  0.0379 -0.5040  0.4441
 6874SOL    HW232256   2.161   4.471   1.126 -0.3948 -0.9603 -1.5510
 6875SOL     OW32257   3.187   0.578   4.270 -0.2854 -0.1679 -0.0512
 6875SOL    HW132258   3.121   0.642   4.296  0.8957  0.6196  0.9685
 6875SOL    HW232259   3.260   0.622   4.227  2.3225 -0.6354  3.9552
 6876SOL     OW32260   3.701   4.280   9.807  0.4445  0.3594 -0.3258
 6876SOL    HW132261   3.789   4.245   9.821  1.7067  3.0938 -1.5716
 6876SOL    HW232262   3.660   4.201   9.771  1.2031  0.1097 -0.6508
 6877SOL     OW32263   2.460   2.919   9.454 -0.2011 -0.6127 -0.0762
 6877SOL    HW132264   2.430   2.829   9.461 -3.2056  0.5010  1.2234
 6877SOL    HW232265   2.465   2.951   9.544 -1.3712 -1.1936  0.1946
 6878SOL     OW32266   0.722   0.503   4.748 -0.4717  0.0684 -0.0983
 6878SOL    HW132267   0.780   0.482   4.675  0.4551 -2.8270  1.4639
 6878SOL    HW232268   0.769   0.567   4.802 -1.7306  1.3085 -0.4691
 6879SOL     OW32269   3.200   3.494  13.681  0.3004 -0.1088 -0.2168
 6879SOL    HW132270   3.200   3.529  13.592 -0.1195  2.6191  0.8547
 6879SOL    HW232271   3.113   3.509  13.720  0.5167 -1.1174  0.6577
 6880SOL     OW32272   0.243   4.033   8.830  0.1433  0.0560 -0.5380
 6880SOL    HW132273   0.175   4.079   8.780  0.6086  2.0057  0.6227
 6880SOL    HW232274   0.298   4.102   8.868  0.8743 -1.1817  0.6139
 6881SOL     OW32275   2.674   4.230   1.983 -0.0268 -0.2289  0.1934
 6881SOL    HW132276   2.647   4.168   1.916 -2.9451  2.0553 -0.7601
 6881SOL    HW232277   2.748   4.272   1.941  0.3099  1.3374  2.3384
 6882SOL     OW32278   2.465   3.131   3.763 -0.7159  0.0228  0.3246
 6882SOL    HW132279   2.444   3.038   3.764  1.0793 -0.3823 -0.1424
 6882SOL    HW232280   2.512   3.149   3.844  2.8672 -0.0434 -1.7403
 6883SOL     OW32281   0.719   0.904   4.465  0.5598 -0.3789  0.4716
 6883SOL    HW132282   0.675   0.857   4.535  0.7604 -2.4528 -0.8098
 6883SOL    HW232283   0.662   0.980   4.458  1.1087 -0.1651 -1.7617
 6884SOL     OW32284   3.595   3.583   5.585 -0.2829  0.4115  0.8461
 6884SOL    HW132285   3.655   3.622   5.648  0.1969 -2.1274  1.9747
 6884SOL    HW232286   3.626   3.493   5.597 -1.4833 -0.0720  0.3140
 6885SOL     OW32287   3.245   3.401  11.181  0.3918 -0.5031 -0.0000
 6885SOL    HW132288   3.333   3.422  11.212  1.6575 -3.1797 -1.7574
 6885SOL    HW232289   3.196   3.477  11.212  0.6463 -0.0878 -0.6276
 6886SOL     OW32290   2.036   2.102   7.033 -0.0363 -0.3178 -0.1017
 6886SOL    HW132291   1.956   2.058   7.061 -0.5951  0.1258 -1.0387
 6886SOL    HW232292   2.099   2.030   7.045  1.2880  1.0157  0.9672
 6887SOL     OW32293   3.309   3.283   7.552  0.0719  0.5023 -0.3568
 6887SOL    HW132294   3.307   3.228   7.631 -1.3935  2.0683  0.6949
 6887SOL    HW232295   3.400   3.279   7.525 -0.3821  0.6301 -1.8827
 6888SOL     OW32296   1.994   1.985   4.690  0.2450  0.5053  0.1696
 6888SOL    HW132297   2.083   1.954   4.706 -0.0576 -0.8990 -0.8591
 6888SOL    HW232298   1.988   2.064   4.744 -2.0597  0.4352 -0.0054
 6889SOL     OW32299   0.378   1.064  12.334 -0.1065 -0.0619  0.1109
 6889SOL    HW132300   0.365   1.042  12.241 -0.0535  1.2438 -0.2031
 6889SOL    HW232301   0.357   1.157  12.329 -4.8702 -1.2772 -2.0289
 6890SOL     OW32302   1.205   0.177  14.457  0.2356  0.2558 -0.2257
 6890SOL    HW132303   1.133   0.208  14.511  1.7053 -1.5242  2.7877
 6890SOL    HW232304   1.167   0.186  14.370  2.0042 -1.7922 -1.2038
 6891SOL     OW32305   0.794   2.561   7.617 -0.8024 -0.4972 -0.3887
 6891SOL    HW132306   0.860   2.525   7.677 -1.5515  0.2280  0.8807
 6891SOL    HW232307   0.811   2.654   7.633 -2.0441 -0.5542  1.2631
 6892SOL     OW32308   1.743   3.267   1.317  0.7898  0.0931  0.0029
 6892SOL    HW132309   1.773   3.247   1.406  0.7263  0.7150  0.1646
 6892SOL    HW232310   1.740   3.181   1.274 -3.1200 -0.2305  0.8872
 6893SOL     OW32311   1.309   2.871   2.409 -0.5346 -0.3995  0.4354
 6893SOL    HW132312   1.351   2.795   2.369 -2.6059 -0.8368 -0.9459
 6893SOL    HW232313   1.373   2.903   2.473 -0.9964  0.8420  0.2915
 6894SOL     OW32314   1.552   2.449   9.058  0.0509 -0.5317 -0.9556
 6894SOL    HW132315   1.610   2.373   9.063  2.5857  1.5082  0.1190
 6894SOL    HW232316   1.612   2.511   9.017  0.2832 -0.2397 -0.1619
 6895SOL     OW32317   0.143   1.012  17.660  0.3278  0.0104  0.0777
 6895SOL    HW132318   0.163   1.067  17.735  1.1035  0.3176 -0.3612
 6895SOL    HW232319   0.210   0.946  17.678 -1.1132 -0.7510  2.6235
 6896SOL     OW32320   2.635   1.646  14.219  0.2080  0.0470  0.3189
 6896SOL    HW132321   2.635   1.577  14.153  0.3849 -0.8348  1.2436
 6896SOL    HW232322   2.558   1.693  14.188 -0.6210 -1.6368 -0.1506
 6897SOL     OW32323   2.819   3.247   3.181  0.1439  0.0539  0.3783
 6897SOL    HW132324   2.792   3.334   3.211  1.8723  0.4838  0.6718
 6897SOL    HW232325   2.835   3.200   3.263  3.3302 -0.8678 -0.7925
 6898SOL     OW32326   2.315   3.323   9.209 -0.6609 -0.2489  0.5429
 6898SOL    HW132327   2.320   3.227   9.204  0.7592 -0.2077  1.1924
 6898SOL    HW232328   2.221   3.339   9.210 -0.6389 -0.1541  0.9757
 6899SOL     OW32329   1.659   4.647   9.978 -0.4522 -0.2525 -0.0627
 6899SOL    HW132330   1.752   4.664   9.993 -0.7698 -0.5179  2.2129
 6899SOL    HW232331   1.650   4.554   9.959  2.2563 -0.6194  0.4552
 6900SOL     OW32332   4.197   0.978   2.404 -0.0194 -0.0771  0.3151
 6900SOL    HW132333   4.169   1.035   2.333  0.6922  1.1386  1.0151
 6900SOL    HW232334   4.120   0.989   2.459 -0.7655  1.4999 -1.0695
 6901SOL     OW32335   3.011   2.293   9.345  0.1570 -0.3604 -0.3795
 6901SOL    HW132336   3.062   2.213   9.356  0.2915  0.0599  1.9648
 6901SOL    HW232337   3.058   2.330   9.270  0.9852  0.0709  0.3700
 6902SOL     OW32338   0.636   0.275  14.142  0.5227  0.2313 -0.0318
 6902SOL    HW132339   0.569   0.227  14.191 -0.6841  0.6517 -1.2820
 6902SOL    HW232340   0.591   0.355  14.115  0.4123 -0.1833 -1.0444
 6903SOL     OW32341   0.433   0.581   0.521 -0.2468 -0.4918 -0.2715
 6903SOL    HW132342   0.359   0.533   0.482 -1.2729  1.6099 -0.9271
 6903SOL    HW232343   0.489   0.504   0.530  0.6092  0.3587  1.6206
 6904SOL     OW32344   2.987   2.807   1.166 -0.0142  0.2198 -0.1346
 6904SOL    HW132345   3.063   2.786   1.221  0.3783  1.4456 -0.2225
 6904SOL    HW232346   2.953   2.880   1.218  1.3235  1.4152 -0.9506
 6905SOL     OW32347   1.340   0.510   6.021  0.6881 -0.2986 -0.1973
 6905SOL    HW132348   1.392   0.452   6.077 -0.2755 -0.2470  0.7675
 6905SOL    HW232349   1.336   0.463   5.938  0.8976 -0.7145  0.0256
 6906SOL     OW32350   1.392   0.128   0.155  0.3705  0.6578 -0.5662
 6906SOL    HW132351   1.475   0.110   0.110  1.3324 -0.7983  1.8044
 6906SOL    HW232352   1.412   0.109   0.247  1.5303  0.9100 -0.7604
 6907SOL     OW32353   3.211   4.185   3.206  0.3453 -0.3806  0.0093
 6907SOL    HW132354   3.149   4.114   3.219  0.7764 -0.1965  3.0842
 6907SOL    HW232355   3.173   4.266   3.240 -0.0621  0.7306 -3.1422
 6908SOL     OW32356   1.942   4.697  12.120 -0.4239 -0.4051  0.3702
 6908SOL    HW132357   1.853   4.695  12.155 -0.0182  1.6155  1.5473
 6908SOL    HW232358   1.920   4.718  12.029  1.8367  0.8449  0.1082
 6909SOL     OW32359   2.355   2.633  12.095  1.1086  0.1266 -0.7263
 6909SOL    HW132360   2.304   2.601  12.170 -0.6873  2.9070 -0.7537
 6909SOL    HW232361   2.398   2.551  12.071  0.2329 -1.5019  3.3014
 6910SOL     OW32362   3.673   1.498   4.066 -0.1121  0.1436 -0.0387
 6910SOL    HW132363   3.611   1.556   4.110 -0.8257  2.0740 -3.5305
 6910SOL    HW232364   3.739   1.502   4.134 -0.8856  0.0781  0.7147
 6911SOL     OW32365   0.031   2.863   6.818  0.0448 -0.7483 -0.5169
 6911SOL    HW132366   4.704   2.875   6.746 -0.1914 -2.6936 -0.6396
 6911SOL    HW232367   0.052   2.774   6.790 -1.2660 -1.5982  1.1870
 6912SOL     OW32368   2.316   2.324   4.877 -0.0682 -0.1474  0.1654
 6912SOL    HW132369   2.306   2.232   4.902  1.2506 -0.2625  0.2644
 6912SOL    HW232370   2.369   2.313   4.798 -0.6196 -0.6128 -0.1401
 6913SOL     OW32371   4.100   3.656   6.532 -0.1580 -0.5125  0.2654
 6913SOL    HW132372   4.047   3.663   6.611 -0.0696  1.7612  0.1188
 6913SOL    HW232373   4.110   3.562   6.517  2.3129 -0.4312  1.3883
 6914SOL     OW32374   0.745   3.876   5.328  0.0449 -0.4300  0.5565
 6914SOL    HW132375   0.714   3.882   5.418 -1.3715  2.7667 -0.1449
 6914SOL    HW232376   0.664   3.842   5.290  0.4934 -3.5503  2.4057
 6915SOL     OW32377   1.868   2.576   5.172 -0.2820  0.0864  0.6265
 6915SOL    HW132378   1.844   2.661   5.134  1.6887  0.1557 -0.4764
 6915SOL    HW232379   1.939   2.602   5.231 -0.2748 -2.1688  1.5838
 6916SOL     OW32380   4.459   4.589  14.200  0.2477  0.1187 -0.0558
 6916SOL    HW132381   4.511   4.519  14.239 -0.7239 -1.9212 -2.4140
 6916SOL    HW232382   4.398   4.532  14.153  1.6645  0.5983 -2.4850
 6917SOL     OW32383   0.572   3.636   9.101 -0.2596  0.3256  1.2741
 6917SOL    HW132384   0.562   3.712   9.159 -1.2293  0.5944  0.7549
 6917SOL    HW232385   0.497   3.585   9.130 -0.1292  0.0991  1.2084
 6918SOL     OW32386   4.104   2.922   1.420 -0.6637  0.4416 -0.0605
 6918SOL    HW132387   4.081   2.965   1.338  0.8854 -0.2515 -0.8534
 6918SOL    HW232388   4.102   2.999   1.478  1.8603  0.5730 -0.1450
 6919SOL     OW32389   3.092   2.257  14.993  0.1637  0.0654 -0.6814
 6919SOL    HW132390   3.105   2.336  14.940 -0.7220  0.4250 -0.3670
 6919SOL    HW232391   3.182   2.247  15.026 -0.0004 -1.8532 -0.8405
 6920SOL     OW32392   1.180   3.722   7.316 -0.3890  0.5963 -0.4804
 6920SOL    HW132393   1.166   3.643   7.264 -2.5346  0.2633  0.6258
 6920SOL    HW232394   1.238   3.772   7.258  0.7590 -1.5165 -1.1684
 6921SOL     OW32395   1.811   0.989   8.768  0.0261 -0.2266  0.4476
 6921SOL    HW132396   1.808   1.023   8.857  0.9504  0.8664  0.0483
 6921SOL    HW232397   1.877   1.045   8.727 -2.2668  2.6201  0.6696
 6922SOL     OW32398   1.031   2.549  14.723 -0.2180 -0.0400 -0.1290
 6922SOL    HW132399   0.939   2.527  14.711 -0.1889  0.5957 -1.6113
 6922SOL    HW232400   1.077   2.482  14.673 -0.7186  0.3946 -1.1683
 6923SOL     OW32401   2.632   2.590   5.025  0.3875 -0.2186  0.1003
 6923SOL    HW132402   2.596   2.513   5.067  2.8716 -0.1027  2.3958
 6923SOL    HW232403   2.726   2.573   5.029  0.7094  1.5584  0.3189
 6924SOL     OW32404   0.635   0.945  11.757  0.3957 -0.1998 -0.7388
 6924SOL    HW132405   0.659   0.991  11.676 -2.2178  0.4664 -1.1567
 6924SOL    HW232406   0.692   0.871  11.739 -0.3586 -1.1176  0.7025
 6925SOL     OW32407   2.294   2.513  10.217 -0.5262 -0.0564 -0.5874
 6925SOL    HW132408   2.328   2.547  10.299  1.3239  0.6352 -1.6397
 6925SOL    HW232409   2.371   2.539  10.166 -1.3076 -1.7302 -2.6327
 6926SOL     OW32410   1.806   2.758   4.702 -0.0763 -0.0171  0.5036
 6926SOL    HW132411   1.852   2.833   4.741 -1.1719  1.9435 -1.9846
 6926SOL    HW232412   1.811   2.785   4.611  1.0447  2.6500  1.3483
 6927SOL     OW32413   3.622   3.619   6.455  0.1940 -0.0283 -0.2113
 6927SOL    HW132414   3.607   3.557   6.526 -0.3394  1.7978  1.2627
 6927SOL    HW232415   3.595   3.693   6.510 -1.3959  0.9148 -2.2327
 6928SOL     OW32416   1.761   2.422   2.512 -0.0831 -0.2039  0.1240
 6928SOL    HW132417   1.671   2.450   2.531  0.0956 -0.4855  1.3710
 6928SOL    HW232418   1.813   2.488   2.556 -1.6668  0.1824  1.4181
 6929SOL     OW32419   3.530   0.763   7.270  0.2306 -0.3027  0.5811
 6929SOL    HW132420   3.564   0.675   7.290 -0.1754 -1.1376 -2.3995
 6929SOL    HW232421   3.575   0.775   7.187  0.5656 -1.3458  0.6092
 6930SOL     OW32422   0.276   2.701   6.508  0.2360 -0.2031 -0.3897
 6930SOL    HW132423   0.181   2.691   6.513  0.3883 -1.2524  0.3907
 6930SOL    HW232424   0.294   2.659   6.592 -0.1667 -1.9087 -1.1663
 6931SOL     OW32425   1.382   4.592   7.320  0.6484 -0.1967 -0.4098
 6931SOL    HW132426   1.336   4.588   7.236 -0.4531 -2.4198  0.2940
 6931SOL    HW232427   1.471   4.593   7.284 -0.0016 -2.7474 -2.1258
 6932SOL     OW32428   2.384   2.094   9.074 -0.7109  0.0815 -0.7609
 6932SOL    HW132429   2.375   2.185   9.047 -1.1408  0.4289  0.5200
 6932SOL    HW232430   2.391   2.091   9.170  1.7120 -1.4995 -0.9864
 6933SOL     OW32431   2.023   4.548  15.875  0.3878 -0.0705 -0.4407
 6933SOL    HW132432   1.934   4.517  15.857 -0.2080  0.6805  1.1821
 6933SOL    HW232433   2.019   4.644  15.878  2.5909  0.0201 -0.6542
 6934SOL     OW32434   0.619   1.498  15.457  0.0331 -0.3092 -0.3188
 6934SOL    HW132435   0.690   1.561  15.465  1.6429 -2.1168 -0.4469
 6934SOL    HW232436   0.550   1.551  15.417 -0.1989  0.5767  1.2549
 6935SOL     OW32437   2.408   0.171   0.334  0.9426  0.0437  0.1263
 6935SOL    HW132438   2.365   0.220   0.404  0.6064 -0.9645  0.6158
 6935SOL    HW232439   2.477   0.127   0.383  0.0112  1.0179  2.2772
 6936SOL     OW32440   3.205   2.232   9.157 -0.0447 -0.3092 -0.3302
 6936SOL    HW132441   3.189   2.183   9.077  0.5020  0.1183 -0.7009
 6936SOL    HW232442   3.300   2.226   9.170 -0.2315  1.4151  1.9503
 6937SOL     OW32443   3.083   4.682   8.684  0.2082 -0.6533  0.1679
 6937SOL    HW132444   3.029   4.644   8.754 -0.2881 -0.4863 -0.1280
 6937SOL    HW232445   3.020   4.676   8.612  0.8079 -1.0557 -0.3256
 6938SOL     OW32446   1.840   0.886   1.708 -0.5435 -0.1591  0.0770
 6938SOL    HW132447   1.861   0.915   1.797  1.5508 -0.9884 -0.1407
 6938SOL    HW232448   1.870   0.961   1.657  3.2808 -1.5551  0.2819
 6939SOL     OW32449   2.467   2.293   8.537 -0.4452  0.1415  0.6251
 6939SOL    HW132450   2.552   2.248   8.539 -1.2407 -1.3825 -0.0306
 6939SOL    HW232451   2.499   2.382   8.554 -1.9004  0.9654 -0.8616
 6940SOL     OW32452   2.543   0.052   0.820  0.3019 -0.4070  0.1176
 6940SOL    HW132453   2.638   0.049   0.833  0.3915  2.1913  0.0027
 6940SOL    HW232454   2.523   0.084   0.908  0.3377 -1.0935  0.3779
 6941SOL     OW32455   0.299   4.635   6.795  0.5678  0.3113 -0.2007
 6941SOL    HW132456   0.252   4.606   6.717  0.9634  2.3086 -1.2057
 6941SOL    HW232457   0.290   4.558   6.850 -1.1734  1.6183  1.3412
 6942SOL     OW32458   4.015   0.626   5.991  0.5463 -0.3324 -0.5774
 6942SOL    HW132459   4.009   0.705   5.937 -0.4762 -0.7252 -1.0422
 6942SOL    HW232460   3.965   0.560   5.942  0.4248  0.3701 -1.3993
 6943SOL     OW32461   4.122   2.255   5.968  0.5382 -0.4770 -0.6362
 6943SOL    HW132462   4.124   2.266   5.873  0.2926  1.0220 -0.4554
 6943SOL    HW232463   4.151   2.341   5.997 -0.5979 -0.0580 -0.7495
 6944SOL     OW32464   0.973   3.512   8.550  0.4572  0.1114  0.3797
 6944SOL    HW132465   1.043   3.573   8.577 -0.6119  1.2411  0.6296
 6944SOL    HW232466   1.001   3.516   8.458  1.3402  0.9737  0.6782
 6945SOL     OW32467   4.654   2.403  16.848  0.4799 -0.3218  0.1446
 6945SOL    HW132468   4.624   2.344  16.779 -2.2406  1.6529 -0.3887
 6945SOL    HW232469   0.010   2.381  16.869  0.2832 -1.4749 -0.2455
 6946SOL     OW32470   4.090   3.882   5.456  0.5937  0.1561 -0.9670
 6946SOL    HW132471   4.078   3.792   5.486 -0.1214  0.8971  1.0071
 6946SOL    HW232472   4.186   3.876   5.456  0.5559 -0.3645 -1.5239
 6947SOL     OW32473   3.244   2.305   5.597  0.0400  0.0498 -0.7039
 6947SOL    HW132474   3.292   2.239   5.547 -0.1202 -0.3641 -0.3212
 6947SOL    HW232475   3.188   2.237   5.635  1.8415 -0.2982  1.3495
 6948SOL     OW32476   2.681   4.325   4.915 -0.1520  0.1601  0.0615
 6948SOL    HW132477   2.709   4.368   4.834 -1.1986  0.6122 -0.0461
 6948SOL    HW232478   2.747   4.255   4.904 -0.5603 -0.3970  1.0921
 6949SOL     OW32479   2.009   1.165   4.544  0.8983  0.5539 -0.3261
 6949SOL    HW132480   1.924   1.207   4.556  0.0827 -0.6043 -1.9946
 6949SOL    HW232481   2.064   1.222   4.598 -0.8433  3.5731 -1.7580
 6950SOL     OW32482   2.859   4.215   8.431 -0.2366 -0.2650 -0.4335
 6950SOL    HW132483   2.924   4.150   8.406 -0.1420 -0.4906  0.4037
 6950SOL    HW232484   2.827   4.151   8.495 -4.1718  0.0122 -2.1117
 6951SOL     OW32485   1.369   2.089   3.783 -0.4903  0.1207 -0.0268
 6951SOL    HW132486   1.375   2.117   3.692 -0.9907  1.9681  0.5017
 6951SOL    HW232487   1.445   2.031   3.787  1.3883  2.5487 -0.5943
 6952SOL     OW32488   4.355   4.120   2.686  0.0640  0.0617 -0.1499
 6952SOL    HW132489   4.344   4.026   2.671  0.1872 -0.3350  2.2601
 6952SOL    HW232490   4.266   4.144   2.661  0.2042  0.8189  0.0873
 6953SOL     OW32491   0.029   1.022   7.688 -0.3902 -0.7234 -0.2222
 6953SOL    HW132492   4.697   0.958   7.661 -1.6151  0.5924 -0.2722
 6953SOL    HW232493   0.058   0.964   7.759 -0.8538 -0.8972 -0.1759
 6954SOL     OW32494   0.809   0.610   7.868  0.0164  0.3663  0.3689
 6954SOL    HW132495   0.721   0.633   7.896  0.1636 -1.1287  2.0646
 6954SOL    HW232496   0.833   0.691   7.824  1.9029 -0.2936  0.1808
 6955SOL     OW32497   4.563   1.626   4.927 -0.0461 -0.2816  0.0018
 6955SOL    HW132498   4.602   1.713   4.936 -1.9611  0.5252  0.3665
 6955SOL    HW232499   4.577   1.614   4.833 -2.0102 -0.8213 -0.2125
 6956SOL     OW32500   0.751   0.913   7.190  0.1997 -0.2059  0.8199
 6956SOL    HW132501   0.837   0.922   7.230  0.8042 -2.1214 -0.0327
 6956SOL    HW232502   0.784   0.942   7.105 -1.8541 -2.0652 -0.6369
 6957SOL     OW32503   3.763   4.523  13.707 -0.0083  0.1120  0.5740
 6957SOL    HW132504   3.792   4.460  13.773 -0.0148 -1.3501 -0.8291
 6957SOL    HW232505   3.694   4.471  13.666  0.5224 -1.1722  1.3012
 6958SOL     OW32506   3.721   2.106   0.513  0.0257  0.3668  0.4736
 6958SOL    HW132507   3.790   2.146   0.460 -0.6464  0.7135 -0.1372
 6958SOL    HW232508   3.658   2.177   0.526  0.3805  0.8720 -0.6317
 6959SOL     OW32509   4.493   2.029   7.010 -0.4667  0.1652  0.1721
 6959SOL    HW132510   4.544   1.948   7.006 -1.6474 -0.6630  1.9068
 6959SOL    HW232511   4.431   1.997   7.076 -0.2257 -4.1809 -1.7345
 6960SOL     OW32512   1.887   2.067   6.297 -0.0606 -0.1631  0.5590
 6960SOL    HW132513   1.895   2.001   6.229 -0.3178 -1.1345  1.4755
 6960SOL    HW232514   1.800   2.104   6.278  0.9195  1.5385 -0.5752
 6961SOL     OW32515   0.398   0.680  16.504 -0.0008  0.2139  0.0179
 6961SOL    HW132516   0.396   0.636  16.419  2.2879  0.0249  0.0384
 6961SOL    HW232517   0.306   0.695  16.523  0.0094 -1.6464  1.5208
 6962SOL     OW32518   0.861   3.751  17.494 -0.7988  0.0838 -0.1222
 6962SOL    HW132519   0.847   3.657  17.505 -4.3766  0.2564 -3.0222
 6962SOL    HW232520   0.948   3.766  17.529  0.1211 -0.6682 -2.0759
 6963SOL     OW32521   0.034   4.260   7.078  0.5855  0.5346 -0.2148
 6963SOL    HW132522   0.100   4.217   7.024 -1.1937 -0.9242 -1.2611
 6963SOL    HW232523   4.703   4.190   7.079 -0.1229  1.1692 -2.3133
 6964SOL     OW32524   2.148   1.108   9.398 -0.0181  0.1267 -0.0023
 6964SOL    HW132525   2.081   1.123   9.332 -1.3171  1.5700  1.6580
 6964SOL    HW232526   2.115   1.043   9.461 -1.0982  1.4937  0.8484
 6965SOL     OW32527   3.921   4.260  17.062 -0.2845 -0.1477 -0.0810
 6965SOL    HW132528   3.920   4.355  17.069  0.9922 -0.2041  0.9708
 6965SOL    HW232529   3.998   4.238  17.116 -1.5522  0.8333  2.1432
 6966SOL     OW32530   3.814   0.829   7.481 -0.0607 -0.0351  0.3471
 6966SOL    HW132531   3.813   0.920   7.453 -0.0585  0.0201  0.5302
 6966SOL    HW232532   3.723   0.804   7.497  0.1609 -0.5791  0.7352
 6967SOL     OW32533   0.397   1.501   6.452  0.3342  0.1063  0.1233
 6967SOL    HW132534   0.420   1.538   6.537 -1.4256  1.2217  0.1282
 6967SOL    HW232535   0.481   1.506   6.408  0.7389  2.3278  1.1865
 6968SOL     OW32536   3.779   3.700   6.255 -0.0114 -0.0180 -0.1202
 6968SOL    HW132537   3.714   3.694   6.325  0.1910 -0.7562  0.0073
 6968SOL    HW232538   3.818   3.613   6.257 -0.3636 -0.1595  0.5681
 6969SOL     OW32539   0.299   1.835   3.606  0.8881 -0.1622  0.5320
 6969SOL    HW132540   0.231   1.843   3.539  0.1313 -3.9220  0.8419
 6969SOL    HW232541   0.261   1.761   3.654  0.7273 -0.6405 -0.3424
 6970SOL     OW32542   3.633   3.436  15.986  0.2903 -0.4610  0.2106
 6970SOL    HW132543   3.724   3.406  15.987  0.1725 -0.7779  2.6566
 6970SOL    HW232544   3.607   3.395  16.069  0.4266  0.2718  0.6132
 6971SOL     OW32545   1.997   0.847  10.161  0.7374  0.0131 -0.3764
 6971SOL    HW132546   2.003   0.850  10.066  0.2815  1.9692 -0.3379
 6971SOL    HW232547   1.976   0.755  10.175 -2.1887  0.8858  0.8632
 6972SOL     OW32548   0.156   2.794   4.713  0.1183  0.0235  0.5543
 6972SOL    HW132549   0.165   2.699   4.722  3.1793 -0.0244 -2.8649
 6972SOL    HW232550   0.080   2.788   4.656  1.1066  0.6349 -0.8312
 6973SOL     OW32551   4.254   1.686  10.244  0.7688  0.0851 -0.5222
 6973SOL    HW132552   4.226   1.775  10.268  1.1295  0.6926 -2.3147
 6973SOL    HW232553   4.349   1.689  10.249  0.8372 -0.3985 -1.5469
 6974SOL     OW32554   1.791   0.339  15.503  0.0284  0.0151 -0.3210
 6974SOL    HW132555   1.696   0.348  15.514  0.0733 -0.2750  0.2745
 6974SOL    HW232556   1.808   0.394  15.426  0.7856  1.3452  0.7919
 6975SOL     OW32557   1.358   0.547   5.301  0.0912 -0.0007 -0.1389
 6975SOL    HW132558   1.440   0.520   5.342 -0.1544  1.1242  1.0965
 6975SOL    HW232559   1.311   0.468   5.327 -0.5986  0.6954  0.7041
 6976SOL     OW32560   4.161   2.974   2.615  0.2765 -0.7539 -0.1723
 6976SOL    HW132561   4.143   2.904   2.552  0.1089 -1.4634  0.6615
 6976SOL    HW232562   4.072   3.009   2.618  0.8050  0.5505  0.0842
 6977SOL     OW32563   0.088   0.559   7.499 -0.1096  0.7163 -0.5156
 6977SOL    HW132564   0.023   0.577   7.567  0.3382  1.1184 -0.1911
 6977SOL    HW232565   0.160   0.610   7.537 -0.5962  0.4701  0.7313
 6978SOL     OW32566   1.494   2.899   2.591 -0.5450  0.1329  0.1673
 6978SOL    HW132567   1.433   2.853   2.650 -0.1116 -0.7972 -0.1128
 6978SOL    HW232568   1.568   2.840   2.603 -2.5729 -1.7639  3.5629
 6979SOL     OW32569   2.008   1.060   1.621 -0.1915 -0.0061  0.1650
 6979SOL    HW132570   1.990   1.135   1.565  2.7217  0.5452 -0.0465
 6979SOL    HW232571   2.100   1.083   1.638 -0.0921  0.9727 -1.6701
 6980SOL     OW32572   1.822   0.154   5.608  0.0097  0.1713  0.6811
 6980SOL    HW132573   1.766   0.077   5.606  1.5707 -0.9332 -0.8188
 6980SOL    HW232574   1.781   0.199   5.682 -0.9804  0.8047 -0.2541
 6981SOL     OW32575   4.295   0.399   9.818 -0.2931 -0.5264  0.0647
 6981SOL    HW132576   4.308   0.365   9.906  2.7966 -0.9135 -0.5554
 6981SOL    HW232577   4.382   0.440   9.811 -1.8751  3.0312  1.0888
 6982SOL     OW32578   3.126   2.066   9.524  0.6742  0.1618 -0.4203
 6982SOL    HW132579   3.220   2.077   9.538  0.9863 -1.8852 -0.9676
 6982SOL    HW232580   3.125   2.022   9.440  0.4498 -0.8787  0.1241
 6983SOL     OW32581   3.129   0.287   4.301 -0.1652 -0.2472 -0.2443
 6983SOL    HW132582   3.144   0.381   4.285 -0.9402  0.1566  1.3411
 6983SOL    HW232583   3.036   0.283   4.323  0.2437 -0.4330  1.5017
 6984SOL     OW32584   1.435   4.543   0.305  0.2655 -0.0493 -0.4411
 6984SOL    HW132585   1.507   4.502   0.352  0.4125 -1.2058 -1.6829
 6984SOL    HW232586   1.429   4.630   0.346 -1.2631 -1.7469  2.9313
 6985SOL     OW32587   1.745   2.658  10.541 -0.2623  0.2440  0.5368
 6985SOL    HW132588   1.693   2.611  10.476 -0.1207  0.7779  0.0450
 6985SOL    HW232589   1.696   2.650  10.623 -1.1369  0.4099  0.0295
 6986SOL     OW32590   2.949   4.596   2.625  0.4553  0.2632 -0.2841
 6986SOL    HW132591   2.969   4.506   2.600 -1.3339 -1.2880  3.8091
 6986SOL    HW232592   2.892   4.623   2.554 -2.2515  1.3431  2.3113
 6987SOL     OW32593   3.059   1.215   6.327 -0.1153  0.1222 -0.6993
 6987SOL    HW132594   3.135   1.197   6.382  0.8432  2.0183 -1.3940
 6987SOL    HW232595   3.030   1.301   6.358 -0.6689  0.2137 -1.4936
 6988SOL     OW32596   0.831   4.018   4.443  0.1033  0.3303  0.7059
 6988SOL    HW132597   0.924   4.034   4.425  0.1521 -1.3084 -0.6320
 6988SOL    HW232598   0.837   4.006   4.537 -1.4610 -5.1838  0.1320
 6989SOL     OW32599   2.329   3.764   9.004 -0.0891  0.2975 -0.0641
 6989SOL    HW132600   2.359   3.748   8.914 -0.4987 -1.7550  0.1664
 6989SOL    HW232601   2.243   3.723   9.004 -0.4722  1.0885  0.5472
 6990SOL     OW32602   3.138   1.111   6.581  0.3633  0.0098 -0.0613
 6990SOL    HW132603   3.214   1.116   6.639  1.4080  1.4242 -1.5426
 6990SOL    HW232604   3.075   1.171   6.622 -0.7546  0.3425 -2.2468
 6991SOL     OW32605   0.420   4.203   9.813  0.0252  0.2874 -0.0541
 6991SOL    HW132606   0.325   4.199   9.827 -0.3487  1.2938 -2.3563
 6991SOL    HW232607   0.458   4.265   9.877  0.4595  0.9789 -0.9806
 6992SOL     OW32608   1.132   0.768  13.689 -0.1091  0.4656 -0.2654
 6992SOL    HW132609   1.172   0.711  13.754  0.4542  0.3370 -0.7295
 6992SOL    HW232610   1.109   0.844  13.741 -0.9385  0.3726 -0.4849
 6993SOL     OW32611   4.040   2.551   2.575  0.1926  0.4272  0.6432
 6993SOL    HW132612   4.045   2.466   2.533  0.1902  0.7850 -0.0832
 6993SOL    HW232613   3.992   2.606   2.513 -1.7974 -0.5481  1.3130
 6994SOL     OW32614   3.408   3.533  15.811  0.3042 -0.0956 -0.1963
 6994SOL    HW132615   3.454   3.590  15.749 -0.4649  0.6496 -0.0813
 6994SOL    HW232616   3.480   3.518  15.873  0.7611  0.9501 -0.4792
 6995SOL     OW32617   1.600   3.913  16.510  0.3195 -0.1689  0.8373
 6995SOL    HW132618   1.536   3.964  16.461  1.1837 -1.2131 -1.3495
 6995SOL    HW232619   1.549   3.836  16.539  0.9970 -0.4908  1.1788
 6996SOL     OW32620   4.603   0.951   7.304  0.2076 -0.1437 -0.4516
 6996SOL    HW132621   4.541   1.023   7.298 -0.6015 -0.7546  0.7101
 6996SOL    HW232622   4.590   0.921   7.394  0.2508 -0.8760 -0.6880
 6997SOL     OW32623   1.722   4.443   2.848 -0.2365 -0.3313  0.1610
 6997SOL    HW132624   1.729   4.469   2.757  1.4564  1.0232  0.6913
 6997SOL    HW232625   1.701   4.528   2.887 -0.5983 -0.5930  0.5367
 6998SOL     OW32626   4.179   1.374   3.591  0.7512  0.2592 -0.3861
 6998SOL    HW132627   4.122   1.358   3.666 -0.5081  1.0974 -1.1508
 6998SOL    HW232628   4.222   1.292   3.567 -1.1309 -0.6533 -0.6653
 6999SOL     OW32629   0.990   3.129   4.065  0.0060  0.2976 -0.2464
 6999SOL    HW132630   0.897   3.138   4.082 -0.2431 -2.3429 -0.2421
 6999SOL    HW232631   1.033   3.144   4.149 -1.1056 -0.3965  0.4379
 7000SOL     OW32632   3.090   4.430   4.820 -0.1796  0.3585 -0.2678
 7000SOL    HW132633   3.167   4.375   4.832 -1.2238 -0.5471  2.3009
 7000SOL    HW232634   3.115   4.509   4.868  0.9579  0.4401 -0.9852
 7001SOL     OW32635   3.583   2.882   7.337  0.2977 -0.1614 -0.4157
 7001SOL    HW132636   3.526   2.924   7.402  0.5824 -0.6619  0.1472
 7001SOL    HW232637   3.657   2.870   7.396 -0.2024 -1.9982 -0.1721
 7002SOL     OW32638   3.617   4.680   2.837 -0.1244  0.0894  0.5877
 7002SOL    HW132639   3.590   4.611   2.777  0.4620  1.0088 -0.7405
 7002SOL    HW232640   3.633   0.019   2.777  0.5459 -1.2286 -0.8566
 7003SOL     OW32641   3.381   2.796  10.045 -0.4895 -0.2819 -0.0041
 7003SOL    HW132642   3.377   2.772   9.953  0.2361  0.4665 -0.2326
 7003SOL    HW232643   3.292   2.771  10.072  0.1992 -2.9704 -0.2570
 7004SOL     OW32644   4.435   0.760   2.611  0.6876 -0.5004  0.7421
 7004SOL    HW132645   4.456   0.670   2.585  0.6180  0.0445 -1.2346
 7004SOL    HW232646   4.341   0.754   2.630  0.8065 -3.5006  0.4803
 7005SOL     OW32647   4.730   1.684   3.257  0.2709 -0.1173  0.0441
 7005SOL    HW132648   4.642   1.693   3.292  0.3625 -1.1127  0.5358
 7005SOL    HW232649   4.734   1.590   3.240  0.0649  0.0000 -0.6474
 7006SOL     OW32650   2.046   2.353   2.609 -0.6722 -0.1467  0.7033
 7006SOL    HW132651   2.059   2.347   2.704 -0.9975  0.1837  0.7719
 7006SOL    HW232652   2.124   2.401   2.582 -0.0432 -1.1308  0.7887
 7007SOL     OW32653   2.034   3.449   3.492  0.0384 -0.2399  0.4431
 7007SOL    HW132654   2.113   3.499   3.474  0.8344 -2.0178 -0.9355
 7007SOL    HW232655   2.018   3.476   3.583  1.6307  0.6688  0.4460
 7008SOL     OW32656   0.626   4.022   8.394 -0.5452  0.3327 -0.0795
 7008SOL    HW132657   0.586   3.936   8.402  0.0807 -0.0488 -1.0459
 7008SOL    HW232658   0.568   4.042   8.320 -0.7374 -1.5963 -0.4395
 7009SOL     OW32659   4.328   2.268   0.387 -0.5119  0.4161 -0.1142
 7009SOL    HW132660   4.388   2.194   0.380  0.4591  1.3743 -1.9211
 7009SOL    HW232661   4.388   2.334   0.422  0.2091  0.8102 -2.1016
 7010SOL     OW32662   3.500   1.215   2.817  0.0327 -0.2203  0.0719
 7010SOL    HW132663   3.416   1.253   2.793  1.1795  4.3294  3.0607
 7010SOL    HW232664   3.561   1.288   2.801  0.6043 -0.5073  0.8903
 7011SOL     OW32665   0.777   4.540   0.953  0.0680 -0.5067 -0.1482
 7011SOL    HW132666   0.831   4.560   1.030  0.7179  1.6973 -1.2096
 7011SOL    HW232667   0.688   4.534   0.987 -0.0414  0.9923 -0.1787
 7012SOL     OW32668   4.518   4.507   6.837 -0.1402 -0.4060  0.0996
 7012SOL    HW132669   4.595   4.454   6.820  0.0033 -0.2437  0.2466
 7012SOL    HW232670   4.555   4.572   6.897 -1.5357 -0.2645  0.8113
 7013SOL     OW32671   0.962   3.034   5.848  0.0272  0.3952 -0.2198
 7013SOL    HW132672   0.929   3.116   5.811 -0.2936 -0.6771 -2.3299
 7013SOL    HW232673   0.906   3.031   5.926 -0.0870  0.6854 -0.2901
 7014SOL     OW32674   2.444   0.663   4.577  0.2915 -0.2154 -0.9269
 7014SOL    HW132675   2.421   0.575   4.608 -2.3851  0.4406 -1.0648
 7014SOL    HW232676   2.507   0.686   4.645 -1.6587  1.4977  0.3108
 7015SOL     OW32677   1.585   0.962   6.693  0.7131  0.3288  0.5755
 7015SOL    HW132678   1.577   0.866   6.697  0.3594  0.2276 -2.3756
 7015SOL    HW232679   1.508   0.990   6.744  1.5681 -0.2258  2.1743
 7016SOL     OW32680   0.425   0.991   8.805  0.2863  0.2375  0.3837
 7016SOL    HW132681   0.473   1.039   8.872  1.5440  1.8353 -1.6558
 7016SOL    HW232682   0.481   0.994   8.727  1.3053 -3.2279  0.9563
 7017SOL     OW32683   0.350   0.966   8.340 -0.1520  0.9024 -0.6461
 7017SOL    HW132684   0.292   1.026   8.386  0.2874  2.3101 -1.9622
 7017SOL    HW232685   0.317   0.880   8.368  3.6153  0.2467  1.8889
 7018SOL     OW32686   1.947   3.973   2.018 -0.1200  0.0858 -0.3583
 7018SOL    HW132687   1.993   3.963   2.101  0.5466 -1.5605 -0.9085
 7018SOL    HW232688   1.909   4.060   2.029 -1.8339 -0.7563  0.2578
 7019SOL     OW32689   0.296   4.729   7.934  0.2165 -0.2561  0.2659
 7019SOL    HW132690   0.374   0.047   7.954  0.9922 -0.5369 -2.0503
 7019SOL    HW232691   0.329   4.639   7.937  1.0240 -0.0197 -1.7188
 7020SOL     OW32692   4.712   4.103   2.316 -0.0490  0.3101  0.0086
 7020SOL    HW132693   4.626   4.082   2.351 -0.6330 -3.3949 -3.6343
 7020SOL    HW232694   4.729   4.020   2.271 -2.3620 -0.1719  0.0182
 7021SOL     OW32695   2.303   1.738  10.106 -0.0191  0.0705 -0.0213
 7021SOL    HW132696   2.349   1.738  10.191  0.1256  1.7763 -0.1083
 7021SOL    HW232697   2.296   1.832  10.095  0.6911 -0.3025 -3.6248
 7022SOL     OW32698   1.263   3.821   2.527 -0.6386  0.1505  0.1345
 7022SOL    HW132699   1.304   3.788   2.607 -0.1636  2.4906  0.8581
 7022SOL    HW232700   1.338   3.854   2.479  0.7198 -1.5657  1.0482
 7023SOL     OW32701   1.833   0.072   2.181 -0.5369 -0.3770 -0.1928
 7023SOL    HW132702   1.888   4.729   2.176 -0.3264 -0.1218 -2.1424
 7023SOL    HW232703   1.872   0.123   2.252  0.2490  0.1895 -1.0238
 7024SOL     OW32704   3.764   3.700   4.648  0.5389  0.3454 -0.1937
 7024SOL    HW132705   3.807   3.631   4.598  1.6777  2.0565 -1.5882
 7024SOL    HW232706   3.832   3.718   4.713  0.1443 -0.7663  0.5261
 7025SOL     OW32707   3.994   3.166   7.152 -0.0856 -0.5840  0.3672
 7025SOL    HW132708   4.001   3.261   7.149 -0.0896 -0.5977  0.0001
 7025SOL    HW232709   4.059   3.132   7.214  0.3522  0.4204  0.4671
 7026SOL     OW32710   4.578   0.188  13.339  0.4497 -0.2162  0.1946
 7026SOL    HW132711   4.631   0.109  13.352 -2.8962 -2.2270  1.9840
 7026SOL    HW232712   4.491   0.148  13.353  0.2474  0.1498 -0.0289
 7027SOL     OW32713   3.351   0.926   2.657 -0.0723  0.7215  0.1501
 7027SOL    HW132714   3.286   0.993   2.637  0.0325  1.1740  1.3168
 7027SOL    HW232715   3.300   0.889   2.729  1.5355 -0.3548  0.7317
 7028SOL     OW32716   0.398   1.308   1.151  0.3412  0.4390  0.5511
 7028SOL    HW132717   0.398   1.344   1.239  0.1069  0.4849  0.5336
 7028SOL    HW232718   0.308   1.329   1.126  0.8145 -0.8717 -2.3014
 7029SOL     OW32719   2.046   2.200   0.521 -0.3662  0.1373 -0.1194
 7029SOL    HW132720   2.112   2.203   0.452  1.1631 -1.1771  1.2630
 7029SOL    HW232721   1.972   2.168   0.470 -1.2001 -0.7380  1.6304
 7030SOL     OW32722   3.945   3.415  16.398 -0.1819  0.1713  0.1517
 7030SOL    HW132723   3.852   3.393  16.397  0.1685 -1.4674  2.4687
 7030SOL    HW232724   4.002   3.340  16.381  1.4693  1.3223  0.6605
 7031SOL     OW32725   0.561   1.748   2.939 -0.4240  0.0926  0.0164
 7031SOL    HW132726   0.638   1.794   2.974  0.5134 -0.9736 -0.6581
 7031SOL    HW232727   0.497   1.754   3.010 -2.5234 -2.1184 -1.7119
 7032SOL     OW32728   1.774   2.799   8.882  0.3468  0.5149 -0.3002
 7032SOL    HW132729   1.704   2.863   8.870  0.3771  0.3387 -1.3845
 7032SOL    HW232730   1.737   2.715   8.856  0.8158  0.7352 -1.6769
 7033SOL     OW32731   2.233   3.371  15.789 -0.0439 -0.6370  0.1318
 7033SOL    HW132732   2.182   3.369  15.869 -1.3022 -0.2832 -0.6551
 7033SOL    HW232733   2.196   3.300  15.736  1.3734 -0.7101 -0.7939
 7034SOL     OW32734   4.156   3.146   4.816  0.3396  0.0196  0.2067
 7034SOL    HW132735   4.144   3.201   4.894  0.8215  0.0206  0.2805
 7034SOL    HW232736   4.200   3.069   4.851  0.5438  0.2883  0.5456
 7035SOL     OW32737   1.959   0.939   1.943 -0.0424  0.0421 -0.2888
 7035SOL    HW132738   1.969   1.034   1.947  0.6250 -0.0782  1.2993
 7035SOL    HW232739   2.046   0.905   1.965 -0.7512 -0.6348  1.5125
 7036SOL     OW32740   1.942   2.153   8.088 -0.3548 -0.1557 -0.1198
 7036SOL    HW132741   1.857   2.125   8.053 -0.5755 -1.5928  1.5909
 7036SOL    HW232742   1.917   2.180   8.176  1.7272  1.7596 -0.1298
 7037SOL     OW32743   3.551   1.274  11.194  0.3383  0.1866  0.4826
 7037SOL    HW132744   3.604   1.256  11.117 -1.6505 -2.0524 -0.3692
 7037SOL    HW232745   3.525   1.182  11.205 -3.3546  1.3004  1.2760
 7038SOL     OW32746   3.344   0.324   6.215 -0.3704 -0.2621  0.2399
 7038SOL    HW132747   3.302   0.277   6.287 -1.5573  0.4367  0.0019
 7038SOL    HW232748   3.400   0.387   6.261 -0.6621  1.0119 -1.1426
 7039SOL     OW32749   1.831   3.848   8.046  0.8957  0.3437  0.1552
 7039SOL    HW132750   1.889   3.799   8.104  0.1260  0.2558  0.8453
 7039SOL    HW232751   1.761   3.859   8.111  2.3897  1.3889  1.5707
 7040SOL     OW32752   4.222   1.531   7.530 -0.1869 -0.0854 -0.1938
 7040SOL    HW132753   4.305   1.564   7.496 -0.0645  2.0949  2.2248
 7040SOL    HW232754   4.158   1.600   7.514 -0.0136 -0.0992 -0.9710
 7041SOL     OW32755   1.000   3.140   7.477  0.0866 -0.0219  0.4269
 7041SOL    HW132756   1.051   3.219   7.460 -0.6043  0.2141 -0.5341
 7041SOL    HW232757   1.056   3.073   7.438  1.0135  0.9257  0.1306
 7042SOL     OW32758   2.475   4.143   4.204 -0.3370 -0.2912 -0.1781
 7042SOL    HW132759   2.468   4.053   4.172  0.2754 -1.0031  1.7207
 7042SOL    HW232760   2.570   4.153   4.211 -0.7120  2.7416  0.8801
 7043SOL     OW32761   2.066   4.543   5.497 -0.1009  0.0713  0.2943
 7043SOL    HW132762   2.116   4.520   5.575 -1.9343 -0.7574  1.2273
 7043SOL    HW232763   1.979   4.531   5.536  0.3040 -2.1390  0.5219
 7044SOL     OW32764   1.627   4.345  11.617  0.0729 -0.0675  0.6244
 7044SOL    HW132765   1.604   4.437  11.632  0.6059  0.1129  0.3646
 7044SOL    HW232766   1.684   4.355  11.541  0.0168  0.1177  0.6071
 7045SOL     OW32767   3.991   1.811   9.421  0.4921  0.0891  0.2740
 7045SOL    HW132768   3.935   1.737   9.443 -1.2186  0.9683 -1.0954
 7045SOL    HW232769   3.965   1.870   9.493  1.3855 -0.1157  0.7572
 7046SOL     OW32770   3.687   4.274   8.485 -0.0997 -0.5628 -0.2610
 7046SOL    HW132771   3.642   4.341   8.433 -1.1106 -1.8912 -1.0879
 7046SOL    HW232772   3.618   4.245   8.545 -0.6480 -1.0040 -1.1053
 7047SOL     OW32773   3.816   1.451   7.517  0.8091  0.2763  0.2666
 7047SOL    HW132774   3.868   1.373   7.499 -0.5790 -0.1365 -1.9560
 7047SOL    HW232775   3.816   1.461   7.612  0.5714  2.0458  0.0827
 7048SOL     OW32776   4.707   3.215   7.692 -0.7648 -0.1338 -0.8045
 7048SOL    HW132777   0.060   3.221   7.655 -0.8861 -0.9086 -1.2277
 7048SOL    HW232778   4.669   3.302   7.676 -2.6541 -0.6479  0.9564
 7049SOL     OW32779   1.198   2.111   5.763 -0.3351  0.5237 -0.2832
 7049SOL    HW132780   1.255   2.138   5.690  0.1419  0.3673  0.0315
 7049SOL    HW232781   1.113   2.134   5.726 -1.5431 -0.0301  2.1861
 7050SOL     OW32782   0.539   0.274   2.104 -0.2486  0.3491  0.1475
 7050SOL    HW132783   0.488   0.243   2.178 -0.8071  2.7303  0.7806
 7050SOL    HW232784   0.600   0.329   2.154  1.0890 -1.5319  0.5703
 7051SOL     OW32785   1.184   3.106   9.005  0.3662 -0.1417  0.2173
 7051SOL    HW132786   1.092   3.131   9.004  0.1261 -1.1637 -2.6920
 7051SOL    HW232787   1.189   3.070   8.917 -3.4583 -0.6014  0.2092
 7052SOL     OW32788   2.404   2.620   9.392  0.3205  0.2192  0.4476
 7052SOL    HW132789   2.462   2.571   9.450  0.0728 -0.2515  0.2976
 7052SOL    HW232790   2.356   2.544   9.358 -1.5162  2.4090 -1.8877
 7053SOL     OW32791   2.275   3.786  15.814  0.7129 -0.3844 -0.2158
 7053SOL    HW132792   2.216   3.776  15.740 -0.0654  1.0713  0.2167
 7053SOL    HW232793   2.360   3.778  15.770  0.0796 -1.8545 -1.1774
 7054SOL     OW32794   2.305   3.518   8.503 -0.5778  0.6706  0.2143
 7054SOL    HW132795   2.368   3.539   8.434  0.2503  1.4761  1.2054
 7054SOL    HW232796   2.314   3.423   8.503 -0.6938  0.6688 -1.9060
 7055SOL     OW32797   2.937   1.257   2.303 -0.2093  0.0263 -0.3785
 7055SOL    HW132798   3.021   1.234   2.263  0.0190  1.2724 -0.6050
 7055SOL    HW232799   2.894   1.175   2.277  0.9134 -0.6731 -0.0475
 7056SOL     OW32800   2.740   1.902   3.249  0.3046  0.2740  0.1736
 7056SOL    HW132801   2.669   1.882   3.310 -0.9680 -3.5821 -2.5530
 7056SOL    HW232802   2.695   1.912   3.165 -1.1931  1.0604  1.0644
 7057SOL     OW32803   2.416   1.978   7.993  0.2765 -0.1678 -0.3068
 7057SOL    HW132804   2.392   1.907   7.933  2.8001 -2.0489  0.9012
 7057SOL    HW232805   2.331   2.020   8.004  0.0080 -1.1253  1.3306
 7058SOL     OW32806   4.080   2.238   8.250  0.0942 -0.5874 -0.4325
 7058SOL    HW132807   4.122   2.152   8.241  0.3424 -0.4163 -0.8988
 7058SOL    HW232808   4.008   2.215   8.309 -0.5122  0.8375 -0.6147
 7059SOL     OW32809   0.922   2.461   3.569 -0.3417  0.2952  0.0779
 7059SOL    HW132810   0.832   2.490   3.555 -1.1003 -2.8081 -1.3989
 7059SOL    HW232811   0.898   2.407   3.645  1.5829 -0.7223 -0.0311
 7060SOL     OW32812   1.078   3.209   1.858 -0.5269 -0.5085 -0.1416
 7060SOL    HW132813   0.997   3.172   1.824 -0.4870 -0.9511  0.2449
 7060SOL    HW232814   1.104   3.260   1.780 -1.5512 -1.3970 -1.0508
 7061SOL     OW32815   0.845   3.481   8.930  0.6065 -0.5517 -0.1522
 7061SOL    HW132816   0.802   3.564   8.908  0.7255 -0.5064 -0.2169
 7061SOL    HW232817   0.903   3.515   8.998 -1.9306  1.9227  0.7646
 7062SOL     OW32818   1.661   3.036  10.053 -0.1852  0.6141  0.1187
 7062SOL    HW132819   1.592   3.091  10.017 -2.4134 -2.0931  0.2423
 7062SOL    HW232820   1.613   2.962  10.091 -0.4319  1.8412  2.2049
 7063SOL     OW32821   4.287   2.678   1.630 -0.3348 -0.1534  0.1963
 7063SOL    HW132822   4.360   2.628   1.668 -0.0207  0.5063  0.4461
 7063SOL    HW232823   4.211   2.643   1.676 -1.5794 -0.2241 -1.9138
 7064SOL     OW32824   1.899   4.135   9.006 -0.0628 -0.2345  0.0135
 7064SOL    HW132825   1.956   4.197   8.960  1.7253 -2.6921 -1.0601
 7064SOL    HW232826   1.844   4.114   8.931 -0.6722 -1.5470  0.8221
 7065SOL     OW32827   0.214   2.237   6.392  0.0093  0.4997 -0.1023
 7065SOL    HW132828   0.283   2.303   6.390  2.0362 -1.5592  1.5747
 7065SOL    HW232829   0.175   2.265   6.310  0.2780 -2.3265 -1.1984
 7066SOL     OW32830   0.136   3.830   6.836 -0.0729 -0.4361  0.0333
 7066SOL    HW132831   0.118   3.791   6.921  2.0707  0.3971  0.8674
 7066SOL    HW232832   0.045   3.836   6.806 -0.4899 -1.5521  1.0716
 7067SOL     OW32833   0.161   0.133   7.732  0.3973  0.0330  0.6416
 7067SOL    HW132834   0.250   0.148   7.701  0.3546 -1.0353 -0.0098
 7067SOL    HW232835   0.182   0.097   7.818 -0.8683 -0.1741  0.8640
 7068SOL     OW32836   4.643   3.527   2.757 -0.1451  0.4671 -0.0708
 7068SOL    HW132837   4.638   3.483   2.841  0.5769  1.1078  0.3097
 7068SOL    HW232838   4.669   3.453   2.702  0.3870  0.3455  0.3468
 7069SOL     OW32839   4.045   2.794   2.418 -0.0042  0.2097  0.5319
 7069SOL    HW132840   4.105   2.755   2.355 -0.2551 -1.0831  1.0877
 7069SOL    HW232841   3.991   2.860   2.374 -3.0852 -2.0104  1.0041
 7070SOL     OW32842   3.989   3.245   4.622  0.2726 -0.4732 -0.5635
 7070SOL    HW132843   4.051   3.262   4.552 -0.2398  0.7589 -0.7135
 7070SOL    HW232844   4.047   3.204   4.686  0.5181 -0.8251 -1.0101
 7071SOL     OW32845   4.535   2.817   6.381 -0.3570  0.1475 -0.5358
 7071SOL    HW132846   4.442   2.819   6.361 -0.1160 -2.0696 -1.7850
 7071SOL    HW232847   4.563   2.754   6.315 -0.5017 -1.0506  0.5464
 7072SOL     OW32848   3.696   3.728   2.453  0.6902  0.0404  0.1596
 7072SOL    HW132849   3.612   3.772   2.436  0.7945  0.4699  0.7801
 7072SOL    HW232850   3.671   3.645   2.411  0.6324  1.1501 -2.0104
 7073SOL     OW32851   1.816   4.456   5.621  0.5602 -0.0152 -0.1203
 7073SOL    HW132852   1.733   4.442   5.574  1.5865  2.3660 -2.6753
 7073SOL    HW232853   1.847   4.366   5.616 -0.7513 -0.3194 -2.9760
 7074SOL     OW32854   3.314   0.591   7.183 -0.3337  0.2787 -0.2701
 7074SOL    HW132855   3.398   0.631   7.204  0.0594 -0.5912 -0.1966
 7074SOL    HW232856   3.309   0.593   7.087  1.6794 -0.7856 -0.4084
 7075SOL     OW32857   4.515   0.564   4.475  0.3431  0.3005 -0.1895
 7075SOL    HW132858   4.528   0.627   4.405 -0.4667 -0.0112 -0.6238
 7075SOL    HW232859   4.599   0.565   4.520 -1.1630 -0.8931  2.6927
 7076SOL     OW32860   0.096   0.010   8.616 -0.2410 -0.3411 -0.1794
 7076SOL    HW132861   0.138   0.087   8.579  3.6824 -2.8580 -0.9567
 7076SOL    HW232862   0.056   4.707   8.537 -1.6858 -0.9559  0.8281
 7077SOL     OW32863   2.536   0.248   1.954 -0.3494 -0.3640  0.1312
 7077SOL    HW132864   2.590   0.327   1.963 -4.5671  2.5206 -0.2866
 7077SOL    HW232865   2.450   0.274   1.985  0.1229  2.4833 -0.8999
 7078SOL     OW32866   1.675   3.580   1.392 -0.3931 -0.3860 -0.2503
 7078SOL    HW132867   1.765   3.558   1.367  0.1035  1.0625  0.2509
 7078SOL    HW232868   1.639   3.559   1.305 -0.5237  1.1585 -0.5689
 7079SOL     OW32869   3.881   0.750   8.650  0.6116  0.3460  0.4160
 7079SOL    HW132870   3.834   0.825   8.687 -0.5356 -0.2810  0.2353
 7079SOL    HW232871   3.810   0.726   8.591 -0.2226 -0.4335  1.7123
 7080SOL     OW32872   2.880   3.630   7.432 -0.5949 -0.1090 -0.2799
 7080SOL    HW132873   2.846   3.685   7.362 -1.9630 -0.1155  0.3757
 7080SOL    HW232874   2.950   3.586   7.384 -0.3643  4.1217 -3.7941
 7081SOL     OW32875   4.206   1.548   5.322  0.7614 -0.5313 -0.1683
 7081SOL    HW132876   4.294   1.582   5.304  0.0264  1.1634 -0.5907
 7081SOL    HW232877   4.206   1.561   5.417  3.0650  2.0301 -0.5248
 7082SOL     OW32878   4.519   4.463   5.424  0.2274 -0.0414  0.4829
 7082SOL    HW132879   4.487   4.480   5.335  0.1300  2.0622  0.9279
 7082SOL    HW232880   4.561   4.546   5.443  2.2025 -1.0116  0.3280
 7083SOL     OW32881   4.648   3.020   5.795 -0.8674  0.0973 -0.0864
 7083SOL    HW132882   4.573   3.080   5.790 -0.1417  1.0195  0.0082
 7083SOL    HW232883   4.656   3.026   5.890  1.0822  0.1530 -0.2524
 7084SOL     OW32884   3.670   1.371   0.160  0.2908  0.1611 -0.3763
 7084SOL    HW132885   3.746   1.428   0.170 -0.9510  1.2417  2.7921
 7084SOL    HW232886   3.628   1.415   0.086 -1.4670 -0.4227  0.2855
 7085SOL     OW32887   1.831   3.529   7.060 -0.4213  0.1089 -0.3994
 7085SOL    HW132888   1.878   3.538   7.143 -1.5995  0.2186  0.2569
 7085SOL    HW232889   1.882   3.585   7.002  0.0346 -0.0455 -0.1472
 7086SOL     OW32890   1.758   2.849  15.509 -0.7794  0.5103  0.0700
 7086SOL    HW132891   1.713   2.774  15.549  0.9362 -0.3237  0.4011
 7086SOL    HW232892   1.712   2.917  15.559  1.9847  1.8388  0.7899
 7087SOL     OW32893   3.324   3.988   5.364 -0.2852  0.2715 -0.0621
 7087SOL    HW132894   3.336   4.082   5.368 -0.9502  0.3065  1.0752
 7087SOL    HW232895   3.382   3.955   5.432  0.9242 -0.0772 -1.2768
 7088SOL     OW32896   1.903   2.405   1.634 -0.2772 -0.0790  0.1387
 7088SOL    HW132897   1.951   2.472   1.684 -0.9440  1.4101 -1.2129
 7088SOL    HW232898   1.817   2.446   1.629  0.2011  1.0878  1.3322
 7089SOL     OW32899   2.478   3.656   0.478 -0.3088 -0.6236 -0.4294
 7089SOL    HW132900   2.395   3.624   0.511 -0.7384 -0.0108 -0.9158
 7089SOL    HW232901   2.553   3.600   0.500 -1.1506 -2.2206 -1.6401
 7090SOL     OW32902   3.089   3.227   3.048  0.2249 -0.5274  0.2245
 7090SOL    HW132903   2.994   3.240   3.041 -0.0298 -1.3854  2.2212
 7090SOL    HW232904   3.097   3.192   3.137  0.3437 -1.1360 -0.0323
 7091SOL     OW32905   0.424   3.981   5.011  0.3343 -0.0018  0.0069
 7091SOL    HW132906   0.389   3.947   5.093 -0.7348 -2.8325 -1.6385
 7091SOL    HW232907   0.401   4.074   5.017 -1.1158 -0.3395 -0.3638
 7092SOL     OW32908   0.890   2.830   6.510  0.4400  0.0429 -0.3341
 7092SOL    HW132909   0.868   2.913   6.553  0.2841  0.3816 -1.0745
 7092SOL    HW232910   0.947   2.855   6.437 -1.3307 -0.1269 -1.7615
 7093SOL     OW32911   0.776   3.283   7.561  0.1629  0.3177  0.0071
 7093SOL    HW132912   0.844   3.220   7.539 -0.2412 -0.2209  0.3104
 7093SOL    HW232913   0.730   3.243   7.634  0.9525 -0.5369  0.0393
 7094SOL     OW32914   2.191   3.029   2.696  0.5718  0.0691  0.6448
 7094SOL    HW132915   2.272   3.054   2.740  1.2294 -1.6203  0.3863
 7094SOL    HW232916   2.139   3.108   2.708  1.3453  0.7816 -0.7504
 7095SOL     OW32917   2.697   3.373  13.196  0.0566 -0.0230 -0.1706
 7095SOL    HW132918   2.733   3.440  13.137  1.1023  0.6667  1.2692
 7095SOL    HW232919   2.603   3.369  13.175  0.2872 -0.2770 -1.1622
 7096SOL     OW32920   2.692   0.027  12.567 -0.0889 -0.0666  0.0356
 7096SOL    HW132921   2.691   0.083  12.489  1.0344  0.6519  0.5467
 7096SOL    HW232922   2.674   4.677  12.528  0.5059 -0.4117  0.5104
 7097SOL     OW32923   4.266   4.339   4.944  0.7292  0.7954 -0.4882
 7097SOL    HW132924   4.181   4.318   4.906  0.0025 -0.0329  1.6095
 7097SOL    HW232925   4.309   4.254   4.931 -1.6448 -0.6884  1.2304
 7098SOL     OW32926   0.474   3.164   6.944 -0.3741 -0.3468  0.0683
 7098SOL    HW132927   0.427   3.082   6.960 -0.3506 -0.0559  1.6570
 7098SOL    HW232928   0.418   3.224   6.993  0.7681 -0.5539  1.6336
 7099SOL     OW32929   1.307   3.012   5.611  0.5586 -0.3047  0.2312
 7099SOL    HW132930   1.212   3.012   5.600  0.3230  1.3493  2.1846
 7099SOL    HW232931   1.341   3.009   5.522 -2.2907 -1.6360 -0.8177
 7100SOL     OW32932   1.155   0.689   8.609  0.0277 -0.1995  0.0562
 7100SOL    HW132933   1.095   0.753   8.569 -1.2503 -1.2746  0.2785
 7100SOL    HW232934   1.220   0.681   8.539 -1.3017  0.8932 -1.3310
 7101SOL     OW32935   1.294   0.772   2.862 -0.0045  0.7483  0.2775
 7101SOL    HW132936   1.286   0.867   2.872 -1.6516  0.4459  1.9152
 7101SOL    HW232937   1.386   0.758   2.840 -0.5177 -0.7569 -0.8960
 7102SOL     OW32938   1.075   2.054   1.523 -0.0775 -0.3369 -0.3539
 7102SOL    HW132939   1.093   2.071   1.430 -2.1858  2.2281 -0.2757
 7102SOL    HW232940   1.033   2.136   1.549  0.5458  0.0044 -0.4127
 7103SOL     OW32941   1.634   4.185   2.776 -0.0729  0.3102 -0.2357
 7103SOL    HW132942   1.675   4.267   2.804  0.2927  0.2904 -0.7042
 7103SOL    HW232943   1.582   4.170   2.855 -0.8091  1.5926 -0.4679
 7104SOL     OW32944   3.762   3.148   9.621  0.1310 -0.2933  0.0879
 7104SOL    HW132945   3.790   3.069   9.574  1.5669  1.0125 -1.2839
 7104SOL    HW232946   3.792   3.222   9.568  0.9583  0.4457  1.6042
 7105SOL     OW32947   3.846   1.407   2.970 -0.3348  0.0108  0.1261
 7105SOL    HW132948   3.890   1.476   3.019 -1.3322  0.9604 -0.3296
 7105SOL    HW232949   3.914   1.344   2.945  0.5004  0.1401  2.1133
 7106SOL     OW32950   3.490   1.230   5.720  0.7947  0.2140  0.5337
 7106SOL    HW132951   3.497   1.138   5.695  0.9357 -0.0494  1.5178
 7106SOL    HW232952   3.397   1.246   5.702  0.7943  0.3740  0.6820
 7107SOL     OW32953   0.257   0.718   8.368 -0.6159  0.6319 -0.4455
 7107SOL    HW132954   0.185   0.668   8.330  0.0884 -2.0948  1.7363
 7107SOL    HW232955   0.270   0.670   8.450  0.5823  1.1500 -0.3345
 7108SOL     OW32956   2.486   1.525   5.961  0.1993  0.2018 -0.0461
 7108SOL    HW132957   2.402   1.504   6.004  0.2456 -0.2015 -0.1525
 7108SOL    HW232958   2.541   1.453   5.994  0.4276  1.6657  2.8112
 7109SOL     OW32959   3.730   4.101  14.179  0.1486 -0.4281 -0.1320
 7109SOL    HW132960   3.656   4.075  14.234  1.1260 -0.8447  0.9940
 7109SOL    HW232961   3.785   4.145  14.244  0.2750 -1.5860  0.5554
 7110SOL     OW32962   3.551   1.020   6.439 -0.0094  0.1480 -0.7080
 7110SOL    HW132963   3.611   0.992   6.370  0.3487 -1.5397  0.2923
 7110SOL    HW232964   3.608   1.086   6.480  0.4608 -0.2011 -0.8036
 7111SOL     OW32965   4.697   0.175   6.725 -0.5477  0.1412  0.0344
 7111SOL    HW132966   4.711   0.102   6.786  0.2948 -1.1797 -1.7272
 7111SOL    HW232967   4.719   0.258   6.768  0.4870  0.9856 -2.1465
 7112SOL     OW32968   4.112   0.465  14.316 -0.3667  0.0979 -0.1793
 7112SOL    HW132969   4.202   0.453  14.345 -1.9254 -2.5442  3.5425
 7112SOL    HW232970   4.059   0.479  14.394  1.1590  0.6192  0.7513
 7113SOL     OW32971   4.209   2.156   3.013 -0.8154  0.2352  0.3173
 7113SOL    HW132972   4.145   2.091   3.041  0.2104 -1.0680 -0.3499
 7113SOL    HW232973   4.268   2.169   3.087  0.2788  0.3097 -0.5748
 7114SOL     OW32974   1.398   4.395   8.957  0.3237 -0.2401 -0.1356
 7114SOL    HW132975   1.356   4.316   8.992  2.3596 -0.2921  2.1808
 7114SOL    HW232976   1.324   4.456   8.952  1.3183  1.0349  0.8539
 7115SOL     OW32977   0.502   1.911   4.207  0.1581  0.1175  0.1977
 7115SOL    HW132978   0.485   1.847   4.276  0.2910  2.0814  2.0512
 7115SOL    HW232979   0.597   1.927   4.211  0.2231 -0.1612 -0.1670
 7116SOL     OW32980   0.999   2.254   7.865  0.0471 -0.3753 -0.1463
 7116SOL    HW132981   0.998   2.345   7.835 -1.2661 -0.3877 -0.1486
 7116SOL    HW232982   0.941   2.213   7.802  0.3134 -0.6693 -0.2007
 7117SOL     OW32983   1.166   3.613  14.748 -0.3839  0.0517  0.0487
 7117SOL    HW132984   1.162   3.584  14.657 -1.3459  0.3844 -0.0171
 7117SOL    HW232985   1.160   3.709  14.750  1.7746  0.1650  0.5629
 7118SOL     OW32986   4.029   1.828   2.712 -0.1537  0.0614 -0.4003
 7118SOL    HW132987   3.984   1.871   2.785  0.5427  2.3841 -1.3580
 7118SOL    HW232988   4.046   1.742   2.751 -1.9206 -0.0839  0.0560
 7119SOL     OW32989   3.570   4.431   5.502 -0.0347 -0.2141  0.5879
 7119SOL    HW132990   3.586   4.458   5.593 -0.6995 -2.0725  1.2490
 7119SOL    HW232991   3.643   4.372   5.483  0.6474  0.7600  0.1677
 7120SOL     OW32992   0.752   2.369   2.732 -0.1962  0.2860 -0.1173
 7120SOL    HW132993   0.832   2.417   2.749  1.0262 -1.8839  0.2031
 7120SOL    HW232994   0.787   2.282   2.715 -0.4886  0.1455 -0.0143
 7121SOL     OW32995   1.322   1.218   6.684 -0.1068  0.1046  0.5361
 7121SOL    HW132996   1.368   1.244   6.764  1.6729 -0.1920 -0.3796
 7121SOL    HW232997   1.392   1.197   6.621 -0.2209 -0.0681  0.4666
 7122SOL     OW32998   3.676   2.197   7.370 -0.5836  0.5503 -0.1294
 7122SOL    HW132999   3.620   2.268   7.340 -3.4909 -1.0953  1.4144
 7122SOL    HW233000   3.734   2.196   7.294  0.7681  1.0389  0.8804
 7123SOL     OW33001   0.216   0.831   6.546  0.0002 -0.3775  0.4324
 7123SOL    HW133002   0.160   0.789   6.481 -2.1119 -0.7371  2.4844
 7123SOL    HW233003   0.160   0.907   6.559  1.1093  0.3859  0.7680
 7124SOL     OW33004   4.532   0.568   9.553  0.0254  0.0584  0.2929
 7124SOL    HW133005   4.602   0.629   9.530 -0.1469  0.6709  1.4032
 7124SOL    HW233006   4.521   0.521   9.470 -1.5792  0.9875 -0.0251
 7125SOL     OW33007   3.625   3.254  13.525 -0.1283 -0.3527  0.1967
 7125SOL    HW133008   3.556   3.219  13.582 -0.6786  1.0408  0.3971
 7125SOL    HW233009   3.629   3.186  13.458  0.3832  1.1915 -1.3207
 7126SOL     OW33010   3.903   3.950   7.546 -0.1586 -0.3504  0.5665
 7126SOL    HW133011   3.817   3.967   7.508  0.7497 -0.5153 -1.5591
 7126SOL    HW233012   3.894   3.991   7.632 -2.7311  0.5126 -0.1056
 7127SOL     OW33013   0.742   3.286   5.708 -0.2820  0.4256  0.3139
 7127SOL    HW133014   0.658   3.258   5.744 -0.6553 -0.5490 -1.3364
 7127SOL    HW233015   0.752   3.377   5.737  0.3116  0.2212  0.7619
 7128SOL     OW33016   0.782   1.040   6.422  0.4549  0.0812  0.7116
 7128SOL    HW133017   0.729   1.005   6.494 -0.9160  0.3889 -0.1599
 7128SOL    HW233018   0.735   0.996   6.352 -0.6817 -2.2739  2.9659
 7129SOL     OW33019   2.348   2.025  15.514 -0.9834  0.5816 -0.9195
 7129SOL    HW133020   2.402   1.989  15.444 -0.6377 -0.0706 -0.3099
 7129SOL    HW233021   2.361   1.955  15.578 -0.6769 -0.0203 -1.6352
 7130SOL     OW33022   4.437   1.726   6.977  0.9531 -0.2868  0.3439
 7130SOL    HW133023   4.485   1.674   7.042  0.2856 -3.0649 -1.3981
 7130SOL    HW233024   4.347   1.717   7.009  0.7814 -0.4342 -0.1919
 7131SOL     OW33025   2.742   3.088  17.694 -0.2630 -0.4138 -0.5354
 7131SOL    HW133026   2.706   3.175  17.679  0.1148  0.1092  1.5537
 7131SOL    HW233027   2.730   3.077   0.051 -1.3457 -0.6005 -0.6975
 7132SOL     OW33028   0.816   0.486   7.427 -0.6950  0.5321  0.2899
 7132SOL    HW133029   0.726   0.478   7.396 -0.9358  2.3153  0.5164
 7132SOL    HW233030   0.799   0.580   7.440 -1.1657  0.4750  0.0645
 7133SOL     OW33031   0.238   2.099  10.132 -0.2186 -0.0100  0.1231
 7133SOL    HW133032   0.326   2.126  10.157 -0.3470  0.0751  0.4867
 7133SOL    HW233033   0.187   2.115  10.211 -0.1306  0.5075  0.0783
 7134SOL     OW33034   1.198   3.121  16.952  0.2705 -0.4258  0.5236
 7134SOL    HW133035   1.190   3.025  16.955 -2.7775 -0.1922 -0.3994
 7134SOL    HW233036   1.142   3.146  16.878  2.2476 -0.9110 -1.1472
 7135SOL     OW33037   4.344   4.175   9.907 -0.1706 -0.0780  0.0920
 7135SOL    HW133038   4.332   4.103   9.846 -0.9741 -1.3543  1.7479
 7135SOL    HW233039   4.301   4.145   9.988  1.3312  0.0544  0.9440
 7136SOL     OW33040   3.764   4.485   9.627 -0.0709  0.1449 -0.3527
 7136SOL    HW133041   3.779   4.524   9.714  0.0434  0.7385 -0.6379
 7136SOL    HW233042   3.705   4.413   9.649 -0.5939 -0.7061 -4.7084
 7137SOL     OW33043   1.358   0.385   8.980  0.2474  0.1901 -0.4988
 7137SOL    HW133044   1.268   0.402   9.010  0.4352 -1.4439  0.9825
 7137SOL    HW233045   1.376   0.456   8.918  1.6049 -0.3064 -0.6460
 7138SOL     OW33046   1.179   3.314  10.917  0.0372  0.6246 -0.4757
 7138SOL    HW133047   1.184   3.391  10.860 -0.2794  0.2704 -0.9779
 7138SOL    HW233048   1.109   3.337  10.977  0.1431  2.6138 -1.1019
 7139SOL     OW33049   2.969   0.405   6.679 -0.2023  0.0249  0.1716
 7139SOL    HW133050   2.980   0.499   6.692 -1.6682 -0.2551  3.2162
 7139SOL    HW233051   3.054   0.386   6.638 -0.0828 -0.0527  0.4589
 7140SOL     OW33052   2.971   3.653   5.765  0.0837 -0.3929  0.1549
 7140SOL    HW133053   2.876   3.661   5.774  0.5296  3.3456  1.6430
 7140SOL    HW233054   2.994   3.719   5.699 -2.1439  1.2390  0.9978
 7141SOL     OW33055   3.895   2.554   9.738 -0.4083 -0.3757  0.1391
 7141SOL    HW133056   3.985   2.565   9.769 -0.6316  2.0650 -0.0661
 7141SOL    HW233057   3.850   2.617   9.795 -1.2371 -0.3224 -0.5647
 7142SOL     OW33058   3.386   2.531   5.417 -0.7580  0.5394  0.1105
 7142SOL    HW133059   3.413   2.445   5.448  1.3035  0.8627 -0.7501
 7142SOL    HW233060   3.403   2.580   5.498 -2.0206 -0.1202  0.7616
 7143SOL     OW33061   1.205   0.268   2.238  0.0617 -0.0642  0.0786
 7143SOL    HW133062   1.278   0.220   2.278  1.7006  0.4147 -2.3263
 7143SOL    HW233063   1.175   0.200   2.177 -0.4175 -0.8607  1.1982
 7144SOL     OW33064   4.616   0.792   7.046  0.0912  0.9036  0.4950
 7144SOL    HW133065   4.651   0.866   7.096  1.0781 -0.2999  1.5727
 7144SOL    HW233066   4.615   0.825   6.956  0.2754 -2.1917 -0.6226
 7145SOL     OW33067   0.899   0.131  11.337  0.1275 -0.5519 -0.5935
 7145SOL    HW133068   0.916   0.037  11.345 -0.2891 -0.6116 -0.3818
 7145SOL    HW233069   0.806   0.132  11.313  0.5433 -1.1703 -2.2401
 7146SOL     OW33070   1.235   1.043   2.384  0.3505 -0.3369 -0.5725
 7146SOL    HW133071   1.196   0.956   2.386  0.1488 -0.1563  3.0870
 7146SOL    HW233072   1.267   1.058   2.473  0.4194 -2.4251 -0.2499
 7147SOL     OW33073   2.144   2.214   6.156 -0.8706 -0.5136  0.4828
 7147SOL    HW133074   2.075   2.156   6.189  1.1926 -2.8832  0.6131
 7147SOL    HW233075   2.227   2.173   6.182  0.1199 -1.5878 -4.3307
 7148SOL     OW33076   3.999   3.328  17.312 -0.2862 -0.3447 -0.2163
 7148SOL    HW133077   4.083   3.370  17.331  0.9561 -2.4689 -1.0802
 7148SOL    HW233078   3.960   3.347  17.397 -0.9596 -1.2394 -0.3302
 7149SOL     OW33079   4.238   4.451   4.471  0.5202  0.5223 -0.3120
 7149SOL    HW133080   4.312   4.442   4.531  0.8484 -1.0052 -0.9509
 7149SOL    HW233081   4.273   4.517   4.411  3.2549 -1.3015 -0.7535
 7150SOL     OW33082   4.251   2.794  11.294 -0.6013 -0.2709 -0.0529
 7150SOL    HW133083   4.165   2.751  11.297 -1.2422  1.3331  3.7951
 7150SOL    HW233084   4.229   2.881  11.261 -0.3006 -0.4154 -0.6346
 7151SOL     OW33085   0.481   4.238   1.832 -0.4269  0.3461  0.1079
 7151SOL    HW133086   0.409   4.223   1.894  1.7744 -2.0962  2.0865
 7151SOL    HW233087   0.427   4.279   1.764 -0.4618  2.7307  1.5578
 7152SOL     OW33088   3.323   2.600   4.623  0.1595  0.8955  0.0014
 7152SOL    HW133089   3.252   2.639   4.675  1.7667  2.6531  0.8665
 7152SOL    HW233090   3.364   2.558   4.698  1.2645  0.5419 -0.8084
 7153SOL     OW33091   4.204   1.506   7.792  0.3671 -0.2805  0.1836
 7153SOL    HW133092   4.222   1.416   7.821 -1.2613 -0.7660 -0.3047
 7153SOL    HW233093   4.212   1.505   7.696  1.7603 -2.2153  0.2971
 7154SOL     OW33094   2.272   4.243  13.667  0.2324 -0.1802  0.5086
 7154SOL    HW133095   2.224   4.160  13.670 -2.7123  1.4893 -0.8972
 7154SOL    HW233096   2.211   4.311  13.639  1.1888  0.0832 -0.9208
 7155SOL     OW33097   2.557   2.636   3.759 -0.3424 -0.4127  0.1459
 7155SOL    HW133098   2.608   2.578   3.702 -0.1293 -1.3947  1.3270
 7155SOL    HW233099   2.536   2.701   3.693  1.5508  0.8905  0.8494
 7156SOL     OW33100   0.061   4.542   7.464  0.6821 -0.2290  0.1272
 7156SOL    HW133101   0.029   4.506   7.382  2.3079  0.0060 -0.6219
 7156SOL    HW233102   0.143   4.582   7.434  0.7622 -1.6925 -1.6003
 7157SOL     OW33103   1.295   3.725   1.491 -0.2340 -0.0237  0.0379
 7157SOL    HW133104   1.281   3.780   1.568  1.8106 -1.0864  1.1899
 7157SOL    HW233105   1.278   3.786   1.418  2.4079  0.3346 -0.2881
 7158SOL     OW33106   1.581   4.201   5.686  0.1319  0.1467 -0.1993
 7158SOL    HW133107   1.551   4.255   5.758 -0.4297  1.5712 -1.5066
 7158SOL    HW233108   1.502   4.148   5.696 -0.1695  0.7504  0.5527
 7159SOL     OW33109   3.027   0.803   5.466  0.0401 -0.0522  0.7902
 7159SOL    HW133110   3.070   0.883   5.496  0.0857  0.4823 -0.7452
 7159SOL    HW233111   2.975   0.779   5.543  0.6245 -1.1898  0.8246
 7160SOL     OW33112   3.824   3.660  15.805 -0.5531  1.0045  0.1999
 7160SOL    HW133113   3.764   3.734  15.800 -0.6586  0.8411 -0.8610
 7160SOL    HW233114   3.856   3.654  15.715  3.1586  1.5168  1.4835
 7161SOL     OW33115   2.811   3.732   4.107  0.0732 -0.4250 -0.6618
 7161SOL    HW133116   2.859   3.813   4.123  0.6366 -1.0792  0.9558
 7161SOL    HW233117   2.846   3.666   4.168  2.4855  0.5703 -0.9942
 7162SOL     OW33118   0.800   0.581  10.701  0.3381 -0.2812  0.4238
 7162SOL    HW133119   0.750   0.615  10.627  2.5522  1.0921 -0.4343
 7162SOL    HW233120   0.784   0.647  10.768  0.3888 -0.1246  0.2803
 7163SOL     OW33121   1.125   0.260  14.200  0.2745  0.0676 -0.0551
 7163SOL    HW133122   1.036   0.227  14.187 -0.2236  1.8803 -1.3051
 7163SOL    HW233123   1.119   0.348  14.162 -0.0339 -0.6413 -1.6472
 7164SOL     OW33124   3.617   2.791  10.177  0.1832  0.4569  0.2356
 7164SOL    HW133125   3.571   2.740  10.243  1.1164 -2.2191 -1.1849
 7164SOL    HW233126   3.542   2.811  10.120 -2.4104 -0.4289  3.3419
 7165SOL     OW33127   2.600   3.258  15.537  0.5767 -0.2827 -0.0915
 7165SOL    HW133128   2.516   3.245  15.492  0.4262 -2.3373  0.8021
 7165SOL    HW233129   2.575   3.262  15.629  1.1076  3.5051 -0.1142
 7166SOL     OW33130   3.415   1.172   5.410 -0.0400  0.6696 -0.2325
 7166SOL    HW133131   3.402   1.265   5.392  1.2606  0.2105 -3.5002
 7166SOL    HW233132   3.344   1.126   5.366  2.3119 -0.7132 -2.6018
 7167SOL     OW33133   3.877   3.737  16.584  0.4578  0.1879  0.5879
 7167SOL    HW133134   3.861   3.823  16.545  0.4106 -0.8913 -1.7869
 7167SOL    HW233135   3.798   3.717  16.634 -0.8494 -0.4037 -1.7195
 7168SOL     OW33136   0.344   1.801  11.981  0.2065 -0.3156  0.1529
 7168SOL    HW133137   0.356   1.724  11.925 -0.4287 -0.6365  0.4548
 7168SOL    HW233138   0.266   1.767  12.026  1.7435 -1.6641  1.8128
 7169SOL     OW33139   3.340   4.724   8.261 -0.0407 -0.1297  0.8792
 7169SOL    HW133140   3.417   4.678   8.228  0.0985  0.8400 -0.1516
 7169SOL    HW233141   3.384   0.059   8.309 -1.0445 -0.0341  1.6635
 7170SOL     OW33142   3.521   0.663  15.508 -0.4216  0.1392 -0.0856
 7170SOL    HW133143   3.552   0.573  15.512 -1.6253 -0.2789 -0.0349
 7170SOL    HW233144   3.567   0.709  15.578 -1.1725  0.6170  0.0961
 7171SOL     OW33145   2.537   1.491   3.333 -0.2769  0.0640  0.3199
 7171SOL    HW133146   2.506   1.400   3.329 -2.7862  0.9929 -1.4461
 7171SOL    HW233147   2.450   1.530   3.335  0.3871  1.5406  0.0663
 7172SOL     OW33148   4.303   0.249   3.536 -0.4477  0.6051  0.7597
 7172SOL    HW133149   4.227   0.303   3.517 -0.8574 -0.0705  0.4634
 7172SOL    HW233150   4.285   0.195   3.613  1.0569 -0.1082  0.6266
 7173SOL     OW33151   3.514   0.936   3.721  0.1857 -0.0767 -0.0454
 7173SOL    HW133152   3.505   0.991   3.799 -1.9662 -1.3483  0.5896
 7173SOL    HW233153   3.441   0.986   3.684  1.8141  1.5513 -1.0753
 7174SOL     OW33154   3.014   4.587  16.843 -0.3004  0.2348  0.2576
 7174SOL    HW133155   3.027   4.662  16.901  0.3424  1.7316 -1.8087
 7174SOL    HW233156   2.926   4.600  16.809  0.3693  2.6030 -0.5689
 7175SOL     OW33157   2.654   1.768  12.874 -0.0090 -0.3111 -0.4588
 7175SOL    HW133158   2.591   1.841  12.869  1.4484  0.9475 -0.3404
 7175SOL    HW233159   2.638   1.737  12.963 -2.7939  1.8663 -0.1866
 7176SOL     OW33160   0.599   0.060  16.001  0.1277 -0.3205  0.5632
 7176SOL    HW133161   0.632   4.711  15.968  0.2932  0.0038 -0.0897
 7176SOL    HW233162   0.682   0.100  16.025 -0.4346  0.6058  0.9803
 7177SOL     OW33163   2.976   0.688   6.605 -0.1973  1.0078  0.5925
 7177SOL    HW133164   2.908   0.739   6.561 -0.2811  1.3866  1.1596
 7177SOL    HW233165   3.009   0.757   6.663  0.4757  0.7023  0.5763
 7178SOL     OW33166   2.372   0.650   1.709  0.0414  0.0513  0.0711
 7178SOL    HW133167   2.398   0.743   1.713  0.1002  0.0123  0.5611
 7178SOL    HW233168   2.442   0.614   1.763 -2.7812 -2.7795  1.8028
 7179SOL     OW33169   3.324   3.855  14.776  0.0707  0.8083 -0.3795
 7179SOL    HW133170   3.403   3.841  14.828  1.1581  1.1232 -1.9653
 7179SOL    HW233171   3.357   3.825  14.692 -0.4460 -0.7350 -0.0332
 7180SOL     OW33172   1.316   3.612  11.115 -0.0811 -0.1568  0.4338
 7180SOL    HW133173   1.360   3.579  11.037  1.7571  1.7034  0.6870
 7180SOL    HW233174   1.392   3.621  11.173 -0.0164  1.9749  0.0344
 7181SOL     OW33175   4.665   4.648  14.481 -0.1062  0.0087 -0.4251
 7181SOL    HW133176   4.723   4.719  14.453  1.5321 -1.9947 -2.1233
 7181SOL    HW233177   4.584   4.698  14.471 -0.9545 -0.8431  2.0521
 7182SOL     OW33178   1.886   0.906  12.934  0.0662 -0.3356  0.6206
 7182SOL    HW133179   1.899   0.997  12.909  1.0935 -0.3359  1.1607
 7182SOL    HW233180   1.807   0.892  12.882  0.8035 -2.9110  0.1720
 7183SOL     OW33181   1.183   2.053   4.003 -0.2690  0.0574  0.3401
 7183SOL    HW133182   1.253   2.064   3.938 -1.3060  0.6013 -0.6797
 7183SOL    HW233183   1.114   2.090   3.948 -0.7920 -0.3099  0.7554
 7184SOL     OW33184   0.518   1.568   5.744 -0.8474  0.6476 -0.0816
 7184SOL    HW133185   0.562   1.486   5.765 -1.7024  0.7192  1.9847
 7184SOL    HW233186   0.442   1.529   5.701  0.8000 -0.9901 -1.4663
 7185SOL     OW33187   0.742   1.795   5.392  0.2964  0.2300  0.3696
 7185SOL    HW133188   0.755   1.771   5.484  1.3591  1.0179  0.4284
 7185SOL    HW233189   0.824   1.840   5.372  0.8160 -0.6968  0.3845
 7186SOL     OW33190   3.989   3.691   7.564 -0.6296 -0.5077 -0.4413
 7186SOL    HW133191   3.961   3.781   7.547 -0.6793 -0.7610 -1.6778
 7186SOL    HW233192   4.031   3.703   7.649 -1.6202  0.3069 -0.0577
 7187SOL     OW33193   0.007   1.505   8.845 -0.3956 -0.1950 -0.1748
 7187SOL    HW133194   4.671   1.549   8.797 -0.3207  0.3436  0.2066
 7187SOL    HW233195   0.003   1.564   8.920 -1.6160  0.7401 -0.9643
 7188SOL     OW33196   2.054   3.831   2.943 -0.0857  0.3432  0.4299
 7188SOL    HW133197   1.970   3.875   2.926 -0.3860 -1.2364 -2.2473
 7188SOL    HW233198   2.073   3.780   2.864  1.6090  0.3022  0.8819
 7189SOL     OW33199   1.637   2.924   5.896 -0.1433  0.0961 -0.2365
 7189SOL    HW133200   1.557   2.942   5.945  1.2530  2.4247  1.2146
 7189SOL    HW233201   1.587   2.858   5.847 -1.4005  0.7214  0.1972
 7190SOL     OW33202   2.642   4.522   1.711  0.0905  0.1386  0.3228
 7190SOL    HW133203   2.605   4.459   1.648  1.7413  1.5200 -2.0318
 7190SOL    HW233204   2.567   4.537   1.769 -0.0292  1.8876 -0.3010
 7191SOL     OW33205   4.560   0.449  11.324 -0.1623  0.0602 -0.5369
 7191SOL    HW133206   4.550   0.391  11.248 -0.2989 -0.4557 -0.1321
 7191SOL    HW233207   4.654   0.442  11.338 -0.1073 -4.8761 -3.1963
 7192SOL     OW33208   0.286   1.177   5.427  0.2967  0.5305  0.2062
 7192SOL    HW133209   0.382   1.178   5.434  0.1008 -1.9522  2.8739
 7192SOL    HW233210   0.273   1.169   5.332  0.2666  2.0276  0.0701
 7193SOL     OW33211   1.871   4.443  15.489 -0.0919 -0.3528  0.2192
 7193SOL    HW133212   1.801   4.378  15.496  0.2635 -0.5626  1.7714
 7193SOL    HW233213   1.945   4.385  15.469 -1.2639 -0.8440 -2.7779
 7194SOL     OW33214   0.755   1.056   4.212 -0.4043 -0.0966 -0.5353
 7194SOL    HW133215   0.750   0.983   4.273  1.6082  0.6602  0.5312
 7194SOL    HW233216   0.774   1.000   4.137  0.0825 -1.3790  0.5533
 7195SOL     OW33217   0.965   3.865   2.487 -0.2625  0.7097 -0.5263
 7195SOL    HW133218   0.931   3.941   2.535 -1.4059  0.4419 -0.9195
 7195SOL    HW233219   1.059   3.882   2.489 -0.0992 -0.1985 -0.6131
 7196SOL     OW33220   2.715   0.686   3.751 -0.5759 -0.1117 -0.2957
 7196SOL    HW133221   2.671   0.703   3.834  0.5246 -0.8273  0.4334
 7196SOL    HW233222   2.794   0.738   3.764  0.1407 -0.9918 -1.0619
 7197SOL     OW33223   0.509   0.818   5.268 -0.0930  0.1894 -0.2310
 7197SOL    HW133224   0.506   0.722   5.261 -1.7788  0.1783  0.5391
 7197SOL    HW233225   0.508   0.827   5.363  1.4755 -4.3920  0.2279
 7198SOL     OW33226   3.886   1.470   7.795  0.1165 -0.1096 -0.2968
 7198SOL    HW133227   3.959   1.441   7.850  0.6621  0.3320 -0.7804
 7198SOL    HW233228   3.893   1.564   7.814  0.7472 -0.0300 -0.9025
 7199SOL     OW33229   1.870   2.692   3.258  0.2955  0.8539  1.0409
 7199SOL    HW133230   1.950   2.662   3.301  0.3629 -0.2038  0.1814
 7199SOL    HW233231   1.845   2.759   3.322 -2.2398 -1.4098  2.4450
 7200SOL     OW33232   1.932   2.072  11.748  0.1841 -0.2091 -0.2479
 7200SOL    HW133233   1.923   2.127  11.670 -0.4511 -1.1954 -0.8722
 7200SOL    HW233234   2.025   2.081  11.768 -0.3697  1.0719  1.7433
 7201SOL     OW33235   4.098   0.877   8.535  0.1742 -0.4165 -0.5208
 7201SOL    HW133236   4.037   0.807   8.557  0.3280 -0.6342 -0.7917
 7201SOL    HW233237   4.127   0.900   8.624 -0.8044  2.8466 -1.0481
 7202SOL     OW33238   3.955   4.048   9.273 -0.1857 -0.1912 -0.2567
 7202SOL    HW133239   3.971   4.112   9.205 -0.6603 -0.3271 -0.4930
 7202SOL    HW233240   3.893   3.989   9.230 -0.4216  0.5671 -0.9486
 7203SOL     OW33241   3.751   2.819   8.617  0.0300 -0.2447  0.8240
 7203SOL    HW133242   3.692   2.744   8.624  0.9167 -1.0605 -0.3810
 7203SOL    HW233243   3.731   2.870   8.695  2.3540  1.2891  0.4140
 7204SOL     OW33244   3.951   4.028   9.730  0.5075  0.2113  0.2395
 7204SOL    HW133245   3.916   3.978   9.804 -0.5362 -1.0209 -1.0957
 7204SOL    HW233246   3.970   4.110   9.776  0.1333  1.2433 -1.4273
 7205SOL     OW33247   3.300   0.977   6.948 -0.1040 -0.5477 -0.5026
 7205SOL    HW133248   3.386   0.944   6.975  0.5260  0.7945 -0.8733
 7205SOL    HW233249   3.324   1.061   6.909 -0.0036 -0.2641  0.1785
 7206SOL     OW33250   3.405   2.802  14.156 -0.1344  0.7763  0.1393
 7206SOL    HW133251   3.441   2.768  14.237 -0.7860 -1.7935 -0.6715
 7206SOL    HW233252   3.480   2.839  14.110  2.0539  0.8247  3.8351
 7207SOL     OW33253   1.072   4.433   0.586 -0.3736  0.0102 -0.2925
 7207SOL    HW133254   1.155   4.429   0.538  1.2708 -0.3856  2.6069
 7207SOL    HW233255   1.099   4.483   0.662  0.1470 -0.0507 -0.4331
 7208SOL     OW33256   0.876   2.071  10.905  0.3379 -0.1646 -0.3139
 7208SOL    HW133257   0.825   2.002  10.863 -0.6467 -1.3779  2.8706
 7208SOL    HW233258   0.853   2.046  10.995  1.4199  0.4164  0.1274
 7209SOL     OW33259   3.929   3.525   6.737  0.0551  0.4460  0.2799
 7209SOL    HW133260   3.846   3.566   6.762 -0.0866 -0.5082  1.3370
 7209SOL    HW233261   3.895   3.466   6.669 -1.0722  1.5560 -0.1165
 7210SOL     OW33262   1.659   3.804   3.318 -0.8279 -0.0858 -0.6224
 7210SOL    HW133263   1.655   3.745   3.393  1.4059  1.6471  0.8605
 7210SOL    HW233264   1.569   3.792   3.286 -1.7582  0.6863  1.7104
 7211SOL     OW33265   1.569   0.599   5.118  0.2078 -0.2038  0.3922
 7211SOL    HW133266   1.550   0.626   5.208  2.0125 -0.3876  0.8280
 7211SOL    HW233267   1.507   0.527   5.109 -0.9606  0.6383  1.6673
 7212SOL     OW33268   0.572   1.311   2.226  0.2018  0.1018 -0.2708
 7212SOL    HW133269   0.660   1.302   2.263  0.3347  1.0585 -0.3405
 7212SOL    HW233270   0.582   1.372   2.152 -0.3809  0.2548 -0.2266
 7213SOL     OW33271   4.411   3.552   3.833  0.3482  0.3178 -0.1131
 7213SOL    HW133272   4.414   3.503   3.751  1.0761  0.0195  0.0921
 7213SOL    HW233273   4.472   3.624   3.817  1.8847 -0.6422  1.4236
 7214SOL     OW33274   2.418   1.754   6.689  0.2983 -0.2903 -0.3654
 7214SOL    HW133275   2.345   1.801   6.649  0.5872 -2.8251 -3.8432
 7214SOL    HW233276   2.454   1.716   6.610 -0.9551 -0.6229 -0.7797
 7215SOL     OW33277   2.031   1.945   8.872 -0.3267  0.7477 -0.7003
 7215SOL    HW133278   2.112   1.899   8.896 -1.2650  0.6880  2.3586
 7215SOL    HW233279   2.074   2.023   8.839  0.3443 -0.1628 -2.0066
 7216SOL     OW33280   3.446   2.808   4.514  0.8338 -0.1286 -0.5753
 7216SOL    HW133281   3.519   2.821   4.575 -1.3924 -1.2599  2.3416
 7216SOL    HW233282   3.406   2.734   4.560 -1.4960  2.6167  1.8186
 7217SOL     OW33283   1.455   0.329   9.944  0.1692 -0.0592  0.2284
 7217SOL    HW133284   1.456   0.400  10.008 -0.7045 -0.9117  1.1981
 7217SOL    HW233285   1.524   0.357   9.884 -0.1639  3.6682  1.6186
 7218SOL     OW33286   2.183   4.281   1.832 -0.0237  0.1414 -0.2901
 7218SOL    HW133287   2.116   4.220   1.800  0.6225 -0.0604 -1.2554
 7218SOL    HW233288   2.240   4.229   1.889 -1.0036 -1.9829 -1.2272
 7219SOL     OW33289   1.902   4.662  12.904  0.4139  0.4055  0.5134
 7219SOL    HW133290   1.938   4.586  12.950 -0.7604 -0.5846 -0.2130
 7219SOL    HW233291   1.949   4.664  12.821  1.3981 -2.9950  0.9670
 7220SOL     OW33292   0.266   2.528   2.514  0.0808 -0.2373 -0.3738
 7220SOL    HW133293   0.355   2.562   2.531 -0.1923 -0.0424  0.6546
 7220SOL    HW233294   0.284   2.439   2.484 -1.2445  0.0007 -1.8503
 7221SOL     OW33295   0.505   4.591   6.029 -0.0994  0.3527 -0.1046
 7221SOL    HW133296   0.497   4.669   6.085  0.9049 -1.4780  2.6054
 7221SOL    HW233297   0.527   4.639   5.949  2.0878 -0.5126 -0.0201
 7222SOL     OW33298   2.978   2.631   9.621  0.1446 -0.4047  0.2737
 7222SOL    HW133299   2.945   2.563   9.681 -0.1023 -1.4035 -1.0000
 7222SOL    HW233300   2.901   2.654   9.570 -1.1121 -1.4199  1.6903
 7223SOL     OW33301   3.162   3.770   5.255 -0.1882  0.4319 -0.4725
 7223SOL    HW133302   3.206   3.842   5.299  1.3509  0.4067 -1.9861
 7223SOL    HW233303   3.188   3.700   5.315 -1.0662  2.0195  1.7690
 7224SOL     OW33304   3.727   1.879   1.116 -0.9849 -0.4208 -0.1240
 7224SOL    HW133305   3.690   1.808   1.063 -0.1014  0.9265 -2.5370
 7224SOL    HW233306   3.676   1.876   1.197  0.5786 -0.0896  0.8857
 7225SOL     OW33307   1.024   1.892   1.901 -0.7609  0.0575 -0.2053
 7225SOL    HW133308   1.010   1.861   1.812 -1.2651 -1.5270  0.4250
 7225SOL    HW233309   1.030   1.987   1.887 -2.2515  0.1837  0.0686
 7226SOL     OW33310   1.080   3.920   3.258  0.3975 -0.3812 -0.0587
 7226SOL    HW133311   1.067   3.923   3.353  1.7116  1.2106  0.0728
 7226SOL    HW233312   1.009   3.979   3.233  0.9142  0.2068 -0.1373
 7227SOL     OW33313   3.356   1.074  12.520 -0.0975  0.2534 -0.3257
 7227SOL    HW133314   3.347   1.037  12.432 -0.3040  0.5660 -0.4372
 7227SOL    HW233315   3.397   1.003  12.569 -0.0514  0.8216  0.4716
 7228SOL     OW33316   2.761   3.154   0.253 -0.1207  0.1401  1.0216
 7228SOL    HW133317   2.783   3.101   0.329 -0.8656  0.7681  1.6806
 7228SOL    HW233318   2.720   3.235   0.283 -0.7582  0.6822 -1.3704
 7229SOL     OW33319   3.705   2.482   2.398  0.5839 -0.4307 -0.0996
 7229SOL    HW133320   3.705   2.576   2.418 -1.4818 -0.6903  1.2119
 7229SOL    HW233321   3.767   2.477   2.326  0.8052  0.3031  0.0382
 7230SOL     OW33322   3.281   0.906  11.566  0.2679  0.2070 -0.1786
 7230SOL    HW133323   3.211   0.949  11.519  0.6218 -1.4117 -2.1562
 7230SOL    HW233324   3.233   0.857  11.633  0.4119  2.3945  1.5281
 7231SOL     OW33325   4.230   2.165   7.420  0.1677 -0.5781 -0.1625
 7231SOL    HW133326   4.255   2.248   7.461  1.0613 -0.3910 -1.0760
 7231SOL    HW233327   4.263   2.094   7.474 -1.7423 -0.1438  1.5848
 7232SOL     OW33328   2.998   0.115   4.839  0.4146  0.2825  0.2687
 7232SOL    HW133329   3.009   0.203   4.876 -0.1410  1.7893 -3.2015
 7232SOL    HW233330   3.021   0.057   4.911  2.4179 -0.8049 -1.2452
 7233SOL     OW33331   4.121   0.968   3.850 -0.7155 -0.4287 -0.0131
 7233SOL    HW133332   4.086   0.961   3.938 -1.1251  0.3070 -0.1142
 7233SOL    HW233333   4.045   0.998   3.799  0.9604  0.0994 -2.2178
 7234SOL     OW33334   4.469   2.393   4.254 -0.0527  0.1256 -0.2656
 7234SOL    HW133335   4.554   2.370   4.217 -0.1755 -1.0438  0.1740
 7234SOL    HW233336   4.499   2.430   4.337 -0.9970  1.3373 -0.4466
 7235SOL     OW33337   4.720   2.779   7.271 -0.4006  0.0376  0.7692
 7235SOL    HW133338   4.674   2.856   7.238 -0.5490  0.7680  2.6946
 7235SOL    HW233339   0.058   2.814   7.324  0.7178  1.4003 -1.6665
 7236SOL     OW33340   3.595   4.704   7.488 -0.7635 -0.0123  1.0468
 7236SOL    HW133341   3.567   0.040   7.431 -0.0642 -0.3289  0.3061
 7236SOL    HW233342   3.597   0.020   7.569 -1.0684  1.4005  0.1624
 7237SOL     OW33343   4.459   2.783   4.853 -0.5376  0.2957 -0.0904
 7237SOL    HW133344   4.551   2.792   4.877 -0.8248 -0.7009  1.3819
 7237SOL    HW233345   4.455   2.696   4.814 -1.8240  0.1367  0.3959
 7238SOL     OW33346   3.206   1.890   8.590  0.5900  0.2877  0.1239
 7238SOL    HW133347   3.200   1.964   8.529 -0.8452  0.7489  0.8022
 7238SOL    HW233348   3.137   1.833   8.557  0.0406  0.8486  0.2947
 7239SOL     OW33349   3.874   2.235   4.527  0.1681  0.2661  0.4516
 7239SOL    HW133350   3.874   2.162   4.590  0.4739 -0.5455 -0.4843
 7239SOL    HW233351   3.779   2.246   4.532  0.0764 -0.1836 -0.2548
 7240SOL     OW33352   4.323   2.395  14.952  0.0415  0.1572 -0.0233
 7240SOL    HW133353   4.374   2.417  14.874  0.5345 -1.2521 -0.0863
 7240SOL    HW233354   4.326   2.300  14.952 -0.0797  0.1530  0.3122
 7241SOL     OW33355   1.072   0.223   8.180  0.1473 -0.0462 -0.1430
 7241SOL    HW133356   1.037   0.286   8.117  0.2941 -0.5624 -0.7432
 7241SOL    HW233357   1.144   0.279   8.211  0.3364 -0.2654 -0.1882
 7242SOL     OW33358   0.225   0.594   4.285  0.5824  0.0886 -0.5794
 7242SOL    HW133359   0.213   0.519   4.226  1.9017 -0.3876 -0.2325
 7242SOL    HW233360   0.168   0.653   4.236 -0.4733  0.0818  0.6468
 7243SOL     OW33361   0.517   2.423  13.830 -0.3223 -0.1299  0.0333
 7243SOL    HW133362   0.555   2.335  13.840  1.9009  0.7521 -0.6373
 7243SOL    HW233363   0.524   2.419  13.735  0.8627 -1.1875  0.1591
 7244SOL     OW33364   0.526   0.176   0.799  0.0494  0.1909  0.7075
 7244SOL    HW133365   0.452   0.238   0.802  0.7070  1.0889 -2.2989
 7244SOL    HW233366   0.518   0.135   0.713 -0.0590 -0.3040  0.9528
 7245SOL     OW33367   1.726   1.940   5.897 -0.2612  0.5844  0.0006
 7245SOL    HW133368   1.635   1.930   5.925 -0.2654  0.4212 -0.0756
 7245SOL    HW233369   1.742   1.875   5.829  0.9655 -0.4759  1.2868
 7246SOL     OW33370   2.628   0.607   1.163 -0.0172  0.1061 -0.3127
 7246SOL    HW133371   2.616   0.537   1.098 -1.7708 -0.8036  0.9918
 7246SOL    HW233372   2.546   0.597   1.212  0.8866 -0.3629  1.0703
 7247SOL     OW33373   3.129   0.771   4.567  0.6180 -0.2307  0.9179
 7247SOL    HW133374   3.213   0.747   4.528 -0.3947 -0.0918 -1.3296
 7247SOL    HW233375   3.076   0.767   4.488  0.1293 -0.2445  1.2436
 7248SOL     OW33376   3.115   0.560   9.067  0.4315 -0.2803 -0.5228
 7248SOL    HW133377   3.107   0.627   9.000  1.9356  0.7810  0.3580
 7248SOL    HW233378   3.190   0.581   9.122 -0.7697  1.1453  0.5864
 7249SOL     OW33379   3.098   0.655   9.470  0.0499 -0.5654 -0.2231
 7249SOL    HW133380   3.185   0.688   9.492 -1.0889  2.7562 -0.6742
 7249SOL    HW233381   3.056   0.662   9.556  0.0512 -3.7168  0.0320
 7250SOL     OW33382   3.671   1.250  11.919  0.3962 -0.2717 -0.2677
 7250SOL    HW133383   3.666   1.262  11.824 -0.3034 -0.8657 -0.3054
 7250SOL    HW233384   3.684   1.341  11.945 -0.8243 -1.3383  3.9567
 7251SOL     OW33385   3.482   2.810   1.142 -0.0098  0.6311 -0.1925
 7251SOL    HW133386   3.486   2.738   1.205  2.0698  1.5050  0.6368
 7251SOL    HW233387   3.398   2.798   1.096  0.7032 -1.0716 -1.0548
 7252SOL     OW33388   2.479   2.277  11.619  0.0623  0.3603 -0.0922
 7252SOL    HW133389   2.489   2.365  11.584  0.7695 -0.8187 -2.9029
 7252SOL    HW233390   2.553   2.280  11.679  0.7519 -3.1108 -0.7710
 7253SOL     OW33391   2.853   1.815   5.389  0.2537  0.0174 -0.3709
 7253SOL    HW133392   2.798   1.789   5.462 -0.9698 -0.4736 -1.4842
 7253SOL    HW233393   2.938   1.842   5.426 -0.0315  0.1714  0.1758
 7254SOL     OW33394   3.777   4.269   0.773  0.5887 -0.6767 -0.1511
 7254SOL    HW133395   3.739   4.353   0.800 -0.7015 -1.1907 -0.3806
 7254SOL    HW233396   3.747   4.261   0.683  1.1496  1.7598 -0.5513
 7255SOL     OW33397   0.932   4.727   8.239 -0.3752 -0.2895  0.4863
 7255SOL    HW133398   1.000   4.661   8.249 -0.3164 -0.2363  0.4379
 7255SOL    HW233399   0.989   0.065   8.216 -0.4212 -1.0731 -2.1143
 7256SOL     OW33400   1.274   4.261   1.280  0.2280  0.4947  0.1031
 7256SOL    HW133401   1.184   4.230   1.290 -0.3443  2.1488  0.0123
 7256SOL    HW233402   1.316   4.199   1.339  0.6772  1.7775  1.1360
 7257SOL     OW33403   2.607   1.066   6.028 -0.0106 -0.1223  0.4206
 7257SOL    HW133404   2.538   1.037   5.967  1.7807  0.0219 -1.6832
 7257SOL    HW233405   2.683   1.017   5.998  0.6149  2.0642 -1.6058
 7258SOL     OW33406   2.418   4.071   3.132  0.1738 -0.3291 -0.0683
 7258SOL    HW133407   2.339   4.043   3.086  0.4697  1.6033 -1.7693
 7258SOL    HW233408   2.407   4.166   3.131  1.2938 -0.1971 -0.4230
 7259SOL     OW33409   1.215   1.611   8.733 -0.1460  0.0908  0.1168
 7259SOL    HW133410   1.210   1.546   8.663 -3.2113  1.3988 -0.8627
 7259SOL    HW233411   1.310   1.614   8.747  0.0037 -0.6073 -0.7788
 7260SOL     OW33412   3.786   2.916   5.803  0.2253  0.3665 -0.9793
 7260SOL    HW133413   3.720   2.954   5.744  0.5698  1.7409 -0.4783
 7260SOL    HW233414   3.855   2.978   5.780 -1.4053  1.8562 -1.9340
 7261SOL     OW33415   1.782   4.180   4.749  0.6229 -0.4221 -0.4059
 7261SOL    HW133416   1.863   4.133   4.768  0.1113 -1.4642 -0.8097
 7261SOL    HW233417   1.819   4.244   4.688 -0.0855 -0.6495 -1.0677
 7262SOL     OW33418   1.632   4.682   5.595  0.2915 -0.4456 -0.2482
 7262SOL    HW133419   1.650   4.602   5.546  1.3702  1.0127 -2.2411
 7262SOL    HW233420   1.619   4.647   5.683 -0.5041 -0.0169 -0.1963
 7263SOL     OW33421   0.530   1.480  10.093  0.0349  0.5337  0.2943
 7263SOL    HW133422   0.510   1.403  10.145  1.9930  1.6150  2.6446
 7263SOL    HW233423   0.446   1.515  10.066  0.4748  1.5282  0.2113
 7264SOL     OW33424   1.714   3.448   3.987 -0.2536 -0.2814  0.3412
 7264SOL    HW133425   1.659   3.392   4.042 -0.0103 -1.7148 -0.8799
 7264SOL    HW233426   1.708   3.519   4.051 -0.2207  1.0829 -1.1777
 7265SOL     OW33427   3.438   3.397   7.875  0.4025 -0.0582  0.1960
 7265SOL    HW133428   3.486   3.389   7.957  1.0937 -2.1177 -0.3942
 7265SOL    HW233429   3.363   3.343   7.901  0.5881 -0.8587 -0.9213
 7266SOL     OW33430   0.423   4.467   7.945  0.0240 -0.3384 -0.0044
 7266SOL    HW133431   0.374   4.385   7.946  0.6574 -0.6944  1.7439
 7266SOL    HW233432   0.466   4.456   7.860  1.1610 -1.5015  0.7273
 7267SOL     OW33433   2.785   0.054   4.316 -0.3232  0.0985 -0.7409
 7267SOL    HW133434   2.796   0.114   4.390 -1.0047 -1.2778  0.4744
 7267SOL    HW233435   2.855   4.728   4.339 -0.8138 -0.6393 -1.1888
 7268SOL     OW33436   1.149   0.577   9.953 -0.2087  0.1380  0.0222
 7268SOL    HW133437   1.197   0.634   9.893 -0.3874 -0.6158 -0.8394
 7268SOL    HW233438   1.171   0.609  10.040 -0.5384  1.6964 -0.4806
 7269SOL     OW33439   3.322   0.190   3.652 -0.2292  0.0199  0.7826
 7269SOL    HW133440   3.381   0.121   3.622 -2.1660 -1.4474  0.3130
 7269SOL    HW233441   3.348   0.215   3.740  1.4650  0.7843  0.0613
 7270SOL     OW33442   1.299   0.281  16.954  0.1597 -0.0537  0.0081
 7270SOL    HW133443   1.293   0.186  16.961  0.2568 -0.0220  0.5261
 7270SOL    HW233444   1.385   0.303  16.919 -0.3752 -1.8269 -2.3924
 7271SOL     OW33445   1.172   2.051  15.864 -0.2205 -0.3683  0.8870
 7271SOL    HW133446   1.129   2.132  15.892  0.0323 -0.4958  1.6518
 7271SOL    HW233447   1.125   2.039  15.782 -1.4495  1.5313  1.3060
 7272SOL     OW33448   0.686   3.712   7.909 -0.2199  0.1245  0.6629
 7272SOL    HW133449   0.770   3.695   7.951 -0.5453 -0.7408  0.9647
 7272SOL    HW233450   0.710   3.768   7.835 -2.1749 -0.6326 -0.5501
 7273SOL     OW33451   3.448   3.927   5.082  0.0635 -0.1729 -0.2789
 7273SOL    HW133452   3.481   4.005   5.126 -1.5352  0.3687 -0.0444
 7273SOL    HW233453   3.495   3.858   5.129 -1.7637 -1.6657 -0.5974
 7274SOL     OW33454   1.569   0.347   8.757 -0.0098 -0.8078 -0.4340
 7274SOL    HW133455   1.532   0.419   8.706  1.1115 -0.8909 -1.3660
 7274SOL    HW233456   1.655   0.390   8.763  0.0581 -1.2685  2.1164
 7275SOL     OW33457   2.293   1.380   6.090  0.4937 -0.2555  0.4632
 7275SOL    HW133458   2.328   1.315   6.150  4.3134  0.2301 -1.1947
 7275SOL    HW233459   2.257   1.445   6.149  0.8397  0.3055  0.0661
 7276SOL     OW33460   0.794   3.613   3.953 -0.1117  0.0437  0.1782
 7276SOL    HW133461   0.790   3.600   3.859  2.6071  0.7693 -0.0328
 7276SOL    HW233462   0.886   3.634   3.967  0.2109 -0.3064 -1.4469
 7277SOL     OW33463   2.372   2.335   8.797  0.0962  0.0558  0.0833
 7277SOL    HW133464   2.402   2.303   8.712 -0.4021  0.4329 -0.2333
 7277SOL    HW233465   2.439   2.385   8.843 -1.6205  0.8008  1.7648
 7278SOL     OW33466   2.150   0.838  12.996 -0.3189 -0.2405  0.0405
 7278SOL    HW133467   2.064   0.829  12.954 -0.8087  3.5300  0.2646
 7278SOL    HW233468   2.124   0.903  13.061 -1.8253  0.0834 -0.8924
 7279SOL     OW33469   1.046   0.634   3.724  0.0043 -0.0726  0.0024
 7279SOL    HW133470   1.019   0.557   3.775 -1.1675 -0.0010 -0.5119
 7279SOL    HW233471   1.060   0.610   3.632 -1.1109 -1.1095  0.1047
 7280SOL     OW33472   0.654   2.302   0.146  0.5119  0.2908 -0.7708
 7280SOL    HW133473   0.589   2.370   0.161 -0.1275 -0.3725 -0.5312
 7280SOL    HW233474   0.610   2.218   0.152 -0.8661  0.9662 -1.4579
 7281SOL     OW33475   3.556   4.074   9.680  0.4866  0.0345 -0.5813
 7281SOL    HW133476   3.560   4.012   9.608 -1.2203 -0.1656 -0.5007
 7281SOL    HW233477   3.463   4.092   9.668  0.0945 -0.6085  1.3704
 7282SOL     OW33478   0.661   3.148   8.026  0.4383  0.0064  0.3706
 7282SOL    HW133479   0.633   3.220   8.083  0.3160  1.0183 -0.9746
 7282SOL    HW233480   0.601   3.091   8.075 -0.0462  0.2042  0.0089
 7283SOL     OW33481   2.724   3.481   6.300  0.4673 -0.1754  0.5664
 7283SOL    HW133482   2.817   3.489   6.319  0.7684 -0.2035 -0.9144
 7283SOL    HW233483   2.707   3.561   6.249  2.0975 -0.5238 -0.5039
 7284SOL     OW33484   1.347   0.824   1.924  0.6002 -0.1406 -0.2602
 7284SOL    HW133485   1.400   0.855   1.998 -1.9476 -0.1697  1.5692
 7284SOL    HW233486   1.345   0.915   1.895  0.0629 -0.2637 -0.5981
 7285SOL     OW33487   3.392   0.216  10.888  0.7798 -0.3367 -0.5128
 7285SOL    HW133488   3.347   0.142  10.847 -0.3936 -0.6550  1.3039
 7285SOL    HW233489   3.372   0.281  10.821 -1.2960  1.1503  1.5434
 7286SOL     OW33490   3.386   0.459  16.858  0.0356 -0.2156  0.5609
 7286SOL    HW133491   3.306   0.505  16.833 -0.5879 -1.5757  0.0551
 7286SOL    HW233492   3.378   0.367  16.831 -0.7380  0.3918 -1.2588
 7287SOL     OW33493   3.407   0.158  15.345 -0.1580  0.2836 -0.5806
 7287SOL    HW133494   3.489   0.206  15.344 -2.0498  3.4962 -0.7891
 7287SOL    HW233495   3.363   0.176  15.428 -0.2555  2.5745 -1.1267
 7288SOL     OW33496   4.662   2.884   7.879 -0.0455 -0.6084  0.8920
 7288SOL    HW133497   4.598   2.814   7.894  0.3674 -1.0089  0.7746
 7288SOL    HW233498   4.611   2.941   7.821  1.5160 -0.7299 -0.5949
 7289SOL     OW33499   3.761   0.354   6.164  0.2643  0.7084  0.4484
 7289SOL    HW133500   3.745   0.337   6.071 -0.1604  0.1030  0.6318
 7289SOL    HW233501   3.851   0.385   6.158  1.1161 -1.7518  0.3296
 7290SOL     OW33502   4.246   1.342   2.198  0.1333  0.2064  0.1357
 7290SOL    HW133503   4.284   1.330   2.111  0.3546 -1.4816  0.4648
 7290SOL    HW233504   4.327   1.371   2.239  0.7390  0.1415 -1.0255
 7291SOL     OW33505   2.069   3.791   1.370 -0.1505  0.2966  0.2717
 7291SOL    HW133506   2.125   3.750   1.435  0.3348  0.2085 -0.2034
 7291SOL    HW233507   2.008   3.717   1.358 -0.1246  0.4432 -0.7514
 7292SOL     OW33508   1.399   2.287   9.926  0.2141  0.3117  0.7060
 7292SOL    HW133509   1.420   2.307   9.835  2.3342 -0.3619  1.0395
 7292SOL    HW233510   1.465   2.218   9.938  1.0092  0.6605 -1.6921
 7293SOL     OW33511   0.731   1.733   2.657  0.4366 -0.0842  0.2233
 7293SOL    HW133512   0.682   1.660   2.619 -2.2460  1.4157  0.8469
 7293SOL    HW233513   0.660   1.794   2.679 -0.3899 -1.4281  1.2860
 7294SOL     OW33514   0.851   1.961  16.660 -0.7687 -0.1584  0.0835
 7294SOL    HW133515   0.846   1.990  16.569 -0.7932 -1.2011 -0.2421
 7294SOL    HW233516   0.943   1.935  16.652 -0.6148  0.0720  1.0752
 7295SOL     OW33517   0.829   2.306   5.115 -0.1588 -0.3125 -0.2529
 7295SOL    HW133518   0.842   2.392   5.155 -0.8107 -0.4578  0.2592
 7295SOL    HW233519   0.773   2.344   5.047 -0.5784 -0.5601 -0.0417
 7296SOL     OW33520   0.958   3.804   8.403  0.0200  0.5043 -0.4779
 7296SOL    HW133521   0.937   3.851   8.483  1.7967 -0.3737  0.5208
 7296SOL    HW233522   0.875   3.791   8.358 -0.4529 -0.9192  0.8147
 7297SOL     OW33523   2.349   1.353  12.034  0.1822  0.1803 -0.1120
 7297SOL    HW133524   2.346   1.263  12.064 -0.2582  0.1687 -0.1957
 7297SOL    HW233525   2.263   1.377  12.000  0.4585 -1.1608 -1.7430
 7298SOL     OW33526   2.410   0.743   5.016 -0.0434 -0.5285  0.4198
 7298SOL    HW133527   2.503   0.764   5.020  0.3945 -2.8788  2.3923
 7298SOL    HW233528   2.415   0.648   5.003 -3.7339 -0.7506  0.7778
 7299SOL     OW33529   0.362   1.873   7.714  0.3808 -0.3655  0.1985
 7299SOL    HW133530   0.307   1.795   7.716 -0.0677 -0.1010 -1.5345
 7299SOL    HW233531   0.373   1.876   7.619  1.2830 -2.5770  0.2492
 7300SOL     OW33532   2.997   3.994   3.277 -0.1909  0.6093  0.0423
 7300SOL    HW133533   2.958   4.020   3.361  0.7231  0.4990  0.5034
 7300SOL    HW233534   2.921   3.981   3.221  0.9379 -0.2254 -1.2987
 7301SOL     OW33535   0.065   3.176   4.514  0.1347 -1.1301 -1.1823
 7301SOL    HW133536   0.146   3.173   4.564 -0.7855 -2.0619  0.2683
 7301SOL    HW233537   0.101   3.139   4.434  0.8819 -0.3132 -1.2288
 7302SOL     OW33538   2.508   1.073   4.301  0.3015 -0.1226 -0.1065
 7302SOL    HW133539   2.552   1.048   4.382 -0.0733 -2.8672 -0.7269
 7302SOL    HW233540   2.442   1.134   4.332 -2.1361 -1.4718 -2.5867
 7303SOL     OW33541   2.144   0.023   4.058 -0.0758  0.2081  1.1176
 7303SOL    HW133542   2.120   4.730   4.147 -2.9654 -1.0495 -0.0318
 7303SOL    HW233543   2.081   4.726   3.993 -0.0107  2.3698  0.0375
 7304SOL     OW33544   3.239   0.005   7.512  0.4931 -0.3860  0.0905
 7304SOL    HW133545   3.260   0.097   7.530 -2.3696  0.3738 -0.5850
 7304SOL    HW233546   3.295   4.682   7.565 -0.9371 -1.6489  0.2004
 7305SOL     OW33547   0.166   4.725   2.365 -0.5199  0.2245  0.3258
 7305SOL    HW133548   0.077   0.027   2.357  0.6970  2.9237 -0.8620
 7305SOL    HW233549   0.147   4.674   2.444  2.8941 -1.5229 -0.0420
 7306SOL     OW33550   3.554   0.770   3.246 -0.2774 -0.0963 -0.1457
 7306SOL    HW133551   3.579   0.700   3.186 -0.7989 -0.2434 -0.1896
 7306SOL    HW233552   3.521   0.832   3.181 -1.3777 -0.4053  0.1281
 7307SOL     OW33553   0.556   1.057   8.150  0.1991  0.7984 -0.0229
 7307SOL    HW133554   0.625   0.996   8.177 -0.0450  0.2468 -0.6504
 7307SOL    HW233555   0.487   1.036   8.213 -0.3736  2.3185 -0.1309
 7308SOL     OW33556   0.684   4.427   1.794 -0.0402  0.0746 -0.1258
 7308SOL    HW133557   0.666   4.487   1.722  1.1416  1.8844  1.0911
 7308SOL    HW233558   0.598   4.384   1.792  0.1016 -0.2528  0.8492
 7309SOL     OW33559   3.393   0.087   0.575 -0.1170  0.3922 -0.1132
 7309SOL    HW133560   3.339   0.161   0.602 -0.6321 -0.0556  0.0751
 7309SOL    HW233561   3.478   0.132   0.572 -0.7285  1.6572  1.5699
 7310SOL     OW33562   3.756   2.871  15.052  0.9190 -0.4501 -0.3512
 7310SOL    HW133563   3.784   2.780  15.059 -0.0086 -0.5192  2.2054
 7310SOL    HW233564   3.828   2.918  15.094  1.3316  0.1704 -1.7169
 7311SOL     OW33565   2.537   3.968   7.493  0.0549 -0.3909 -0.6663
 7311SOL    HW133566   2.533   3.872   7.496 -0.8227 -0.2800  1.9482
 7311SOL    HW233567   2.631   3.982   7.509 -0.3184  1.5871 -0.2583
 7312SOL     OW33568   1.850   1.282   1.207 -0.4296  0.0498 -0.2466
 7312SOL    HW133569   1.840   1.227   1.129 -1.3633  0.2089 -0.2450
 7312SOL    HW233570   1.786   1.352   1.192 -0.6380  0.3027  1.7912
 7313SOL     OW33571   2.942   2.628   1.496 -0.3241  0.1705  0.1075
 7313SOL    HW133572   2.905   2.560   1.553 -0.9360  1.1911  0.9172
 7313SOL    HW233573   2.981   2.575   1.426  0.1266  1.0927 -0.3371
 7314SOL     OW33574   0.022   0.724  13.250 -0.2521  0.3167 -0.5681
 7314SOL    HW133575   0.098   0.680  13.288 -1.2289 -0.7023  0.2171
 7314SOL    HW233576   4.726   0.793  13.309 -2.1549 -0.7549 -0.3013
 7315SOL     OW33577   3.482   3.503   7.097  0.1235  0.2101  0.2334
 7315SOL    HW133578   3.520   3.423   7.132  0.0478  0.6288  1.2739
 7315SOL    HW233579   3.431   3.540   7.169 -0.4412 -1.2265  0.5735
 7316SOL     OW33580   1.014   0.888   1.743 -0.3982  0.1962  0.5153
 7316SOL    HW133581   0.949   0.955   1.761 -1.4880 -0.8176  0.3759
 7316SOL    HW233582   1.038   0.899   1.651  0.8794 -0.8579  0.7218
 7317SOL     OW33583   3.023   3.904  12.723 -0.5306 -0.5141 -0.3211
 7317SOL    HW133584   2.999   3.811  12.719 -1.0569 -0.4553  1.6902
 7317SOL    HW233585   3.029   3.920  12.817 -0.1854  1.0827 -0.6155
 7318SOL     OW33586   3.958   2.700   1.689 -0.4894 -0.0152  0.8629
 7318SOL    HW133587   3.925   2.699   1.600  1.3495 -0.4974  0.2000
 7318SOL    HW233588   3.933   2.789   1.716 -2.2914 -0.0509 -0.6945
 7319SOL     OW33589   0.145   0.417   4.748  0.1885 -0.5396  0.6477
 7319SOL    HW133590   0.177   0.490   4.695  0.9635 -1.9446 -0.8150
 7319SOL    HW233591   0.223   0.365   4.767  0.1428 -1.0440 -0.5558
 7320SOL     OW33592   2.771   3.877   3.711  0.4800  0.3673 -0.2874
 7320SOL    HW133593   2.708   3.805   3.716 -0.3760  1.2312  1.5958
 7320SOL    HW233594   2.793   3.891   3.803  0.7622  4.0049 -0.9231
 7321SOL     OW33595   2.471   2.824  15.175 -0.0158 -0.1325 -0.4585
 7321SOL    HW133596   2.405   2.756  15.186  0.4127 -0.6346 -1.0313
 7321SOL    HW233597   2.415   2.901  15.188 -0.4204 -0.7218  1.3256
 7322SOL     OW33598   0.686   1.518   2.056  0.4744  0.0898 -0.0614
 7322SOL    HW133599   0.781   1.528   2.053  0.4008  0.2365 -1.8067
 7322SOL    HW233600   0.666   1.585   2.122  0.7793  1.6717 -1.5787
 7323SOL     OW33601   1.445   3.908   0.777  0.1651 -0.0701 -0.6344
 7323SOL    HW133602   1.504   3.920   0.702  1.6185  0.4178  0.5768
 7323SOL    HW233603   1.423   3.816   0.763  1.2784 -0.5379  0.6999
 7324SOL     OW33604   0.311   3.801   0.255 -0.0842 -0.0384  0.2207
 7324SOL    HW133605   0.359   3.822   0.336  0.1703  1.2255 -0.2512
 7324SOL    HW233606   0.342   3.859   0.186  1.2949  0.2366  1.0811
 7325SOL     OW33607   4.402   2.688   5.705  0.0222 -0.8093 -0.1186
 7325SOL    HW133608   4.350   2.769   5.709  0.1678 -0.7172 -0.0941
 7325SOL    HW233609   4.336   2.623   5.679  0.5448 -1.2191 -0.4070
 7326SOL     OW33610   3.996   0.260   9.594 -0.0643 -0.0317  0.7586
 7326SOL    HW133611   4.060   0.291   9.530 -0.0309 -0.7596  0.4386
 7326SOL    HW233612   3.917   0.260   9.541  0.9535 -0.6250 -0.7549
 7327SOL     OW33613   3.044   4.088   2.954  0.2593 -0.0086  0.0131
 7327SOL    HW133614   3.024   4.086   3.047 -0.0823  0.8188 -0.0377
 7327SOL    HW233615   3.057   4.181   2.934 -0.8950  0.1438 -0.0578
 7328SOL     OW33616   4.500   0.704   3.633  0.2364 -0.3846  0.8249
 7328SOL    HW133617   4.433   0.637   3.649  0.6064 -0.6551  1.2515
 7328SOL    HW233618   4.446   0.781   3.652  1.4390  0.6209  0.1273
 7329SOL     OW33619   2.342   0.972   4.602  0.5739 -0.1719  0.3856
 7329SOL    HW133620   2.299   0.889   4.621 -0.8284 -0.1586 -2.7632
 7329SOL    HW233621   2.435   0.948   4.600  0.7130  0.1674  2.1244
 7330SOL     OW33622   1.183   4.662  15.770 -0.6175 -0.2762  0.0449
 7330SOL    HW133623   1.234   4.714  15.709 -0.6617  0.2122  0.4266
 7330SOL    HW233624   1.107   4.716  15.787 -0.0140  0.9391 -1.1473
 7331SOL     OW33625   4.475   3.468   1.828  0.4365 -0.5749 -0.6501
 7331SOL    HW133626   4.476   3.560   1.802 -0.8620 -0.5529 -0.6437
 7331SOL    HW233627   4.389   3.447   1.790 -0.6393  0.9745  0.9144
 7332SOL     OW33628   0.883   1.811   2.256  0.6219 -0.9536  0.2322
 7332SOL    HW133629   0.838   1.827   2.173 -2.5430 -1.9851  1.7602
 7332SOL    HW233630   0.974   1.814   2.227  0.4162  1.0016 -0.1972
 7333SOL     OW33631   1.922   3.508   5.322 -0.2865  0.1554  0.2873
 7333SOL    HW133632   1.965   3.440   5.272  0.7492  0.9776  0.0694
 7333SOL    HW233633   1.830   3.482   5.311 -0.4126  1.3913 -1.4754
 7334SOL     OW33634   4.166   2.838   9.641  0.0354  0.4221  0.2333
 7334SOL    HW133635   4.104   2.835   9.715 -0.1968  1.6972  0.0952
 7334SOL    HW233636   4.215   2.917   9.661 -0.5940  0.6693  0.8053
 7335SOL     OW33637   0.056   1.136   6.324  0.1667 -0.4162 -0.6760
 7335SOL    HW133638   0.078   1.229   6.330  0.1448 -0.5163  0.8024
 7335SOL    HW233639   4.719   1.144   6.261 -0.8229 -0.4490  0.4513
 7336SOL     OW33640   1.936   2.189  11.511 -0.6403  0.2568 -0.4400
 7336SOL    HW133641   2.003   2.124  11.495  0.1681  1.2639 -1.1387
 7336SOL    HW233642   1.923   2.222  11.422 -0.7084  2.1678  0.2597
 7337SOL     OW33643   0.440   0.231   2.515  0.6970 -0.3316  0.5358
 7337SOL    HW133644   0.414   0.323   2.516 -3.3987 -1.4896  2.3689
 7337SOL    HW233645   0.532   0.228   2.491  0.0805 -0.7064 -1.7602
 7338SOL     OW33646   3.945   4.281   5.903  0.6602  0.6490 -0.5968
 7338SOL    HW133647   3.862   4.274   5.856  1.2235 -3.9615 -0.8845
 7338SOL    HW233648   3.914   4.246   5.987  2.4086 -0.4693 -0.4284
 7339SOL     OW33649   3.443   2.568  12.809  0.3171  0.0674  0.3922
 7339SOL    HW133650   3.373   2.510  12.776 -0.2851  0.8164  0.3514
 7339SOL    HW233651   3.464   2.619  12.731  1.0495 -1.4686 -0.4230
 7340SOL     OW33652   4.001   2.692   7.960  0.4531 -0.9250 -0.5001
 7340SOL    HW133653   3.965   2.779   7.975  1.1387 -0.9076  0.9771
 7340SOL    HW233654   4.081   2.691   8.012 -0.3336 -0.6466  0.7115
 7341SOL     OW33655   3.348   3.810   6.777  0.3338  0.0383  0.1120
 7341SOL    HW133656   3.362   3.731   6.830 -0.6759  0.5537  1.1527
 7341SOL    HW233657   3.425   3.798   6.721  1.6061  1.6631  1.5121
 7342SOL     OW33658   0.858   4.733   0.736  0.4102  0.2681 -0.2494
 7342SOL    HW133659   0.930   0.062   0.731 -1.4071  2.3020 -0.6565
 7342SOL    HW233660   0.876   4.678   0.812 -1.1643  1.1025  0.7229
 7343SOL     OW33661   3.892   2.903   9.541 -0.3245  0.2324  0.2589
 7343SOL    HW133662   3.976   2.921   9.501 -1.2771  1.6718 -1.1011
 7343SOL    HW233663   3.897   2.818   9.584 -1.8638  1.0277  2.0467
 7344SOL     OW33664   1.040   4.162   6.314  0.1801 -0.3711  0.0117
 7344SOL    HW133665   1.032   4.146   6.220 -2.7670 -0.9219  0.3598
 7344SOL    HW233666   0.964   4.218   6.330  0.4435  0.0142 -0.0751
 7345SOL     OW33667   0.598   4.032  10.183  0.6631 -0.0403 -0.2534
 7345SOL    HW133668   0.614   4.124  10.203  0.6953 -0.4377  1.6000
 7345SOL    HW233669   0.504   4.016  10.185  1.2991 -3.7198  0.3544
 7346SOL     OW33670   0.337   0.506  10.816 -0.1223 -0.2217 -0.2838
 7346SOL    HW133671   0.379   0.523  10.731  0.4497  0.2406  0.0944
 7346SOL    HW233672   0.249   0.537  10.793 -0.6565 -2.0224 -0.6708
 7347SOL     OW33673   0.125   4.447   8.764  0.2390  0.3470 -1.2263
 7347SOL    HW133674   0.196   4.479   8.819  0.6254 -1.3337 -0.7529
 7347SOL    HW233675   0.130   4.499   8.683  1.6676  0.9545 -0.7579
 7348SOL     OW33676   4.235   2.926   4.946 -0.5379  0.4811  0.6630
 7348SOL    HW133677   4.322   2.902   4.913  0.0628  0.8175  2.0199
 7348SOL    HW233678   4.220   2.854   5.007 -1.2555  1.4821  1.6584
 7349SOL     OW33679   4.125   1.805   9.178 -0.1410 -0.3293  0.2465
 7349SOL    HW133680   4.213   1.832   9.205 -0.2723  0.5300 -0.2014
 7349SOL    HW233681   4.079   1.819   9.261 -0.4573 -1.9224  0.3301
 7350SOL     OW33682   4.627   2.733   5.843  0.3982  0.0284  0.1887
 7350SOL    HW133683   4.638   2.826   5.819  1.2316 -0.3491 -0.8824
 7350SOL    HW233684   4.542   2.715   5.803  1.2089 -2.6877 -0.3015
 7351SOL     OW33685   2.326   2.567   6.385 -0.5058  0.4793  0.4551
 7351SOL    HW133686   2.319   2.482   6.427  0.0400  1.2534  2.1097
 7351SOL    HW233687   2.269   2.560   6.308 -0.4256  1.0043  0.3473
 7352SOL     OW33688   0.937   1.988   7.487  0.0530 -0.1391 -0.7139
 7352SOL    HW133689   0.936   2.025   7.399  1.5268 -0.8934 -1.0307
 7352SOL    HW233690   0.876   1.915   7.485  0.9653 -0.9069 -0.4371
 7353SOL     OW33691   3.602   0.105  17.316  0.0572  0.5594 -0.0046
 7353SOL    HW133692   3.643   0.166  17.254 -0.7234  0.5907 -0.4925
 7353SOL    HW233693   3.636   0.134  17.400  0.1978 -0.0043  0.1358
 7354SOL     OW33694   1.685   0.940   5.555 -0.3363  0.0615  0.0407
 7354SOL    HW133695   1.645   1.027   5.551 -0.4988  0.0335  1.1082
 7354SOL    HW233696   1.615   0.893   5.600 -1.4783  0.0303 -1.7534
 7355SOL     OW33697   1.047   1.652   3.304  0.2311 -0.9584  0.1897
 7355SOL    HW133698   0.995   1.697   3.371 -0.4723 -1.8967  0.2712
 7355SOL    HW233699   0.976   1.602   3.264 -1.4356  0.3823  1.4252
 7356SOL     OW33700   1.446   3.376  15.276 -0.7418  0.1153 -0.2528
 7356SOL    HW133701   1.465   3.467  15.253 -0.5410  0.0192 -0.4688
 7356SOL    HW233702   1.511   3.334  15.220 -0.1773 -0.4215  0.8125
 7357SOL     OW33703   1.726   0.598   2.636 -0.0077 -0.0517 -0.1082
 7357SOL    HW133704   1.771   0.673   2.675 -1.0886  0.9001 -0.7072
 7357SOL    HW233705   1.666   0.647   2.580  1.0018  1.0433 -0.2514
 7358SOL     OW33706   3.133   1.433   3.367 -0.0575  0.1992 -0.5285
 7358SOL    HW133707   3.099   1.516   3.332  1.1950  0.6516 -0.6824
 7358SOL    HW233708   3.226   1.451   3.378  0.5145 -2.6376 -0.8822
 7359SOL     OW33709   0.706   2.855   6.288  0.0413  0.3196 -0.4799
 7359SOL    HW133710   0.715   2.833   6.381 -1.1013  0.2320 -0.3799
 7359SOL    HW233711   0.794   2.889   6.274  0.6220 -0.3848  1.3607
 7360SOL     OW33712   0.283   3.531   5.350 -0.0001  0.4593  0.2105
 7360SOL    HW133713   0.293   3.448   5.303 -1.9543 -0.1147  0.8157
 7360SOL    HW233714   0.301   3.506   5.440 -1.6184 -0.1701  0.3399
 7361SOL     OW33715   4.270   2.990   3.883  0.0674 -0.0131 -0.1712
 7361SOL    HW133716   4.327   2.928   3.836  1.5462 -1.3044  3.3087
 7361SOL    HW233717   4.315   2.990   3.967 -1.6471  1.8394  0.7337
 7362SOL     OW33718   2.515   2.984  12.235  0.8885  0.1012  0.2294
 7362SOL    HW133719   2.465   2.991  12.154  0.3349  1.0661  0.6530
 7362SOL    HW233720   2.466   2.915  12.279 -0.3446  1.0290  0.3179
 7363SOL     OW33721   4.067   4.605   0.271  0.3979  0.0831  0.6541
 7363SOL    HW133722   4.051   4.665   0.198 -0.1505  0.7994  1.3622
 7363SOL    HW233723   4.161   4.588   0.265  0.1540 -1.1303  0.2654
 7364SOL     OW33724   2.350   0.578   3.306  0.0030 -0.0131 -0.5344
 7364SOL    HW133725   2.309   0.662   3.284 -0.6326 -0.4121 -0.9070
 7364SOL    HW233726   2.439   0.598   3.277  0.8753 -2.2167  0.6583
 7365SOL     OW33727   1.042   1.767  16.194 -0.3179 -0.5845  0.2301
 7365SOL    HW133728   1.028   1.808  16.279  0.4461 -2.2287  1.1605
 7365SOL    HW233729   0.966   1.784  16.139 -0.9225 -0.0742  1.2473
 7366SOL     OW33730   1.160   0.556   9.611  0.4192 -0.0581 -0.1247
 7366SOL    HW133731   1.090   0.586   9.669  1.0379 -0.6510  0.9436
 7366SOL    HW233732   1.209   0.495   9.667  0.6291  0.2192 -0.0110
 7367SOL     OW33733   0.467   3.581  14.075  0.0736  0.2457  0.3247
 7367SOL    HW133734   0.526   3.598  14.002  0.5967 -1.8455  0.2515
 7367SOL    HW233735   0.530   3.526  14.121  0.1139 -0.0359 -0.0663
 7368SOL     OW33736   2.828   0.863   7.474 -0.6967  0.1246  0.1781
 7368SOL    HW133737   2.754   0.829   7.422 -0.8063 -0.9274  1.0219
 7368SOL    HW233738   2.836   0.957   7.460 -2.1827  0.3091  0.5519
 7369SOL     OW33739   0.618   2.792  10.356 -0.2566  0.3362  1.0471
 7369SOL    HW133740   0.646   2.879  10.384  0.5927 -0.1539  1.7511
 7369SOL    HW233741   0.624   2.745  10.439 -0.1643 -1.9249 -0.2496
 7370SOL     OW33742   3.715   2.941   9.025 -0.3879  0.2939 -0.0874
 7370SOL    HW133743   3.802   2.980   9.033 -0.2397  0.2751 -1.4807
 7370SOL    HW233744   3.686   2.945   9.116  1.5203  1.0533  0.4813
 7371SOL     OW33745   1.041   2.523   1.556  0.1268 -0.4879 -0.1288
 7371SOL    HW133746   1.032   2.476   1.472 -3.5862 -1.5674  0.8915
 7371SOL    HW233747   1.033   2.612   1.523  1.1800  0.4256  2.1562
 7372SOL     OW33748   3.073   1.669  12.656  0.7690 -0.0027  0.3648
 7372SOL    HW133749   3.158   1.664  12.701  0.6741 -2.1126  0.3105
 7372SOL    HW233750   3.010   1.647  12.725  0.5441  1.2608  0.5663
 7373SOL     OW33751   3.891   1.256  12.293  0.1683 -0.2048  0.6288
 7373SOL    HW133752   3.962   1.262  12.356  0.4172 -0.9287  0.4206
 7373SOL    HW233753   3.819   1.296  12.343 -0.3498 -0.7031  0.2870
 7374SOL     OW33754   3.356   0.123  11.495 -0.2293  0.4345 -0.2868
 7374SOL    HW133755   3.398   0.154  11.575  2.2185 -0.0211 -1.4057
 7374SOL    HW233756   3.430   0.101  11.439 -0.8183 -2.7452  0.1818
 7375SOL     OW33757   3.081   3.726   0.546  0.0669 -0.3026  0.3994
 7375SOL    HW133758   2.997   3.768   0.529  0.4847  1.2027  1.9477
 7375SOL    HW233759   3.135   3.799   0.577  1.6804 -0.1023 -2.8677
 7376SOL     OW33760   2.410   2.199   3.087 -0.2397  0.1320 -0.0584
 7376SOL    HW133761   2.490   2.156   3.117 -1.2137 -1.2980  0.5171
 7376SOL    HW233762   2.416   2.179   2.994  2.0051 -0.0183  0.1214
 7377SOL     OW33763   1.765   1.255   5.367 -0.4704  0.2895 -0.3590
 7377SOL    HW133764   1.851   1.223   5.341 -1.4608 -3.1180  0.6057
 7377SOL    HW233765   1.710   1.247   5.289 -1.3176 -0.0760  0.2778
 7378SOL     OW33766   3.404   0.187   7.695  0.1789 -0.2430  0.7758
 7378SOL    HW133767   3.333   0.244   7.667 -1.5044 -2.8376 -0.2735
 7378SOL    HW233768   3.447   0.228   7.770  2.3963 -1.1153 -0.0213
 7379SOL     OW33769   0.873   2.116   5.937  0.1283 -0.5447 -0.4124
 7379SOL    HW133770   0.842   2.204   5.956  0.4494 -0.8013  1.2528
 7379SOL    HW233771   0.961   2.118   5.973 -0.3678  1.0487  0.6611
 7380SOL     OW33772   3.897   1.958   8.598  0.5637  0.5001  0.5654
 7380SOL    HW133773   3.825   1.981   8.658  0.3108  0.5031  0.2576
 7380SOL    HW233774   3.932   1.881   8.643 -2.1699 -1.4181 -0.5927
 7381SOL     OW33775   2.701   1.484   3.112  0.0821  0.3945  0.2492
 7381SOL    HW133776   2.610   1.469   3.086  0.5671 -0.6842 -0.8173
 7381SOL    HW233777   2.683   1.519   3.199  0.0230 -0.1487  0.4570
 7382SOL     OW33778   2.507   3.363   6.167 -0.2316 -0.3890  0.1257
 7382SOL    HW133779   2.510   3.315   6.250  0.1700  1.7968  1.3589
 7382SOL    HW233780   2.584   3.418   6.180  0.4808 -1.1800 -0.7903
 7383SOL     OW33781   2.235   4.117   8.596  0.1474  0.1271 -0.2209
 7383SOL    HW133782   2.296   4.059   8.642 -1.1244 -1.2328 -0.2413
 7383SOL    HW233783   2.267   4.203   8.620 -0.7719  0.2902  0.4418
 7384SOL     OW33784   2.112   0.591   6.969 -0.3568 -0.1141  0.4912
 7384SOL    HW133785   2.076   0.586   6.881  1.7890 -0.4918 -0.3795
 7384SOL    HW233786   2.055   0.528   7.013 -3.1863  1.9966 -0.1952
 7385SOL     OW33787   3.375   2.665   5.678 -0.6271  0.2102  0.3951
 7385SOL    HW133788   3.381   2.761   5.674 -0.3356  0.2079  0.7940
 7385SOL    HW233789   3.456   2.649   5.726  1.0184 -0.9566 -2.7365
 7386SOL     OW33790   4.444   2.418  13.551 -0.2190 -0.3473 -0.4789
 7386SOL    HW133791   4.459   2.509  13.576 -1.0979 -0.2713 -0.2503
 7386SOL    HW233792   4.477   2.362  13.621 -0.5136 -2.0290 -1.6735
 7387SOL     OW33793   1.687   1.779   1.985 -0.4691  0.0042  0.4440
 7387SOL    HW133794   1.783   1.769   1.986 -0.7115 -2.0351  2.6906
 7387SOL    HW233795   1.672   1.857   1.932 -3.0136 -0.0665  1.1013
 7388SOL     OW33796   3.666   4.439  16.879  0.9608  0.1050  0.2212
 7388SOL    HW133797   3.715   4.363  16.847  1.0836  1.0594 -1.8445
 7388SOL    HW233798   3.728   4.485  16.936  2.9941 -1.7474 -0.4713
 7389SOL     OW33799   0.321   2.689  12.160 -0.6461 -0.2895 -0.0583
 7389SOL    HW133800   0.313   2.704  12.254 -0.2793  1.0962 -0.2378
 7389SOL    HW233801   0.232   2.697  12.128 -1.3627 -2.7300  1.3801
 7390SOL     OW33802   2.786   1.635  12.529  0.5020 -0.5366  0.2409
 7390SOL    HW133803   2.747   1.720  12.549  0.4106 -0.1541 -1.5237
 7390SOL    HW233804   2.725   1.574  12.569  0.3942 -0.8797 -0.4501
 7391SOL     OW33805   1.398   2.676   8.140 -0.4970 -0.4040 -0.0139
 7391SOL    HW133806   1.401   2.764   8.177  0.4020 -0.1264 -0.7517
 7391SOL    HW233807   1.314   2.652   8.179 -0.0783 -2.8386 -0.5679
 7392SOL     OW33808   3.627   1.236  12.396  0.6441  0.1583  0.9532
 7392SOL    HW133809   3.538   1.225  12.363  1.2923  2.1245 -1.4525
 7392SOL    HW233810   3.602   1.275  12.480 -2.5552 -0.8853  0.5186
 7393SOL     OW33811   4.564   1.791   6.746 -0.4264 -0.4624 -0.4825
 7393SOL    HW133812   4.549   1.704   6.709 -0.7933 -0.2177 -0.9111
 7393SOL    HW233813   4.526   1.770   6.831 -0.2994  0.4922 -0.1934
 7394SOL     OW33814   3.598   3.808   6.650  0.4853 -0.0063 -0.3090
 7394SOL    HW133815   3.608   3.898   6.619 -0.3022 -0.2318 -1.2315
 7394SOL    HW233816   3.617   3.822   6.743  0.8596 -1.6070 -0.1389
 7395SOL     OW33817   4.273   4.530   8.204 -0.3930 -0.4230 -0.0954
 7395SOL    HW133818   4.321   4.583   8.140 -1.6411  1.8634  0.8621
 7395SOL    HW233819   4.266   4.453   8.149 -0.0014  0.5483 -1.5111
 7396SOL     OW33820   3.805   0.222   3.704  0.0810  0.1705  0.0017
 7396SOL    HW133821   3.756   0.154   3.657  0.3740  0.5341 -0.8320
 7396SOL    HW233822   3.741   0.293   3.697  0.4209  0.4227 -0.6364
 7397SOL     OW33823   1.815   2.195   7.340  0.3235  0.2237 -0.2398
 7397SOL    HW133824   1.759   2.264   7.375 -0.7518 -1.3013  1.0908
 7397SOL    HW233825   1.865   2.176   7.419  1.4166  3.8444 -0.0725
 7398SOL     OW33826   3.564   0.840   6.959  0.3290 -0.4636 -0.2123
 7398SOL    HW133827   3.608   0.760   6.988 -1.1192 -1.6449 -1.3011
 7398SOL    HW233828   3.610   0.852   6.876  1.0818 -3.4195 -0.2157
 7399SOL     OW33829   3.817   2.206  12.056  0.0797  0.5788  0.0559
 7399SOL    HW133830   3.785   2.116  12.058  0.5951  0.3359 -3.3718
 7399SOL    HW233831   3.909   2.187  12.077  0.1557  1.0653  0.1769
 7400SOL     OW33832   2.784   0.186   2.551 -0.0411  0.2263 -0.5228
 7400SOL    HW133833   2.750   0.104   2.517  0.8613 -1.0165  1.5787
 7400SOL    HW233834   2.723   0.189   2.625  0.8587  0.4846  0.2180
 7401SOL     OW33835   4.457   0.503  16.247 -0.7494 -0.1948 -0.2238
 7401SOL    HW133836   4.375   0.542  16.218 -0.5531  0.8129  0.5818
 7401SOL    HW233837   4.517   0.577  16.239  0.4799 -0.9330  2.0750
 7402SOL     OW33838   4.364   4.434   1.675  0.1378 -0.0441  0.4759
 7402SOL    HW133839   4.372   4.520   1.716  2.4135 -0.9810  1.9575
 7402SOL    HW233840   4.321   4.448   1.590  0.2437  0.2596  0.4749
 7403SOL     OW33841   3.639   1.276   8.364  0.0816  0.0459 -0.1768
 7403SOL    HW133842   3.647   1.191   8.406 -0.6113  1.2471  2.4188
 7403SOL    HW233843   3.547   1.291   8.387 -0.6204 -3.0732 -0.9474
 7404SOL     OW33844   0.016   0.307   9.484 -0.6354 -0.0542  0.1539
 7404SOL    HW133845   0.021   0.259   9.401 -0.4227  3.0498 -1.6266
 7404SOL    HW233846   4.679   0.267   9.533  0.4962 -0.6859  1.2969
 7405SOL     OW33847   3.058   4.536  16.192  0.3208 -0.0127 -0.0105
 7405SOL    HW133848   2.968   4.534  16.223 -0.2761  0.1144 -1.7359
 7405SOL    HW233849   3.061   4.461  16.132  0.9146  1.3629 -1.6946
 7406SOL     OW33850   3.957   2.253   5.069  0.4548  0.2138 -0.2810
 7406SOL    HW133851   3.922   2.341   5.055 -0.1795 -0.3686 -2.4035
 7406SOL    HW233852   4.037   2.269   5.019  0.5794  1.6232  0.3815
 7407SOL     OW33853   0.281   0.315   7.520  0.9747 -0.1972  0.1429
 7407SOL    HW133854   0.360   0.356   7.554 -0.7692  1.4132  2.2362
 7407SOL    HW233855   0.218   0.376   7.558 -0.0562 -2.6483  2.3712
 7408SOL     OW33856   3.071   4.379   8.460 -0.4238  0.6826  0.2945
 7408SOL    HW133857   2.985   4.349   8.430 -1.0956  2.6783  0.2555
 7408SOL    HW233858   3.098   4.443   8.394  1.3607  0.0745  0.4344
 7409SOL     OW33859   3.729   3.424  10.241  0.3037 -0.2028  0.2256
 7409SOL    HW133860   3.802   3.415  10.302 -0.6066  0.2941  1.3762
 7409SOL    HW233861   3.726   3.338  10.199 -1.2796  1.2001 -2.6073
 7410SOL     OW33862   1.327   4.088   5.318  0.2634 -0.0835  0.4432
 7410SOL    HW133863   1.394   4.035   5.362 -0.3939 -0.2685  1.2292
 7410SOL    HW233864   1.342   4.074   5.225  1.6268  4.4477 -0.0406
 7411SOL     OW33865   2.621   4.333   8.651 -0.3846  0.0827  0.2047
 7411SOL    HW133866   2.642   4.420   8.617  0.9579 -0.5055 -0.4607
 7411SOL    HW233867   2.679   4.337   8.727 -1.1171  1.6939  0.6701
 7412SOL     OW33868   2.479   4.468   8.125 -0.1913 -0.1176  0.0596
 7412SOL    HW133869   2.500   4.492   8.034  2.3551  0.1951  0.7506
 7412SOL    HW233870   2.383   4.460   8.122 -0.0832 -0.7823 -2.2499
 7413SOL     OW33871   0.575   3.497   6.109 -0.3352 -0.0913 -0.3159
 7413SOL    HW133872   0.611   3.447   6.036  1.4974  0.8990 -0.0935
 7413SOL    HW233873   0.513   3.554   6.065 -0.1068 -0.3601 -0.9842
 7414SOL     OW33874   3.129   3.542   1.612  0.4400 -0.2110  0.1985
 7414SOL    HW133875   3.224   3.531   1.611  0.3198 -1.2290 -0.9282
 7414SOL    HW233876   3.101   3.528   1.521 -0.0373  2.5333 -0.0946
 7415SOL     OW33877   4.124   4.385  15.542 -0.2449 -0.2322 -0.1309
 7415SOL    HW133878   4.082   4.458  15.496  0.5224 -0.4580 -1.2075
 7415SOL    HW233879   4.199   4.366  15.486 -0.9261 -2.5285 -0.2690
 7416SOL     OW33880   2.812   0.434   8.194  0.5421 -0.4627 -0.2020
 7416SOL    HW133881   2.803   0.408   8.102  0.8575  0.2349 -0.4268
 7416SOL    HW233882   2.906   0.449   8.198  0.4664  0.1283 -0.6464
 7417SOL     OW33883   3.686   3.339   0.898  0.5207 -0.1934 -0.9467
 7417SOL    HW133884   3.639   3.276   0.951  0.4184  2.1127  1.6680
 7417SOL    HW233885   3.613   3.400   0.893  0.5363 -0.0266  1.0580
 7418SOL     OW33886   3.681   2.573   1.966 -0.7609 -0.4893  0.4696
 7418SOL    HW133887   3.680   2.526   2.049 -0.2282 -0.7942  0.3069
 7418SOL    HW233888   3.748   2.641   1.981 -0.9935  0.3013 -2.0981
 7419SOL     OW33889   3.574   0.236  16.767  0.8880 -0.1324 -0.6577
 7419SOL    HW133890   3.567   0.206  16.858 -0.2561 -2.5367 -1.5494
 7419SOL    HW233891   3.484   0.215  16.742  0.5923  0.3857 -0.0617
 7420SOL     OW33892   3.116   3.329  13.449 -0.2231  0.2230 -0.1703
 7420SOL    HW133893   3.066   3.334  13.531 -1.2062  2.2953 -0.8879
 7420SOL    HW233894   3.100   3.412  13.403  1.7753 -0.8000 -2.7073
 7421SOL     OW33895   3.570   1.199   7.500 -0.4267  0.8674  0.0162
 7421SOL    HW133896   3.575   1.104   7.489 -0.7563  0.8904 -0.3353
 7421SOL    HW233897   3.617   1.226   7.579  0.5997  1.7505 -0.8873
 7422SOL     OW33898   3.687   4.693  16.352  0.1795  0.1651 -0.0400
 7422SOL    HW133899   3.612   4.716  16.407 -0.2190 -0.2295 -0.4212
 7422SOL    HW233900   3.662   4.733  16.269 -0.6706 -2.5368 -1.1015
 7423SOL     OW33901   2.668   1.298  13.791 -0.3758  0.1186  0.4110
 7423SOL    HW133902   2.600   1.277  13.855  2.0696  1.0461  3.3164
 7423SOL    HW233903   2.729   1.225  13.801  0.2160  0.4137 -1.1362
 7424SOL     OW33904   2.055   3.213   9.001  0.4064 -0.4420  0.0610
 7424SOL    HW133905   2.061   3.118   9.001 -0.4187 -0.4902  1.8812
 7424SOL    HW233906   2.041   3.243   9.090  1.8740  1.8255 -0.4689
 7425SOL     OW33907   0.151   3.126   6.535 -0.3915 -0.3262 -0.3605
 7425SOL    HW133908   0.100   3.117   6.616 -0.0181  0.2725 -0.0562
 7425SOL    HW233909   0.075   3.155   6.486  0.6920 -0.0656 -1.8823
 7426SOL     OW33910   3.736   1.700   3.515  0.8930  0.3093  0.0400
 7426SOL    HW133911   3.744   1.771   3.452 -0.0248 -1.9649 -2.6712
 7426SOL    HW233912   3.647   1.711   3.546  1.0047 -3.1297  1.6066
 7427SOL     OW33913   4.476   1.481   8.248 -0.0422 -0.0264  0.1830
 7427SOL    HW133914   4.546   1.526   8.201  1.3672 -2.1918  0.1926
 7427SOL    HW233915   4.447   1.405   8.197  0.8667 -1.4898  1.8886
 7428SOL     OW33916   1.306   3.851   6.108  0.3549  0.5126 -0.4466
 7428SOL    HW133917   1.338   3.940   6.117 -0.6079  0.9711 -1.5152
 7428SOL    HW233918   1.241   3.867   6.040  0.2488 -1.1745 -0.7541
 7429SOL     OW33919   3.072   3.418   4.435  0.6252 -0.0400 -0.6577
 7429SOL    HW133920   3.034   3.339   4.475 -2.9709  2.8208  1.6415
 7429SOL    HW233921   3.163   3.394   4.419  0.3696  0.2013 -2.4483
 7430SOL     OW33922   2.842   3.642   0.738 -0.1680 -0.0819  0.0222
 7430SOL    HW133923   2.910   3.648   0.805  0.0326  0.0832 -0.1950
 7430SOL    HW233924   2.801   3.728   0.749 -1.0316 -0.6212  0.9895
 7431SOL     OW33925   0.989   2.884   5.153 -0.3272  0.0641 -0.0434
 7431SOL    HW133926   0.899   2.876   5.186 -0.6348 -0.3350 -0.9512
 7431SOL    HW233927   1.035   2.918   5.229  1.3069 -0.7976 -0.6500
 7432SOL     OW33928   3.970   0.811   5.763  0.0528  0.3679  0.3385
 7432SOL    HW133929   4.019   0.779   5.688 -2.2130  0.3736 -1.1433
 7432SOL    HW233930   3.941   0.891   5.719  0.1877 -0.0740 -0.5372
 7433SOL     OW33931   1.951   4.095   5.536  0.3359 -0.5748  0.2441
 7433SOL    HW133932   2.004   4.166   5.574  3.1444 -2.6889  0.2920
 7433SOL    HW233933   1.887   4.080   5.605  1.8440 -0.4285  1.6916
 7434SOL     OW33934   0.267   3.282  14.656 -0.2618 -0.2814 -0.2415
 7434SOL    HW133935   0.224   3.221  14.715  0.3484 -0.2909  0.1826
 7434SOL    HW233936   0.358   3.253  14.656 -0.1813 -0.0190  0.6833
 7435SOL     OW33937   0.874   1.765  16.899 -0.4586  0.7187 -0.2658
 7435SOL    HW133938   0.934   1.696  16.871  1.3482  2.5954 -1.0447
 7435SOL    HW233939   0.902   1.838  16.844 -2.2401  1.0335 -0.7473
 7436SOL     OW33940   3.300   3.630   2.369 -1.2405  0.2549  0.7892
 7436SOL    HW133941   3.315   3.715   2.412  3.3462 -1.1475  1.9554
 7436SOL    HW233942   3.261   3.650   2.284  0.1761  1.5179  0.4329
 7437SOL     OW33943   0.213   1.440   8.499  0.3512 -0.4437 -0.4270
 7437SOL    HW133944   0.122   1.469   8.499  0.0965 -1.2575 -0.1885
 7437SOL    HW233945   0.234   1.426   8.592 -0.1820  1.7505  0.0264
 7438SOL     OW33946   3.018   3.536   8.171  0.3131 -0.0831 -0.2030
 7438SOL    HW133947   2.960   3.486   8.112  1.3270 -1.7167  0.1799
 7438SOL    HW233948   3.060   3.465   8.219  1.4409  2.1746  2.0724
 7439SOL     OW33949   2.732   1.162   3.201  0.0273 -0.0496  0.2292
 7439SOL    HW133950   2.820   1.175   3.236 -0.2792  2.2824  0.1050
 7439SOL    HW233951   2.713   1.239   3.148  2.2224  0.7333  0.6135
 7440SOL     OW33952   4.497   0.375  12.249 -0.0763 -0.1393 -0.1853
 7440SOL    HW133953   4.404   0.363  12.267 -0.0120  1.2174  0.9776
 7440SOL    HW233954   4.501   0.470  12.248  0.5895 -0.1633 -0.1023
 7441SOL     OW33955   0.425   2.063   5.548 -0.3745 -0.0635  0.1353
 7441SOL    HW133956   0.342   2.066   5.595 -0.3051 -1.2083  0.3253
 7441SOL    HW233957   0.426   1.970   5.526 -1.0732 -0.1667  0.5535
 7442SOL     OW33958   3.398   2.664   6.021 -0.8260 -0.3729  0.1374
 7442SOL    HW133959   3.433   2.576   6.014 -1.3614 -0.5229 -0.6425
 7442SOL    HW233960   3.360   2.674   6.108 -0.0718  0.2302  0.4051
 7443SOL     OW33961   2.632   4.192   8.150 -0.0284 -0.0863 -0.2807
 7443SOL    HW133962   2.624   4.284   8.126 -2.2906  0.0372  0.9625
 7443SOL    HW233963   2.580   4.195   8.230  2.4013  1.5194  1.2305
 7444SOL     OW33964   2.297   2.282  14.775 -0.0395  0.2036  1.1523
 7444SOL    HW133965   2.289   2.367  14.819  0.2724  1.6359 -1.5801
 7444SOL    HW233966   2.311   2.308  14.684  1.9732 -0.7838  1.1791
 7445SOL     OW33967   3.096   4.263   7.675 -0.5023 -0.1642  0.4908
 7445SOL    HW133968   3.157   4.204   7.630  1.6047  1.0201  1.8459
 7445SOL    HW233969   3.108   4.252   7.769 -1.6177 -1.2780  0.5147
 7446SOL     OW33970   4.572   0.852   7.570  0.0460  0.0004  0.7972
 7446SOL    HW133971   4.577   0.758   7.553 -3.3447  0.0111 -0.2003
 7446SOL    HW233972   4.554   0.860   7.664 -1.2032 -0.3828  0.5812
 7447SOL     OW33973   1.137   1.942   6.478 -0.3171  0.6369  0.3539
 7447SOL    HW133974   1.194   1.905   6.546 -1.9260 -1.1662  0.7194
 7447SOL    HW233975   1.068   1.876   6.480 -0.2076  0.5509  1.0505
 7448SOL     OW33976   3.314   2.716   6.931  0.1415 -0.3266 -0.4190
 7448SOL    HW133977   3.335   2.632   6.892  0.5086 -0.7249  0.6430
 7448SOL    HW233978   3.360   2.716   7.015 -1.8442 -2.1582  0.6630
 7449SOL     OW33979   3.214   2.749   1.319  0.4302  0.3731  0.6223
 7449SOL    HW133980   3.201   2.693   1.242 -0.7909 -1.1805  1.9333
 7449SOL    HW233981   3.285   2.702   1.362  1.9859  1.2046 -1.0231
 7450SOL     OW33982   1.090   3.537   6.058 -0.0108  0.0053 -0.2127
 7450SOL    HW133983   1.104   3.445   6.036  1.2933  0.5181 -1.4634
 7450SOL    HW233984   1.155   3.587   6.009 -1.2154  1.4076 -0.4099
 7451SOL     OW33985   4.357   4.007   9.424 -0.2984  0.3406  0.9272
 7451SOL    HW133986   4.357   4.101   9.440  0.8098  0.3338  0.9532
 7451SOL    HW233987   4.450   4.006   9.398 -0.6975 -0.8817 -0.4906
 7452SOL     OW33988   1.086   1.356   6.635  0.1111 -0.2573 -0.2916
 7452SOL    HW133989   1.163   1.301   6.652  0.9693  1.2926  0.8837
 7452SOL    HW233990   1.128   1.425   6.584  0.4771 -0.8944 -0.8521
 7453SOL     OW33991   3.042   1.768   9.819 -0.3524 -0.2024 -0.0897
 7453SOL    HW133992   3.116   1.824   9.797 -0.0776 -0.8344 -0.7864
 7453SOL    HW233993   3.058   1.759   9.913 -0.0471  0.2664 -0.0968
 7454SOL     OW33994   3.375   2.425   8.077 -0.5510 -1.0390  0.2679
 7454SOL    HW133995   3.460   2.381   8.085  0.0289  0.0296  0.1337
 7454SOL    HW233996   3.384   2.451   7.985 -0.3317  0.3690  0.6729
 7455SOL     OW33997   3.059   2.824   4.942 -0.0205 -0.0101 -0.1751
 7455SOL    HW133998   3.022   2.807   5.028  1.8884 -0.5500  0.5413
 7455SOL    HW233999   3.147   2.790   4.961 -0.3877  0.0639  1.6450
 7456SOL     OW34000   1.883   0.155   7.352 -0.0965  0.2927  0.4495
 7456SOL    HW134001   1.953   0.167   7.416  0.7632 -0.8633 -0.2761
 7456SOL    HW234002   1.851   0.245   7.348 -0.2371  0.4166  3.7526
 7457SOL     OW34003   1.328   0.003  12.289  0.1602  0.3019 -0.7214
 7457SOL    HW134004   1.385   4.721  12.214  1.2542 -1.0854  0.3990
 7457SOL    HW234005   1.357   4.683  12.363  1.7889 -0.1867 -1.7174
 7458SOL     OW34006   1.947   1.770   4.278  0.1848  0.2760  0.1926
 7458SOL    HW134007   1.854   1.757   4.259  0.2571 -2.0107  1.3886
 7458SOL    HW234008   1.964   1.704   4.345  0.0072  0.5061  0.4632
 7459SOL     OW34009   3.138   2.427   4.013  0.2117 -0.1045 -0.1878
 7459SOL    HW134010   3.089   2.496   4.056  0.9358  0.6378 -0.5667
 7459SOL    HW234011   3.068   2.380   3.967  0.0062 -1.7169  1.7876
 7460SOL     OW34012   3.990   4.656  11.638 -0.4473  0.2144  0.0727
 7460SOL    HW134013   4.007   4.596  11.710 -0.5451 -0.7123 -0.6854
 7460SOL    HW234014   4.075   4.694  11.612  0.1042  0.1430  1.7655
 7461SOL     OW34015   2.054   2.224   5.493  0.0333 -0.0954  0.3324
 7461SOL    HW134016   1.978   2.177   5.530  0.8855  0.4756  2.8223
 7461SOL    HW234017   2.097   2.280   5.558 -0.4857 -1.2228  1.6594
 7462SOL     OW34018   1.725   3.820   7.450  0.3506  0.2821 -0.5404
 7462SOL    HW134019   1.704   3.735   7.411  2.6897 -1.8109  2.7158
 7462SOL    HW234020   1.633   3.847   7.442  0.9453  2.6115  0.4709
 7463SOL     OW34021   4.685   3.795   4.145  0.1575 -0.0317 -0.5616
 7463SOL    HW134022   4.734   3.752   4.075 -0.2448  1.5405 -1.7922
 7463SOL    HW234023   4.599   3.755   4.136 -0.6185  0.9558  2.3687
 7464SOL     OW34024   1.640   0.129   7.092 -0.1218  0.3703 -0.0307
 7464SOL    HW134025   1.636   0.055   7.153 -0.1813  0.6718  0.3304
 7464SOL    HW234026   1.604   0.080   7.018 -0.0433  0.3186 -0.0349
 7465SOL     OW34027   3.646   0.400   3.452 -0.2571 -0.0791 -0.3216
 7465SOL    HW134028   3.604   0.383   3.537  1.1351 -2.2468 -0.0723
 7465SOL    HW234029   3.595   0.345   3.392 -0.9980  2.1216 -1.7076
 7466SOL     OW34030   1.045   0.426  17.013  0.4396 -0.4000 -0.3930
 7466SOL    HW134031   1.064   0.484  17.087 -0.7619  0.1784 -0.5405
 7466SOL    HW234032   1.118   0.369  16.990  1.7063  0.8955  0.4826
 7467SOL     OW34033   1.403   4.389   1.791  0.4150 -0.4993  0.3130
 7467SOL    HW134034   1.385   4.466   1.736 -0.5487 -1.6229 -0.9477
 7467SOL    HW234035   1.490   4.365   1.758  0.7186  0.1970  0.5873
 7468SOL     OW34036   4.062   1.235   1.386 -0.0612  0.0459 -0.1786
 7468SOL    HW134037   4.071   1.328   1.364 -0.0390  0.2161  0.5491
 7468SOL    HW234038   3.988   1.237   1.447 -0.5745  1.5626 -0.8406
 7469SOL     OW34039   0.692   1.479   9.557  0.0042  0.1526 -0.6500
 7469SOL    HW134040   0.684   1.418   9.484 -1.4198 -1.0667  0.5233
 7469SOL    HW234041   0.781   1.468   9.591 -1.0546  2.3987  2.9224
 7470SOL     OW34042   0.717   0.925  16.994  0.4304  0.0458  0.2212
 7470SOL    HW134043   0.686   0.975  16.919  1.2045 -1.2786 -0.9763
 7470SOL    HW234044   0.706   0.992  17.061 -0.0491  0.1357  0.0526
 7471SOL     OW34045   0.677   2.891   5.952 -0.1098 -0.1410 -0.6152
 7471SOL    HW134046   0.737   2.867   6.023 -0.0212  0.6897 -0.4150
 7471SOL    HW234047   0.667   2.985   5.968  2.0671  0.0795 -0.4314
 7472SOL     OW34048   1.974   0.330  11.640 -0.3031  0.5450 -0.3764
 7472SOL    HW134049   1.931   0.284  11.712  0.4919  0.5370  0.0905
 7472SOL    HW234050   1.934   0.278  11.570  1.0875  0.5273 -1.1669
 7473SOL     OW34051   1.202   2.934   6.444  0.3045 -0.1778  0.5057
 7473SOL    HW134052   1.167   3.009   6.493 -1.9258 -0.1321 -1.2057
 7473SOL    HW234053   1.265   2.974   6.384 -0.3909 -0.6602 -0.5495
 7474SOL     OW34054   2.404   4.058  17.655 -0.1313  0.1273  0.1150
 7474SOL    HW134055   2.386   3.967  17.632 -0.3971  0.3857 -0.7024
 7474SOL    HW234056   2.314   4.092  17.658 -0.1927  0.1219 -1.5803
 7475SOL     OW34057   3.194   2.147   3.137 -0.1146  0.0511 -0.2021
 7475SOL    HW134058   3.166   2.237   3.118  1.6029  0.6860  0.2432
 7475SOL    HW234059   3.212   2.122   3.046 -0.1626 -0.5922 -0.0316
 7476SOL     OW34060   3.179   4.102   3.965  0.2466 -0.2974  0.6144
 7476SOL    HW134061   3.093   4.073   3.935  0.5855 -1.5707  0.8642
 7476SOL    HW234062   3.218   4.015   3.964 -0.6828 -0.7200  0.9927
 7477SOL     OW34063   2.547   3.514   7.128  0.4038 -0.3126  0.4602
 7477SOL    HW134064   2.569   3.607   7.125 -1.5841  0.1532  0.2941
 7477SOL    HW234065   2.462   3.505   7.084  2.0946 -0.0098 -2.9213
 7478SOL     OW34066   0.657   0.381   8.627  0.0187  0.0802  0.4654
 7478SOL    HW134067   0.670   0.301   8.575  0.8277 -0.0704  0.8972
 7478SOL    HW234068   0.631   0.448   8.564 -1.6631  0.2490  1.3388
 7479SOL     OW34069   3.923   3.396   3.276 -0.2605  0.4885 -0.1564
 7479SOL    HW134070   3.899   3.313   3.235  0.9441  0.5516 -0.9926
 7479SOL    HW234071   4.008   3.401   3.231 -0.2647 -0.4817 -0.2712
 7480SOL     OW34072   2.531   0.795   0.405  0.3028  0.0658 -0.1661
 7480SOL    HW134073   2.519   0.862   0.473 -2.7092  0.0999 -0.7153
 7480SOL    HW234074   2.549   0.851   0.330  0.5432  0.0849 -0.0960
 7481SOL     OW34075   0.741   2.959   2.286  0.0391 -0.7411  0.1118
 7481SOL    HW134076   0.696   2.996   2.209 -1.0660  2.1844  2.1751
 7481SOL    HW234077   0.761   3.038   2.335 -2.9245  0.3912 -0.5016
 7482SOL     OW34078   1.098   2.161  10.796  0.0361  0.0484 -0.0566
 7482SOL    HW134079   1.060   2.248  10.781  0.6321  0.1128 -1.1314
 7482SOL    HW234080   1.021   2.113  10.829 -1.1099  1.1004 -1.2215
 7483SOL     OW34081   0.310   2.071   4.424 -0.0346  0.1353 -0.3404
 7483SOL    HW134082   0.376   2.138   4.403 -0.3938  0.4198 -0.5699
 7483SOL    HW234083   0.247   2.072   4.352 -0.2188 -0.6218 -0.1856
 7484SOL     OW34084   4.214   4.037  15.341  0.0911 -0.0921  0.0464
 7484SOL    HW134085   4.308   4.028  15.325  0.1153 -0.1352  0.2067
 7484SOL    HW234086   4.212   4.059  15.434 -3.4074 -0.6834  0.0812
 7485SOL     OW34087   2.910   2.546   9.280 -0.3925 -0.3721 -0.9377
 7485SOL    HW134088   2.852   2.514   9.211  0.1983 -2.5480 -0.4392
 7485SOL    HW234089   2.901   2.479   9.347  0.4282  0.8775  0.4222
 7486SOL     OW34090   3.312   1.111  15.006  0.2340  0.0305 -0.1966
 7486SOL    HW134091   3.333   1.082  14.917  1.1089 -0.8199  0.2842
 7486SOL    HW234092   3.397   1.101  15.049 -0.1336 -3.6517 -0.3202
 7487SOL     OW34093   4.345   1.087   7.292  0.0787  0.0458  0.7386
 7487SOL    HW134094   4.377   1.141   7.364 -1.4795  0.1450  1.3406
 7487SOL    HW234095   4.279   1.142   7.250 -1.0282 -0.3164  2.0047
 7488SOL     OW34096   3.349   3.714   7.233 -0.2962  0.8374 -0.1062
 7488SOL    HW134097   3.348   3.764   7.152 -0.7147  1.7542  0.4758
 7488SOL    HW234098   3.400   3.771   7.291 -1.5463  1.1404  0.6818
 7489SOL     OW34099   0.537   2.786  10.686  0.3978 -0.7514 -0.0993
 7489SOL    HW134100   0.518   2.724  10.757  1.6614 -0.7703  0.2121
 7489SOL    HW234101   0.623   2.752  10.663  0.3528 -1.7332  1.2043
 7490SOL     OW34102   3.079   0.859   9.029 -0.3351 -0.0873  0.1232
 7490SOL    HW134103   3.078   0.954   9.040 -1.7151 -0.6864  5.0392
 7490SOL    HW234104   3.039   0.826   9.109  4.1962 -1.9094  1.6290
 7491SOL     OW34105   1.166   0.773  12.833 -0.2530 -0.0965  0.1529
 7491SOL    HW134106   1.122   0.853  12.804  0.6018 -0.3440 -1.8678
 7491SOL    HW234107   1.226   0.812  12.896 -1.7015  1.4662  0.5676
 7492SOL     OW34108   0.359   0.196  17.018 -0.3575  0.3469  0.2484
 7492SOL    HW134109   0.450   0.205  17.046 -0.5658  0.5298  0.8546
 7492SOL    HW234110   0.353   0.252  16.940  2.1589  0.4698  0.1541
 7493SOL     OW34111   2.879   4.649   7.319  0.6899 -0.1855  0.1202
 7493SOL    HW134112   2.859   4.620   7.409 -0.1862  2.6913  0.8459
 7493SOL    HW234113   2.945   4.585   7.291 -1.6748 -2.2775 -0.6364
 7494SOL     OW34114   1.922   4.372   2.277 -0.5071  0.0754 -0.5098
 7494SOL    HW134115   1.940   4.456   2.235  3.0591 -1.2016 -1.4683
 7494SOL    HW234116   1.902   4.315   2.203 -0.1015 -1.5586  0.6340
 7495SOL     OW34117   2.634   4.602   8.884 -0.5592  0.0087 -0.6767
 7495SOL    HW134118   2.659   4.642   8.801 -0.5081 -1.3354 -1.3164
 7495SOL    HW234119   2.614   4.670   8.949 -2.3618 -0.2007 -1.0085
 7496SOL     OW34120   1.813   4.336   0.163 -0.2076 -0.0633 -0.0940
 7496SOL    HW134121   1.879   4.395   0.200 -0.0813  0.0919 -0.5704
 7496SOL    HW234122   1.738   4.354   0.220 -1.0346  0.9443 -1.4951
 7497SOL     OW34123   0.116   4.172   6.488  0.4528 -0.1865  0.6510
 7497SOL    HW134124   0.078   4.244   6.438 -0.8394 -1.5223 -0.2888
 7497SOL    HW234125   0.197   4.211   6.522 -1.5571  3.4234  1.3043
 7498SOL     OW34126   4.449   4.091   2.379  0.0247 -0.2979  0.6044
 7498SOL    HW134127   4.368   4.138   2.363  1.0214  1.4217  0.5766
 7498SOL    HW234128   4.480   4.152   2.445 -2.7844  1.3135  0.3958
 7499SOL     OW34129   3.472   2.174   1.726 -0.1159  0.0526  0.2094
 7499SOL    HW134130   3.447   2.244   1.786  3.3110  1.4083  0.0804
 7499SOL    HW234131   3.538   2.214   1.669  0.2268  1.2654  1.4719
 7500SOL     OW34132   3.946   4.708   8.013 -0.1620  0.0049 -0.4498
 7500SOL    HW134133   3.948   4.698   8.108  0.1314  0.5422 -0.4045
 7500SOL    HW234134   3.917   0.063   7.998  1.0201  0.4496 -0.0285
 7501SOL     OW34135   1.929   3.655   4.598  0.2502  0.9124  0.4811
 7501SOL    HW134136   1.924   3.644   4.693  2.7918 -0.6928  0.4350
 7501SOL    HW234137   1.858   3.717   4.584 -1.8014 -1.9417 -1.7648
 7502SOL     OW34138   3.491   1.649  10.196  0.8753 -0.3596  0.0406
 7502SOL    HW134139   3.495   1.614  10.106  1.1332 -1.0008  0.3009
 7502SOL    HW234140   3.482   1.574  10.255 -0.0873  0.7461  1.2799
 7503SOL     OW34141   0.236   4.160   7.429  1.0183  0.3711  0.1316
 7503SOL    HW134142   0.158   4.105   7.428  0.7528  0.7912 -3.6796
 7503SOL    HW234143   0.284   4.118   7.358  1.3760 -1.8504  1.6963
 7504SOL     OW34144   0.446   0.123   3.974  0.1884  0.5095 -0.7957
 7504SOL    HW134145   0.471   0.215   3.986 -0.6664  0.7021 -0.5379
 7504SOL    HW234146   0.386   0.118   4.047 -0.6464 -0.0233 -1.5184
 7505SOL     OW34147   1.603   2.245   0.480  0.1614  0.5387 -0.2045
 7505SOL    HW134148   1.586   2.336   0.456  2.0636  1.2652  1.2078
 7505SOL    HW234149   1.690   2.228   0.444 -0.0193 -1.3475  0.2433
 7506SOL     OW34150   1.349   0.386   8.082 -0.2556 -0.0488 -0.0275
 7506SOL    HW134151   1.353   0.332   8.003  0.2943  2.8216 -1.9513
 7506SOL    HW234152   1.433   0.374   8.126  0.6576  0.7698 -1.5423
 7507SOL     OW34153   4.482   0.697  11.398 -0.0855  0.0786  0.5115
 7507SOL    HW134154   4.515   0.610  11.376 -0.6887  0.7313 -3.0173
 7507SOL    HW234155   4.523   0.713  11.483  1.2645  1.5348 -0.3948
 7508SOL     OW34156   2.175   3.505  16.301  0.0940 -0.5931  0.1302
 7508SOL    HW134157   2.106   3.444  16.278 -0.4459  0.5258 -1.1712
 7508SOL    HW234158   2.226   3.516  16.221 -0.2905  0.6590  0.0688
 7509SOL     OW34159   0.970   2.371   4.266  0.1862 -0.3302  0.0961
 7509SOL    HW134160   1.064   2.383   4.278  0.3458  1.2435 -2.5995
 7509SOL    HW234161   0.960   2.282   4.233  0.8556  0.6079 -2.6579
 7510SOL     OW34162   0.967   4.246  14.478 -0.0687 -0.2954 -0.2247
 7510SOL    HW134163   0.979   4.233  14.572 -0.7356  0.5874 -0.0134
 7510SOL    HW234164   1.052   4.287  14.463 -0.8534  0.8014 -1.6533
 7511SOL     OW34165   3.429   0.688   3.461 -0.2291 -0.1160 -0.2808
 7511SOL    HW134166   3.342   0.688   3.421 -0.5413 -0.7525  0.4140
 7511SOL    HW234167   3.483   0.707   3.384  0.6204  0.4548  0.4441
 7512SOL     OW34168   2.817   2.091  15.291  0.0431 -0.2607 -0.2445
 7512SOL    HW134169   2.910   2.095  15.313 -0.4745  0.3442  1.8528
 7512SOL    HW234170   2.829   2.091  15.196  2.5886 -0.5880  0.0792
 7513SOL     OW34171   1.959   1.075   6.085 -0.0708 -0.1665  0.2094
 7513SOL    HW134172   1.996   1.030   6.161  0.3012  0.7450  0.5720
 7513SOL    HW234173   1.960   1.009   6.015 -1.0343 -0.5174  0.5168
 7514SOL     OW34174   3.809   0.190   9.168  0.3115  0.0486 -0.0558
 7514SOL    HW134175   3.891   0.208   9.122  0.6909  1.2610  1.1059
 7514SOL    HW234176   3.793   0.101   9.137  0.4620 -0.1121  0.3323
 7515SOL     OW34177   1.050   0.918   5.506 -0.4110 -0.2932  0.1234
 7515SOL    HW134178   1.054   0.833   5.463  2.2217 -1.5574  2.7863
 7515SOL    HW234179   0.966   0.960   5.486 -0.0672  0.2334 -0.2056
 7516SOL     OW34180   3.283   3.033   2.061 -0.5001 -0.4789 -0.0861
 7516SOL    HW134181   3.328   3.106   2.104  2.5726 -2.1260 -0.4365
 7516SOL    HW234182   3.219   3.012   2.129 -1.5100  1.2941 -0.5076
 7517SOL     OW34183   1.876   0.098  13.136  0.8677  0.5825  0.1315
 7517SOL    HW134184   1.878   0.039  13.060  2.8096 -0.0050  0.6478
 7517SOL    HW234185   1.946   0.158  13.111 -1.6324  3.1305 -0.7763
 7518SOL     OW34186   2.888   0.284  15.762 -0.5636 -0.2706  0.1353
 7518SOL    HW134187   2.838   0.365  15.761 -0.6949 -0.3666 -0.6103
 7518SOL    HW234188   2.851   0.244  15.684 -2.3111 -0.2412  0.9495
 7519SOL     OW34189   0.864   3.590  13.800  0.4796 -0.0355  0.1764
 7519SOL    HW134190   0.799   3.650  13.836 -1.5777 -0.1695 -3.2725
 7519SOL    HW234191   0.819   3.505  13.799 -1.7453  1.1471 -0.9448
 7520SOL     OW34192   0.978   0.797   4.534 -0.4265  0.6288 -0.1702
 7520SOL    HW134193   1.019   0.870   4.488  0.8805 -0.0402 -0.0649
 7520SOL    HW234194   0.895   0.843   4.542 -1.4889 -1.5375  1.2435
 7521SOL     OW34195   0.598   3.100  10.238  0.0201  0.3904 -0.1085
 7521SOL    HW134196   0.567   3.189  10.256 -2.6628 -0.7334  0.8299
 7521SOL    HW234197   0.641   3.072  10.319  1.8577 -1.5537 -1.7340
 7522SOL     OW34198   0.243   0.379   6.575  1.0075  0.7308  0.4494
 7522SOL    HW134199   0.307   0.337   6.517  0.1328  1.2724 -0.9215
 7522SOL    HW234200   0.229   0.309   6.638  0.0394 -0.8686 -1.5261
 7523SOL     OW34201   2.516   0.561   2.240 -0.0197 -0.2708  0.3549
 7523SOL    HW134202   2.600   0.523   2.265 -1.0192 -2.5715  0.2616
 7523SOL    HW234203   2.460   0.518   2.305 -1.1566  0.8857  0.1378
 7524SOL     OW34204   2.152   3.020   6.482  0.4136  0.1094 -0.1741
 7524SOL    HW134205   2.068   3.048   6.519  0.1687 -2.9173  1.5688
 7524SOL    HW234206   2.214   3.082   6.520 -0.8512  2.0697 -1.3530
 7525SOL     OW34207   4.573   1.829   0.799 -0.2726  0.2824 -0.8700
 7525SOL    HW134208   4.640   1.845   0.732  0.4509 -1.4569 -0.5638
 7525SOL    HW234209   4.548   1.742   0.766  0.1514 -0.5700  1.0273
 7526SOL     OW34210   2.387   0.841   1.206  0.6690 -0.0922  0.1979
 7526SOL    HW134211   2.372   0.753   1.170  0.0619  0.4861 -0.9753
 7526SOL    HW234212   2.380   0.827   1.300 -1.5378 -0.7010 -0.0482
 7527SOL     OW34213   3.769   0.319   7.083  0.1648  0.0165  0.0685
 7527SOL    HW134214   3.812   0.333   6.999  3.2410  2.6692  2.0758
 7527SOL    HW234215   3.696   0.262   7.058 -0.0110  0.5731 -0.6823
 7528SOL     OW34216   1.088   4.185   9.013 -0.5864  0.1657 -0.2564
 7528SOL    HW134217   1.115   4.100   8.979  1.6349  0.2599  1.2637
 7528SOL    HW234218   1.050   4.234   8.940 -1.1878  0.4866  0.2655
 7529SOL     OW34219   1.381   3.237   8.844  0.5206 -0.1930  0.4331
 7529SOL    HW134220   1.317   3.201   8.906  0.0440 -0.2982 -0.1174
 7529SOL    HW234221   1.334   3.258   8.763  1.2060 -0.1423  0.0508
 7530SOL     OW34222   4.077   1.255  14.928  0.0194  0.1358  0.0563
 7530SOL    HW134223   4.018   1.238  15.001 -1.0917  0.7249 -0.7028
 7530SOL    HW234224   4.149   1.303  14.969 -0.3205  0.9978 -0.3511
 7531SOL     OW34225   4.548   1.783   0.014 -0.7237  0.0125 -0.1896
 7531SOL    HW134226   4.497   1.732   0.076  0.0492  1.5994  1.7443
 7531SOL    HW234227   4.614   1.714   0.005 -0.4222  0.4975 -1.6474
 7532SOL     OW34228   4.422   2.260   3.194 -0.6374  0.2249 -0.1633
 7532SOL    HW134229   4.457   2.314   3.122  0.0484 -1.8448 -1.3750
 7532SOL    HW234230   4.394   2.338   3.241 -0.9027  1.9705 -3.1794
 7533SOL     OW34231   4.649   3.936   0.841  0.3726 -0.3353  0.2132
 7533SOL    HW134232   4.708   3.905   0.772 -0.8169 -3.4420  0.5956
 7533SOL    HW234233   4.652   4.030   0.822 -0.0077  0.4756  4.3547
 7534SOL     OW34234   3.653   0.200   5.944  0.9972 -0.1963  0.1441
 7534SOL    HW134235   3.628   0.241   5.861  1.0186  0.3871  0.4212
 7534SOL    HW234236   3.566   0.167   5.968 -0.1564  2.2122 -0.6403
 7535SOL     OW34237   1.946   1.350   2.647  0.4736 -0.3815  0.1464
 7535SOL    HW134238   2.021   1.302   2.680  0.8777 -0.2308 -0.5511
 7535SOL    HW234239   1.949   1.428   2.703  0.8734 -0.5882  0.4123
 7536SOL     OW34240   2.696   0.596   0.470 -0.3930 -0.2008 -0.4648
 7536SOL    HW134241   2.655   0.514   0.442  0.5029 -1.2683  1.4027
 7536SOL    HW234242   2.640   0.670   0.445 -1.4188 -0.6451  0.5101
 7537SOL     OW34243   3.607   0.332  16.484  0.2037  0.4194  0.1099
 7537SOL    HW134244   3.698   0.306  16.470 -0.1429 -0.9059  0.4165
 7537SOL    HW234245   3.600   0.305  16.575  0.2404  0.0632  0.0045
 7538SOL     OW34246   3.912   2.960   1.768  0.0116  0.3226 -0.1343
 7538SOL    HW134247   3.941   2.971   1.858  1.2131  2.4810 -0.7870
 7538SOL    HW234248   3.834   3.016   1.771 -0.1548  0.0067  1.4237
 7539SOL     OW34249   2.404   3.009   2.088 -0.3241 -0.6370 -0.3414
 7539SOL    HW134250   2.312   3.027   2.073 -0.3805 -0.6792 -0.0431
 7539SOL    HW234251   2.402   2.913   2.095  0.1258 -0.8167 -2.7946
 7540SOL     OW34252   0.733   1.899   3.357  0.3312  0.8025  0.3006
 7540SOL    HW134253   0.793   1.851   3.415 -0.8321  0.0857  0.9092
 7540SOL    HW234254   0.652   1.908   3.407 -0.2345 -1.5822 -0.1826
 7541SOL     OW34255   4.308   3.623   8.179 -0.1026 -0.1087  0.2091
 7541SOL    HW134256   4.281   3.688   8.244 -2.0065  0.4913 -1.1611
 7541SOL    HW234257   4.312   3.671   8.096 -2.0978 -0.7324 -0.2547
 7542SOL     OW34258   1.463   3.287   9.277 -0.4523  0.0535  0.6640
 7542SOL    HW134259   1.425   3.315   9.360 -1.3327  0.3452  0.1614
 7542SOL    HW234260   1.404   3.332   9.216  0.5993 -0.0115 -0.4185
 7543SOL     OW34261   3.570   2.070   2.391 -0.3097  0.7906  0.1038
 7543SOL    HW134262   3.507   2.139   2.372  0.8873  1.8400 -0.0459
 7543SOL    HW234263   3.528   2.009   2.451  0.1562 -0.3032 -0.6843
 7544SOL     OW34264   1.141   3.620   8.057 -0.5473  0.1851  0.0140
 7544SOL    HW134265   1.209   3.590   7.997 -0.4638 -2.9993  1.6982
 7544SOL    HW234266   1.075   3.670   8.008  0.3734  0.9450 -0.4506
 7545SOL     OW34267   2.880   1.097  10.970  0.4122 -0.7213  0.9255
 7545SOL    HW134268   2.882   1.134  10.882  1.6254 -0.5905  1.0158
 7545SOL    HW234269   2.834   1.013  10.962 -2.9451  1.0686  1.2688
 7546SOL     OW34270   1.382   4.723   1.896  0.1550  0.0288 -0.4351
 7546SOL    HW134271   1.422   4.708   1.810  0.0790  2.2889 -0.8682
 7546SOL    HW234272   1.438   4.667   1.950  3.8892  0.8354 -3.4550
 7547SOL     OW34273   2.895   1.334   3.559  0.4546  1.0170 -0.7404
 7547SOL    HW134274   2.951   1.273   3.607 -1.3043 -2.4734 -3.1321
 7547SOL    HW234275   2.917   1.308   3.469  0.4228 -1.2765 -0.0800
 7548SOL     OW34276   1.851   4.470  16.588  0.3210 -0.8403  0.0963
 7548SOL    HW134277   1.849   4.515  16.504 -1.8370 -0.2955  0.4297
 7548SOL    HW234278   1.946   4.478  16.594  0.2669  1.4876 -1.9626
 7549SOL     OW34279   1.785   1.067   9.026 -0.0629  0.0332 -0.4533
 7549SOL    HW134280   1.734   1.021   9.092 -0.0443 -1.0504 -1.2027
 7549SOL    HW234281   1.857   1.102   9.079  1.2580 -0.4452 -1.9330
 7550SOL     OW34282   0.225   0.915  16.612  0.3143  0.1925  0.4133
 7550SOL    HW134283   0.135   0.914  16.644 -0.1118 -1.0389 -0.8545
 7550SOL    HW234284   0.253   0.824  16.614  2.6284  0.8864 -0.6370
 7551SOL     OW34285   3.435   3.585   8.353  0.5506  0.5582 -0.1192
 7551SOL    HW134286   3.437   3.680   8.361  0.2238  0.6104 -0.6453
 7551SOL    HW234287   3.420   3.588   8.258 -2.3541  0.2069  0.3285
 7552SOL     OW34288   1.483   0.970  11.952 -0.2531 -0.0199  0.2427
 7552SOL    HW134289   1.538   0.913  12.006 -2.5515  0.6643  3.3125
 7552SOL    HW234290   1.537   1.048  11.948 -1.6543  0.9950  1.2142
 7553SOL     OW34291   3.081   1.830  10.567 -0.4386  0.4308  0.1814
 7553SOL    HW134292   3.119   1.796  10.486 -1.3876  0.2779 -0.1989
 7553SOL    HW234293   3.078   1.925  10.558 -1.5225  0.6849  3.4073
 7554SOL     OW34294   2.428   1.220  15.494  0.3802 -0.2629  0.5055
 7554SOL    HW134295   2.363   1.155  15.521  0.4931 -0.2319  0.8557
 7554SOL    HW234296   2.373   1.299  15.499 -0.3853 -0.6885 -1.2180
 7555SOL     OW34297   0.088   3.541  12.208  0.3682  0.3370 -1.0205
 7555SOL    HW134298   0.036   3.460  12.204  0.9705 -0.1887  1.6103
 7555SOL    HW234299   0.163   3.512  12.259 -0.0859 -2.5486 -1.9807
 7556SOL     OW34300   0.153   4.561   6.147 -0.1753 -0.3532 -0.0907
 7556SOL    HW134301   0.185   4.547   6.058 -1.4698  1.7681 -0.8682
 7556SOL    HW234302   0.092   4.490   6.166 -2.5489  1.2461 -1.7739
 7557SOL     OW34303   4.048   1.233   2.907 -0.2773 -0.3087 -0.0701
 7557SOL    HW134304   4.081   1.258   2.821 -2.6235  0.1910 -0.8440
 7557SOL    HW234305   3.989   1.163   2.880  0.1293  0.0391 -1.8070
 7558SOL     OW34306   4.024   0.725   7.379  0.3521  0.1596 -0.2646
 7558SOL    HW134307   4.048   0.760   7.293 -0.5333  1.2430 -0.0666
 7558SOL    HW234308   3.930   0.745   7.387 -0.1569 -1.5341 -1.8310
 7559SOL     OW34309   3.455   2.847   1.934  0.0707  0.0184  0.2604
 7559SOL    HW134310   3.523   2.842   2.001 -2.1383  1.9550  2.6425
 7559SOL    HW234311   3.391   2.899   1.983  1.7490  2.1459  0.2093
 7560SOL     OW34312   0.446   1.982  10.520  0.6381  0.2709  0.0048
 7560SOL    HW134313   0.382   1.912  10.505 -0.2417  0.9572  0.5864
 7560SOL    HW234314   0.476   1.959  10.608  0.8280 -0.7426 -0.3228
 7561SOL     OW34315   2.244   1.154  17.033 -0.2103  0.5107 -0.2912
 7561SOL    HW134316   2.183   1.164  17.106  1.5717 -0.3994  1.3241
 7561SOL    HW234317   2.191   1.178  16.957 -0.9167  0.0902  0.0809
 7562SOL     OW34318   3.679   3.319   6.832  0.0710  0.1271 -0.1817
 7562SOL    HW134319   3.720   3.294   6.749  0.0229  1.2493 -0.5406
 7562SOL    HW234320   3.714   3.250   6.888 -0.9025 -0.0842  0.1698
 7563SOL     OW34321   1.678   2.846  13.632 -0.0468  0.0806 -0.3291
 7563SOL    HW134322   1.585   2.829  13.648 -0.4064  2.8821  0.5706
 7563SOL    HW234323   1.704   2.766  13.678  0.5196  0.5394  0.1506
 7564SOL     OW34324   2.126   0.497  12.126 -0.3963 -0.1824 -0.5551
 7564SOL    HW134325   2.163   0.547  12.053  0.5126  0.1822  0.1589
 7564SOL    HW234326   2.146   0.410  12.091  1.3724 -0.4518  1.1422
 7565SOL     OW34327   2.340   1.787   7.826 -0.1516 -0.2967  0.0315
 7565SOL    HW134328   2.331   1.700   7.865  0.5692 -0.6097 -0.4946
 7565SOL    HW234329   2.434   1.778   7.808 -0.1773  0.5887 -0.5833
 7566SOL     OW34330   3.113   0.776  11.720  0.0226  0.0568 -0.5152
 7566SOL    HW134331   3.078   0.861  11.746 -2.6760 -0.3342 -2.8975
 7566SOL    HW234332   3.072   0.719  11.785  0.1396 -0.8650 -1.2528
 7567SOL     OW34333   3.344   0.809   6.295 -0.2687  0.5451  0.2876
 7567SOL    HW134334   3.323   0.877   6.359  0.9708  1.6091 -0.4294
 7567SOL    HW234335   3.276   0.745   6.313 -0.3959  0.2407 -1.2671
 7568SOL     OW34336   4.068   0.076   8.584  0.3972 -0.3939 -0.1841
 7568SOL    HW134337   4.149   0.067   8.633  0.3079  0.6285  0.1445
 7568SOL    HW234338   4.106   0.080   8.496  1.0417 -0.7737  0.0807
 7569SOL     OW34339   2.380   2.890  11.983 -0.3302 -0.5019  0.5001
 7569SOL    HW134340   2.351   2.803  12.009  0.9543 -0.3215  2.5546
 7569SOL    HW234341   2.433   2.866  11.907 -0.9880 -1.7038  0.4357
 7570SOL     OW34342   2.313   2.195   1.022  0.3246 -0.5206 -0.1278
 7570SOL    HW134343   2.394   2.242   1.000  0.1083 -0.5255 -0.9451
 7570SOL    HW234344   2.260   2.258   1.070 -0.6086 -1.0005 -0.5170
 7571SOL     OW34345   3.615   4.173  13.702  0.7319  0.1716 -0.5771
 7571SOL    HW134346   3.655   4.189  13.788  0.0618 -0.2517 -0.1813
 7571SOL    HW234347   3.599   4.079  13.709 -1.4439  0.4684 -1.6606
 7572SOL     OW34348   2.171   0.508   7.376  0.5132  0.5576 -0.0895
 7572SOL    HW134349   2.169   0.552   7.291 -2.7252  1.4256  0.4398
 7572SOL    HW234350   2.170   0.414   7.359  0.2270  1.1436 -3.4337
 7573SOL     OW34351   1.423   2.867   8.948 -0.6593  0.2093  0.2051
 7573SOL    HW134352   1.403   2.811   8.874  2.0363 -0.2876 -0.1277
 7573SOL    HW234353   1.482   2.934   8.914 -0.6033  0.8007  1.4638
 7574SOL     OW34354   0.485   0.324   1.329  0.4147  0.4490  0.3719
 7574SOL    HW134355   0.427   0.283   1.266 -0.1745  2.8909 -0.6755
 7574SOL    HW234356   0.534   0.252   1.369  1.3926  0.8784 -0.0384
 7575SOL     OW34357   3.646   2.515  15.986 -0.5623  0.1981 -0.5570
 7575SOL    HW134358   3.571   2.460  16.009 -0.9677  1.0767  0.2477
 7575SOL    HW234359   3.660   2.561  16.069  2.1003  0.4717 -1.1573
 7576SOL     OW34360   2.602   4.186   2.865 -0.1092 -0.2032  0.5934
 7576SOL    HW134361   2.557   4.116   2.913 -4.0297  1.4474 -0.6614
 7576SOL    HW234362   2.529   4.247   2.857 -0.0798 -0.2670 -0.1227
 7577SOL     OW34363   0.388   2.861   2.103  0.3070  0.3946 -0.9072
 7577SOL    HW134364   0.476   2.893   2.085  0.4332  0.2713 -0.5080
 7577SOL    HW234365   0.408   2.771   2.126  3.3739  1.0425 -0.9834
 7578SOL     OW34366   4.257   3.376   6.250 -0.0046  0.0506  0.7260
 7578SOL    HW134367   4.193   3.387   6.180  2.3399  0.5549 -1.3188
 7578SOL    HW234368   4.290   3.466   6.245 -1.5508  0.5477 -0.3139
 7579SOL     OW34369   2.092   1.212   2.044  0.3331 -0.7431 -0.0407
 7579SOL    HW134370   2.066   1.194   2.135 -0.3525  1.5033  0.2039
 7579SOL    HW234371   2.127   1.301   2.043  1.2808 -1.1363 -1.4932
 7580SOL     OW34372   1.253   2.560  15.232 -0.3554 -0.3366  0.1417
 7580SOL    HW134373   1.171   2.608  15.221 -0.6976 -0.6909  1.2462
 7580SOL    HW234374   1.292   2.557  15.144  0.0238 -2.8837  0.3968
 7581SOL     OW34375   2.317   4.178  16.518  0.0514  0.3154  0.3568
 7581SOL    HW134376   2.227   4.212  16.513 -0.3488 -0.8498 -0.1519
 7581SOL    HW234377   2.321   4.109  16.584  1.0271  0.0926  0.0626
 7582SOL     OW34378   1.053   3.607   9.057 -0.5554  0.1453 -0.5813
 7582SOL    HW134379   1.099   3.675   9.006 -0.9713  1.0906  0.3007
 7582SOL    HW234380   1.084   3.628   9.145 -0.4787  1.8308 -0.9945
 7583SOL     OW34381   1.451   1.073   1.656 -0.4091 -0.4843 -0.0324
 7583SOL    HW134382   1.507   1.100   1.729  0.6449 -3.1045  0.1286
 7583SOL    HW234383   1.523   1.051   1.596 -0.6825 -0.8518 -0.2290
 7584SOL     OW34384   0.864   2.515   6.296  0.4233  0.6686 -0.2352
 7584SOL    HW134385   0.948   2.520   6.342 -0.7903  1.7109  1.8701
 7584SOL    HW234386   0.806   2.565   6.353 -1.4007 -2.2712  0.4958
 7585SOL     OW34387   2.099   1.639   8.119  0.2409  0.1412  0.0511
 7585SOL    HW134388   2.008   1.647   8.145  0.2089 -1.3159  0.3584
 7585SOL    HW234389   2.138   1.719   8.154 -1.1483  0.3469  1.0941
 7586SOL     OW34390   4.073   2.775   7.340 -0.1187  0.6422  0.4855
 7586SOL    HW134391   4.028   2.798   7.421  0.2994  0.1595  0.8527
 7586SOL    HW234392   4.020   2.698   7.321  0.0889  0.4566  0.6564
 7587SOL     OW34393   2.723   4.337   4.049 -0.6302  0.4900  0.0745
 7587SOL    HW134394   2.736   4.356   3.956  0.3104 -1.1092 -0.1103
 7587SOL    HW234395   2.811   4.335   4.086 -1.5997  0.8894  2.4103
 7588SOL     OW34396   0.467   4.248   3.312  0.2554 -0.6532 -0.2541
 7588SOL    HW134397   0.552   4.262   3.270 -1.3231  0.4870 -3.0476
 7588SOL    HW234398   0.410   4.211   3.245  0.6842 -0.1488 -0.8915
 7589SOL     OW34399   0.768   2.705   2.358  0.1518  0.0630  0.2639
 7589SOL    HW134400   0.764   2.795   2.324 -0.7544  0.4614  1.4275
 7589SOL    HW234401   0.695   2.697   2.419  0.3980 -1.8061  0.3026
 7590SOL     OW34402   3.539   2.323   5.666 -0.0072 -0.1880  0.1939
 7590SOL    HW134403   3.485   2.320   5.745 -0.9091 -0.7929 -0.4462
 7590SOL    HW234404   3.514   2.245   5.617 -1.3323 -0.4582  1.3326
 7591SOL     OW34405   4.377   1.152   2.565  0.2320  0.0813  0.6725
 7591SOL    HW134406   4.353   1.097   2.639  2.4541 -1.9506 -0.1345
 7591SOL    HW234407   4.358   1.086   2.498  0.4089  0.7421 -0.0406
 7592SOL     OW34408   1.821   2.206   3.675 -0.3108  0.6677 -0.4568
 7592SOL    HW134409   1.824   2.180   3.767 -0.4262  0.5503 -0.4863
 7592SOL    HW234410   1.883   2.140   3.644 -0.7187 -0.1884  0.5533
 7593SOL     OW34411   3.796   3.620  14.637  0.3318 -0.4120 -0.3847
 7593SOL    HW134412   3.749   3.628  14.720 -1.8811  2.3223 -1.9085
 7593SOL    HW234413   3.809   3.526  14.628 -0.8446 -0.5672 -0.5592
 7594SOL     OW34414   4.574   0.910   0.274  0.2122 -0.0337  0.2723
 7594SOL    HW134415   4.625   0.868   0.344 -3.2853 -0.4193  2.6061
 7594SOL    HW234416   4.571   0.839   0.210  2.1645  0.5063 -0.4074
 7595SOL     OW34417   0.011   3.714  17.043 -0.4221  0.0756  0.5286
 7595SOL    HW134418   4.724   3.622  17.058  1.0610 -0.7799 -2.5124
 7595SOL    HW234419   0.085   3.716  17.103  1.2791 -1.9875 -1.4965
 7596SOL     OW34420   2.660   2.416   1.993 -0.2361  0.5882  0.0523
 7596SOL    HW134421   2.702   2.497   1.963 -3.5464  3.0428  1.9761
 7596SOL    HW234422   2.630   2.368   1.916  0.7346 -3.8710  2.4966
 7597SOL     OW34423   0.887   0.130   3.494 -0.3648  0.0948 -0.1416
 7597SOL    HW134424   0.872   0.130   3.400 -0.6467  1.6899 -0.1017
 7597SOL    HW234425   0.961   0.074   3.517  0.5270  1.6590  0.9104
 7598SOL     OW34426   2.238   0.532  11.371  0.5509 -0.2422 -0.4095
 7598SOL    HW134427   2.218   0.584  11.293 -0.0876 -2.1277 -1.4768
 7598SOL    HW234428   2.327   0.502  11.355  0.2911 -0.9658 -0.4612
 7599SOL     OW34429   1.122   2.151   4.369  0.3426 -0.0655  0.0999
 7599SOL    HW134430   1.176   2.107   4.434  0.2785 -0.1503  0.0957
 7599SOL    HW234431   1.194   2.202   4.332  2.0918 -2.4302  0.2542
 7600SOL     OW34432   0.557   0.938  10.963  0.4116  0.2183  0.1535
 7600SOL    HW134433   0.482   0.997  10.959  1.5817  1.6584 -0.4281
 7600SOL    HW234434   0.506   0.857  10.971  0.6025  0.3005  2.2524
 7601SOL     OW34435   1.767   2.266  16.148 -0.0168  0.5958 -0.1701
 7601SOL    HW134436   1.790   2.346  16.195  1.4502 -0.1487  0.3643
 7601SOL    HW234437   1.694   2.237  16.203  0.0607 -1.9106 -1.3739
 7602SOL     OW34438   1.209   0.169   3.761  0.4548 -0.4559 -0.0928
 7602SOL    HW134439   1.302   0.192   3.760  0.1946  0.6503  0.3354
 7602SOL    HW234440   1.194   0.178   3.855  1.1265 -4.1758  0.3721
 7603SOL     OW34441   4.124   4.585   3.575  0.1202  0.0879  0.2399
 7603SOL    HW134442   4.051   4.524   3.582  0.7494 -0.8897 -1.7206
 7603SOL    HW234443   4.071   4.663   3.557  2.0433  0.9628 -1.5741
 7604SOL     OW34444   2.586   1.233   8.540 -0.1451  0.5722 -0.1022
 7604SOL    HW134445   2.500   1.273   8.538 -0.1741  0.4821 -0.5371
 7604SOL    HW234446   2.569   1.144   8.510  0.0585  0.5947 -0.2834
 7605SOL     OW34447   3.752   0.706   7.789 -0.0644 -0.1953  0.2900
 7605SOL    HW134448   3.813   0.776   7.763 -0.3055 -0.2189 -0.3486
 7605SOL    HW234449   3.713   0.676   7.706 -0.1240 -1.0489  0.6284
 7606SOL     OW34450   2.745   3.001   6.207 -0.7137 -0.3896 -0.6276
 7606SOL    HW134451   2.652   3.023   6.196 -0.5652  0.4003 -0.2852
 7606SOL    HW234452   2.741   2.924   6.264  1.4608  0.0490  0.0850
 7607SOL     OW34453   3.030   2.607   0.577  0.1354 -0.1669  0.1429
 7607SOL    HW134454   3.121   2.594   0.602 -0.3854  1.2384  2.7245
 7607SOL    HW234455   3.017   2.526   0.527  2.0479  0.2835 -1.0798
 7608SOL     OW34456   4.575   0.707   9.974 -0.2481  0.3977 -0.2014
 7608SOL    HW134457   4.609   0.641   9.914 -0.4256  0.1730 -0.0546
 7608SOL    HW234458   4.647   0.770   9.980  1.0657 -1.3949  2.6137
 7609SOL     OW34459   2.919   0.174  13.069 -0.3575  0.5176 -0.1828
 7609SOL    HW134460   2.937   0.267  13.085  0.7486 -0.2967  3.2718
 7609SOL    HW234461   2.988   0.152  13.006 -3.6717 -0.0526 -3.6270
 7610SOL     OW34462   0.639   4.041   1.459 -0.0983 -0.1796  0.2509
 7610SOL    HW134463   0.698   4.016   1.388  1.2890  1.8264  0.6928
 7610SOL    HW234464   0.670   3.994   1.536  0.5789  0.2126  0.2191
 7611SOL     OW34465   3.561   2.162   1.367  0.1341  0.8265 -0.0388
 7611SOL    HW134466   3.578   2.189   1.457 -0.2197  0.7197  0.0617
 7611SOL    HW234467   3.622   2.089   1.363  1.0651  1.5444  1.3614
 7612SOL     OW34468   2.066   3.510   8.743  0.7172 -0.0194 -0.3274
 7612SOL    HW134469   2.033   3.554   8.665 -0.2062 -1.2633 -0.6318
 7612SOL    HW234470   2.157   3.495   8.719  0.6164 -2.5981  0.9338
 7613SOL     OW34471   1.489   1.735   6.347  0.6478  0.5871 -0.5741
 7613SOL    HW134472   1.395   1.720   6.341  0.5033  1.0913  0.3391
 7613SOL    HW234473   1.497   1.815   6.296 -2.2692  1.1838 -0.1094
 7614SOL     OW34474   4.366   4.065   6.262  0.1770  0.0388  0.5051
 7614SOL    HW134475   4.275   4.088   6.278 -0.1532 -0.0240 -1.3018
 7614SOL    HW234476   4.385   3.996   6.325 -0.5925 -0.6961 -0.0768
 7615SOL     OW34477   3.065   3.565   8.640 -0.1197  0.2136 -0.5079
 7615SOL    HW134478   3.011   3.633   8.681  0.5513  1.0730 -1.0396
 7615SOL    HW234479   2.997   3.499   8.632  0.8861 -0.7133 -1.4092
 7616SOL     OW34480   1.476   3.409   2.765  0.4635 -0.0723 -0.2032
 7616SOL    HW134481   1.425   3.330   2.747 -1.7282  1.5643 -1.2475
 7616SOL    HW234482   1.542   3.390   2.698 -0.6954  1.8385 -1.8977
 7617SOL     OW34483   0.924   3.573  13.461 -0.0969 -0.4157 -0.2943
 7617SOL    HW134484   0.984   3.636  13.502 -0.9827  0.2288  0.0036
 7617SOL    HW234485   0.972   3.500  13.500  0.5629 -0.8772 -1.9592
 7618SOL     OW34486   1.087   2.939   2.251  0.7189  0.0845  0.2481
 7618SOL    HW134487   1.153   2.920   2.317  0.7091  1.5775  0.6892
 7618SOL    HW234488   1.007   2.924   2.302  1.1743 -2.0151  0.3136
 7619SOL     OW34489   3.525   3.137   2.286  0.7337 -0.4102 -0.0805
 7619SOL    HW134490   3.448   3.193   2.278  1.9360  1.0877 -1.1855
 7619SOL    HW234491   3.589   3.205   2.267 -1.0912  1.4151  0.3376
 7620SOL     OW34492   2.289   1.196  16.394 -0.0159  0.1439 -0.1152
 7620SOL    HW134493   2.294   1.186  16.489 -0.5278 -0.8065 -0.1829
 7620SOL    HW234494   2.208   1.152  16.367  0.2395 -1.7024  2.1399
 7621SOL     OW34495   3.881   4.029  15.951 -0.5145  0.0135 -0.4759
 7621SOL    HW134496   3.938   3.952  15.943 -0.1865  0.1629  0.3706
 7621SOL    HW234497   3.823   4.006  16.024 -0.3860 -0.5678 -0.5575
 7622SOL     OW34498   1.724   1.174   6.628  0.1498 -0.2354 -0.2122
 7622SOL    HW134499   1.683   1.089   6.646  1.6345 -0.8487  0.2764
 7622SOL    HW234500   1.817   1.151   6.626  0.2426  0.1386 -0.0984
 7623SOL     OW34501   4.506   3.367   6.028  0.7264 -0.3233  0.2261
 7623SOL    HW134502   4.442   3.414   6.080  0.1377  0.4759 -1.2126
 7623SOL    HW234503   4.564   3.439   6.005  1.5057 -0.8932  0.4208
 7624SOL     OW34504   2.104   4.303   0.782 -0.5828 -0.3017 -0.0678
 7624SOL    HW134505   2.088   4.285   0.875  0.6399 -1.0705 -0.0116
 7624SOL    HW234506   2.176   4.244   0.763  1.2604  2.0014 -0.1965
 7625SOL     OW34507   1.860   4.194   5.274  0.3193  0.1780  0.2898
 7625SOL    HW134508   1.894   4.259   5.212 -2.8055  2.7682  1.3122
 7625SOL    HW234509   1.809   4.139   5.215  0.5777  0.7277 -0.4486
 7626SOL     OW34510   4.339   1.536  16.666  0.1599  0.1694 -0.6830
 7626SOL    HW134511   4.402   1.607  16.666 -0.7052  0.9499  1.5609
 7626SOL    HW234512   4.308   1.524  16.756  0.2416  1.2362 -0.5151
 7627SOL     OW34513   1.822   3.288   0.450 -0.6735  0.0330 -0.4253
 7627SOL    HW134514   1.727   3.281   0.460 -0.3889 -0.2767  2.0933
 7627SOL    HW234515   1.832   3.345   0.526  0.9483  0.4737 -0.9719
 7628SOL     OW34516   2.230   4.453   0.535 -0.1129 -0.3565  0.4414
 7628SOL    HW134517   2.273   4.528   0.576  0.7762 -0.9349  0.5745
 7628SOL    HW234518   2.165   4.425   0.600 -0.7323  0.1971  0.0589
 7629SOL     OW34519   1.614   3.926   9.133 -0.1794  0.2972 -0.5328
 7629SOL    HW134520   1.569   3.928   9.218  0.7008  0.2978 -0.0629
 7629SOL    HW234521   1.700   3.939   9.173 -0.0445 -0.3911 -0.5884
 7630SOL     OW34522   1.995   1.855   8.499  0.1488  0.1328 -0.0489
 7630SOL    HW134523   2.036   1.788   8.553 -2.2796 -1.3814 -0.0995
 7630SOL    HW234524   1.946   1.898   8.569 -0.8433  1.0317 -1.2971
 7631SOL     OW34525   1.916   1.023   2.391 -0.1533 -0.2478 -0.1695
 7631SOL    HW134526   1.918   1.040   2.485 -1.3361  0.9758 -0.3532
 7631SOL    HW234527   1.823   1.023   2.366 -0.0853  0.7507 -0.4639
 7632SOL     OW34528   1.497   4.282   4.586 -0.9810 -0.5945  0.9044
 7632SOL    HW134529   1.498   4.321   4.499  0.7248 -0.4956  0.9642
 7632SOL    HW234530   1.572   4.333   4.617 -0.3870 -0.8321 -0.1426
 7633SOL     OW34531   3.152   0.086   4.533  0.3002  0.5660 -0.2725
 7633SOL    HW134532   3.141   0.164   4.588 -0.6465 -0.0041  0.3514
 7633SOL    HW234533   3.142   0.122   4.445  0.7764 -1.6504 -1.2446
 7634SOL     OW34534   4.075   2.591  10.126  0.5675 -0.3977  0.0045
 7634SOL    HW134535   4.154   2.579  10.178  0.7576  0.0961 -0.1747
 7634SOL    HW234536   4.020   2.624  10.197  0.6884 -1.6303  0.6789
 7635SOL     OW34537   1.304   2.115   2.716 -0.0257 -0.3463  0.3651
 7635SOL    HW134538   1.211   2.119   2.738 -0.0491 -1.4107  0.4612
 7635SOL    HW234539   1.320   2.024   2.743 -1.8947 -0.3297  1.5695
 7636SOL     OW34540   4.232   1.275   7.143 -0.3787 -0.5555 -0.2981
 7636SOL    HW134541   4.200   1.305   7.058 -1.2842 -1.0472 -0.1397
 7636SOL    HW234542   4.179   1.334   7.197 -2.0886 -2.1898 -0.1735
 7637SOL     OW34543   1.175   0.175   8.953 -0.1862 -0.4067 -0.2108
 7637SOL    HW134544   1.115   0.244   8.981  0.8528  1.3658 -2.3596
 7637SOL    HW234545   1.254   0.229   8.942  0.1707 -0.6135  1.3834
 7638SOL     OW34546   0.925   3.954   8.645 -0.3741  0.7179 -0.2868
 7638SOL    HW134547   0.945   4.042   8.612  0.7464  0.3278 -0.6543
 7638SOL    HW234548   0.838   3.963   8.683  0.4722 -2.7712  2.4659
 7639SOL     OW34549   3.541   4.145   5.216  0.3395  0.0831 -0.1018
 7639SOL    HW134550   3.580   4.111   5.297  1.5129  1.0428 -0.2657
 7639SOL    HW234551   3.463   4.196   5.237  0.7415  0.8249 -0.3985
 7640SOL     OW34552   3.521   2.524  16.323 -0.4660  0.1752 -0.0259
 7640SOL    HW134553   3.475   2.494  16.401 -0.5899 -0.6120 -0.4037
 7640SOL    HW234554   3.455   2.524  16.254 -1.1755  2.4576  0.6434
 7641SOL     OW34555   2.270   1.653   8.622 -0.2499  0.2248  0.3403
 7641SOL    HW134556   2.303   1.613   8.541  1.3202 -1.2008  1.6656
 7641SOL    HW234557   2.349   1.686   8.666  0.5047  1.0577 -1.6448
 7642SOL     OW34558   3.702   1.256   0.404  0.2854  0.0646 -0.0261
 7642SOL    HW134559   3.702   1.271   0.309  0.9168 -1.5258 -0.2665
 7642SOL    HW234560   3.685   1.338   0.451 -1.3193  0.5074 -1.3421
 7643SOL     OW34561   4.677   4.654  11.079 -0.1102  0.5888  0.0739
 7643SOL    HW134562   4.591   4.631  11.116  0.1345  1.4699  1.2009
 7643SOL    HW234563   0.003   4.669  11.152  1.1078 -0.0287 -0.8167
 7644SOL     OW34564   0.539   2.155  11.613 -0.0600  0.8443 -0.1556
 7644SOL    HW134565   0.507   2.065  11.619  1.4787  0.3685  0.7983
 7644SOL    HW234566   0.506   2.197  11.693 -2.7261 -0.6753 -0.4625
 7645SOL     OW34567   0.732   1.014  15.235  0.0659 -0.0150 -0.4551
 7645SOL    HW134568   0.693   1.094  15.269 -0.7552 -0.9361  0.7940
 7645SOL    HW234569   0.825   1.037  15.240  0.2732 -0.6011 -1.6380
 7646SOL     OW34570   0.818   4.525   3.069 -0.5238  0.0084  0.3300
 7646SOL    HW134571   0.801   4.483   2.985 -0.2728  1.7966 -0.6205
 7646SOL    HW234572   0.913   4.528   3.082 -0.5326 -1.0373  0.6204
 7647SOL     OW34573   2.828   1.343   4.910  0.0409  0.3826 -0.7343
 7647SOL    HW134574   2.896   1.404   4.882  0.5947  0.7036  1.3165
 7647SOL    HW234575   2.791   1.327   4.823  1.0599 -0.0021 -1.1053
 7648SOL     OW34576   0.538   2.318   7.729  0.2565 -0.2893  0.0188
 7648SOL    HW134577   0.546   2.403   7.686 -1.2540 -1.2302 -2.1277
 7648SOL    HW234578   0.477   2.342   7.799  1.6534 -2.5514  1.9865
 7649SOL     OW34579   0.347   3.655   5.934 -0.3487 -0.6500 -0.1959
 7649SOL    HW134580   0.291   3.656   6.011  0.3127  2.9421  0.2793
 7649SOL    HW234581   0.286   3.683   5.866 -1.6879  0.2599  1.3893
 7650SOL     OW34582   1.322   2.496   5.874 -0.3001 -0.0936 -0.4832
 7650SOL    HW134583   1.315   2.500   5.779 -3.7843  0.8682 -0.1534
 7650SOL    HW234584   1.235   2.518   5.907  0.0123 -0.1232  0.3787
 7651SOL     OW34585   2.514   2.035   7.144 -0.3921  0.2836 -0.0890
 7651SOL    HW134586   2.468   2.042   7.060 -0.5698 -0.3125 -0.0425
 7651SOL    HW234587   2.607   2.024   7.126 -0.5620 -1.7031  0.2391
 7652SOL     OW34588   3.738   1.242   2.509  0.0067 -0.2937  0.0772
 7652SOL    HW134589   3.725   1.304   2.580  2.7075 -0.7134  0.9261
 7652SOL    HW234590   3.693   1.287   2.437 -1.7407 -0.6454  0.9744
 7653SOL     OW34591   1.170   0.348   5.260 -0.0691  0.2310  0.1485
 7653SOL    HW134592   1.174   0.271   5.317  1.4954 -0.5965 -1.0687
 7653SOL    HW234593   1.076   0.364   5.248 -0.3592 -1.0356  0.7836
 7654SOL     OW34594   4.720   0.356  16.063 -0.0973  0.0432 -0.1712
 7654SOL    HW134595   4.635   0.386  16.097 -0.7975 -1.1549 -0.8754
 7654SOL    HW234596   0.032   0.439  16.062 -0.2061  0.1217  1.0545
 7655SOL     OW34597   0.729   1.618   2.315 -0.0638 -0.4477 -0.2186
 7655SOL    HW134598   0.796   1.686   2.311  0.1156 -0.5556  0.9926
 7655SOL    HW234599   0.774   1.546   2.271  0.4684 -0.6882  0.7385
 7656SOL     OW34600   3.667   0.546   5.836 -0.6254 -0.3324  0.0939
 7656SOL    HW134601   3.648   0.639   5.838 -1.4720 -0.5745  2.5275
 7656SOL    HW234602   3.583   0.511   5.865 -1.6850  1.5595 -0.7409
 7657SOL     OW34603   3.592   2.459  11.431 -0.1027 -0.6685 -0.0026
 7657SOL    HW134604   3.524   2.393  11.440  2.2250 -3.2656 -1.3176
 7657SOL    HW234605   3.615   2.483  11.520  0.3348  1.0121 -0.5662
 7658SOL     OW34606   2.183   2.563   4.876  0.7313  0.0031 -0.3523
 7658SOL    HW134607   2.210   2.474   4.852 -0.5333 -0.4673 -0.0235
 7658SOL    HW234608   2.257   2.613   4.840 -1.0779  0.6753 -3.1916
 7659SOL     OW34609   4.088   2.290  16.956  0.1228 -0.0132  0.4690
 7659SOL    HW134610   4.165   2.263  16.908  1.0153  1.9200  0.7910
 7659SOL    HW234611   4.027   2.226  16.918 -0.0510  0.7859 -0.6018
 7660SOL     OW34612   0.388   2.787   3.233  0.3858  0.5500 -0.6840
 7660SOL    HW134613   0.359   2.724   3.299 -3.0632  1.9106 -0.8522
 7660SOL    HW234614   0.300   2.804   3.197  0.2110 -0.6926 -0.8335
 7661SOL     OW34615   0.660   2.744   3.829  0.0209 -0.7302  0.0123
 7661SOL    HW134616   0.741   2.693   3.836  0.5991  0.2024  0.2047
 7661SOL    HW234617   0.703   2.830   3.828 -2.0206  0.2943  1.4671
 7662SOL     OW34618   4.232   2.507   4.114 -0.1342  0.1109 -0.6060
 7662SOL    HW134619   4.316   2.508   4.159 -1.4728 -1.0941  1.9136
 7662SOL    HW234620   4.189   2.438   4.164 -0.4125  0.0550 -0.9215
 7663SOL     OW34621   0.208   4.446   6.967 -0.1519 -0.3046 -0.3512
 7663SOL    HW134622   0.150   4.426   7.041  1.8648 -1.8666  0.8111
 7663SOL    HW234623   0.177   4.380   6.906 -2.4307  0.5764 -0.1248
 7664SOL     OW34624   1.342   3.330   4.237 -0.2609  0.0138 -0.2334
 7664SOL    HW134625   1.269   3.387   4.262 -1.2277 -1.0633 -0.5845
 7664SOL    HW234626   1.293   3.281   4.170 -1.3804 -0.6999  1.1053
 7665SOL     OW34627   4.088   4.295   6.183  0.1463 -0.1602 -0.0916
 7665SOL    HW134628   4.098   4.259   6.271 -0.2947 -3.4230 -1.3386
 7665SOL    HW234629   4.056   4.384   6.196 -1.7865 -0.6433 -1.4654
 7666SOL     OW34630   2.013   0.833   5.947 -0.1996  0.1558 -0.2154
 7666SOL    HW134631   2.006   0.820   5.853 -1.3550  0.8379 -0.2173
 7666SOL    HW234632   2.102   0.810   5.975  0.6743  0.5778 -2.6880
 7667SOL     OW34633   1.969   4.564  13.871  0.2401  0.5298 -0.5700
 7667SOL    HW134634   2.000   4.580  13.782 -0.7806 -0.3525 -1.1036
 7667SOL    HW234635   2.015   4.485  13.900  0.3995  0.6687 -0.4453
 7668SOL     OW34636   4.053   2.186  10.615 -0.5507  0.3993 -0.5405
 7668SOL    HW134637   4.031   2.093  10.620 -1.4761  0.5967 -0.8337
 7668SOL    HW234638   4.113   2.190  10.689 -0.0727 -0.7239 -0.8678
 7669SOL     OW34639   3.515   1.343  12.608  0.4292  0.0563 -0.1243
 7669SOL    HW134640   3.472   1.428  12.618  2.1151  0.8308  0.4916
 7669SOL    HW234641   3.439   1.288  12.588 -1.2200  1.7965  1.3040
 7670SOL     OW34642   2.775   1.483   7.444 -0.0141 -0.4847 -0.7390
 7670SOL    HW134643   2.855   1.513   7.489 -0.5074  1.5942 -1.2283
 7670SOL    HW234644   2.724   1.479   7.525  2.1165  1.3496  0.7212
 7671SOL     OW34645   4.482   0.177   3.358  0.0867 -0.5859  0.3794
 7671SOL    HW134646   4.427   0.197   3.434  2.7497  1.7633  1.6832
 7671SOL    HW234647   4.417   0.150   3.294  0.1833  1.3944 -0.5364
 7672SOL     OW34648   2.945   4.651   7.994 -0.3976  0.0721 -0.8941
 7672SOL    HW134649   2.967   4.598   7.917  2.8494 -0.2223  0.2330
 7672SOL    HW234650   3.019   4.711   8.005  0.8336 -1.7566  0.8272
 7673SOL     OW34651   0.894   1.747  13.075  0.2388 -0.2713  0.2227
 7673SOL    HW134652   0.972   1.712  13.118 -0.3718 -1.0272  0.7257
 7673SOL    HW234653   0.922   1.762  12.985  3.9974  1.4402  1.6982
 7674SOL     OW34654   1.469   3.753   7.877 -0.2798  0.4297  0.1805
 7674SOL    HW134655   1.398   3.689   7.877 -0.3783  0.5457 -0.3921
 7674SOL    HW234656   1.469   3.768   7.972  0.5552 -2.4589  0.6353
 7675SOL     OW34657   1.491   1.049   8.785 -0.1593 -0.5250  0.3296
 7675SOL    HW134658   1.568   1.092   8.823  1.5142 -3.1651 -0.0726
 7675SOL    HW234659   1.506   1.089   8.699 -0.1164  0.0189  0.5941
 7676SOL     OW34660   2.167   2.488   3.717  0.2974 -0.0108  0.1488
 7676SOL    HW134661   2.210   2.479   3.632  2.6414 -2.2246  1.5746
 7676SOL    HW234662   2.077   2.466   3.693  0.4475  1.2143 -1.4825
 7677SOL     OW34663   1.106   4.209   5.765 -0.2980 -0.0436 -0.4630
 7677SOL    HW134664   1.111   4.149   5.691  1.7721  0.4569 -0.7279
 7677SOL    HW234665   1.143   4.290   5.730  1.2135  0.3881  2.0722
 7678SOL     OW34666   4.003   3.788   4.818  0.3675  0.0995  0.4766
 7678SOL    HW134667   3.914   3.819   4.831  0.5123 -0.7837  3.5164
 7678SOL    HW234668   4.051   3.870   4.819  1.1457 -0.3316 -0.8434
 7679SOL     OW34669   3.488   1.062   3.086 -0.0506  0.2714 -0.1278
 7679SOL    HW134670   3.580   1.086   3.100 -0.8488  2.8737  0.6216
 7679SOL    HW234671   3.464   1.130   3.023  1.1592 -0.6916 -1.6376
 7680SOL     OW34672   3.845   0.601   0.772 -0.0780 -0.1098  0.1935
 7680SOL    HW134673   3.827   0.692   0.747  0.6278 -0.3073 -1.0688
 7680SOL    HW234674   3.755   0.571   0.754 -1.1367  2.3137  1.5001
 7681SOL     OW34675   1.312   0.101   5.997 -0.4642 -0.2223 -0.0775
 7681SOL    HW134676   1.283   0.083   5.908  0.4295  0.9088 -0.6037
 7681SOL    HW234677   1.404   0.124   5.979 -0.2287 -0.4167  0.8652
 7682SOL     OW34678   2.773   1.943   6.002  0.0225  0.1511  0.1334
 7682SOL    HW134679   2.781   1.920   6.095 -0.7744  0.6462  0.3272
 7682SOL    HW234680   2.705   1.879   5.977  0.0441 -0.7875  2.4953
 7683SOL     OW34681   0.961   3.733   5.733 -0.2196 -0.2558  0.8896
 7683SOL    HW134682   0.999   3.673   5.669 -1.7960 -1.3675  1.0160
 7683SOL    HW234683   0.880   3.770   5.698 -1.2961 -1.9594  1.5999
 7684SOL     OW34684   3.604   0.619   7.986 -0.0091  0.8084  0.1662
 7684SOL    HW134685   3.663   0.658   7.921  0.4486  1.1839  0.8113
 7684SOL    HW234686   3.670   0.595   8.050  1.4339 -0.2717 -1.7185
 7685SOL     OW34687   0.649   3.860   2.044 -0.1043  0.5508  0.0000
 7685SOL    HW134688   0.701   3.927   1.999 -1.2924  0.6101 -1.2867
 7685SOL    HW234689   0.707   3.840   2.117  0.1016 -0.7056 -0.4982
 7686SOL     OW34690   3.236   2.772  10.575  0.1850 -0.7023 -0.7096
 7686SOL    HW134691   3.231   2.814  10.489  1.5706 -3.2882 -2.0264
 7686SOL    HW234692   3.219   2.680  10.557  0.0587 -0.6371 -0.9289
 7687SOL     OW34693   2.915   0.156   7.454 -0.1588 -0.4213  0.3478
 7687SOL    HW134694   2.912   0.085   7.519 -0.3290  0.1738  0.9907
 7687SOL    HW234695   2.930   0.107   7.373 -0.6636 -1.9252  1.1434
 7688SOL     OW34696   0.446   1.676   3.422 -0.2832  1.2608 -0.1918
 7688SOL    HW134697   0.525   1.651   3.472 -0.6452  1.3772  0.4450
 7688SOL    HW234698   0.413   1.736   3.489 -0.9284  0.3315  0.3271
 7689SOL     OW34699   1.344   3.284  17.713 -0.8688 -0.5550  0.0623
 7689SOL    HW134700   1.426   3.332  17.726 -1.3099  0.3203 -0.3597
 7689SOL    HW234701   1.346   3.247  17.625 -3.4298 -1.5257  0.4233
 7690SOL     OW34702   0.784   1.467   2.934  0.2801 -0.7498  0.3047
 7690SOL    HW134703   0.721   1.537   2.917  0.0962 -0.8033  0.7681
 7690SOL    HW234704   0.761   1.399   2.870 -1.7168  1.8495 -1.6998
 7691SOL     OW34705   0.251   3.369   4.214  0.6381  0.2661  0.6901
 7691SOL    HW134706   0.254   3.277   4.240 -1.7228 -0.2832 -0.9305
 7691SOL    HW234707   0.164   3.373   4.173  1.4118  0.9642 -0.8975
 7692SOL     OW34708   0.561   0.375   4.104 -0.0057  0.2418 -0.0838
 7692SOL    HW134709   0.656   0.387   4.097  0.2300 -1.2811  0.6264
 7692SOL    HW234710   0.528   0.463   4.084 -3.2264 -1.1937 -1.0216
 7693SOL     OW34711   2.872   3.117   8.775  0.1664 -0.0819  0.5917
 7693SOL    HW134712   2.844   3.081   8.859 -0.6538 -2.6960 -0.7908
 7693SOL    HW234713   2.940   3.179   8.800  0.3150 -0.5409  1.3159
 7694SOL     OW34714   4.545   4.729   1.522  0.2631  0.3699  0.1001
 7694SOL    HW134715   4.624   0.047   1.527 -0.7825  1.9433 -0.1966
 7694SOL    HW234716   4.504   0.031   1.445 -0.1031 -5.3707 -2.4831
 7695SOL     OW34717   4.338   2.497   3.858 -0.3522 -0.4250  0.1710
 7695SOL    HW134718   4.299   2.468   3.775 -1.3561  0.9009  0.1862
 7695SOL    HW234719   4.274   2.487   3.928  1.5344  1.5035  2.1816
 7696SOL     OW34720   3.549   0.202   3.280 -0.0719 -0.2685  0.5767
 7696SOL    HW134721   3.635   0.172   3.250  0.1682 -0.6954  1.7228
 7696SOL    HW234722   3.490   0.128   3.267  1.3932 -1.2540 -0.4770
 7697SOL     OW34723   0.150   4.734   0.220  0.1675 -0.2724 -0.0438
 7697SOL    HW134724   0.214   4.665   0.203 -0.1621  0.0536 -2.5079
 7697SOL    HW234725   0.073   4.679   0.204 -0.8417  0.2002  3.1301
 7698SOL     OW34726   1.595   0.398   2.511 -0.1915 -0.2296 -0.2627
 7698SOL    HW134727   1.575   0.327   2.572 -0.1957 -0.0913 -0.1043
 7698SOL    HW234728   1.645   0.460   2.563  0.4789 -0.1859 -0.9596
 7699SOL     OW34729   0.568   2.981   3.533 -0.1770  0.1864  0.3448
 7699SOL    HW134730   0.613   2.962   3.450 -2.2034 -1.4568 -0.3602
 7699SOL    HW234731   0.485   3.002   3.489 -0.2654 -0.8401  0.0258
 7700SOL     OW34732   0.523   2.195   2.497 -0.2190  0.1752 -0.4583
 7700SOL    HW134733   0.594   2.162   2.442 -2.6693 -2.8113 -1.7688
 7700SOL    HW234734   0.562   2.268   2.545  0.8441 -0.2231 -0.7214
 7701SOL     OW34735   1.641   3.471   2.327 -0.1832  0.1063 -0.5812
 7701SOL    HW134736   1.612   3.562   2.320 -3.1600 -0.9561 -2.1798
 7701SOL    HW234737   1.732   3.470   2.299  0.2732  2.1714  0.8078
 7702SOL     OW34738   0.980   0.551   6.992  0.2962  0.4704  0.3236
 7702SOL    HW134739   0.946   0.509   6.913  0.8057  2.4530 -0.9428
 7702SOL    HW234740   1.045   0.492   7.030  1.6613  1.8726  0.1216
 7703SOL     OW34741   3.591   0.469   8.403 -0.0288 -0.1375  0.0687
 7703SOL    HW134742   3.588   0.555   8.446  0.4497  0.0078 -0.1908
 7703SOL    HW234743   3.504   0.453   8.368  0.2094 -1.9023  0.2547
 7704SOL     OW34744   4.138   1.214   9.079 -0.4660  0.5962 -0.6002
 7704SOL    HW134745   4.220   1.263   9.083 -0.3301  0.5107 -2.2532
 7704SOL    HW234746   4.171   1.131   9.042  0.1719  0.9293 -0.7725
 7705SOL     OW34747   4.438   0.088   6.680 -0.5342 -0.2356 -0.0227
 7705SOL    HW134748   4.409   0.147   6.610 -0.4966 -2.2508 -1.7232
 7705SOL    HW234749   4.531   0.111   6.684 -1.2375  2.1981  2.5385
 7706SOL     OW34750   2.346   3.171   7.799  0.7670 -0.1089 -0.3414
 7706SOL    HW134751   2.284   3.140   7.733  0.6699 -1.6325  0.4359
 7706SOL    HW234752   2.355   3.102   7.866  0.2673 -1.7500 -1.9520
 7707SOL     OW34753   1.595   2.141  16.320 -0.6900  0.3955 -0.0205
 7707SOL    HW134754   1.535   2.210  16.348 -0.5594  0.2723  0.5625
 7707SOL    HW234755   1.540   2.062  16.323  1.1114 -0.8548 -0.1262
 7708SOL     OW34756   2.133   4.479  13.616 -1.0087 -0.3130 -0.7626
 7708SOL    HW134757   2.210   4.533  13.600  0.2572 -1.5277  1.1698
 7708SOL    HW234758   2.099   4.483  13.527 -2.2609  4.3488 -0.0373
 7709SOL     OW34759   3.137   4.583   7.321  0.2983 -0.3553  0.1491
 7709SOL    HW134760   3.186   4.509   7.357  0.2127 -0.7913 -0.6363
 7709SOL    HW234761   3.153   4.640   7.397  0.4521 -0.6517  0.3370
 7710SOL     OW34762   0.877   3.559   2.098 -0.2124  0.0737  0.2112
 7710SOL    HW134763   0.838   3.496   2.036  2.3221 -1.3085  0.0117
 7710SOL    HW234764   0.965   3.526   2.118  0.9022  2.0403 -1.4158
 7711SOL     OW34765   2.123   1.663   6.608 -0.0321  0.0886 -0.7780
 7711SOL    HW134766   2.165   1.743   6.576  3.4758 -1.4305  0.0735
 7711SOL    HW234767   2.114   1.701   6.695 -0.1408 -0.6275 -0.4729
 7712SOL     OW34768   1.383   2.765  13.441  0.8182 -0.5149 -0.0924
 7712SOL    HW134769   1.461   2.809  13.406  1.6817 -0.2953  2.0766
 7712SOL    HW234770   1.385   2.801  13.530 -0.2629  0.0772 -0.3040
 7713SOL     OW34771   1.142   1.207  15.074 -0.1607  0.3052 -0.0389
 7713SOL    HW134772   1.052   1.213  15.043 -0.6787  2.5540  1.9870
 7713SOL    HW234773   1.122   1.228  15.165 -0.6964 -1.7205  0.3055
 7714SOL     OW34774   0.077   0.249   5.776  0.2981  0.3146  0.2624
 7714SOL    HW134775   0.133   0.306   5.723 -1.8452  0.6512 -1.5927
 7714SOL    HW234776   4.726   0.283   5.752 -0.3004 -0.9264  0.7112
 7715SOL     OW34777   2.934   3.806   2.300  0.0103  0.0165  0.3107
 7715SOL    HW134778   2.849   3.795   2.257 -0.0751 -1.0297  0.7493
 7715SOL    HW234779   2.994   3.758   2.243 -0.5977  0.8461 -1.0402
 7716SOL     OW34780   1.326   2.650   1.369 -0.0827 -0.1924 -0.4932
 7716SOL    HW134781   1.351   2.593   1.297  0.5996  0.0107 -0.4149
 7716SOL    HW234782   1.398   2.713   1.365  1.7000 -2.0611  1.9250
 7717SOL     OW34783   1.852   3.647   9.358  0.1015  0.2353  0.6710
 7717SOL    HW134784   1.943   3.622   9.345  0.0785  0.5594 -0.0830
 7717SOL    HW234785   1.840   3.633   9.452 -0.5353 -2.4437  0.2146
 7718SOL     OW34786   4.376   3.512   9.294 -0.3342  0.2247  0.1704
 7718SOL    HW134787   4.314   3.442   9.317 -1.1289  1.2273  1.0734
 7718SOL    HW234788   4.338   3.593   9.329  0.6565  0.5461  0.5131
 7719SOL     OW34789   4.240   4.414   1.429  0.2043 -0.5943  0.0091
 7719SOL    HW134790   4.146   4.414   1.448  0.3454 -0.9451  0.6924
 7719SOL    HW234791   4.243   4.461   1.346 -3.6022  1.1482  0.8476
 7720SOL     OW34792   3.508   1.058   3.969 -0.4825 -0.1538  0.2674
 7720SOL    HW134793   3.459   1.127   4.012 -3.0208 -2.1546  0.5461
 7720SOL    HW234794   3.589   1.108   3.954 -1.3556  0.7858 -1.4546
 7721SOL     OW34795   4.088   2.455   6.386 -0.3231  0.4836  0.5441
 7721SOL    HW134796   4.167   2.485   6.340  0.1445 -1.2138  0.2591
 7721SOL    HW234797   4.130   2.380   6.427 -0.3508 -0.5725 -1.3761
 7722SOL     OW34798   3.177   1.898  15.980  0.5807  0.2095 -0.0659
 7722SOL    HW134799   3.143   1.847  15.906  3.3901 -2.2042  0.3059
 7722SOL    HW234800   3.262   1.854  15.988  0.3308 -0.2840 -0.1156
 7723SOL     OW34801   1.987   1.785   3.989  0.0270  0.4253  0.0490
 7723SOL    HW134802   1.973   1.781   4.083 -0.6902  0.6075 -0.0507
 7723SOL    HW234803   1.968   1.694   3.967 -3.4096  0.7187  1.7523
 7724SOL     OW34804   3.751   4.069   8.309  0.0401  0.7781  0.1973
 7724SOL    HW134805   3.765   4.130   8.237 -2.1809  0.2641 -0.6810
 7724SOL    HW234806   3.730   4.127   8.382 -0.6573 -0.1400  0.7238
 7725SOL     OW34807   4.420   4.136   6.835  0.3704 -0.1970 -0.5679
 7725SOL    HW134808   4.427   4.108   6.743 -2.6075  1.6039 -1.3634
 7725SOL    HW234809   4.507   4.171   6.849 -0.2808  1.6518 -1.0314
 7726SOL     OW34810   3.586   4.532   0.821 -0.1946  0.0412  0.1040
 7726SOL    HW134811   3.600   4.561   0.731 -1.3586 -0.0446 -0.1094
 7726SOL    HW234812   3.519   4.590   0.857 -0.7322 -0.0486 -0.7719
 7727SOL     OW34813   0.418   1.954  11.777  0.3207  0.0148  0.1986
 7727SOL    HW134814   0.406   1.884  11.841  0.2131 -0.4792 -0.3559
 7727SOL    HW234815   0.402   2.034  11.826  0.2964 -1.0273  1.8894
 7728SOL     OW34816   0.676   4.546  10.826 -0.3342  0.2843  0.5013
 7728SOL    HW134817   0.742   4.615  10.829  1.5686 -1.5691  1.3543
 7728SOL    HW234818   0.720   4.494  10.759  0.1375  1.3671 -0.0337
 7729SOL     OW34819   3.012   0.260  11.705 -0.6750  0.2868 -0.0448
 7729SOL    HW134820   2.951   0.223  11.768  1.5283 -1.1752  1.2147
 7729SOL    HW234821   3.094   0.246  11.752 -0.9600 -1.3495 -0.0341
 7730SOL     OW34822   0.596   3.169   8.597 -0.3236 -0.4281  0.2222
 7730SOL    HW134823   0.536   3.140   8.528 -0.3788 -3.5184  1.5734
 7730SOL    HW234824   0.636   3.246   8.555 -0.2884  0.2312  1.4671
 7731SOL     OW34825   3.437   2.115   0.181 -1.0476  0.1803 -0.1558
 7731SOL    HW134826   3.525   2.134   0.148 -0.2833 -2.0385  0.5909
 7731SOL    HW234827   3.453   2.068   0.263  0.9064 -1.5939 -1.5420
 7732SOL     OW34828   0.342   1.324   1.436  0.5778  0.9567 -0.3751
 7732SOL    HW134829   0.373   1.385   1.504  1.6448 -1.2637  1.1119
 7732SOL    HW234830   0.247   1.328   1.451  0.4691  0.7145 -1.0218
 7733SOL     OW34831   1.043   0.126   6.932  0.1348  0.1289 -0.0820
 7733SOL    HW134832   1.096   0.141   7.010  2.1438 -0.3648 -1.3388
 7733SOL    HW234833   0.975   0.068   6.967  0.0643 -0.1382 -0.6635
 7734SOL     OW34834   4.535   0.679   0.733 -0.1362 -0.2789  0.0228
 7734SOL    HW134835   4.496   0.620   0.669 -0.9250  2.4448 -2.0203
 7734SOL    HW234836   4.525   0.634   0.817  0.8482  1.0733  0.8807
 7735SOL     OW34837   3.191   3.507  12.266  0.2115 -0.4466  0.2077
 7735SOL    HW134838   3.135   3.443  12.222 -1.6112  2.6840 -2.0408
 7735SOL    HW234839   3.129   3.565  12.311 -0.1705  0.8838 -2.0318
 7736SOL     OW34840   0.398   0.798  14.555  0.2200  0.5403 -0.0888
 7736SOL    HW134841   0.409   0.791  14.650  1.6157  5.0597  0.1083
 7736SOL    HW234842   0.304   0.811  14.544 -0.1385 -0.6985  1.4738
 7737SOL     OW34843   3.443   1.664   2.769  0.1089  0.1690  0.0893
 7737SOL    HW134844   3.489   1.668   2.853  4.2667 -0.0645 -2.1905
 7737SOL    HW234845   3.457   1.743   2.718 -0.9856  0.0660 -0.3768
 7738SOL     OW34846   1.452   4.493   1.189  0.0069  0.1976 -0.1197
 7738SOL    HW134847   1.394   4.417   1.192 -0.4847  0.5442 -0.7348
 7738SOL    HW234848   1.396   4.558   1.233 -1.2634  0.0615 -1.5445
 7739SOL     OW34849   3.464   2.767  13.001  0.7060 -0.1282  0.2305
 7739SOL    HW134850   3.473   2.820  12.922 -1.9177 -0.6616 -0.4075
 7739SOL    HW234851   3.475   2.681  12.961 -1.9320 -1.6985  2.8187
 7740SOL     OW34852   0.617   3.840   3.855 -0.1757 -0.2060 -0.2628
 7740SOL    HW134853   0.628   3.758   3.902 -2.7762 -1.0285 -1.1018
 7740SOL    HW234854   0.522   3.839   3.843 -0.3530  1.7886  0.8952
 7741SOL     OW34855   3.957   4.366   7.182 -0.7023 -0.8752  0.0869
 7741SOL    HW134856   3.879   4.409   7.219 -0.6288  1.0457 -1.9703
 7741SOL    HW234857   4.020   4.402   7.244 -0.0745 -0.1200 -0.9898
 7742SOL     OW34858   0.186   2.419   2.211 -0.3114 -0.2158 -0.6173
 7742SOL    HW134859   0.107   2.370   2.187 -0.5199 -0.4921  0.5880
 7742SOL    HW234860   0.195   2.380   2.298  1.8401 -0.2983 -0.8964
 7743SOL     OW34861   2.378   2.563   5.889 -0.3160  0.1989 -0.2709
 7743SOL    HW134862   2.470   2.548   5.907 -1.5673 -0.2688  5.7751
 7743SOL    HW234863   2.374   2.611   5.806  0.4409 -1.0932 -1.0471
 7744SOL     OW34864   4.431   3.013  16.991 -0.4548  0.0505  0.5862
 7744SOL    HW134865   4.343   3.022  17.028  1.0833  2.7372  3.6501
 7744SOL    HW234866   4.486   3.031  17.067 -1.9283 -0.7665  1.8597
 7745SOL     OW34867   0.977   2.507   2.801  0.3317 -0.5746 -0.0459
 7745SOL    HW134868   1.014   2.469   2.881  0.1472 -0.1477  0.2430
 7745SOL    HW234869   1.051   2.511   2.741 -0.9760  0.6261 -1.5841
 7746SOL     OW34870   3.513   4.586   5.046 -0.5170 -0.5368 -1.0048
 7746SOL    HW134871   3.535   4.500   5.008  0.9170 -0.1873 -0.9424
 7746SOL    HW234872   3.562   4.586   5.128  0.6542 -0.8562 -1.6914
 7747SOL     OW34873   3.992   4.572   6.759 -0.1526  0.5279  0.0052
 7747SOL    HW134874   3.956   4.646   6.710 -1.2494 -0.3714 -0.5446
 7747SOL    HW234875   4.078   4.603   6.787  1.4199 -1.8455 -2.1902
 7748SOL     OW34876   3.877   1.025  12.521 -0.1399 -0.3793  0.6535
 7748SOL    HW134877   3.849   1.079  12.596 -1.0422 -0.3280  0.2768
 7748SOL    HW234878   3.972   1.019  12.533 -0.1684 -1.2729  0.3932
 7749SOL     OW34879   3.840   0.284   2.231 -0.1489  0.3239  0.1304
 7749SOL    HW134880   3.914   0.331   2.268  0.6236 -1.8995  1.3753
 7749SOL    HW234881   3.807   0.342   2.162 -0.3716 -0.8243 -0.7290
 7750SOL     OW34882   0.209   2.984   7.019 -0.2984 -0.1947 -0.2452
 7750SOL    HW134883   0.180   2.935   6.943 -0.4898  0.0514 -0.3292
 7750SOL    HW234884   0.187   2.927   7.093 -0.5840  0.2641  0.0252
 7751SOL     OW34885   0.553   4.621   3.883  0.4687  0.2731 -0.2678
 7751SOL    HW134886   0.605   4.648   3.807  1.7935 -1.3345  0.0704
 7751SOL    HW234887   0.524   4.702   3.926 -1.7242 -0.8641  0.3681
 7752SOL     OW34888   2.524   4.047  10.873  0.1376 -0.1996  0.0088
 7752SOL    HW134889   2.515   4.110  10.944 -1.1114  0.6687 -0.9330
 7752SOL    HW234890   2.617   4.026  10.881  0.1433 -0.0902  0.2423
 7753SOL     OW34891   0.956   2.106  11.462 -0.3602 -0.2920  0.9328
 7753SOL    HW134892   0.983   2.148  11.544 -0.7892  0.4286  0.7004
 7753SOL    HW234893   1.038   2.070  11.427 -1.5009 -1.1307 -0.8428
 7754SOL     OW34894   2.984   3.604   9.078  0.0664  0.0914 -0.8331
 7754SOL    HW134895   3.002   3.519   9.118 -0.2561 -0.1277 -1.1574
 7754SOL    HW234896   2.953   3.651   9.155  1.4361 -1.5665  0.7289
 7755SOL     OW34897   2.117   2.798   7.854 -0.1035  0.0771 -0.1880
 7755SOL    HW134898   2.115   2.733   7.924 -1.0318  3.2618  2.7326
 7755SOL    HW234899   2.171   2.856   7.907 -0.2379 -0.8641  0.9653
 7756SOL     OW34900   4.465   4.256   6.557 -0.3477 -0.2356  0.0607
 7756SOL    HW134901   4.370   4.247   6.562 -0.3978 -0.1361 -0.7505
 7756SOL    HW234902   4.474   4.319   6.486  0.6760 -1.6617 -1.0848
 7757SOL     OW34903   3.225   2.454   4.400 -0.6068 -0.1073  0.6873
 7757SOL    HW134904   3.254   2.496   4.481  0.8496 -0.1228  0.1652
 7757SOL    HW234905   3.200   2.535   4.355  0.8615  0.6021  1.1720
 7758SOL     OW34906   0.989   0.050  15.263  0.0877 -0.2500 -0.0891
 7758SOL    HW134907   0.933   0.011  15.196  0.6431  0.7254 -1.1256
 7758SOL    HW234908   0.950   0.135  15.282  1.1708  0.6495 -1.8496
 7759SOL     OW34909   0.141   1.902   3.391 -0.5174 -0.5394  0.4174
 7759SOL    HW134910   0.089   1.828   3.358 -1.2495  0.8623 -1.6048
 7759SOL    HW234911   0.089   1.972   3.350  0.0524 -0.0297  0.5725
 7760SOL     OW34912   2.818   0.415   7.518  0.5039 -0.1009  0.2726
 7760SOL    HW134913   2.879   0.400   7.589  3.4025  0.9943 -2.0034
 7760SOL    HW234914   2.829   0.327   7.482 -0.5473  0.5040 -1.5523
 7761SOL     OW34915   4.733   1.617   5.694  0.1800  0.1194 -0.4744
 7761SOL    HW134916   0.010   1.529   5.658  1.4178  0.0722  0.0404
 7761SOL    HW234917   0.086   1.653   5.685  0.1913  0.1351 -0.3094
 7762SOL     OW34918   3.308   4.021  11.702  0.2937 -0.0068  0.1823
 7762SOL    HW134919   3.273   4.085  11.764  0.0961  0.2464 -0.1935
 7762SOL    HW234920   3.400   4.042  11.686  0.7413 -0.9578  1.4797
 7763SOL     OW34921   4.222   2.769  13.528  0.1385 -0.6864  0.9147
 7763SOL    HW134922   4.269   2.838  13.482 -2.2767  1.0774  1.0780
 7763SOL    HW234923   4.173   2.727  13.457  0.2199  0.4474  0.1956
 7764SOL     OW34924   4.020   4.541   8.361 -0.0541 -0.5290 -0.1251
 7764SOL    HW134925   4.025   4.446   8.375 -2.9471 -1.0611 -2.7634
 7764SOL    HW234926   4.093   4.540   8.299 -0.7672  2.1905 -0.9920
 7765SOL     OW34927   4.170   4.029  10.794  0.1402 -0.2911 -0.0968
 7765SOL    HW134928   4.258   3.992  10.786  0.3003  0.5907 -2.3900
 7765SOL    HW234929   4.179   4.123  10.810  0.7719 -0.7142  1.9602
 7766SOL     OW34930   2.163   4.371   4.268 -0.2837  0.0753 -0.0942
 7766SOL    HW134931   2.188   4.292   4.316 -0.2372  0.1012 -0.0760
 7766SOL    HW234932   2.218   4.378   4.190 -1.7639  0.3526 -1.1098
 7767SOL     OW34933   3.982   3.975   2.065  0.1467  0.2139  0.5967
 7767SOL    HW134934   3.952   3.964   2.155 -0.3455  0.6365  0.4863
 7767SOL    HW234935   3.903   3.941   2.023  1.2785 -1.3544 -0.2751
 7768SOL     OW34936   1.211   1.325  12.285 -0.4658 -0.2163 -0.2947
 7768SOL    HW134937   1.248   1.286  12.364  1.4318 -0.4277 -1.2814
 7768SOL    HW234938   1.224   1.255  12.222 -1.1856  2.3658 -3.3182
 7769SOL     OW34939   1.574   4.424   6.960 -0.3904 -0.4826  0.2009
 7769SOL    HW134940   1.598   4.419   7.052  2.0425  1.2351 -0.3225
 7769SOL    HW234941   1.482   4.398   6.957 -0.4485 -0.3618  0.9047
 7770SOL     OW34942   3.178   3.473   3.828 -0.2423 -0.2014 -0.0014
 7770SOL    HW134943   3.217   3.548   3.783  0.3208 -0.9910 -0.8396
 7770SOL    HW234944   3.231   3.407   3.784 -0.8672  0.8266 -2.3037
 7771SOL     OW34945   3.014   3.401  12.004  0.5640 -0.0880  0.0356
 7771SOL    HW134946   3.025   3.492  11.975  0.2257  0.0050  0.1976
 7771SOL    HW234947   2.936   3.381  11.952 -1.3084  1.9214  2.0550
 7772SOL     OW34948   1.056   1.811   4.436  0.0249  0.0502  0.2925
 7772SOL    HW134949   1.076   1.854   4.352 -2.6823 -2.7379 -1.7615
 7772SOL    HW234950   1.101   1.873   4.494  0.1539 -0.2096  0.4696
 7773SOL     OW34951   0.564   3.533   2.287 -0.0782  0.2140 -0.5795
 7773SOL    HW134952   0.627   3.604   2.279 -0.1679  0.4220  0.6479
 7773SOL    HW234953   0.489   3.588   2.310 -0.4620 -1.2841  1.7056
 7774SOL     OW34954   2.624   0.948  16.983  0.0461 -0.4345 -0.1768
 7774SOL    HW134955   2.655   0.960  16.893  0.6897  0.6740  0.1817
 7774SOL    HW234956   2.571   0.869  16.987  1.3916 -1.1404  3.4243
 7775SOL     OW34957   2.022   1.369  12.932 -0.4191  0.2004 -0.4681
 7775SOL    HW134958   2.092   1.417  12.889  0.0549 -0.1218 -0.0455
 7775SOL    HW234959   2.074   1.308  12.983  0.6867  1.6943  0.1650
 7776SOL     OW34960   4.470   3.201  15.859  0.4221  0.2404 -0.8696
 7776SOL    HW134961   4.402   3.139  15.832  1.9956 -1.9197  0.1888
 7776SOL    HW234962   4.509   3.143  15.925  1.5317  3.0031  0.9126
 7777SOL     OW34963   1.003   2.359   7.455 -0.0178 -0.1556 -0.7154
 7777SOL    HW134964   0.995   2.285   7.516 -2.1171  0.9142  0.2937
 7777SOL    HW234965   1.086   2.343   7.410  0.7152  0.6808  0.3401
 7778SOL     OW34966   0.002   3.792  15.974 -0.1310  0.0067  0.6746
 7778SOL    HW134967   4.710   3.785  15.883  2.9966  2.3466 -0.4072
 7778SOL    HW234968   4.658   3.837  16.006 -0.2571  0.1369  0.1687
 7779SOL     OW34969   1.611   1.144   1.892 -0.4746  0.1065 -0.6244
 7779SOL    HW134970   1.629   1.237   1.885 -1.2564  0.3637  0.8203
 7779SOL    HW234971   1.587   1.142   1.984  1.6444  2.2986 -0.0370
 7780SOL     OW34972   3.632   2.020   2.837 -0.4788 -0.4822  0.0075
 7780SOL    HW134973   3.662   2.079   2.768  1.1228 -0.5318  0.6541
 7780SOL    HW234974   3.616   2.079   2.910  2.7795 -0.7415  0.9223
 7781SOL     OW34975   0.471   2.668   3.638  0.0808  0.3437 -0.3496
 7781SOL    HW134976   0.483   2.758   3.609  0.8597  0.7108  1.1168
 7781SOL    HW234977   0.489   2.672   3.732 -0.2881  2.7267 -0.3809
 7782SOL     OW34978   2.967   4.072   2.420 -0.0597  0.5298 -0.7659
 7782SOL    HW134979   2.944   4.013   2.492  0.6885  0.1338 -0.8578
 7782SOL    HW234980   2.937   4.019   2.346  0.5716 -2.2113  0.9197
 7783SOL     OW34981   0.045   4.182   3.986 -0.2011  0.0453  0.1877
 7783SOL    HW134982   0.022   4.273   3.971  0.2049 -0.1149 -1.4178
 7783SOL    HW234983   4.692   4.145   3.980  0.5355 -1.7947  0.7300
 7784SOL     OW34984   4.378   1.321   4.031 -0.1663  0.1447  0.4651
 7784SOL    HW134985   4.452   1.357   4.080  0.4308 -3.4993  2.2091
 7784SOL    HW234986   4.321   1.398   4.025  0.8449  0.6041 -3.0443
 7785SOL     OW34987   3.183   1.982   3.383 -0.2981 -0.6867 -0.2600
 7785SOL    HW134988   3.218   2.007   3.297 -1.4733 -0.8889 -0.7972
 7785SOL    HW234989   3.098   2.017   3.355  1.5533  4.5329  0.6366
 7786SOL     OW34990   2.646   2.447   8.732  0.3140  0.0060  0.3987
 7786SOL    HW134991   2.604   2.495   8.660  2.0383 -1.1564 -1.3814
 7786SOL    HW234992   2.736   2.444   8.698 -0.1822  0.3413 -0.9667
 7787SOL     OW34993   1.911   2.960   3.386 -0.2692  0.2499  0.1561
 7787SOL    HW134994   1.966   3.023   3.339 -0.6705  0.4814 -0.0047
 7787SOL    HW234995   1.918   2.998   3.474 -2.6156  1.4570 -0.1581
 7788SOL     OW34996   4.446   0.895   8.854 -0.6635  0.1658  0.2945
 7788SOL    HW134997   4.467   0.875   8.763 -0.8356 -0.4902  0.4043
 7788SOL    HW234998   4.440   0.807   8.889 -0.1229  0.1614  0.3824
 7789SOL     OW34999   0.826   3.551  12.313 -0.2475 -0.7241 -0.1043
 7789SOL    HW135000   0.881   3.524  12.240  1.1613  2.7399 -0.3373
 7789SOL    HW235001   0.889   3.581  12.379  0.6571 -1.8518 -0.4468
 7790SOL     OW35002   3.180   1.039   5.604 -0.0987  0.0392 -0.3817
 7790SOL    HW135003   3.182   1.129   5.638  0.1209  0.6023 -1.8895
 7790SOL    HW235004   3.269   1.018   5.578 -0.5635 -0.2938 -1.7114
 7791SOL     OW35005   4.582   0.057   3.748 -0.2183 -0.1717 -0.1158
 7791SOL    HW135006   4.516   0.021   3.687 -1.8454  0.6991  1.1498
 7791SOL    HW235007   4.536   0.028   3.827  0.1384 -1.3112 -0.3147
 7792SOL     OW35008   1.141   3.395   7.436  0.5809  0.2260 -0.2042
 7792SOL    HW135009   1.161   3.473   7.488 -0.5002  0.9818 -0.9153
 7792SOL    HW235010   1.091   3.424   7.359 -3.5882  1.5892  2.9992
 7793SOL     OW35011   3.698   4.361   6.311  0.2354  0.3125 -0.0171
 7793SOL    HW135012   3.625   4.329   6.259 -0.1786 -0.6927  1.1769
 7793SOL    HW235013   3.704   4.283   6.367 -0.7763  0.3835  0.1775
 7794SOL     OW35014   4.396   2.765  13.254  0.4713 -0.7639  0.1556
 7794SOL    HW135015   4.317   2.759  13.201 -0.4581 -1.3143  1.5865
 7794SOL    HW235016   4.410   2.671  13.266 -2.1866 -1.3379 -1.3165
 7795SOL     OW35017   1.939   0.329   1.483 -0.4818  0.1977  0.3735
 7795SOL    HW135018   1.982   0.250   1.515  1.5459  1.5209  0.9131
 7795SOL    HW235019   2.010   0.391   1.500  0.6596 -0.9711 -0.1229
 7796SOL     OW35020   1.753   1.650   7.321  0.4361  0.1252  0.2174
 7796SOL    HW135021   1.674   1.638   7.268  0.6565 -1.3754  0.2357
 7796SOL    HW235022   1.761   1.745   7.312  1.2162  0.0093 -0.3046
 7797SOL     OW35023   0.898   1.231   6.783  0.1519  0.4257  0.1300
 7797SOL    HW135024   0.834   1.294   6.751 -1.9853 -0.6082  2.4009
 7797SOL    HW235025   0.983   1.269   6.759 -0.6618  1.7383 -0.6277
 7798SOL     OW35026   2.092   2.637   5.884 -0.1133 -0.2901  0.1013
 7798SOL    HW135027   2.185   2.660   5.886 -0.3694  0.8597 -1.4177
 7798SOL    HW235028   2.046   2.711   5.923  1.0856  1.4475 -1.7506
 7799SOL     OW35029   2.138   1.008   1.326  0.3231 -0.2793  0.0021
 7799SOL    HW135030   2.170   1.073   1.264 -0.0713  0.0994  0.2021
 7799SOL    HW235031   2.088   1.059   1.389  1.0689 -0.7457  0.9872
 7800SOL     OW35032   3.914   0.074   6.391 -0.0160 -0.1993  0.0923
 7800SOL    HW135033   3.995   0.070   6.340  1.2402 -0.3021  2.0971
 7800SOL    HW235034   3.847   0.016   6.354  1.8484 -3.6438  2.1015
 7801SOL     OW35035   2.603   3.742   8.831  0.4609  0.6105 -0.2305
 7801SOL    HW135036   2.601   3.697   8.916  0.7611  0.9202 -0.0588
 7801SOL    HW235037   2.524   3.704   8.792  1.8384 -0.8725 -1.5977
 7802SOL     OW35038   2.926   2.470   4.576 -0.0684  0.1947  0.0080
 7802SOL    HW135039   2.969   2.551   4.606 -2.3564  0.8530  1.5001
 7802SOL    HW235040   2.984   2.413   4.626  0.1846  1.3408  1.0348
 7803SOL     OW35041   4.243   2.831   7.786  0.3132  0.0694  0.0412
 7803SOL    HW135042   4.160   2.800   7.750  1.3208  0.7406 -2.9166
 7803SOL    HW235043   4.296   2.768   7.737 -1.7190 -0.1005 -1.9202
 7804SOL     OW35044   0.871   1.128   9.212 -0.3213 -0.1000  0.3825
 7804SOL    HW135045   0.868   1.129   9.116  0.0422 -0.7937  0.3660
 7804SOL    HW235046   0.862   1.036   9.235 -1.7850  0.1552  0.8276
 7805SOL     OW35047   0.574   2.859  15.773 -0.3547  0.0773  0.4278
 7805SOL    HW135048   0.495   2.831  15.820 -0.6456 -1.4977 -1.0135
 7805SOL    HW235049   0.578   2.955  15.782  1.2449 -0.0050  0.5411
 7806SOL     OW35050   2.418   3.889   4.125  0.0239 -0.6611  0.5125
 7806SOL    HW135051   2.384   3.884   4.035 -0.4362  1.7996  0.5493
 7806SOL    HW235052   2.469   3.808   4.123 -2.2358 -2.0888  0.9077
 7807SOL     OW35053   3.891   0.845  11.995 -0.6898 -0.4533  0.4216
 7807SOL    HW135054   3.953   0.876  12.061  0.0148 -2.2338  0.5849
 7807SOL    HW235055   3.954   0.842  11.923  0.6691 -0.5092  1.6166
 7808SOL     OW35056   2.206   4.355  13.198 -0.1801 -0.2017 -0.3028
 7808SOL    HW135057   2.128   4.373  13.251  0.6680  0.0072  0.8785
 7808SOL    HW235058   2.272   4.354  13.268  0.8450 -1.7463 -1.2932
 7809SOL     OW35059   3.052   0.297   6.001 -0.2090 -0.1128  0.5072
 7809SOL    HW135060   3.136   0.258   6.026 -0.8709 -0.8670  1.5630
 7809SOL    HW235061   3.027   0.225   5.942  0.5076  0.4688 -0.5106
 7810SOL     OW35062   2.222   3.095   9.327  0.0095  0.3156 -0.1292
 7810SOL    HW135063   2.149   3.125   9.381  0.6312  0.1264  0.8229
 7810SOL    HW235064   2.219   3.000   9.334  1.9019  0.2467 -0.2296
 7811SOL     OW35065   2.378   1.597   3.989 -0.3898  0.0166  0.1204
 7811SOL    HW135066   2.381   1.611   3.895 -0.6449  2.1542  0.4338
 7811SOL    HW235067   2.360   1.686   4.020 -3.1428 -1.0072  1.5442
 7812SOL     OW35068   0.810   0.468   1.973  0.3262  0.3611 -0.4589
 7812SOL    HW135069   0.880   0.523   1.938 -0.4120  1.2650 -0.5007
 7812SOL    HW235070   0.752   0.541   1.992 -0.5720 -0.6641  0.8132
 7813SOL     OW35071   2.622   4.430   2.293  0.4156 -0.2878  0.3957
 7813SOL    HW135072   2.658   4.512   2.258  2.6921 -1.0243  1.0660
 7813SOL    HW235073   2.539   4.433   2.245 -0.2306  0.8221  1.5522
 7814SOL     OW35074   0.318   3.040   4.791 -0.2313 -0.5661 -0.4415
 7814SOL    HW135075   0.255   2.981   4.750 -0.1728  0.1532 -1.5857
 7814SOL    HW235076   0.289   3.120   4.749 -0.6280 -0.9834 -0.9703
 7815SOL     OW35077   0.410   2.373  16.062  0.7690  0.3663 -0.2331
 7815SOL    HW135078   0.407   2.425  16.143 -1.4013  2.9148 -1.9470
 7815SOL    HW235079   0.494   2.326  16.059  0.5683  0.0480 -0.8091
 7816SOL     OW35080   3.172   0.582   1.984 -0.0371  0.3325  0.1488
 7816SOL    HW135081   3.119   0.542   1.915 -0.7958  0.3438  0.7320
 7816SOL    HW235082   3.150   0.526   2.059  0.8115 -1.2836 -0.8111
 7817SOL     OW35083   0.073   2.523   4.700  0.2370  0.2318  0.0371
 7817SOL    HW135084   0.129   2.449   4.726 -0.8723 -0.5446  0.2154
 7817SOL    HW235085   4.732   2.503   4.754  1.4352  0.4628  1.8081
 7818SOL     OW35086   2.031   3.649   3.956  0.3317 -0.1325 -0.0297
 7818SOL    HW135087   1.940   3.671   3.974 -0.0096 -2.6854  1.4604
 7818SOL    HW235088   2.079   3.702   4.020  2.3838 -1.4887 -0.4655
 7819SOL     OW35089   1.116   0.754   7.417  0.6633  0.2729  0.2414
 7819SOL    HW135090   1.176   0.807   7.366 -0.9195 -1.4649 -3.4233
 7819SOL    HW235091   1.134   0.668   7.378  0.0408  0.6898 -0.9706
 7820SOL     OW35092   3.093   1.532   9.682  0.5753  0.9809  0.6378
 7820SOL    HW135093   3.138   1.589   9.620 -1.6873 -0.1138 -2.0489
 7820SOL    HW235094   3.053   1.596   9.740  1.0721  1.1411  0.8049
 7821SOL     OW35095   1.882   0.620   8.615  0.2320 -0.0250 -1.1972
 7821SOL    HW135096   1.975   0.629   8.632  0.5726 -3.9603 -1.0667
 7821SOL    HW235097   1.847   0.551   8.672  2.1832 -2.0383 -2.4539
 7822SOL     OW35098   1.626   3.095   8.268  0.5108 -0.0195  0.5731
 7822SOL    HW135099   1.704   3.079   8.215 -0.9486 -0.3613 -1.4699
 7822SOL    HW235100   1.573   3.134   8.198 -0.9264 -0.7238  1.2681
 7823SOL     OW35101   4.065   4.619  15.421 -0.2598 -0.1458 -0.4646
 7823SOL    HW135102   4.152   4.618  15.461 -0.4894 -2.3728 -0.0267
 7823SOL    HW235103   4.094   4.660  15.340  1.2445 -2.0861 -0.8932
 7824SOL     OW35104   4.571   4.352  14.046  0.8388 -0.1255 -0.7026
 7824SOL    HW135105   4.577   4.257  14.051 -0.2194 -0.3029 -2.4825
 7824SOL    HW235106   4.658   4.367  14.083 -0.0873 -1.8461  2.1783
 7825SOL     OW35107   3.243   2.219  12.323  0.7124 -0.0738 -0.3023
 7825SOL    HW135108   3.171   2.181  12.373  0.1103 -1.4169 -2.2083
 7825SOL    HW235109   3.269   2.141  12.275 -1.6466 -2.4156  2.2405
 7826SOL     OW35110   1.935   0.089  13.948 -0.4084  0.1966 -0.1273
 7826SOL    HW135111   1.842   0.111  13.938 -0.0758  0.9205 -1.5918
 7826SOL    HW235112   1.931   4.729  13.939 -2.9498  0.1951  0.7858
 7827SOL     OW35113   4.698   3.820   1.570 -0.3953 -0.2951  0.3117
 7827SOL    HW135114   4.606   3.845   1.581  0.6858  4.2702 -1.0762
 7827SOL    HW235115   4.696   3.780   1.484  0.6424  0.4378 -0.0544
 7828SOL     OW35116   0.631   4.074   2.679 -0.0995  0.4300  0.9608
 7828SOL    HW135117   0.619   4.014   2.752 -0.7541 -0.0865  0.4302
 7828SOL    HW235118   0.726   4.084   2.672 -0.0120 -0.6118  0.7481
 7829SOL     OW35119   1.949   1.787   1.995 -0.7389  0.1426  0.4004
 7829SOL    HW135120   1.990   1.807   2.079  0.4340 -0.5376  0.0050
 7829SOL    HW235121   2.012   1.833   1.939 -1.9576 -0.0703 -1.1492
 7830SOL     OW35122   0.109   1.264  10.559  0.9270 -0.4250 -0.1766
 7830SOL    HW135123   0.095   1.291  10.649  0.7055  0.0476 -0.3547
 7830SOL    HW235124   0.041   1.197  10.560 -0.1101  0.6131 -1.0495
 7831SOL     OW35125   3.642   1.983   3.433  0.5279 -0.0118 -0.0189
 7831SOL    HW135126   3.682   2.012   3.515 -0.4565 -3.9480  1.8999
 7831SOL    HW235127   3.548   1.983   3.454  0.3898  2.0731 -0.7065
 7832SOL     OW35128   3.931   0.037   2.314  0.1221 -0.4661 -0.1441
 7832SOL    HW135129   4.009   0.066   2.361 -0.8467 -1.0413  1.8166
 7832SOL    HW235130   3.891   0.122   2.297  0.1530 -0.2214  1.0042
 7833SOL     OW35131   3.290   0.416   9.430 -0.1928 -0.2801  0.4831
 7833SOL    HW135132   3.200   0.449   9.420 -0.2611  0.2015  2.8647
 7833SOL    HW235133   3.318   0.434   9.340 -1.4572  0.0524  0.1446
 7834SOL     OW35134   1.902   1.126   4.924 -0.1086 -0.2986 -0.0603
 7834SOL    HW135135   1.870   1.037   4.906 -2.0799  0.2284  0.8316
 7834SOL    HW235136   1.835   1.184   4.890 -0.1210 -1.5458 -2.1900
 7835SOL     OW35137   0.772   0.316   6.501  0.2201  0.3271 -0.3544
 7835SOL    HW135138   0.805   0.260   6.572  2.0291  0.7020 -0.8961
 7835SOL    HW235139   0.852   0.317   6.448  0.8516  0.1829  0.5715
 7836SOL     OW35140   4.472   0.635  12.489  0.0989  0.3540 -0.0860
 7836SOL    HW135141   4.543   0.571  12.487  0.3751  0.6040  1.2654
 7836SOL    HW235142   4.460   0.637  12.394  2.2982 -0.8720 -0.3972
 7837SOL     OW35143   0.227   3.196  10.360 -0.2816 -0.2078  0.1181
 7837SOL    HW135144   0.215   3.215  10.453 -0.8857  1.4338 -0.3006
 7837SOL    HW235145   0.286   3.120  10.365 -1.0195 -0.9295 -2.0928
 7838SOL     OW35146   3.520   2.291   4.703 -0.2467  0.1475  0.4001
 7838SOL    HW135147   3.553   2.231   4.637 -1.9270 -1.3998  0.9585
 7838SOL    HW235148   3.579   2.366   4.693  3.0065 -2.4745  0.0371
 7839SOL     OW35149   2.911   1.552  11.240  0.0699 -0.1657 -0.3452
 7839SOL    HW135150   2.991   1.508  11.268  0.0132  0.4578  0.8007
 7839SOL    HW235151   2.920   1.624  11.303  0.9132 -2.6983  2.4363
 7840SOL     OW35152   1.197   3.215   5.175 -0.9170 -0.2125  0.3246
 7840SOL    HW135153   1.160   3.189   5.091  0.4358 -1.6097  0.1548
 7840SOL    HW235154   1.157   3.300   5.192 -0.0708  0.2533  0.0228
 7841SOL     OW35155   4.556   3.827   3.798 -1.0586 -0.2294  0.2343
 7841SOL    HW135156   4.581   3.856   3.885 -1.6322 -0.8679  0.6141
 7841SOL    HW235157   4.469   3.866   3.793 -0.5346  1.2967  3.0270
 7842SOL     OW35158   4.687   1.168   0.734 -0.0812  0.8097 -0.1897
 7842SOL    HW135159   4.694   1.101   0.666  1.4615 -0.6825  1.4531
 7842SOL    HW235160   4.593   1.186   0.724 -0.2390 -0.9375 -2.0251
 7843SOL     OW35161   1.449   2.523   2.603 -0.1995  0.0178 -0.2109
 7843SOL    HW135162   1.364   2.492   2.573 -0.1997 -0.5823  0.4046
 7843SOL    HW235163   1.467   2.462   2.675 -0.9903  0.8928  0.7452
 7844SOL     OW35164   2.699   4.458   7.614 -0.2834 -0.7849  0.0552
 7844SOL    HW135165   2.787   4.440   7.582  0.4424 -1.7984  2.6037
 7844SOL    HW235166   2.711   4.432   7.706  1.1902  1.2891  0.4531
 7845SOL     OW35167   1.452   0.279   9.547  0.4875 -0.0379 -0.3063
 7845SOL    HW135168   1.419   0.191   9.524 -2.2013  0.2112  2.5485
 7845SOL    HW235169   1.505   0.294   9.469  1.8908  0.7917  0.8133
 7846SOL     OW35170   3.083   4.322   1.747 -0.1479 -0.2139 -0.1121
 7846SOL    HW135171   3.043   4.344   1.831 -0.7581  1.0064 -0.7193
 7846SOL    HW235172   3.161   4.378   1.748 -1.2748  1.3651  0.4087
 7847SOL     OW35173   2.366   0.215   6.942 -0.3825 -0.2395 -0.0622
 7847SOL    HW135174   2.296   0.153   6.959  0.2084 -0.3960  1.7839
 7847SOL    HW235175   2.347   0.231   6.850  1.4516  0.4519 -0.3329
 7848SOL     OW35176   2.003   1.951   6.767  0.2938  0.4086 -0.4666
 7848SOL    HW135177   2.056   1.895   6.823  2.2722  0.9417 -1.8007
 7848SOL    HW235178   2.078   2.001   6.736 -0.2289  1.8855  0.6686
 7849SOL     OW35179   0.196   0.094   3.351  0.0210  0.0011  0.5883
 7849SOL    HW135180   0.113   0.066   3.390 -0.7191  0.6748 -0.5137
 7849SOL    HW235181   0.247   0.129   3.424 -0.1453  0.6335  0.3996
 7850SOL     OW35182   1.615   0.139  17.725 -0.3545 -0.1616 -0.0399
 7850SOL    HW135183   1.604   0.110  17.635 -0.3794 -0.4724  0.0632
 7850SOL    HW235184   1.638   0.231  17.710  0.7615 -0.4458 -0.0489
 7851SOL     OW35185   4.384   1.820   6.334  0.3286  0.3124  0.0398
 7851SOL    HW135186   4.430   1.836   6.416 -2.1469 -0.5749  1.6078
 7851SOL    HW235187   4.454   1.813   6.269 -0.9575  0.0960 -1.3271
 7852SOL     OW35188   2.199   1.422   5.443 -0.0634 -0.0279  0.4393
 7852SOL    HW135189   2.184   1.429   5.537  0.1482 -1.3968  0.5682
 7852SOL    HW235190   2.134   1.357   5.419  0.9224 -1.0867  0.6290
 7853SOL     OW35191   3.069   4.594   3.660 -0.0516 -0.4542  0.8592
 7853SOL    HW135192   3.020   4.669   3.626 -0.6483 -0.3347  1.9870
 7853SOL    HW235193   3.125   4.583   3.583 -1.6522  1.4184 -0.5755
 7854SOL     OW35194   0.838   0.847   4.079 -0.5496  0.5228  0.2126
 7854SOL    HW135195   0.800   0.787   4.144 -1.3454 -1.0028 -1.6612
 7854SOL    HW235196   0.823   0.794   4.001  0.6576 -2.0425  1.7172
 7855SOL     OW35197   1.626   3.309  17.633 -0.4433 -0.2260  0.2997
 7855SOL    HW135198   1.686   3.384  17.624  0.8979 -1.4616 -0.9865
 7855SOL    HW235199   1.560   3.320  17.564 -2.9744 -1.6637  2.4858
 7856SOL     OW35200   1.354   0.089  15.670 -0.3941 -0.3393  0.2642
 7856SOL    HW135201   1.444   0.105  15.642 -1.1426  0.3924 -1.7236
 7856SOL    HW235202   1.304   0.168  15.653 -1.7221 -0.8558  1.7293
 7857SOL     OW35203   2.473   0.580   1.963  0.0234 -0.2175 -0.5976
 7857SOL    HW135204   2.492   0.564   2.055 -2.3374 -0.6837 -0.1943
 7857SOL    HW235205   2.412   0.508   1.947 -1.4586  0.8952  0.0923
 7858SOL     OW35206   0.777   0.474  11.490 -0.3095 -0.2070 -0.1181
 7858SOL    HW135207   0.870   0.468  11.510 -0.6995 -0.7337  1.6435
 7858SOL    HW235208   0.771   0.478  11.395  0.5465  0.6347 -0.1293
 7859SOL     OW35209   1.818   4.243   7.023 -0.2152 -0.2136  0.0229
 7859SOL    HW135210   1.769   4.171   7.063  2.6075 -1.5346  1.0903
 7859SOL    HW235211   1.821   4.215   6.932  1.3661 -2.4445  0.7680
 7860SOL     OW35212   4.676   0.888   2.687  0.3058 -0.3543 -0.4374
 7860SOL    HW135213   4.590   0.862   2.653  0.7187  0.0469 -1.7475
 7860SOL    HW235214   4.684   0.817   2.752  1.8796 -0.8620 -1.1886
 7861SOL     OW35215   3.319   3.046   6.317  0.3658 -0.0639 -0.3811
 7861SOL    HW135216   3.284   3.132   6.343 -0.5508 -1.4330  2.8775
 7861SOL    HW235217   3.235   3.012   6.286  0.5059 -0.8075  0.0726
 7862SOL     OW35218   4.620   0.049   9.765  0.8460  0.1401 -0.4027
 7862SOL    HW135219   4.655   0.005   9.843 -0.7952  1.5407  1.1412
 7862SOL    HW235220   4.610   4.705   9.713  0.1535 -0.2166  0.2765
 7863SOL     OW35221   4.328   0.936  17.060  0.3748  0.7333 -0.5534
 7863SOL    HW135222   4.233   0.932  17.070  0.3741  2.2163  0.1360
 7863SOL    HW235223   4.350   0.967  17.148 -1.1956 -0.3869  0.2419
 7864SOL     OW35224   3.897   0.928   2.096 -0.6481  0.3351  0.1310
 7864SOL    HW135225   3.949   0.914   2.017  0.0870  2.5051  0.2400
 7864SOL    HW235226   3.942   1.000   2.140  1.0588 -1.3369  1.1709
 7865SOL     OW35227   1.757   2.486   3.821 -0.6021 -0.1619  0.6974
 7865SOL    HW135228   1.783   2.577   3.811  0.0681 -0.3790  0.4848
 7865SOL    HW235229   1.792   2.449   3.739  2.4734 -0.5490  2.2136
 7866SOL     OW35230   2.490   1.759   8.176  0.3198  0.4534  0.1134
 7866SOL    HW135231   2.432   1.801   8.239 -0.2214 -0.2093  0.0598
 7866SOL    HW235232   2.482   1.812   8.097 -0.5352  0.7856  0.4221
 7867SOL     OW35233   2.240   0.784   0.666  0.3323  0.5909  0.2691
 7867SOL    HW135234   2.167   0.826   0.711 -0.6636 -0.0202 -0.7653
 7867SOL    HW235235   2.290   0.731   0.729  1.3745  0.6554 -0.5023
 7868SOL     OW35236   0.598   3.792   3.574 -0.0390 -0.6866  0.1164
 7868SOL    HW135237   0.507   3.792   3.606  0.5010 -2.7265  1.6949
 7868SOL    HW235238   0.614   3.884   3.555 -1.6247 -0.9452 -2.4232
 7869SOL     OW35239   4.021   0.692   8.141 -0.2517 -0.2852  0.0488
 7869SOL    HW135240   3.997   0.781   8.166 -0.3176  0.2739 -1.9401
 7869SOL    HW235241   4.042   0.658   8.228 -0.8705  1.0779  0.7220
 7870SOL     OW35242   1.674   3.094   9.309 -0.2490  0.1721  0.5653
 7870SOL    HW135243   1.746   3.139   9.265  0.5728 -0.4961  1.2314
 7870SOL    HW235244   1.598   3.139   9.273  0.9921  0.1830 -2.1077
 7871SOL     OW35245   3.396   2.502   4.877 -0.1831  0.1528  0.1027
 7871SOL    HW135246   3.435   2.423   4.915 -1.7474  0.0485  1.4708
 7871SOL    HW235247   3.366   2.541   4.959  1.5701  2.6427 -0.4452
 7872SOL     OW35248   1.580   3.140  12.363 -0.2474  0.0002  0.1092
 7872SOL    HW135249   1.592   3.190  12.282  0.1036 -3.1505 -1.8199
 7872SOL    HW235250   1.541   3.197  12.428  0.9155 -1.8518  2.4373
 7873SOL     OW35251   4.492   0.431   9.094 -0.3565 -0.2900 -0.3816
 7873SOL    HW135252   4.450   0.383   9.165  0.5523 -2.5368 -1.3761
 7873SOL    HW235253   4.476   0.374   9.019 -0.3060  0.4837 -0.9839
 7874SOL     OW35254   1.739   3.632   8.838 -0.2432 -0.1544  0.3373
 7874SOL    HW135255   1.792   3.635   8.917  1.8538  3.3121 -1.2263
 7874SOL    HW235256   1.661   3.676   8.872 -0.8719 -1.3126  0.4143
 7875SOL     OW35257   3.065   4.649  14.025 -0.1180  0.3813  0.3053
 7875SOL    HW135258   3.110   4.570  13.993  2.8989  2.2399 -0.0372
 7875SOL    HW235259   3.113   4.724  13.989 -0.5802  1.0265  1.0519
 7876SOL     OW35260   3.107   3.283   5.498 -0.2804 -0.1279  0.0522
 7876SOL    HW135261   3.197   3.316   5.494 -0.2786 -0.1455 -0.0429
 7876SOL    HW235262   3.110   3.211   5.436  0.0368 -0.2661  0.2272
 7877SOL     OW35263   2.796   2.680   2.163  0.4474  0.4173  0.5646
 7877SOL    HW135264   2.854   2.752   2.186  3.6350 -1.2338 -2.3048
 7877SOL    HW235265   2.801   2.682   2.067  0.4715  0.4550  0.5665
 7878SOL     OW35266   0.591   0.499   6.422 -0.3425  0.2615 -0.2266
 7878SOL    HW135267   0.664   0.450   6.459 -1.4758 -1.2288  0.0277
 7878SOL    HW235268   0.535   0.422   6.416 -1.0076  0.8399 -1.3132
 7879SOL     OW35269   1.507   1.179  13.982 -0.1140  0.5256 -0.3416
 7879SOL    HW135270   1.573   1.234  13.938 -0.6968  0.9135 -0.7329
 7879SOL    HW235271   1.438   1.173  13.916  0.8815  0.8065 -1.4270
 7880SOL     OW35272   3.772   1.989   8.221  0.2625 -0.3066  0.7556
 7880SOL    HW135273   3.754   2.024   8.134 -1.7321  0.1624  1.3642
 7880SOL    HW235274   3.786   1.895   8.208  0.9935 -0.1650  0.5327
 7881SOL     OW35275   2.634   4.501   7.054  0.1887 -0.1536  0.4001
 7881SOL    HW135276   2.548   4.493   7.096  0.2258 -0.4342  0.4237
 7881SOL    HW235277   2.649   4.595   7.063 -2.4672  0.4228 -1.0304
 7882SOL     OW35278   1.215   4.453   5.696 -0.1497 -0.0754  0.3909
 7882SOL    HW135279   1.189   4.536   5.658  0.4012  0.2543  0.7354
 7882SOL    HW235280   1.291   4.422   5.646  0.0713  1.5442 -0.2602
 7883SOL     OW35281   2.833   4.303   2.783  0.0452 -0.5401 -0.1331
 7883SOL    HW135282   2.809   4.348   2.702  3.1756  0.5344 -0.4723
 7883SOL    HW235283   2.752   4.264   2.814  0.1006 -0.0469  0.6463
 7884SOL     OW35284   2.235   4.061  14.312  0.1211  0.0562  0.1332
 7884SOL    HW135285   2.248   4.116  14.389  1.1499 -0.1897  0.1294
 7884SOL    HW235286   2.249   4.129  14.247 -0.6699 -0.2032 -0.3057
 7885SOL     OW35287   4.723   2.105   9.149  0.3432  0.2564 -0.4996
 7885SOL    HW135288   0.070   2.063   9.174  0.3622  0.3162 -0.4607
 7885SOL    HW235289   4.669   2.071   9.221  0.8744 -0.8737 -0.6501
 7886SOL     OW35290   0.257   1.719   2.583  0.2902 -0.0197 -0.0639
 7886SOL    HW135291   0.280   1.811   2.565  3.1999 -1.5047 -3.8547
 7886SOL    HW235292   0.191   1.707   2.514  1.9047 -1.0862 -1.4169
 7887SOL     OW35293   2.713   1.685  12.205  0.1583  0.2490 -0.0735
 7887SOL    HW135294   2.797   1.695  12.161  0.2945  0.2333  0.1817
 7887SOL    HW235295   2.654   1.739  12.153 -0.9024 -2.3674 -1.6208
 7888SOL     OW35296   1.292   1.822  15.624  0.0723 -0.3518  0.2332
 7888SOL    HW135297   1.358   1.874  15.670  2.3209 -1.1303 -2.1416
 7888SOL    HW235298   1.253   1.777  15.699  0.6927  2.1203  2.0244
 7889SOL     OW35299   1.480   1.582   5.890 -0.5391  0.0384  0.7969
 7889SOL    HW135300   1.452   1.665   5.928 -1.4794 -0.0432  0.3017
 7889SOL    HW235301   1.396   1.538   5.872 -0.5959  0.6668 -0.5211
 7890SOL     OW35302   4.440   3.657   0.195 -0.5314  0.2267  0.7596
 7890SOL    HW135303   4.379   3.592   0.159  0.3481  0.8138 -1.7230
 7890SOL    HW235304   4.527   3.618   0.188 -0.2929  0.7095  1.0467
 7891SOL     OW35305   0.816   3.984   3.740  0.4063 -0.0552 -0.0382
 7891SOL    HW135306   0.781   4.058   3.691 -0.5459 -0.5930 -0.1856
 7891SOL    HW235307   0.734   3.940   3.766  1.1122 -2.0292 -1.1567
 7892SOL     OW35308   0.511   3.974   8.142 -0.1355 -1.0735 -0.1687
 7892SOL    HW135309   0.516   3.901   8.080 -1.0087 -0.3174 -1.1164
 7892SOL    HW235310   0.419   3.996   8.128 -0.6302 -2.9069  0.1711
 7893SOL     OW35311   1.132   2.514   6.419 -0.0046 -0.5936 -0.4375
 7893SOL    HW135312   1.174   2.453   6.480  1.5583  0.1750 -0.7520
 7893SOL    HW235313   1.191   2.587   6.437 -0.0684 -0.2961 -1.4683
 7894SOL     OW35314   1.543   0.536   1.146 -0.1147  0.0192  0.2186
 7894SOL    HW135315   1.469   0.595   1.161 -0.3564 -0.5588  1.2991
 7894SOL    HW235316   1.578   0.537   1.235 -1.8732 -0.4048  0.9042
 7895SOL     OW35317   2.141   4.017   8.262 -0.0216 -0.4364 -0.0339
 7895SOL    HW135318   2.192   3.999   8.183 -1.2989 -0.4329 -0.8545
 7895SOL    HW235319   2.145   4.112   8.262 -1.2935 -0.3773 -1.9136
 7896SOL     OW35320   0.538   3.694   5.351  0.0557 -0.4806 -0.1690
 7896SOL    HW135321   0.463   3.642   5.323 -0.2888 -0.2821  0.3728
 7896SOL    HW235322   0.599   3.621   5.358 -0.8101 -1.2307 -0.5392
 7897SOL     OW35323   2.492   1.786   2.930  0.0364  0.0169 -0.2357
 7897SOL    HW135324   2.587   1.791   2.942 -0.5655  0.0501  4.4843
 7897SOL    HW235325   2.469   1.696   2.953  1.8536 -0.1660  0.8243
 7898SOL     OW35326   0.884   1.274  13.691  0.4154  0.0197 -0.3143
 7898SOL    HW135327   0.838   1.332  13.751 -0.1034 -1.7978  1.0619
 7898SOL    HW235328   0.850   1.303  13.606 -1.3356 -0.8702  0.0639
 7899SOL     OW35329   3.703   3.911  15.758  0.4309  0.0094  0.0768
 7899SOL    HW135330   3.754   3.958  15.691  0.8672 -3.3943 -1.9963
 7899SOL    HW235331   3.711   3.956  15.842  0.0932 -1.5769  0.9524
 7900SOL     OW35332   1.965   2.893  16.650 -0.0780  0.2332 -0.7008
 7900SOL    HW135333   1.957   2.924  16.741 -0.5251  0.7278 -0.9092
 7900SOL    HW235334   1.874   2.883  16.622  0.4940  1.8930 -3.0847
 7901SOL     OW35335   3.589   3.972   3.812  0.4546  0.5900  0.0746
 7901SOL    HW135336   3.551   3.929   3.736  0.2766  2.5927 -0.9598
 7901SOL    HW235337   3.539   4.053   3.825 -0.5337  0.0656 -0.5030
 7902SOL     OW35338   2.787   1.932  12.359 -0.2476  0.5431 -0.2398
 7902SOL    HW135339   2.741   1.857  12.322  2.1860 -0.6234 -0.8777
 7902SOL    HW235340   2.762   1.936  12.452  1.9023 -0.9646  0.3960
 7903SOL     OW35341   3.590   3.300  15.113 -0.2306 -0.0072  0.1892
 7903SOL    HW135342   3.584   3.259  15.200 -1.1885 -0.5021 -0.1098
 7903SOL    HW235343   3.515   3.360  15.117 -0.9063 -0.8467  0.2023
 7904SOL     OW35344   0.670   3.422  14.091 -0.2507 -0.2282  0.0009
 7904SOL    HW135345   0.700   3.389  14.007 -1.4659  1.0229 -0.9228
 7904SOL    HW235346   0.630   3.340  14.121  2.1772 -1.5032 -0.2357
 7905SOL     OW35347   1.941   1.663   8.977 -0.0460  0.3737 -0.3698
 7905SOL    HW135348   1.958   1.656   8.884  3.2137 -0.3128  0.2817
 7905SOL    HW235349   1.966   1.754   8.994 -1.6503  0.4340  1.7442
 7906SOL     OW35350   3.382   4.046   8.135 -0.0320  0.3361  0.2169
 7906SOL    HW135351   3.368   4.094   8.217 -0.4488  1.7681 -0.6882
 7906SOL    HW235352   3.295   4.006   8.134  1.1121 -2.1904  0.6809
 7907SOL     OW35353   0.375   2.741  14.247  0.4323  0.1557  0.0052
 7907SOL    HW135354   0.356   2.657  14.206  0.1315 -0.1990  0.8705
 7907SOL    HW235355   0.470   2.735  14.253  0.4165  0.1929  0.3037
 7908SOL     OW35356   0.734   1.700   7.832  0.1303  0.0740 -0.8982
 7908SOL    HW135357   0.717   1.623   7.887 -0.5366  1.0249  0.2292
 7908SOL    HW235358   0.670   1.768   7.855  0.3881  0.2267 -0.6332
 7909SOL     OW35359   0.974   2.908   1.614  0.0508  0.2064 -0.1555
 7909SOL    HW135360   0.998   2.851   1.541 -2.4485 -0.6225 -0.3345
 7909SOL    HW235361   0.880   2.892   1.616 -0.1609  1.6586  1.8408
 7910SOL     OW35362   3.721   1.426   6.041 -0.2436 -0.8291 -0.1260
 7910SOL    HW135363   3.737   1.517   6.018  0.2884 -1.3550 -1.8914
 7910SOL    HW235364   3.789   1.381   5.991  1.0154  0.3979  0.5075
 7911SOL     OW35365   4.491   3.665  16.822 -0.2764  0.2297 -0.6099
 7911SOL    HW135366   4.449   3.728  16.880 -0.5038 -1.7148  1.3646
 7911SOL    HW235367   4.495   3.590  16.882  0.4907  2.4405  2.0924
 7912SOL     OW35368   0.084   1.041   3.224 -0.0820 -0.3062 -0.4453
 7912SOL    HW135369   0.074   1.042   3.320  0.4137  0.4118 -0.3987
 7912SOL    HW235370   0.012   0.992   3.185  0.4858 -0.4472 -1.2960
 7913SOL     OW35371   3.007   2.789   9.837  0.2264 -0.2347 -0.2084
 7913SOL    HW135372   3.080   2.846   9.814 -0.6257  1.0964  0.3911
 7913SOL    HW235373   3.015   2.737   9.757 -0.6352  1.2881 -1.2867
 7914SOL     OW35374   3.346   2.070   1.226  0.0179 -0.1420 -0.0376
 7914SOL    HW135375   3.349   2.126   1.149 -0.8518  1.7211  1.2799
 7914SOL    HW235376   3.439   2.077   1.248 -0.0492  0.9297 -0.0894
 7915SOL     OW35377   2.381   1.887   4.059  0.2606  0.0788  0.3629
 7915SOL    HW135378   2.456   1.946   4.049 -0.4924  1.1109  0.7384
 7915SOL    HW235379   2.382   1.877   4.155 -2.5317  0.3579  0.4203
 7916SOL     OW35380   1.121   1.292   3.678 -0.3997  0.1250  0.0989
 7916SOL    HW135381   1.165   1.208   3.663 -1.4961 -0.1979 -1.2385
 7916SOL    HW235382   1.041   1.269   3.724 -1.1874  2.1103 -0.2907
 7917SOL     OW35383   0.046   0.634   4.506  0.0329  0.1249  0.2058
 7917SOL    HW135384   0.103   0.642   4.429  1.9509 -0.8363  1.5392
 7917SOL    HW235385   0.068   0.711   4.559  0.4791  1.9214 -2.5717
 7918SOL     OW35386   1.455   3.208   4.580 -0.2593 -0.0899 -0.3375
 7918SOL    HW135387   1.550   3.211   4.565  0.1771 -0.9343  2.2528
 7918SOL    HW235388   1.431   3.286   4.531  0.5157 -0.3065 -1.0570
 7919SOL     OW35389   3.087   2.679  10.088  0.1900  0.2376 -0.3274
 7919SOL    HW135390   3.040   2.716  10.013  0.4616 -0.2637 -0.7482
 7919SOL    HW235391   3.116   2.595  10.052  1.6289  0.8343 -0.5830
 7920SOL     OW35392   0.474   1.959   7.322 -0.2870  0.4030  0.3455
 7920SOL    HW135393   0.474   2.041   7.271 -0.1106  2.8666  4.2989
 7920SOL    HW235394   0.513   1.993   7.402 -1.7387  0.6778  0.9348
 7921SOL     OW35395   3.076   0.445   0.834 -0.0527 -0.2025 -0.4895
 7921SOL    HW135396   3.042   0.463   0.922  2.8899 -1.5344  0.9066
 7921SOL    HW235397   2.999   0.471   0.783 -0.7342  3.2112  2.2520
 7922SOL     OW35398   2.070   0.277   2.203  0.3751  0.5215 -0.1960
 7922SOL    HW135399   2.031   0.237   2.281  0.4574 -0.4765 -0.6627
 7922SOL    HW235400   1.995   0.334   2.186 -0.5533 -0.4776  0.4924
 7923SOL     OW35401   1.949   4.091   9.426  0.0152  0.0192  0.0377
 7923SOL    HW135402   2.002   4.164   9.459 -0.4079  0.6302 -0.6551
 7923SOL    HW235403   1.865   4.122   9.461 -0.8188 -1.6522 -0.4770
 7924SOL     OW35404   4.567   1.731  13.399  0.2348 -0.5233  0.2226
 7924SOL    HW135405   4.480   1.696  13.420 -0.7656  2.2504  0.7441
 7924SOL    HW235406   4.543   1.810  13.350 -3.0565 -1.2967  0.5920
 7925SOL     OW35407   3.564   0.366   3.726 -0.2373  0.0953 -0.4352
 7925SOL    HW135408   3.489   0.425   3.717 -0.4228 -0.0163  0.4243
 7925SOL    HW235409   3.538   0.307   3.797 -0.3861  0.1984 -0.4055
 7926SOL     OW35410   0.126   4.485   1.762 -0.4302 -0.9460  0.1937
 7926SOL    HW135411   0.094   4.575   1.761  0.4699 -0.6381 -0.1716
 7926SOL    HW235412   0.087   4.457   1.845  0.3605 -2.0968  0.1787
 7927SOL     OW35413   0.459   4.545   5.081 -0.0963 -0.1150 -0.5398
 7927SOL    HW135414   0.412   4.466   5.055  1.1145 -0.8326 -0.5840
 7927SOL    HW235415   0.385   4.605   5.083  1.1645  1.3643  1.0155
 7928SOL     OW35416   4.360   2.517  13.315 -0.2567  0.3824 -0.7409
 7928SOL    HW135417   4.395   2.472  13.392 -0.9994 -0.4466 -0.8882
 7928SOL    HW235418   4.266   2.512  13.333  0.2255  0.3667  1.7322
 7929SOL     OW35419   1.748   3.803  17.556 -0.2146 -0.2064 -0.1375
 7929SOL    HW135420   1.702   3.885  17.542  0.9495  0.4233 -0.3054
 7929SOL    HW235421   1.780   3.814  17.646 -0.6386  0.3941 -0.0616
 7930SOL     OW35422   4.527   2.414   7.274  0.1502  0.2419 -0.2608
 7930SOL    HW135423   4.516   2.348   7.343 -1.5010  0.2902 -0.4744
 7930SOL    HW235424   4.582   2.377   7.205 -0.0322 -1.0946  0.2931
 7931SOL     OW35425   3.843   0.421   2.938  0.6848 -0.4760 -0.4012
 7931SOL    HW135426   3.848   0.335   2.897 -0.0761 -0.5033 -0.4234
 7931SOL    HW235427   3.931   0.416   2.975  0.3383  0.9058  0.5966
 7932SOL     OW35428   2.600   0.231   5.891 -0.3483 -0.6750 -0.6922
 7932SOL    HW135429   2.571   0.180   5.967  3.2232 -0.0816  1.0506
 7932SOL    HW235430   2.576   0.320   5.914  1.1048 -0.0356 -1.6656
 7933SOL     OW35431   3.241   4.014   2.007 -0.3423  0.3368  0.3357
 7933SOL    HW135432   3.153   4.048   2.025 -1.2601 -0.9483 -1.6461
 7933SOL    HW235433   3.225   3.974   1.921 -1.9534  0.1993  0.6923
 7934SOL     OW35434   1.012   0.265   8.461  0.7252 -0.3259  0.3392
 7934SOL    HW135435   1.007   0.182   8.509 -1.2722 -0.2640  0.2122
 7934SOL    HW235436   1.101   0.255   8.426  0.4078 -0.0945 -0.5154
 7935SOL     OW35437   4.720   1.203   5.925  0.4434  0.3730 -0.5518
 7935SOL    HW135438   0.073   1.177   5.955  0.0158 -0.7701 -0.2878
 7935SOL    HW235439   4.661   1.189   5.999  1.1868 -1.9766 -0.3957
 7936SOL     OW35440   0.918   0.657   9.827  0.1139  0.4758 -0.1329
 7936SOL    HW135441   0.836   0.626   9.865  0.2384 -2.4564 -2.2395
 7936SOL    HW235442   0.975   0.609   9.888  0.5675 -0.2849 -1.1507
 7937SOL     OW35443   4.236   1.715   2.221  0.5404  0.2949  0.0502
 7937SOL    HW135444   4.317   1.759   2.196  0.2955  0.4343 -0.5072
 7937SOL    HW235445   4.235   1.714   2.317  0.6852 -1.4433  0.0398
 7938SOL     OW35446   1.620   0.387   6.964  0.3939  0.2269  0.0973
 7938SOL    HW135447   1.626   0.319   7.031 -1.4999  1.0436  1.1015
 7938SOL    HW235448   1.704   0.378   6.918 -0.3967 -1.8873 -0.9191
 7939SOL     OW35449   1.970   4.724   6.627  0.1703 -0.2371 -0.2785
 7939SOL    HW135450   1.911   4.666   6.676  0.0984  0.8385  0.9109
 7939SOL    HW235451   1.959   4.685   6.540  1.0393  0.1820 -0.5798
 7940SOL     OW35452   4.119   3.511   8.948  0.4364 -0.0893 -0.2978
 7940SOL    HW135453   4.203   3.558   8.952 -0.1529  0.8493  1.2667
 7940SOL    HW235454   4.072   3.576   8.897  2.3018  0.6749 -1.0373
 7941SOL     OW35455   0.319   4.337   3.805  0.6343 -0.3040  0.2358
 7941SOL    HW135456   0.354   4.359   3.719  1.0138  2.6026  1.1300
 7941SOL    HW235457   0.296   4.420   3.847 -1.0924 -0.2912 -0.7341
 7942SOL     OW35458   3.664   1.394   5.611 -0.3341 -0.1103  0.4568
 7942SOL    HW135459   3.600   1.462   5.590  1.1263  0.6477 -1.4884
 7942SOL    HW235460   3.611   1.336   5.666 -1.5207  1.1184  0.6242
 7943SOL     OW35461   4.654   1.497  13.270 -0.6419  0.0249  0.0984
 7943SOL    HW135462   4.592   1.570  13.264 -1.0960 -0.3454  0.2479
 7943SOL    HW235463   4.655   1.465  13.360  0.6369 -1.1532 -0.3367
 7944SOL     OW35464   2.938   1.293   6.707 -0.2501 -0.3954 -0.5596
 7944SOL    HW135465   2.966   1.375   6.747 -1.9575  0.2414 -0.6772
 7944SOL    HW235466   2.842   1.298   6.712 -0.1487  0.7384  0.1458
 7945SOL     OW35467   3.470   1.355   4.847  0.0250  0.1630  0.3830
 7945SOL    HW135468   3.535   1.299   4.889  0.4133  0.2261 -0.1404
 7945SOL    HW235469   3.400   1.354   4.912  0.5263  4.0226  0.9733
 7946SOL     OW35470   3.529   4.626  17.513  0.3592 -0.4448 -0.3330
 7946SOL    HW135471   3.540   4.696  17.449  0.7823  1.2159  1.5588
 7946SOL    HW235472   3.442   4.595  17.487  2.0856 -2.2744 -3.8552
 7947SOL     OW35473   2.757   4.055   8.618  0.3727  0.8198  0.1896
 7947SOL    HW135474   2.675   4.006   8.629 -0.2021  1.6473 -0.3347
 7947SOL    HW235475   2.742   4.134   8.670  0.2209  1.5151 -0.8871
 7948SOL     OW35476   0.180   0.731   3.428 -0.1559 -0.3160 -0.2771
 7948SOL    HW135477   0.254   0.786   3.403  1.9955 -3.8613 -1.6531
 7948SOL    HW235478   0.161   0.699   3.340  0.6339 -0.1109 -0.5173
 7949SOL     OW35479   4.641   4.282   5.590 -0.0130 -0.2365 -0.3858
 7949SOL    HW135480   4.602   4.339   5.523 -0.9649  0.0844  0.4283
 7949SOL    HW235481   4.613   4.341   5.661 -0.1842 -0.3104 -0.3905
 7950SOL     OW35482   1.218   3.375   3.183 -0.3869  0.2344 -0.1704
 7950SOL    HW135483   1.296   3.387   3.128 -0.4481  0.6548 -0.1719
 7950SOL    HW235484   1.184   3.465   3.183 -1.5861 -0.2147 -1.5411
 7951SOL     OW35485   1.612   3.356   4.231  0.3052  0.1283 -0.1969
 7951SOL    HW135486   1.516   3.356   4.232  0.3240  0.7984  1.3544
 7951SOL    HW235487   1.626   3.396   4.316  1.7691 -0.7569 -0.0186
 7952SOL     OW35488   2.255   0.933   9.083 -0.1651  1.2685  0.1006
 7952SOL    HW135489   2.189   0.864   9.087 -0.3384  1.5077  1.2190
 7952SOL    HW235490   2.205   1.012   9.065 -1.9611  0.2931  0.7987
 7953SOL     OW35491   3.676   3.330   2.525  0.6115 -0.4941  0.3619
 7953SOL    HW135492   3.640   3.379   2.451 -0.1236  0.0042  1.0539
 7953SOL    HW235493   3.627   3.382   2.589 -0.0395 -0.3289 -0.2763
 7954SOL     OW35494   2.085   4.484  12.989 -0.1815 -0.6241  0.0252
 7954SOL    HW135495   2.137   4.436  13.054  0.7348 -0.6919 -0.7567
 7954SOL    HW235496   2.152   4.547  12.962 -2.3599  1.6961  0.1149
 7955SOL     OW35497   3.180   3.335   1.850  0.8759  0.0882 -0.1651
 7955SOL    HW135498   3.134   3.394   1.791 -3.2961 -1.7882  1.1899
 7955SOL    HW235499   3.131   3.254   1.835  2.6676 -1.3816  1.8826
 7956SOL     OW35500   1.093   2.440  17.681  0.0736 -0.0566  0.2253
 7956SOL    HW135501   1.138   2.495   0.007 -0.1689  1.4414 -0.8787
 7956SOL    HW235502   1.006   2.445  17.720  0.5404  1.9523  1.0049
 7957SOL     OW35503   1.510   0.830   5.703  0.6598 -0.2905 -0.3422
 7957SOL    HW135504   1.420   0.797   5.700  0.6127 -0.2790  0.9171
 7957SOL    HW235505   1.538   0.777   5.778 -1.2825  0.9210  1.2327
 7958SOL     OW35506   3.585   0.321  14.161 -0.3779  0.3814 -0.0146
 7958SOL    HW135507   3.626   0.304  14.076  0.8021 -0.2446  0.6758
 7958SOL    HW235508   3.641   0.261  14.211  0.1329  1.6840  1.0011
 7959SOL     OW35509   1.410   2.276  13.709  0.3913 -0.2369  0.1566
 7959SOL    HW135510   1.359   2.195  13.715 -2.1863  1.3559  0.1193
 7959SOL    HW235511   1.355   2.337  13.660 -0.0020 -0.7589 -0.0611
 7960SOL     OW35512   1.440   1.857  12.793 -0.1712 -0.1992 -0.4866
 7960SOL    HW135513   1.387   1.889  12.866 -3.4432 -0.8591 -2.5748
 7960SOL    HW235514   1.438   1.931  12.732 -2.2369  1.0498  1.0771
 7961SOL     OW35515   4.255   3.938   9.178 -0.2102  0.4404 -0.2450
 7961SOL    HW135516   4.289   3.976   9.259  1.6675 -0.7993 -0.4576
 7961SOL    HW235517   4.161   3.941   9.196 -0.4976 -2.2373 -1.3116
 7962SOL     OW35518   2.216   2.235   0.315  0.6714 -0.2845 -0.2639
 7962SOL    HW135519   2.221   2.259   0.222  1.0201  1.6632  0.2518
 7962SOL    HW235520   2.272   2.306   0.346 -0.3209  0.4253 -0.0660
 7963SOL     OW35521   4.411   1.176  17.722  0.3477 -0.4824 -0.0868
 7963SOL    HW135522   4.493   1.127  17.713  1.3127  0.9536  1.0042
 7963SOL    HW235523   4.360   1.141   0.057  0.8251  2.3897  1.6087
 7964SOL     OW35524   4.313   2.092  14.973 -0.6637 -0.6377  0.2265
 7964SOL    HW135525   4.245   2.026  14.969 -0.0951 -1.0597 -2.5369
 7964SOL    HW235526   4.385   2.054  14.922 -0.7378 -0.0887 -0.2845
 7965SOL     OW35527   0.556   1.412   5.309 -0.7152  0.1178 -0.3046
 7965SOL    HW135528   0.570   1.359   5.231  1.2338  0.3035 -0.0829
 7965SOL    HW235529   0.594   1.497   5.288 -1.5666  0.7154  0.5503
 7966SOL     OW35530   3.290   3.189   9.794  0.4509  0.4699  0.0956
 7966SOL    HW135531   3.245   3.267   9.760 -1.8053 -0.8526  0.0732
 7966SOL    HW235532   3.371   3.202   9.745  0.6918 -0.1182  0.3463
 7967SOL     OW35533   2.501   4.189   8.416  0.0620  0.5116 -0.1735
 7967SOL    HW135534   2.421   4.168   8.463  3.2567 -0.3488  4.8403
 7967SOL    HW235535   2.572   4.187   8.480 -0.0962  4.4389  0.1055
 7968SOL     OW35536   1.282   4.311   5.461  0.0313 -0.0836  0.5386
 7968SOL    HW135537   1.187   4.300   5.469 -0.0762  0.3794 -0.1539
 7968SOL    HW235538   1.298   4.233   5.407 -2.5885 -0.9532  1.0211
 7969SOL     OW35539   2.878   4.077   3.940  0.0702  0.4703 -0.0580
 7969SOL    HW135540   2.882   4.013   4.012 -0.5284 -0.2152 -0.6320
 7969SOL    HW235541   2.816   4.139   3.977 -0.8832 -0.6385  0.2176
 7970SOL     OW35542   3.772   2.326   8.569 -0.2922  0.3371  0.2890
 7970SOL    HW135543   3.790   2.255   8.507 -0.6298 -0.7857  1.4754
 7970SOL    HW235544   3.856   2.364   8.596 -0.0072 -0.3854  0.4356
 7971SOL     OW35545   1.482   2.566   4.202  0.2191  0.0348  0.3559
 7971SOL    HW135546   1.521   2.553   4.288 -0.1282  1.0697  0.6663
 7971SOL    HW235547   1.520   2.641   4.156 -0.5312  0.2958  0.1695
 7972SOL     OW35548   3.193   2.031   2.486 -0.1357  0.0918  0.1310
 7972SOL    HW135549   3.249   2.106   2.504 -0.9822  0.3168  1.7651
 7972SOL    HW235550   3.192   2.036   2.390  0.7330  1.5507  0.2003
 7973SOL     OW35551   4.322   0.486   3.716  0.0559  0.3153 -0.3567
 7973SOL    HW135552   4.334   0.395   3.690  0.2312  0.3041 -0.2366
 7973SOL    HW235553   4.266   0.465   3.791  0.0999  1.3412 -0.0304
 7974SOL     OW35554   2.198   4.688  12.045 -0.2234 -0.0168  0.2307
 7974SOL    HW135555   2.104   4.697  12.060  0.0116  0.9922  1.0290
 7974SOL    HW235556   2.211   4.602  12.085  1.3191 -0.4482 -1.1597
 7975SOL     OW35557   1.960   4.082   2.589 -0.5461  0.6205 -0.5584
 7975SOL    HW135558   1.871   4.052   2.573 -0.5163  1.7180 -2.7065
 7975SOL    HW235559   2.010   4.004   2.565  2.2952  2.8954 -2.0321
 7976SOL     OW35560   0.181   4.439  10.852  0.0449  0.8176 -0.5689
 7976SOL    HW135561   0.142   4.526  10.859 -0.9913  0.3133 -0.0788
 7976SOL    HW235562   0.132   4.386  10.915  0.1204 -0.5674 -1.6789
 7977SOL     OW35563   0.707   1.732   7.193  0.4716 -0.7169 -0.0823
 7977SOL    HW135564   0.798   1.753   7.212 -0.0927  1.1364  0.4680
 7977SOL    HW235565   0.678   1.695   7.277 -3.2156  3.9345  0.6615
 7978SOL     OW35566   0.357   3.735  16.892 -0.1011  0.4917  0.5751
 7978SOL    HW135567   0.314   3.693  16.967  1.1765  0.1195  1.0909
 7978SOL    HW235568   0.283   3.779  16.849  0.2470  0.4052 -0.1075
 7979SOL     OW35569   0.324   0.732  15.932  0.5883 -0.3436  0.2044
 7979SOL    HW135570   0.342   0.794  15.862 -0.7762 -0.8081 -0.5563
 7979SOL    HW235571   0.408   0.706  15.969  0.1101  1.5929  2.6345
 7980SOL     OW35572   4.270   1.098   4.995  0.3461  0.2107 -0.4495
 7980SOL    HW135573   4.326   1.061   5.063  0.3269  0.1585 -0.4614
 7980SOL    HW235574   4.222   1.019   4.968 -0.2271  0.9810 -1.6752
 7981SOL     OW35575   1.479   0.928  11.476  0.3894 -0.1224 -0.5819
 7981SOL    HW135576   1.428   0.912  11.556 -1.0331 -1.7348 -1.8156
 7981SOL    HW235577   1.568   0.907  11.504 -0.6988  0.4427  3.3439
 7982SOL     OW35578   1.416   2.190   2.467 -0.4490  0.2204 -0.5739
 7982SOL    HW135579   1.478   2.117   2.462 -0.8338 -0.2399  1.2652
 7982SOL    HW235580   1.388   2.184   2.558  0.9931 -2.0410 -0.2864
 7983SOL     OW35581   0.784   3.334   1.947  0.2358 -0.2742  0.2742
 7983SOL    HW135582   0.822   3.246   1.948 -0.5691 -0.6280  0.0203
 7983SOL    HW235583   0.809   3.363   1.860  0.1947 -1.2428 -0.0608
 7984SOL     OW35584   1.771   1.379  17.571  0.2543  0.3904 -0.1415
 7984SOL    HW135585   1.699   1.431  17.608  2.0515  0.9962  2.4837
 7984SOL    HW235586   1.734   1.298  17.537  0.2864 -0.3297  1.5435
 7985SOL     OW35587   3.849   1.017   2.841  0.5666  0.1468 -0.4491
 7985SOL    HW135588   3.758   1.015   2.812  0.2198 -0.7247  0.6881
 7985SOL    HW235589   3.877   0.931   2.811  3.9244  0.1645  2.5135
 7986SOL     OW35590   2.748   3.273   5.663 -0.6162 -0.0200 -0.5234
 7986SOL    HW135591   2.667   3.246   5.707 -1.1838  1.6192 -0.5368
 7986SOL    HW235592   2.758   3.218   5.586 -0.6632 -0.6948 -0.0456
 7987SOL     OW35593   1.084   3.311   7.893  0.1065 -0.1594  0.3817
 7987SOL    HW135594   1.011   3.371   7.875  1.5051  1.2251 -0.6718
 7987SOL    HW235595   1.048   3.225   7.870 -0.5906  0.6616 -1.6338
 7988SOL     OW35596   1.983   1.857  10.398 -0.0979  0.4218 -0.2805
 7988SOL    HW135597   1.987   1.898  10.311 -2.1345 -1.7730 -1.4244
 7988SOL    HW235598   2.067   1.875  10.439  0.2404  0.9379 -1.2045
 7989SOL     OW35599   0.270   0.973   5.719 -0.4533  0.6566  0.2155
 7989SOL    HW135600   0.265   1.062   5.754  1.4037 -0.0340  2.1906
 7989SOL    HW235601   0.311   0.932   5.795  1.1980  0.4618 -0.7898
 7990SOL     OW35602   2.214   1.499   0.452  0.2939  0.1962  0.0878
 7990SOL    HW135603   2.298   1.452   0.461  0.8355  0.7764 -2.0989
 7990SOL    HW235604   2.180   1.489   0.541 -1.0794 -0.4536 -0.5049
 7991SOL     OW35605   1.616   3.908  14.100  0.0245  0.1414  0.2141
 7991SOL    HW135606   1.651   3.934  14.015  0.5551  0.8448  0.6471
 7991SOL    HW235607   1.555   3.836  14.085 -0.2273  1.0263 -2.9658
 7992SOL     OW35608   3.704   2.886   1.011 -0.0180  0.5786  0.0147
 7992SOL    HW135609   3.629   2.852   1.059  0.5467 -2.1728 -1.0734
 7992SOL    HW235610   3.763   2.815   0.985 -0.9741 -0.0768 -0.3832
 7993SOL     OW35611   1.826   4.443   3.229 -0.8870 -0.9688  0.0164
 7993SOL    HW135612   1.825   4.531   3.265 -0.2990 -0.6874 -0.6627
 7993SOL    HW235613   1.885   4.394   3.286  3.0310  1.6186 -1.8163
 7994SOL     OW35614   3.417   1.225  16.112  0.0423  0.0399 -1.0106
 7994SOL    HW135615   3.461   1.213  16.196 -0.2960  0.0055 -0.8421
 7994SOL    HW235616   3.447   1.310  16.079  3.2449 -0.8726 -0.4878
 7995SOL     OW35617   2.490   3.496   3.436  0.3285 -0.5438 -0.6718
 7995SOL    HW135618   2.578   3.460   3.422  0.3420 -0.3976 -0.9705
 7995SOL    HW235619   2.456   3.500   3.346  1.4545 -0.5110 -1.1010
 7996SOL     OW35620   1.054   3.584   1.731  0.4514  0.1978  0.1329
 7996SOL    HW135621   1.102   3.559   1.811 -0.9562 -0.8030  0.6632
 7996SOL    HW235622   1.076   3.501   1.688  1.6111  0.5836 -0.0275
 7997SOL     OW35623   0.227   3.399   2.542  0.4210  0.5017  0.2460
 7997SOL    HW135624   0.310   3.369   2.506  0.7437  1.0879  0.4849
 7997SOL    HW235625   0.252   3.476   2.593 -0.4175  0.2129  1.0928
 7998SOL     OW35626   2.156   3.225  17.729 -0.1888 -0.2071  0.1031
 7998SOL    HW135627   2.132   3.280   0.065  1.0202 -0.5294  0.7274
 7998SOL    HW235628   2.109   3.262  17.654  0.4422 -0.5990 -0.4810
 7999SOL     OW35629   2.674   3.504   0.563 -0.1254  0.0325 -0.4403
 7999SOL    HW135630   2.738   3.450   0.517 -1.6309  0.5225 -3.0893
 7999SOL    HW235631   2.731   3.522   0.637 -0.7701  1.5278 -0.3206
 8000SOL     OW35632   1.662   3.358   5.715  0.5223 -0.2366 -0.1367
 8000SOL    HW135633   1.750   3.387   5.690  1.1030 -0.3175  1.7677
 8000SOL    HW235634   1.688   3.301   5.788  1.8514  0.3718 -0.1454
 8001SOL     OW35635   4.680   3.456  14.697 -0.2119  0.0127 -0.5888
 8001SOL    HW135636   4.624   3.413  14.633 -2.3408  0.6416  0.8641
 8001SOL    HW235637   4.611   3.493  14.751 -0.5814 -1.9021  0.2522
 8002SOL     OW35638   2.219   4.148   4.885 -0.0985 -0.2627  0.1611
 8002SOL    HW135639   2.286   4.101   4.934  0.2606 -0.0736 -0.1413
 8002SOL    HW235640   2.272   4.226   4.866 -1.2241  0.5846  0.5039
 8003SOL     OW35641   0.872   0.105  12.043 -0.7776  0.2429  0.2202
 8003SOL    HW135642   0.812   0.032  12.030  0.0870 -0.3836 -0.1842
 8003SOL    HW235643   0.904   0.098  12.133 -0.1974 -2.1333 -0.1875
 8004SOL     OW35644   2.907   0.232  17.378 -0.3967  0.0990 -0.2215
 8004SOL    HW135645   2.968   0.164  17.350  1.7893  1.3814  1.4933
 8004SOL    HW235646   2.926   0.247  17.471 -1.0907 -0.0793 -0.0459
 8005SOL     OW35647   0.073   3.765   3.699 -0.2734 -0.0227  0.3534
 8005SOL    HW135648   4.730   3.795   3.747 -1.5821 -0.9150 -1.2424
 8005SOL    HW235649   0.087   3.833   3.633  0.2258 -1.2882 -0.8495
 8006SOL     OW35650   3.055   2.211  10.963 -0.4369 -0.2686  0.1391
 8006SOL    HW135651   3.014   2.283  10.916  1.8861  0.9020 -0.0808
 8006SOL    HW235652   3.145   2.233  10.939 -0.3739 -2.1405 -1.3363
 8007SOL     OW35653   2.942   0.221   1.636 -0.6680 -0.6487 -0.5460
 8007SOL    HW135654   2.905   0.241   1.550 -0.9587  1.8769  0.1422
 8007SOL    HW235655   3.021   0.169   1.620  0.3598  0.9722 -0.7479
 8008SOL     OW35656   0.806   3.928  10.665 -0.5486  0.3997 -0.3210
 8008SOL    HW135657   0.766   3.890  10.586  0.8485 -2.6068  0.4445
 8008SOL    HW235658   0.730   3.923  10.722 -0.0820  2.2753  0.4670
 8009SOL     OW35659   0.649   4.257   5.040 -0.3853  0.3476 -0.2638
 8009SOL    HW135660   0.568   4.307   5.033 -1.4212 -1.5417 -1.8553
 8009SOL    HW235661   0.659   4.221   4.952 -0.0813 -1.1631  0.3911
 8010SOL     OW35662   3.014   2.895   4.362  0.5024  0.0277 -0.2907
 8010SOL    HW135663   2.943   2.954   4.339  0.3751  0.3749  0.9800
 8010SOL    HW235664   3.029   2.940   4.445 -0.8070 -2.3840  1.2521
 8011SOL     OW35665   2.458   4.440   3.828 -0.0477 -0.1551  0.3947
 8011SOL    HW135666   2.461   4.379   3.755 -1.5353  0.2080  0.0392
 8011SOL    HW235667   2.424   4.517   3.782  1.0514  1.3877  2.1763
 8012SOL     OW35668   0.559   3.086   1.806  0.4490 -0.7650 -0.5237
 8012SOL    HW135669   0.479   3.048   1.770  0.3275 -0.1345 -0.9013
 8012SOL    HW235670   0.552   3.175   1.772  1.6779  0.5583  2.6545
 8013SOL     OW35671   1.947   0.003  11.597  0.8225 -0.3529  0.3195
 8013SOL    HW135672   1.939   0.078  11.539  0.0366 -0.3990  0.3615
 8013SOL    HW235673   2.042   4.733  11.608  0.8659 -0.3112 -0.0684
 8014SOL     OW35674   3.037   0.446   1.799 -0.1060 -0.7460  0.0097
 8014SOL    HW135675   2.943   0.459   1.813  0.2043 -1.3123  2.6802
 8014SOL    HW235676   3.035   0.382   1.728  0.0972 -2.0798  1.2109
 8015SOL     OW35677   0.557   1.120   9.879  0.0309  0.2283  0.1017
 8015SOL    HW135678   0.601   1.081   9.954 -0.6589 -1.3943 -0.3465
 8015SOL    HW235679   0.516   1.054   9.824  0.9799  2.1050 -2.9008
 8016SOL     OW35680   1.310   1.877   1.974  0.1381 -0.1176 -0.4022
 8016SOL    HW135681   1.330   1.893   1.882  0.5622 -1.3842 -0.5224
 8016SOL    HW235682   1.219   1.905   1.984  1.0181  2.3675  0.7890
 8017SOL     OW35683   3.434   3.586  14.686  0.2756 -0.5292  0.5407
 8017SOL    HW135684   3.470   3.502  14.660 -1.5325 -0.9295 -0.6638
 8017SOL    HW235685   3.420   3.568  14.779  0.7587 -0.1165  0.6926
 8018SOL     OW35686   0.461   2.130   2.187  0.8195  0.7716  0.0380
 8018SOL    HW135687   0.496   2.065   2.126  0.6835 -1.2357  2.1116
 8018SOL    HW235688   0.529   2.131   2.254  1.1467 -2.7658 -0.2564
 8019SOL     OW35689   3.823   3.567   8.966  0.1956  0.2929  0.3899
 8019SOL    HW135690   3.839   3.590   8.874 -0.8083 -0.5357  0.0134
 8019SOL    HW235691   3.856   3.639   9.019 -1.4853 -0.0623  1.9101
 8020SOL     OW35692   0.868   2.534   7.172  0.1095 -0.1238  0.6981
 8020SOL    HW135693   0.850   2.455   7.223 -0.5616 -0.4111  0.0052
 8020SOL    HW235694   0.812   2.603   7.210 -0.4004  0.4010 -1.0055
 8021SOL     OW35695   2.383   2.293  16.041 -0.4523 -0.0054  0.4541
 8021SOL    HW135696   2.363   2.330  16.127  1.5833 -0.7346  1.2318
 8021SOL    HW235697   2.435   2.218  16.069 -0.6364  0.4163  1.9119
 8022SOL     OW35698   2.149   2.804   3.724 -0.3853  0.3046  0.2348
 8022SOL    HW135699   2.163   2.746   3.798 -0.7884  1.1471  0.9712
 8022SOL    HW235700   2.117   2.880   3.772 -2.2277  0.2939 -0.9729
 8023SOL     OW35701   0.539   0.408   3.616 -0.5637 -0.8872  0.1535
 8023SOL    HW135702   0.528   0.492   3.661  1.9462 -0.7721  0.5599
 8023SOL    HW235703   0.610   0.359   3.657 -0.9926 -0.1978  1.7257
 8024SOL     OW35704   4.123   1.793   0.578 -0.4132  0.4530 -0.1687
 8024SOL    HW135705   4.148   1.874   0.533 -0.1137 -0.3824 -1.5117
 8024SOL    HW235706   4.034   1.820   0.600 -0.5891 -0.4583  0.2429
 8025SOL     OW35707   2.804   1.146   9.092  0.1405  0.2741 -0.1227
 8025SOL    HW135708   2.900   1.141   9.098  0.2480  0.2639 -1.7929
 8025SOL    HW235709   2.778   1.234   9.120  0.4601  0.4360 -0.3340
 8026SOL     OW35710   3.340   0.858  11.926  0.0193 -0.0246  0.1309
 8026SOL    HW135711   3.436   0.854  11.928  0.2204  4.1626 -0.8554
 8026SOL    HW235712   3.322   0.831  11.836  1.5998  1.2913 -0.5802
 8027SOL     OW35713   3.738   3.035   9.853 -0.2616  0.2393  0.2719
 8027SOL    HW135714   3.659   3.062   9.899 -1.5086  0.2479 -1.9043
 8027SOL    HW235715   3.743   3.087   9.773  0.3312 -0.5982 -0.2419
 8028SOL     OW35716   2.748   3.644   5.260 -0.0221  0.3669  0.9185
 8028SOL    HW135717   2.656   3.667   5.248 -0.2543 -1.0767 -0.0758
 8028SOL    HW235718   2.745   3.604   5.347  1.3594 -1.0905  0.2916
 8029SOL     OW35719   2.725   2.279   2.242  0.3084  0.0226 -0.6885
 8029SOL    HW135720   2.682   2.302   2.159 -0.5111  2.4698  0.3950
 8029SOL    HW235721   2.682   2.336   2.306 -0.2217  0.3176 -1.3013
 8030SOL     OW35722   3.490   1.735   6.494 -0.1982 -0.4738 -0.3883
 8030SOL    HW135723   3.400   1.706   6.505 -0.2898  0.2255  0.6744
 8030SOL    HW235724   3.526   1.682   6.566  1.6808 -1.3582 -1.9614
 8031SOL     OW35725   3.043   2.974   9.067 -0.2533 -0.5591 -0.1011
 8031SOL    HW135726   2.996   3.053   9.039  1.0543 -0.0951 -0.9977
 8031SOL    HW235727   3.060   2.989   9.160  1.4631 -1.3097 -0.2899
 8032SOL     OW35728   2.165   2.577   2.988 -0.2969  0.0787  0.0993
 8032SOL    HW135729   2.071   2.571   3.004 -0.7667 -0.2348 -2.9141
 8032SOL    HW235730   2.200   2.636   3.055 -0.1354  0.3581 -0.2301
 8033SOL     OW35731   3.522   1.804  12.189 -0.5327  0.0335  0.1574
 8033SOL    HW135732   3.479   1.730  12.232 -0.3249 -1.2716 -1.8458
 8033SOL    HW235733   3.451   1.863  12.214 -0.6503  1.5973 -3.8899
 8034SOL     OW35734   2.246   1.470   1.720  0.7903 -0.5556 -0.1808
 8034SOL    HW135735   2.237   1.563   1.740  0.9946 -1.0006  1.9654
 8034SOL    HW235736   2.333   1.475   1.680  0.7294  0.8652 -0.1456
 8035SOL     OW35737   1.572   3.190   8.521  0.2232 -0.3052 -0.5376
 8035SOL    HW135738   1.602   3.138   8.446 -0.5196 -2.6488  0.8002
 8035SOL    HW235739   1.509   3.244   8.472 -1.0166  0.1974  1.6060
 8036SOL     OW35740   2.617   1.457   7.222  0.1931  0.1541 -0.4712
 8036SOL    HW135741   2.669   1.455   7.302  1.0918  0.4982 -1.0461
 8036SOL    HW235742   2.528   1.478   7.249  0.4342  1.4783 -0.7077
 8037SOL     OW35743   4.727   3.646   8.928 -0.1088  0.4217 -0.1264
 8037SOL    HW135744   4.643   3.613   8.960 -0.2515 -0.2794 -1.2446
 8037SOL    HW235745   0.058   3.586   8.963 -0.6425 -1.1626 -1.9076
 8038SOL     OW35746   2.763   0.162   6.744  0.4686 -0.2140 -0.2066
 8038SOL    HW135747   2.817   0.084   6.735 -1.8569 -2.0886  2.2195
 8038SOL    HW235748   2.807   0.225   6.687 -0.9308 -1.6055 -2.8093
 8039SOL     OW35749   4.379   4.163  10.494  0.4129  0.1933 -0.5914
 8039SOL    HW135750   4.410   4.073  10.488  1.4363  0.4553  0.7068
 8039SOL    HW235751   4.451   4.200  10.546  1.1581  1.3143 -2.4311
 8040SOL     OW35752   1.599   1.158   7.121 -0.1894 -0.1808  0.0076
 8040SOL    HW135753   1.563   1.245   7.137 -0.6432 -0.5728  1.1175
 8040SOL    HW235754   1.685   1.172   7.082 -0.8882  1.3201 -1.0215
 8041SOL     OW35755   0.957   3.688  14.135  0.0933 -0.2322 -0.4008
 8041SOL    HW135756   0.967   3.597  14.164 -0.1424  0.0148  0.4738
 8041SOL    HW235757   0.897   3.679  14.061  1.7467 -2.4101 -1.4968
 8042SOL     OW35758   1.684   0.169  13.965  0.6763  0.0303 -0.0038
 8042SOL    HW135759   1.636   0.251  13.981  1.3346  0.4068  0.0310
 8042SOL    HW235760   1.613   0.123  13.919  1.2456  0.4342 -1.2951
 8043SOL     OW35761   2.247   4.507  15.255 -0.0776 -0.3455  0.1733
 8043SOL    HW135762   2.218   4.463  15.335  0.4803 -0.0612  0.5312
 8043SOL    HW235763   2.195   4.587  15.261  0.2534 -0.0692 -0.6539
 8044SOL     OW35764   1.477   3.294   7.800 -0.4209 -0.6251 -0.3561
 8044SOL    HW135765   1.440   3.241   7.730 -0.1544 -0.9091 -0.2835
 8044SOL    HW235766   1.563   3.317   7.764  0.7490 -0.3852  2.5701
 8045SOL     OW35767   3.975   1.034   2.550 -0.4879  0.1111 -0.5850
 8045SOL    HW135768   3.937   1.098   2.609  2.9622  1.5768  0.0893
 8045SOL    HW235769   3.894   1.016   2.502 -1.2150 -1.8488  1.4119
 8046SOL     OW35770   0.306   0.428  10.376 -0.2960  0.1770  0.1431
 8046SOL    HW135771   0.239   0.360  10.370  0.5265 -0.7202  1.2273
 8046SOL    HW235772   0.265   0.489  10.314 -1.4553  0.4595  1.2051
 8047SOL     OW35773   1.515   0.705   4.889  0.0257 -0.0687 -0.5705
 8047SOL    HW135774   1.532   0.679   4.980 -2.1719  1.9347  0.4168
 8047SOL    HW235775   1.554   0.793   4.893 -0.3274  0.0441  0.4385
 8048SOL     OW35776   0.445   1.508   1.621  0.3016 -0.3901  0.5465
 8048SOL    HW135777   0.362   1.547   1.647  0.2402 -0.6627  0.7575
 8048SOL    HW235778   0.479   1.518   1.709 -0.4475  0.9955  0.6765
 8049SOL     OW35779   0.148   3.081   5.067  0.6293 -0.0829  0.5379
 8049SOL    HW135780   0.097   3.018   5.118  1.4511  0.9672  2.6575
 8049SOL    HW235781   0.199   3.120   5.138 -0.8247  1.3557  0.7993
 8050SOL     OW35782   3.213   4.080   3.663  0.7127  0.0246  0.5561
 8050SOL    HW135783   3.252   4.081   3.751 -1.4815 -1.5033  1.5461
 8050SOL    HW235784   3.140   4.140   3.678  0.0502 -0.2931 -1.5435
 8051SOL     OW35785   0.874   4.728   1.417 -0.5503 -0.2080  0.5625
 8051SOL    HW135786   0.864   4.717   1.512  0.4014  1.5615  0.8815
 8051SOL    HW235787   0.788   0.030   1.401  0.4578  1.3114 -1.2613
 8052SOL     OW35788   3.097   1.405   3.036  0.3035  0.0846 -0.3137
 8052SOL    HW135789   3.185   1.409   3.073 -0.4982 -1.0406  1.7191
 8052SOL    HW235790   3.064   1.486   3.075  1.2040 -0.4904  1.6516
 8053SOL     OW35791   4.289   3.870  10.357 -0.4048 -0.4182 -0.1802
 8053SOL    HW135792   4.303   3.785  10.398 -0.6035  0.2267  1.2276
 8053SOL    HW235793   4.378   3.903  10.342 -0.7976 -0.1912 -2.0119
 8054SOL     OW35794   1.083   4.564   3.050 -0.1230  0.6065 -0.6067
 8054SOL    HW135795   1.154   4.575   3.113 -0.1211  1.1667 -0.7079
 8054SOL    HW235796   1.065   4.648   3.008 -1.9502  0.4698 -0.1127
 8055SOL     OW35797   3.914   0.394   5.888  0.5205 -0.7926  0.4940
 8055SOL    HW135798   3.935   0.358   5.802 -0.9042 -3.6457  1.3179
 8055SOL    HW235799   3.823   0.419   5.873  0.6466 -0.6863 -0.0703
 8056SOL     OW35800   2.119   0.328   6.163  0.3676  0.2477  0.0478
 8056SOL    HW135801   2.095   0.371   6.245  1.6635  0.6773  0.2110
 8056SOL    HW235802   2.213   0.346   6.167  0.3914 -0.0745  0.9735
 8057SOL     OW35803   3.784   4.236  16.418  0.2045  0.1695  0.2647
 8057SOL    HW135804   3.692   4.234  16.446  0.8481 -0.4381  2.2863
 8057SOL    HW235805   3.805   4.148  16.385 -0.6696 -0.3506  1.0847
 8058SOL     OW35806   4.220   2.024   0.469 -0.6361  0.1078  0.1044
 8058SOL    HW135807   4.301   2.050   0.425 -1.5119 -0.2274 -1.6939
 8058SOL    HW235808   4.222   2.104   0.522  0.2083 -0.1558  0.4777
 8059SOL     OW35809   1.986   2.009   2.348 -0.5121  0.2197 -0.0641
 8059SOL    HW135810   2.044   1.988   2.421 -1.2305 -0.8309  0.1971
 8059SOL    HW235811   1.926   2.069   2.393  0.5034  0.2294  1.2741
 8060SOL     OW35812   1.673   1.612  11.757  0.1394  0.0886 -0.5888
 8060SOL    HW135813   1.704   1.695  11.793 -0.3757  0.2895 -0.6094
 8060SOL    HW235814   1.752   1.558  11.747  0.2770 -0.2125  2.1071
 8061SOL     OW35815   2.747   4.468   7.922 -0.3771  0.0512 -0.2040
 8061SOL    HW135816   2.801   4.522   7.979 -0.9623 -1.4422  1.7540
 8061SOL    HW235817   2.659   4.502   7.939  0.1210  0.3859  1.7124
 8062SOL     OW35818   2.574   2.313   7.122  0.1788 -0.2246 -0.4455
 8062SOL    HW135819   2.554   2.237   7.176 -0.9664  1.1314  1.0176
 8062SOL    HW235820   2.508   2.375   7.153  0.2712 -0.4833  0.2555
 8063SOL     OW35821   3.139   3.452   2.091  0.6684 -0.2155 -0.6112
 8063SOL    HW135822   3.057   3.401   2.090  1.6620 -1.8094 -0.9947
 8063SOL    HW235823   3.177   3.419   2.010 -1.2959  1.3932 -2.1712
 8064SOL     OW35824   3.404   0.033   6.580 -0.0613 -0.0562 -0.1418
 8064SOL    HW135825   3.472   0.054   6.644  1.4789 -0.8580 -1.5376
 8064SOL    HW235826   3.335   0.032   6.647  1.1722 -2.2676  1.1114
 8065SOL     OW35827   4.350   2.144   0.751  0.7402 -0.4572 -0.1704
 8065SOL    HW135828   4.313   2.073   0.803  0.9433 -1.1349 -0.9633
 8065SOL    HW235829   4.358   2.210   0.820 -1.1003 -0.1140 -0.2907
 8066SOL     OW35830   3.046   3.003   6.977  0.4937  0.7469 -0.2650
 8066SOL    HW135831   3.060   2.950   6.899  2.1855  1.5229 -0.4992
 8066SOL    HW235832   3.138   3.017   7.002  0.3149 -0.4139  1.0272
 8067SOL     OW35833   3.547   4.245  11.315 -0.1851  0.2129  0.1051
 8067SOL    HW135834   3.602   4.173  11.345  0.7410  1.1009  0.5382
 8067SOL    HW235835   3.566   4.249  11.221  0.0508  0.3849  0.1599
 8068SOL     OW35836   3.430   3.232   3.217 -0.4106  0.2994  0.2052
 8068SOL    HW135837   3.353   3.201   3.170  0.8981 -0.5252 -1.3785
 8068SOL    HW235838   3.494   3.194   3.157  1.6784  1.3940  1.7097
 8069SOL     OW35839   1.585   4.395   9.182 -0.8374 -0.4369 -0.0837
 8069SOL    HW135840   1.493   4.394   9.207 -0.0062  0.2874  2.9695
 8069SOL    HW235841   1.598   4.315   9.131  1.6491 -0.0320 -0.0798
 8070SOL     OW35842   4.206   2.727   8.626  0.2564 -0.0550 -0.1167
 8070SOL    HW135843   4.221   2.759   8.537 -0.1736 -1.7101 -0.7781
 8070SOL    HW235844   4.289   2.689   8.654  0.1138  0.3224  0.7970
 8071SOL     OW35845   0.372   3.217   6.020 -0.5955  0.5100  0.5524
 8071SOL    HW135846   0.315   3.216   6.097 -0.0893 -0.5372  0.9123
 8071SOL    HW235847   0.326   3.146   5.975 -1.7585  1.6184  0.0127
 8072SOL     OW35848   3.290   0.625   7.616 -0.1153  0.4419  0.6414
 8072SOL    HW135849   3.249   0.711   7.625  1.7563  1.5073 -1.0906
 8072SOL    HW235850   3.249   0.584   7.540 -1.6848  0.8169  1.2867
 8073SOL     OW35851   1.970   2.683   4.105 -0.1031  0.1946  0.7847
 8073SOL    HW135852   1.880   2.712   4.092  0.7182  1.6873 -1.6653
 8073SOL    HW235853   1.959   2.588   4.097  2.1215  0.0722 -0.7158
 8074SOL     OW35854   1.747   4.654   1.825  0.7448  0.3367  0.0727
 8074SOL    HW135855   1.705   4.661   1.739  2.0426 -0.0357 -0.5883
 8074SOL    HW235856   1.734   0.009   1.856 -2.4708 -0.1479  0.1202
 8075SOL     OW35857   3.413   0.392   1.104 -0.1281 -0.7879 -0.0025
 8075SOL    HW135858   3.434   0.327   1.171  1.1380 -1.2578 -0.8645
 8075SOL    HW235859   3.342   0.344   1.062  0.6319 -2.6334  0.8096
 8076SOL     OW35860   1.070   4.173  14.748  0.5633 -0.6749  0.0816
 8076SOL    HW135861   1.109   4.201  14.831 -0.4579  0.4650  0.1721
 8076SOL    HW235862   1.143   4.120  14.714 -1.4177 -1.1134 -3.4489
 8077SOL     OW35863   1.668   1.078  12.440 -0.2950 -0.3133  0.5098
 8077SOL    HW135864   1.655   1.171  12.458  1.5571  0.0344  0.0900
 8077SOL    HW235865   1.755   1.074  12.480 -0.0300  1.3968  0.1116
 8078SOL     OW35866   1.461   2.229   5.921  0.1119 -0.1858  0.2001
 8078SOL    HW135867   1.403   2.302   5.900  0.2406  0.3984  1.8583
 8078SOL    HW235868   1.510   2.269   5.993 -1.2924  1.5611  0.1820
 8079SOL     OW35869   4.724   1.974   3.151  0.1321  0.0431 -0.2611
 8079SOL    HW135870   0.046   1.898   3.138  0.3485  0.1461  0.0951
 8079SOL    HW235871   4.667   1.965   3.074 -0.0554 -0.2559 -0.0890
 8080SOL     OW35872   1.489   2.697   2.335  0.0430 -0.6950 -0.2746
 8080SOL    HW135873   1.473   2.613   2.293  1.5600 -0.5026 -1.2419
 8080SOL    HW235874   1.508   2.676   2.426  1.4564  0.6043 -0.2656
 8081SOL     OW35875   1.525   2.023   6.704 -0.0460 -0.4452  0.0195
 8081SOL    HW135876   1.491   2.003   6.617  0.5968  0.6731 -0.4975
 8081SOL    HW235877   1.619   2.035   6.688 -0.1169  0.8014  0.4949
 8082SOL     OW35878   2.163   0.804   8.048 -0.1743  0.0770 -0.2772
 8082SOL    HW135879   2.202   0.791   7.962  0.1356  0.8164 -0.2509
 8082SOL    HW235880   2.104   0.729   8.051 -0.8172  0.5946  0.0006
 8083SOL     OW35881   1.350   0.756   1.651  0.2896  0.2272 -0.2714
 8083SOL    HW135882   1.292   0.787   1.721  0.2553 -0.2463 -0.0868
 8083SOL    HW235883   1.398   0.838   1.648  0.7488  0.0230  1.5117
 8084SOL     OW35884   3.448   0.304  14.917 -0.2753  0.2607 -0.0604
 8084SOL    HW135885   3.466   0.396  14.936 -0.3565 -0.0289  1.4557
 8084SOL    HW235886   3.378   0.306  14.852 -0.8387 -0.6340  0.5260
 8085SOL     OW35887   0.698   0.507  12.968  0.5057 -0.6236  0.2119
 8085SOL    HW135888   0.651   0.569  12.911 -0.9322 -0.2597  1.7971
 8085SOL    HW235889   0.620   0.463  13.000  0.0933 -0.6677 -0.8674
 8086SOL     OW35890   2.253   2.917   5.916  0.2610  0.2164 -0.2976
 8086SOL    HW135891   2.209   2.934   6.000 -1.7565 -0.9246 -1.1304
 8086SOL    HW235892   2.335   2.967   5.922  1.5693 -1.8470 -1.0587
 8087SOL     OW35893   2.850   3.075   2.280  0.5152  0.3034  0.1146
 8087SOL    HW135894   2.844   3.156   2.330  0.3448  0.1608  0.3236
 8087SOL    HW235895   2.766   3.038   2.308  0.8457 -0.4479  0.1165
 8088SOL     OW35896   2.348   1.740   1.761  0.0857 -0.1315  0.4262
 8088SOL    HW135897   2.403   1.708   1.690  1.5235 -0.6268  1.7487
 8088SOL    HW235898   2.357   1.835   1.762 -0.2902 -0.1087  2.0817
 8089SOL     OW35899   3.067   2.197   7.172 -0.2765  1.0124  0.3272
 8089SOL    HW135900   3.022   2.121   7.136 -1.1303  0.4728  2.5689
 8089SOL    HW235901   3.033   2.279   7.135  0.4910  0.8901 -0.6748
 8090SOL     OW35902   1.034   0.152  11.050 -0.2157 -0.8782 -0.8000
 8090SOL    HW135903   0.945   0.185  11.035 -0.4669 -1.6973 -1.1335
 8090SOL    HW235904   1.025   0.089  11.122 -0.5497  1.0232  0.8105
 8091SOL     OW35905   1.368   3.473   2.226 -0.2858 -0.4680 -0.7630
 8091SOL    HW135906   1.413   3.537   2.171  2.1083 -0.7420  0.8558
 8091SOL    HW235907   1.438   3.418   2.261 -1.8275  0.6872  4.1074
 8092SOL     OW35908   1.330   1.713  17.661  0.1234  0.2523  0.5228
 8092SOL    HW135909   1.419   1.693  17.690  0.4225 -2.0200 -1.8920
 8092SOL    HW235910   1.323   1.634  17.607 -2.3421 -0.0347  1.2692
 8093SOL     OW35911   1.730   2.404  11.776  0.0821 -0.1811  0.5453
 8093SOL    HW135912   1.761   2.437  11.860  2.2156  0.5583 -0.5406
 8093SOL    HW235913   1.662   2.467  11.755 -2.9812 -3.6645 -0.1221
 8094SOL     OW35914   2.349   3.258   9.983  0.1670 -0.0690  0.2762
 8094SOL    HW135915   2.281   3.252  10.050 -0.5945 -1.9457 -0.6493
 8094SOL    HW235916   2.347   3.164   9.967  1.7553 -0.1637  0.7080
 8095SOL     OW35917   2.389   0.688  13.025  0.3665 -0.4154 -0.3194
 8095SOL    HW135918   2.426   0.717  12.942  0.7754 -0.9876 -0.3334
 8095SOL    HW235919   2.299   0.720  13.018  0.0204 -0.9100  1.7076
 8096SOL     OW35920   4.031   1.856  17.553 -0.2777 -0.1150  0.3326
 8096SOL    HW135921   4.023   1.873  17.459  1.0131  1.2788  0.4542
 8096SOL    HW235922   4.035   1.761  17.557  0.5784 -0.0854  0.2745
 8097SOL     OW35923   3.601   2.793   3.830  0.8208  0.0906 -0.6846
 8097SOL    HW135924   3.689   2.760   3.812  0.6621 -0.7192  0.0147
 8097SOL    HW235925   3.583   2.832   3.745 -1.3975  0.7058  0.0614
 8098SOL     OW35926   4.573   2.900   4.428 -0.0735 -0.1929 -0.0973
 8098SOL    HW135927   4.495   2.851   4.401 -0.1418 -1.0382  1.6324
 8098SOL    HW235928   4.537   2.978   4.470  1.5616  1.3119 -1.4883
 8099SOL     OW35929   4.398   4.000  16.840 -0.1262 -0.2873 -0.5474
 8099SOL    HW135930   4.363   4.023  16.754  0.4248 -0.8335 -0.9154
 8099SOL    HW235931   4.491   3.996  16.817  0.3468 -1.0560  1.5019
 8100SOL     OW35932   1.832   0.647   5.696  0.3580  0.4352  0.1369
 8100SOL    HW135933   1.766   0.715   5.681  0.1168 -0.0340 -0.9057
 8100SOL    HW235934   1.815   0.592   5.620  2.2512 -0.2939  0.2350
 8101SOL     OW35935   1.338   3.658   2.756 -0.1646 -0.3154 -0.2161
 8101SOL    HW135936   1.396   3.584   2.775  0.0177 -0.3104 -0.7607
 8101SOL    HW235937   1.272   3.656   2.826 -2.7788 -1.3491 -2.7327
 8102SOL     OW35938   1.669   1.252  10.705 -0.3523 -0.5213 -0.2606
 8102SOL    HW135939   1.652   1.160  10.688 -2.5085 -0.4141  1.3111
 8102SOL    HW235940   1.710   1.271  10.621 -0.6316 -0.7424 -0.4459
 8103SOL     OW35941   0.171   0.038   5.612 -0.0660  0.2651 -0.0158
 8103SOL    HW135942   0.156   0.111   5.672  0.2295  0.2800  0.0381
 8103SOL    HW235943   0.093   4.722   5.635  0.1801 -0.3965 -0.6400
 8104SOL     OW35944   1.774   2.325   9.401  0.6265 -0.0252 -0.3893
 8104SOL    HW135945   1.780   2.416   9.432 -0.6227  0.1684 -0.7362
 8104SOL    HW235946   1.811   2.336   9.314  2.1230  2.3204  0.5080
 8105SOL     OW35947   1.958   3.711   0.076 -0.5444 -0.7530  0.0947
 8105SOL    HW135948   1.998   3.675  17.736  0.4815  3.7183 -1.4561
 8105SOL    HW235949   2.008   3.793   0.076  0.0264 -1.0985  0.0477
 8106SOL     OW35950   4.021   3.220   8.453 -0.2260  0.2586  0.2786
 8106SOL    HW135951   4.009   3.201   8.546  1.7326 -2.2985  0.0354
 8106SOL    HW235952   3.940   3.270   8.447 -0.5635 -0.3148  0.0298
 8107SOL     OW35953   0.727   1.219  10.787 -0.9468 -0.4501  0.0841
 8107SOL    HW135954   0.815   1.256  10.793 -0.5768 -1.0747 -1.3060
 8107SOL    HW235955   0.730   1.162  10.864 -2.2343 -0.1775  0.3324
 8108SOL     OW35956   2.342   4.637   3.621 -0.3988  0.2769  0.2010
 8108SOL    HW135957   2.277   4.569   3.606  0.3918 -0.2534 -0.7647
 8108SOL    HW235958   2.307   4.672   3.704  2.4551  1.1799  1.0182
 8109SOL     OW35959   1.793   0.737   6.855  0.0373  0.7300 -0.1656
 8109SOL    HW135960   1.714   0.723   6.803 -0.4079  0.5184  0.5668
 8109SOL    HW235961   1.778   0.816   6.907  0.2001  0.1049  0.8317
 8110SOL     OW35962   0.223   0.729  12.970 -0.1551 -0.4944 -0.5641
 8110SOL    HW135963   0.251   0.701  13.057  0.9426  1.4200 -0.3009
 8110SOL    HW235964   0.289   0.691  12.913  0.2101 -1.7224  0.6869
 8111SOL     OW35965   2.740   0.308   0.715  0.5430  0.4912 -0.5882
 8111SOL    HW135966   2.811   0.368   0.691 -1.3365  2.3392 -1.5509
 8111SOL    HW235967   2.718   0.283   0.625  3.1682 -0.0755 -1.0811
 8112SOL     OW35968   3.668   1.966   5.884 -0.3667  0.2580  0.3766
 8112SOL    HW135969   3.708   1.914   5.814  1.5297  1.6767  0.3775
 8112SOL    HW235970   3.732   2.038   5.879 -0.0128 -0.0357  0.6436
 8113SOL     OW35971   1.136   2.258  11.613  0.1553 -0.4235 -0.7522
 8113SOL    HW135972   1.166   2.284  11.700  3.2362  0.9056 -2.1812
 8113SOL    HW235973   1.218   2.219  11.582  0.4819  1.3482 -2.0902
 8114SOL     OW35974   3.631   4.039   7.501 -0.4737 -0.4275  0.1422
 8114SOL    HW135975   3.536   4.053   7.496 -0.4232  0.4593  1.4988
 8114SOL    HW235976   3.647   4.050   7.595  3.0409  2.3714 -0.7946
 8115SOL     OW35977   4.250   0.704  16.184  0.6641  0.4220  0.1383
 8115SOL    HW135978   4.173   0.678  16.133  0.1530 -0.0522  1.1426
 8115SOL    HW235979   4.239   0.798  16.171 -1.0667 -0.0943 -2.1477
 8116SOL     OW35980   0.400   3.862   4.496  0.2801 -0.1205 -0.2872
 8116SOL    HW135981   0.341   3.862   4.421  1.6394  0.6003 -1.3442
 8116SOL    HW235982   0.478   3.844   4.443  0.4094  2.5298 -0.9659
 8117SOL     OW35983   0.837   0.729  11.188  0.3844  0.3879 -0.3706
 8117SOL    HW135984   0.813   0.636  11.191 -0.5932  0.5806 -2.2795
 8117SOL    HW235985   0.913   0.727  11.246 -0.1569  0.3597  0.3380
 8118SOL     OW35986   3.314   0.011   5.446  1.0877  0.3681 -0.3842
 8118SOL    HW135987   3.259   4.689   5.499  0.5825  1.1008 -0.1250
 8118SOL    HW235988   3.279   0.003   5.358  2.2419 -2.2788 -0.6104
 8119SOL     OW35989   3.827   1.190   8.745 -0.6197 -0.8396 -0.5876
 8119SOL    HW135990   3.735   1.162   8.745 -1.3264  1.4825 -1.0321
 8119SOL    HW235991   3.858   1.132   8.814  3.2973 -0.1168 -1.7589
 8120SOL     OW35992   3.434   2.256   6.654 -0.2819  0.1404  0.4591
 8120SOL    HW135993   3.425   2.161   6.653 -1.4241  0.2373  0.9863
 8120SOL    HW235994   3.440   2.285   6.563  0.0583  3.0095  1.3917
 8121SOL     OW35995   1.056   4.105   6.038  0.7503  0.4613 -0.0247
 8121SOL    HW135996   1.089   4.147   5.958  0.2032 -0.9310 -0.9912
 8121SOL    HW235997   0.964   4.081   6.025  0.6039  0.6345  0.6973
 8122SOL     OW35998   1.004   3.747   6.953  0.4779 -0.2662  0.2194
 8122SOL    HW135999   1.044   3.832   6.972  0.7319 -0.2294 -0.4745
 8122SOL    HW236000   0.951   3.728   7.030 -1.1346  2.8329 -0.1122
 8123SOL     OW36001   0.589   0.363   0.549  0.3508  0.5505  0.7890
 8123SOL    HW136002   0.548   0.382   0.633 -2.8672  0.3658 -0.7283
 8123SOL    HW236003   0.635   0.280   0.561 -0.7483  0.2479  2.8448
 8124SOL     OW36004   0.034   4.537   7.785 -0.1559 -0.1712  0.2953
 8124SOL    HW136005   0.093   4.532   7.710 -0.5613 -0.8932  0.0215
 8124SOL    HW236006   4.690   4.493   7.752 -1.4748  1.5648  1.1458
 8125SOL     OW36007   3.022   4.405   6.059 -0.0754 -0.2417  0.2755
 8125SOL    HW136008   3.059   4.322   6.088 -2.1400 -0.6110  1.9040
 8125SOL    HW236009   3.040   4.397   5.965 -2.8440 -1.0406 -0.1873
 8126SOL     OW36010   1.146   0.341  13.441 -0.9811  0.4777  0.9311
 8126SOL    HW136011   1.158   0.273  13.374 -0.5186  3.6303 -2.1763
 8126SOL    HW236012   1.104   0.411  13.390 -1.1436 -0.7498 -0.6300
 8127SOL     OW36013   2.564   0.503   5.954  0.3160 -0.1751 -0.0303
 8127SOL    HW136014   2.580   0.586   5.909  2.0895  0.4578  1.7769
 8127SOL    HW236015   2.616   0.519   6.033 -0.3324 -1.1145  0.5891
 8128SOL     OW36016   4.679   0.032   3.440 -0.5135 -0.2856 -0.1599
 8128SOL    HW136017   4.619   0.102   3.416 -0.2812  0.0728  0.2997
 8128SOL    HW236018   4.630   4.703   3.491 -0.1307  0.4602  1.1468
 8129SOL     OW36019   3.703   4.488   3.491  0.2738 -0.2320  0.6193
 8129SOL    HW136020   3.729   4.532   3.410  1.5848 -1.8864  0.1537
 8129SOL    HW236021   3.651   4.415   3.458  1.8379 -0.8602 -0.4317
 8130SOL     OW36022   3.399   1.551  12.321 -0.8415 -0.0469 -0.1673
 8130SOL    HW136023   3.382   1.457  12.323  0.3073 -0.2522  0.3383
 8130SOL    HW236024   3.404   1.571  12.414  1.3333 -0.8889 -0.0815
 8131SOL     OW36025   3.628   4.364  17.234  0.0524 -0.4306  0.4036
 8131SOL    HW136026   3.637   4.397  17.324 -3.1807  1.1298  0.1484
 8131SOL    HW236027   3.607   4.446  17.190  0.5127 -0.5448 -0.0286
 8132SOL     OW36028   1.671   0.776   8.671 -0.9437  0.3931 -0.5815
 8132SOL    HW136029   1.736   0.846   8.678 -1.0049  0.4517 -0.5972
 8132SOL    HW236030   1.729   0.708   8.638 -1.0334 -0.0109  0.0796
 8133SOL     OW36031   0.012   2.627   0.053  0.5030 -0.0860  0.2014
 8133SOL    HW136032   4.675   2.564   0.051  0.0883  0.3623  1.1911
 8133SOL    HW236033   4.712   2.702   0.101 -0.6033 -2.2942  2.8177
 8134SOL     OW36034   3.018   1.632   5.189 -0.2939  0.4076  0.2468
 8134SOL    HW136035   3.003   1.706   5.130 -1.0789 -1.3826 -1.8153
 8134SOL    HW236036   2.933   1.589   5.177  0.2237 -0.5516  0.0050
 8135SOL     OW36037   4.334   2.541  14.283  0.6221 -0.6065 -0.1625
 8135SOL    HW136038   4.335   2.468  14.221 -1.1706  0.4058 -1.3857
 8135SOL    HW236039   4.339   2.616  14.223  2.8041 -0.4053  0.2382
 8136SOL     OW36040   3.026   0.403   3.945  0.1517  0.2195 -0.0137
 8136SOL    HW136041   2.932   0.407   3.960  0.3518 -0.3649  1.3706
 8136SOL    HW236042   3.044   0.311   3.964  0.9498  0.4582  0.3661
 8137SOL     OW36043   4.477   0.947   2.393  0.0069  0.4362 -0.1802
 8137SOL    HW136044   4.444   0.884   2.458 -1.2932  0.2240 -1.0462
 8137SOL    HW236045   4.404   0.954   2.331 -0.4852 -0.4944  0.2862
 8138SOL     OW36046   0.482   4.025   0.130 -0.1183 -0.5603  0.3441
 8138SOL    HW136047   0.565   3.983   0.106 -0.6106 -0.3172 -1.7292
 8138SOL    HW236048   0.487   4.113   0.093  0.1303 -0.9890 -0.6407
 8139SOL     OW36049   0.078   2.469   3.691  0.1907  0.3635 -0.4189
 8139SOL    HW136050   0.160   2.439   3.729  1.6568  2.5580 -1.8538
 8139SOL    HW236051   0.018   2.463   3.765  0.2365  1.6372 -0.2753
 8140SOL     OW36052   1.161   4.681  11.253 -0.5414 -0.0237  0.3495
 8140SOL    HW136053   1.066   4.668  11.262 -0.6606 -1.2900 -2.5720
 8140SOL    HW236054   1.190   4.619  11.185  0.9528  0.5963  0.4322
 8141SOL     OW36055   2.927   2.492   0.883 -0.1441  0.4097 -0.4225
 8141SOL    HW136056   2.858   2.490   0.816 -0.3719  0.3486 -0.1843
 8141SOL    HW236057   2.882   2.455   0.959 -0.7305  1.7703 -0.0968
 8142SOL     OW36058   0.329   3.865   7.101 -0.3765 -0.0659  0.0874
 8142SOL    HW136059   0.365   3.787   7.058  1.5241 -0.3427  2.2533
 8142SOL    HW236060   0.236   3.844   7.114 -0.7184 -0.2721 -2.6791
 8143SOL     OW36061   0.816   2.179   2.083 -1.0286 -0.1577  0.0835
 8143SOL    HW136062   0.746   2.203   2.022 -0.3924  0.6968 -0.3072
 8143SOL    HW236063   0.897   2.174   2.032 -0.5128 -0.7218  0.9558
 8144SOL     OW36064   0.283   3.716  15.729 -0.3822 -0.8903  0.0822
 8144SOL    HW136065   0.262   3.674  15.645 -0.2769 -0.3111 -0.2327
 8144SOL    HW236066   0.226   3.792  15.731  1.2925  0.3391  1.1032
 8145SOL     OW36067   4.442   2.767   3.813 -0.0672  0.0612  0.1922
 8145SOL    HW136068   4.497   2.756   3.736  0.7724  1.5460  0.5800
 8145SOL    HW236069   4.420   2.678   3.840 -1.0066  0.3965  0.5100
 8146SOL     OW36070   4.458   0.661   4.906  0.5533  0.4222  0.1627
 8146SOL    HW136071   4.374   0.623   4.932  0.3764 -1.6586 -3.5219
 8146SOL    HW236072   4.435   0.712   4.829  2.7312 -0.2616 -0.9235
 8147SOL     OW36073   3.240   3.931   2.798  0.2958 -0.5293  0.5725
 8147SOL    HW136074   3.169   3.968   2.850  0.6906  0.9912  0.0277
 8147SOL    HW236075   3.186   3.885   2.733  0.1879 -1.1124  1.0727
 8148SOL     OW36076   1.679   3.503  16.647  0.7459 -0.1825  0.2293
 8148SOL    HW136077   1.688   3.504  16.742 -2.2214  1.8071  0.4815
 8148SOL    HW236078   1.602   3.558  16.634  0.1949 -1.1757 -0.7721
 8149SOL     OW36079   0.874   3.649   2.905 -0.3865 -0.1066  0.2822
 8149SOL    HW136080   0.840   3.572   2.950 -1.8700 -0.9891 -2.3281
 8149SOL    HW236081   0.901   3.615   2.820 -2.1040 -1.0405  0.1083
 8150SOL     OW36082   2.712   3.405  17.631 -0.1070 -0.1738 -0.0732
 8150SOL    HW136083   2.680   3.493  17.613 -0.5846 -0.6839 -1.6937
 8150SOL    HW236084   2.794   3.390  17.584 -0.6405 -1.9630 -0.4414
 8151SOL     OW36085   3.231   2.515   2.590 -0.5572  0.3605 -0.0472
 8151SOL    HW136086   3.254   2.488   2.679 -0.1729  0.1468 -0.2141
 8151SOL    HW236087   3.171   2.587   2.607 -1.3157 -0.5148  1.0189
 8152SOL     OW36088   4.135   0.199   6.267 -0.0741  0.2728  0.7397
 8152SOL    HW136089   4.104   0.287   6.245  0.5931  1.2041  3.5669
 8152SOL    HW236090   4.115   0.147   6.188 -1.5722  1.0445  0.6001
 8153SOL     OW36091   0.980   1.822   7.995 -0.1921  0.4203 -0.0823
 8153SOL    HW136092   1.037   1.810   7.919 -0.4692 -0.7487 -0.1052
 8153SOL    HW236093   1.008   1.746   8.046 -2.0790  0.0556  0.3985
 8154SOL     OW36094   2.796   4.607   9.323  0.0764 -0.0272  0.1350
 8154SOL    HW136095   2.846   4.587   9.244 -3.2239  0.6021 -2.1057
 8154SOL    HW236096   2.866   4.612   9.388 -0.5021  0.3089  0.7365
 8155SOL     OW36097   3.541   4.257   7.250 -0.2058 -0.8548  0.1610
 8155SOL    HW136098   3.563   4.308   7.328  0.3263  0.5226 -0.8938
 8155SOL    HW236099   3.458   4.295   7.220  0.6770  1.2240  0.3004
 8156SOL     OW36100   0.874   1.592   6.303 -0.0837 -0.4229 -0.1269
 8156SOL    HW136101   0.892   1.685   6.287 -1.1508 -0.4728 -1.5446
 8156SOL    HW236102   0.930   1.555   6.235  1.5772 -0.3465  1.1883
 8157SOL     OW36103   3.828   0.366   9.835  0.0451 -0.7852  0.2755
 8157SOL    HW136104   3.907   0.393   9.789 -0.5246  0.6474  0.1418
 8157SOL    HW236105   3.768   0.383   9.762  2.0745 -0.8119 -1.3995
 8158SOL     OW36106   3.676   1.834  14.623  0.2838  0.0889 -0.4728
 8158SOL    HW136107   3.611   1.887  14.668 -1.1129 -1.6180 -0.4651
 8158SOL    HW236108   3.733   1.903  14.590 -0.9545  2.1384  1.6940
 8159SOL     OW36109   3.256   1.909   0.058 -0.0323 -0.5678  0.6210
 8159SOL    HW136110   3.271   2.002   0.079 -0.0128 -0.5378  0.4714
 8159SOL    HW236111   3.189   1.890   0.123 -1.1101  1.7513  0.2206
 8160SOL     OW36112   1.307   2.587  16.270 -0.1930  0.1492  0.2185
 8160SOL    HW136113   1.262   2.633  16.199 -0.9489  0.2699  0.7794
 8160SOL    HW236114   1.237   2.591  16.335 -0.6942 -0.2265 -0.2876
 8161SOL     OW36115   2.378   2.383   5.379 -0.8794 -0.0610 -0.0704
 8161SOL    HW136116   2.295   2.428   5.398 -0.6985  0.0087  0.5708
 8161SOL    HW236117   2.390   2.400   5.286  1.2695 -0.0597  0.2115
 8162SOL     OW36118   0.691   4.025   8.736 -0.0918 -0.4520 -0.5502
 8162SOL    HW136119   0.614   3.981   8.770  0.0509 -0.2688  0.0023
 8162SOL    HW236120   0.650   4.105   8.703  1.9738  0.5551 -0.7122
 8163SOL     OW36121   1.531   1.344   9.576  0.0697 -0.0564 -0.1211
 8163SOL    HW136122   1.551   1.437   9.586 -1.1012  0.3089 -1.1379
 8163SOL    HW236123   1.440   1.348   9.547  0.2476 -0.5461 -0.7478
 8164SOL     OW36124   4.732   4.353   6.252 -0.4571  0.2336 -0.0216
 8164SOL    HW136125   4.695   4.278   6.205 -0.6893  1.3080 -1.5325
 8164SOL    HW236126   4.656   4.408   6.273  0.6727  1.7598 -0.0311
 8165SOL     OW36127   2.205   2.399   8.151  0.2444  0.1109  0.4770
 8165SOL    HW136128   2.248   2.345   8.084  1.7315 -1.9142  3.0987
 8165SOL    HW236129   2.230   2.344   8.224  0.0843  0.1360  0.5489
 8166SOL     OW36130   0.296   4.325   1.653  0.4511 -0.0358 -0.8643
 8166SOL    HW136131   0.325   4.363   1.570  0.6757 -0.5183 -1.0036
 8166SOL    HW236132   0.228   4.384   1.684  1.7513  0.5089  0.9510
 8167SOL     OW36133   3.654   3.582   1.526 -0.5258  0.7404  0.5017
 8167SOL    HW136134   3.683   3.532   1.449 -2.1448  1.6268 -0.6767
 8167SOL    HW236135   3.736   3.630   1.538  0.1820 -1.3960  4.2266
 8168SOL     OW36136   2.822   0.445  13.355  0.0334 -0.5288  0.1149
 8168SOL    HW136137   2.798   0.388  13.428  2.7800 -2.0051 -0.1431
 8168SOL    HW236138   2.762   0.406  13.292  2.6604 -1.8714 -1.5512
 8169SOL     OW36139   2.315   4.259   6.594  0.5384 -0.1685 -0.2889
 8169SOL    HW136140   2.269   4.321   6.538  1.1671  0.9425  0.4184
 8169SOL    HW236141   2.323   4.181   6.539  0.5200  0.8736 -1.7639
 8170SOL     OW36142   1.898   2.392   7.860  0.9114  0.4228 -0.7307
 8170SOL    HW136143   1.905   2.484   7.885  0.7959  0.1888  0.1502
 8170SOL    HW236144   1.952   2.344   7.923 -1.4399 -1.7147 -0.3341
 8171SOL     OW36145   3.651   4.435   3.017 -0.0167 -0.0677  0.7046
 8171SOL    HW136146   3.561   4.401   3.017  0.6137 -1.6943  1.2826
 8171SOL    HW236147   3.672   4.454   2.925  1.7391  3.7219  1.8681
 8172SOL     OW36148   1.218   1.105   0.501 -0.6774 -0.3856  0.6739
 8172SOL    HW136149   1.140   1.098   0.556  1.8168 -1.9912  4.0241
 8172SOL    HW236150   1.238   1.011   0.498  1.9361  0.1546  1.3183
 8173SOL     OW36151   3.456   1.756  17.675  0.6371 -0.0566  0.0857
 8173SOL    HW136152   3.380   1.789  17.723 -0.3532 -1.6132 -0.3952
 8173SOL    HW236153   3.497   1.840  17.657  1.0883 -0.4075 -0.5449
 8174SOL     OW36154   0.688   3.245   1.584 -0.5278 -0.4197  0.1714
 8174SOL    HW136155   0.759   3.298   1.621 -1.1503  0.7864 -0.3712
 8174SOL    HW236156   0.631   3.317   1.556  0.5830  0.7561  0.9452
 8175SOL     OW36157   4.167   2.516   0.281 -0.6525 -0.4937 -0.1001
 8175SOL    HW136158   4.255   2.536   0.250 -0.3021 -1.3006  0.3806
 8175SOL    HW236159   4.174   2.421   0.284  1.4318 -0.3311  0.2280
 8176SOL     OW36160   2.713   1.369   9.235  0.4816  0.5294 -0.5886
 8176SOL    HW136161   2.658   1.376   9.313 -0.0180 -1.4244 -0.7607
 8176SOL    HW236162   2.801   1.387   9.268 -0.2199  1.1288  0.9807
 8177SOL     OW36163   4.668   4.418   1.000 -0.4904  0.0128 -0.1194
 8177SOL    HW136164   4.630   4.503   0.978 -0.5552 -0.4553 -1.8172
 8177SOL    HW236165   0.023   4.430   0.968 -0.0472 -0.7277  0.8582
 8178SOL     OW36166   2.973   1.338  13.474 -0.1750  0.0299 -0.0812
 8178SOL    HW136167   3.057   1.295  13.487  0.5198  1.1275 -0.9387
 8178SOL    HW236168   3.007   1.387  13.399  0.5966  0.2117  0.3802
 8179SOL     OW36169   0.201   0.553   9.721  0.2970  0.2634  0.5610
 8179SOL    HW136170   0.159   0.475   9.757  0.9454 -0.1644  0.3981
 8179SOL    HW236171   0.235   0.522   9.637  1.5715  0.6514  0.9345
 8180SOL     OW36172   3.761   2.370   9.598 -0.6804 -0.2810 -0.5902
 8180SOL    HW136173   3.810   2.349   9.518  0.3767 -0.1792  0.0269
 8180SOL    HW236174   3.810   2.444   9.634 -0.8088 -0.7690  0.5597
 8181SOL     OW36175   0.449   3.717   8.595 -0.4126 -0.3073  0.1585
 8181SOL    HW136176   0.399   3.676   8.524  0.7671 -0.2789 -0.6977
 8181SOL    HW236177   0.534   3.693   8.558 -1.0576  0.1168 -1.6317
 8182SOL     OW36178   2.434   2.394  13.500  0.2241  0.0194 -0.5292
 8182SOL    HW136179   2.413   2.475  13.546 -0.4325 -0.0277 -0.7502
 8182SOL    HW236180   2.364   2.392  13.435 -1.0794  0.2153  0.8744
 8183SOL     OW36181   1.961   2.104  10.674 -0.3202 -0.2950 -0.1050
 8183SOL    HW136182   1.999   2.017  10.656  0.8319 -0.0047  0.9183
 8183SOL    HW236183   2.029   2.164  10.642 -1.5363  0.9206 -0.4074
 8184SOL     OW36184   1.343   1.599   1.967 -0.0165 -0.5903 -0.0066
 8184SOL    HW136185   1.330   1.636   1.880  0.1373 -0.3799  0.0612
 8184SOL    HW236186   1.339   1.683   2.013  0.2100 -1.0591  0.8677
 8185SOL     OW36187   2.101   2.258   2.865 -0.3650 -0.0067 -0.1954
 8185SOL    HW136188   2.062   2.176   2.835  0.9486 -0.0985 -1.6280
 8185SOL    HW236189   2.032   2.289   2.925 -1.3149 -2.0821 -0.2135
 8186SOL     OW36190   4.732   1.270   6.657  0.1986 -0.4887  0.1413
 8186SOL    HW136191   0.065   1.312   6.711  0.3233 -1.5848  0.8424
 8186SOL    HW236192   4.655   1.290   6.710  0.0082 -2.0382  0.4545
 8187SOL     OW36193   3.808   0.080   4.308 -0.0029  0.5809 -0.3578
 8187SOL    HW136194   3.884   0.040   4.351 -0.9758  1.0674  1.8295
 8187SOL    HW236195   3.814   0.043   4.220  0.2699  0.0021 -0.1001
 8188SOL     OW36196   3.377   1.857   4.358  0.1605 -0.0220 -0.2876
 8188SOL    HW136197   3.302   1.864   4.417 -0.6201 -2.2905 -0.9583
 8188SOL    HW236198   3.341   1.882   4.273  2.7935  0.5697 -1.2198
 8189SOL     OW36199   3.698   3.820   3.335 -0.7008  0.2633  0.7076
 8189SOL    HW136200   3.782   3.776   3.327  0.3911  2.3729  0.5056
 8189SOL    HW236201   3.702   3.840   3.428  0.9418 -0.5412  0.8082
 8190SOL     OW36202   4.359   3.635   2.121  0.4278  0.1106 -0.4765
 8190SOL    HW136203   4.319   3.702   2.175  0.1382  0.8434 -1.5926
 8190SOL    HW236204   4.445   3.636   2.164 -0.3159  1.0033  0.9765
 8191SOL     OW36205   1.262   1.356   6.103  0.2189  0.7818  0.0386
 8191SOL    HW136206   1.316   1.278   6.092  0.4882  0.6803  2.0160
 8191SOL    HW236207   1.237   1.369   6.011  0.2666 -0.7781 -0.1897
 8192SOL     OW36208   2.768   3.879   8.269 -0.1695 -0.0526  0.1271
 8192SOL    HW136209   2.844   3.821   8.261 -2.0415 -2.1618 -2.3033
 8192SOL    HW236210   2.756   3.895   8.363  0.8121 -3.2193  0.7839
 8193SOL     OW36211   2.016   2.399   6.910 -0.2991  0.1324  0.8324
 8193SOL    HW136212   2.087   2.408   6.974  0.3359 -0.0216  0.1453
 8193SOL    HW236213   1.930   2.407   6.951  0.3971  0.6719  2.1922
 8194SOL     OW36214   2.818   1.326  14.985  0.6591  0.1090 -0.1384
 8194SOL    HW136215   2.738   1.273  14.989 -0.7994  2.4235  1.7820
 8194SOL    HW236216   2.871   1.295  15.058 -0.3199 -0.0529  0.5111
 8195SOL     OW36217   3.041   2.145  11.250 -0.5623 -0.0406  0.0671
 8195SOL    HW136218   3.044   2.173  11.158  1.3914 -1.9126 -0.4323
 8195SOL    HW236219   2.987   2.066  11.246 -1.4624  0.6248 -0.9842
 8196SOL     OW36220   2.040   3.824   6.213  0.0559 -0.3245  0.1484
 8196SOL    HW136221   2.023   3.883   6.287  0.2724  1.2709 -1.0879
 8196SOL    HW236222   2.103   3.759   6.244  2.2475  2.2117  0.9653
 8197SOL     OW36223   2.429   4.070   7.818  0.6262 -0.0552 -0.2118
 8197SOL    HW136224   2.502   4.130   7.809  1.0075 -0.3505  0.9133
 8197SOL    HW236225   2.474   3.990   7.845 -0.6542  0.6798  4.0951
 8198SOL     OW36226   3.833   4.702   4.049 -0.0797  0.6730  0.2280
 8198SOL    HW136227   3.760   4.651   4.015 -1.2466  2.3259  0.2719
 8198SOL    HW236228   3.902   4.637   4.062 -0.2661  0.6704  1.1853
 8199SOL     OW36229   2.405   2.329   6.910 -0.1232  1.2145 -0.0523
 8199SOL    HW136230   2.417   2.344   7.003 -0.0022 -2.1845  0.4695
 8199SOL    HW236231   2.385   2.421   6.895  1.1026  1.6709  1.1085
 8200SOL     OW36232   1.133   1.586   7.370  0.4794  0.3685 -0.9395
 8200SOL    HW136233   1.209   1.562   7.423  0.4139 -2.7871 -2.2682
 8200SOL    HW236234   1.073   1.527   7.416  1.2749 -1.3156 -2.0936
 8201SOL     OW36235   4.431   3.196   5.838 -0.1515 -0.2364 -0.2170
 8201SOL    HW136236   4.473   3.251   5.905 -0.5645 -1.6547  1.1846
 8201SOL    HW236237   4.414   3.258   5.767 -1.4222  0.2166  0.4846
 8202SOL     OW36238   1.520   0.618   4.251 -0.2440  0.5663  0.2291
 8202SOL    HW136239   1.551   0.549   4.309 -0.9668 -0.6949 -0.9019
 8202SOL    HW236240   1.446   0.655   4.300  0.5873  1.2828  0.9499
 8203SOL     OW36241   2.863   2.527  15.840 -0.2991 -0.1374  0.2434
 8203SOL    HW136242   2.856   2.523  15.744  1.2459  0.4775  0.1057
 8203SOL    HW236243   2.841   2.619  15.852 -0.1255  0.2604 -2.3607
 8204SOL     OW36244   2.582   2.502   6.316 -0.4010 -0.7960 -0.2044
 8204SOL    HW136245   2.495   2.534   6.340  0.4657  0.8384  0.7316
 8204SOL    HW236246   2.633   2.581   6.301  0.8722 -1.2640  1.7558
 8205SOL     OW36247   3.621   2.891   6.689 -0.5312 -0.2234 -0.7462
 8205SOL    HW136248   3.658   2.875   6.776 -1.2625  1.6456 -0.0991
 8205SOL    HW236249   3.693   2.861   6.633  1.0188  1.4383  0.3714
 8206SOL     OW36250   1.655   1.729  10.428 -0.1691 -0.4014  0.0758
 8206SOL    HW136251   1.605   1.652  10.454 -0.5767 -0.4235 -0.7633
 8206SOL    HW236252   1.637   1.729  10.334 -1.4611  2.1865  0.3483
 8207SOL     OW36253   2.963   2.276   2.488 -0.2341  0.4788  0.1857
 8207SOL    HW136254   2.916   2.358   2.502 -0.2450 -0.0014  2.8635
 8207SOL    HW236255   3.040   2.319   2.450 -0.6159  0.2940 -0.7950
 8208SOL     OW36256   3.234   0.898   9.405 -0.1403 -0.3164 -0.3942
 8208SOL    HW136257   3.306   0.953   9.374  0.6272 -0.4402  1.1928
 8208SOL    HW236258   3.210   0.955   9.478  1.8031 -1.2210  0.9627
 8209SOL     OW36259   2.067   1.910   7.355 -0.3170  0.2556 -0.3437
 8209SOL    HW136260   2.114   1.859   7.421  1.7041  2.1997 -0.2846
 8209SOL    HW236261   1.975   1.885   7.358 -0.2919  0.1118 -0.7678
 8210SOL     OW36262   1.062   4.670   6.188  0.2160 -0.1730 -0.1844
 8210SOL    HW136263   1.087   0.024   6.214  0.0377  0.0640 -0.8179
 8210SOL    HW236264   0.972   4.662   6.217  0.1241 -0.7428 -0.6348
 8211SOL     OW36265   3.986   2.001   9.640 -0.5003 -0.5477  0.2571
 8211SOL    HW136266   3.931   2.011   9.717 -1.3415  1.2117 -0.5629
 8211SOL    HW236267   4.074   1.991   9.674 -0.7470  2.2622  1.7203
 8212SOL     OW36268   0.841   2.891   4.271  0.4735  0.4727 -0.5085
 8212SOL    HW136269   0.845   2.795   4.277  0.2340  0.4534 -0.6527
 8212SOL    HW236270   0.932   2.918   4.283  0.1818  1.1412  0.1823
 8213SOL     OW36271   4.171   0.799   5.564 -0.3318  0.2587 -0.1795
 8213SOL    HW136272   4.214   0.714   5.574  1.9832  1.6016  1.3171
 8213SOL    HW236273   4.252   0.850   5.556 -0.4285  0.4107 -0.1821
 8214SOL     OW36274   4.371   0.013   5.992  0.2142 -0.7541  0.6396
 8214SOL    HW136275   4.360   4.696   5.913  1.1936  0.7480 -0.4773
 8214SOL    HW236276   4.288   4.729   6.036 -0.8843 -2.0266 -2.0127
 8215SOL     OW36277   3.464   2.048   7.144 -0.4061  0.0409  0.6782
 8215SOL    HW136278   3.401   2.013   7.082  1.0704  0.7539 -1.2044
 8215SOL    HW236279   3.543   1.995   7.143 -1.3658 -1.3395 -0.5895
 8216SOL     OW36280   4.284   1.344   4.458 -0.1079  0.2566 -0.0045
 8216SOL    HW136281   4.213   1.321   4.517 -0.1603 -0.7591 -0.4716
 8216SOL    HW236282   4.273   1.278   4.390  0.5286  1.8628 -1.6772
 8217SOL     OW36283   1.974   3.697   1.689 -0.7311  0.1423  0.0956
 8217SOL    HW136284   1.914   3.721   1.618 -0.6166  1.3353  0.3968
 8217SOL    HW236285   2.053   3.678   1.638  0.5824 -0.5385  2.3889
 8218SOL     OW36286   3.885   1.092   6.668  0.3120 -0.3579 -0.6189
 8218SOL    HW136287   3.867   1.005   6.632  0.0206 -1.5899  2.4873
 8218SOL    HW236288   3.910   1.134   6.586  0.6985  0.5603 -0.0208
 8219SOL     OW36289   2.479   3.665  10.252 -0.3749  0.0244  0.5582
 8219SOL    HW136290   2.461   3.632  10.341  0.8967 -1.9691  0.0769
 8219SOL    HW236291   2.506   3.579  10.219  2.5613  0.5013  1.7682
 8220SOL     OW36292   0.130   0.650  16.544  0.4043 -0.5070 -0.4295
 8220SOL    HW136293   0.063   0.616  16.602  0.4963  1.2347  0.6906
 8220SOL    HW236294   0.097   0.630  16.456 -0.5788 -1.8489  0.2409
 8221SOL     OW36295   1.973   1.254   3.592 -0.5788  0.1883  0.2207
 8221SOL    HW136296   2.054   1.222   3.632 -0.2809  0.3958 -0.2231
 8221SOL    HW236297   1.908   1.206   3.644  1.2127 -1.3994  0.9893
 8222SOL     OW36298   0.764   1.893   2.040  0.1788  0.3318  0.1092
 8222SOL    HW136299   0.850   1.910   2.001 -0.2439 -1.1324 -1.4475
 8222SOL    HW236300   0.702   1.939   1.983 -1.1303 -1.7447 -0.1510
 8223SOL     OW36301   2.452   1.213   8.105  0.2020 -0.3325  0.4370
 8223SOL    HW136302   2.372   1.228   8.156  0.4657 -1.4812  1.2008
 8223SOL    HW236303   2.493   1.293   8.138 -0.3234 -0.3420  1.1103
 8224SOL     OW36304   4.516   0.892   4.015 -0.0356  0.0013  0.3645
 8224SOL    HW136305   4.432   0.848   4.025 -1.5161  2.7334 -0.0525
 8224SOL    HW236306   4.546   0.848   3.935  0.6883  0.7689  0.2102
 8225SOL     OW36307   1.291   4.599   3.676 -0.1734  0.1628 -0.5275
 8225SOL    HW136308   1.287   4.570   3.767 -0.6088  2.0579  0.0439
 8225SOL    HW236309   1.339   4.682   3.675 -0.3017  0.2241 -1.6144
 8226SOL     OW36310   1.830   0.473  15.269  0.0287 -0.0424  0.2822
 8226SOL    HW136311   1.804   0.392  15.223 -2.9382 -0.3574  2.5270
 8226SOL    HW236312   1.918   0.493  15.237  0.1972 -0.4462  0.4932
 8227SOL     OW36313   1.065   0.172   0.756 -0.7191  0.1104  0.2406
 8227SOL    HW136314   1.107   0.202   0.837 -2.2351  1.1599  0.6352
 8227SOL    HW236315   0.994   0.233   0.739 -2.4776 -1.8526  0.5428
 8228SOL     OW36316   3.601   0.381   9.108 -0.3253 -0.0688 -0.2028
 8228SOL    HW136317   3.536   0.315   9.084 -0.0406 -0.2241 -0.5437
 8228SOL    HW236318   3.679   0.327   9.122 -1.4121 -0.9902  2.4363
 8229SOL     OW36319   4.649   2.182  11.480  0.6129 -0.4826  0.5358
 8229SOL    HW136320   4.718   2.204  11.543  1.8757  0.1101 -1.0476
 8229SOL    HW236321   4.671   2.245  11.411 -0.7729 -0.3728  0.1932
 8230SOL     OW36322   3.304   1.935  16.827 -0.5566  0.3980 -0.2722
 8230SOL    HW136323   3.219   1.970  16.799 -0.0352  0.4785 -1.7465
 8230SOL    HW236324   3.337   2.024  16.843 -0.5647  0.5741 -1.2316
 8231SOL     OW36325   4.076   2.766   6.990  0.4328 -0.2572  0.2336
 8231SOL    HW136326   4.111   2.801   6.908 -1.6127 -0.0631 -0.5579
 8231SOL    HW236327   4.149   2.784   7.049  0.6397 -0.1477 -0.0605
 8232SOL     OW36328   3.584   1.898  13.535 -0.0822  0.6618  0.0624
 8232SOL    HW136329   3.504   1.877  13.488  0.2226  1.9859 -1.0580
 8232SOL    HW236330   3.570   1.876  13.627 -2.1803  1.0899 -0.1651
 8233SOL     OW36331   2.180   3.291   5.435  0.3973 -0.4227 -0.2107
 8233SOL    HW136332   2.108   3.264   5.492 -0.2033 -3.3433 -2.3467
 8233SOL    HW236333   2.252   3.254   5.486 -1.0670  0.7977  2.7297
 8234SOL     OW36334   3.787   3.938   9.474  0.0600 -0.3275  0.0746
 8234SOL    HW136335   3.854   3.986   9.424  2.3112 -2.4631  1.0436
 8234SOL    HW236336   3.822   3.949   9.562  0.6647  0.2343 -0.2355
 8235SOL     OW36337   3.639   0.814  14.748  0.0079 -0.6136 -0.6811
 8235SOL    HW136338   3.713   0.871  14.768 -1.3763  1.1288 -0.4994
 8235SOL    HW236339   3.578   0.872  14.704 -0.9560 -0.1146  1.2776
 8236SOL     OW36340   2.170   3.746  17.041  0.2515 -0.0855  0.9896
 8236SOL    HW136341   2.108   3.804  17.086  0.7184  0.3911  1.0267
 8236SOL    HW236342   2.107   3.709  16.980  0.1046  0.3221  0.8921
 8237SOL     OW36343   0.644   4.711   2.173  0.0464 -0.0439  0.6074
 8237SOL    HW136344   0.662   4.672   2.087  0.2428 -0.0428  0.6469
 8237SOL    HW236345   0.569   4.660   2.203  0.0586  0.3410  1.2812
 8238SOL     OW36346   2.477   0.840   2.269  0.2815  0.0780  0.4826
 8238SOL    HW136347   2.553   0.846   2.211 -0.6444  1.6179 -0.5742
 8238SOL    HW236348   2.473   0.745   2.273 -0.2887 -0.0143 -2.2339
 8239SOL     OW36349   0.973   1.319   4.372  0.6077 -0.2647  0.3828
 8239SOL    HW136350   0.931   1.291   4.453  0.0295 -2.9935 -0.8465
 8239SOL    HW236351   1.052   1.363   4.405  1.9692 -0.9313 -1.9266
 8240SOL     OW36352   3.876   2.044  17.641 -0.3108  0.4348 -0.4862
 8240SOL    HW136353   3.918   2.109  17.585 -1.7734  1.7052 -0.0834
 8240SOL    HW236354   3.920   1.967  17.604 -0.3993 -0.2413  0.8151
 8241SOL     OW36355   2.311   0.705   6.409  0.0772  0.5648  0.0294
 8241SOL    HW136356   2.316   0.666   6.321 -2.6148  1.1938 -0.3976
 8241SOL    HW236357   2.397   0.747   6.404  0.9336 -0.8776  3.1022
 8242SOL     OW36358   3.819   1.063   7.702 -0.2304 -0.3788 -0.8253
 8242SOL    HW136359   3.738   1.015   7.722 -0.9616  1.3932  0.4987
 8242SOL    HW236360   3.788   1.147   7.737 -1.3156 -1.1063 -0.0496
 8243SOL     OW36361   3.320   2.764   7.847 -0.2213  0.7302  0.8870
 8243SOL    HW136362   3.288   2.699   7.785  0.5209  0.7788  0.4578
 8243SOL    HW236363   3.411   2.736   7.848  0.0572  1.6727  0.9397
 8244SOL     OW36364   4.436   2.314   2.712 -0.0893 -0.2923  0.2120
 8244SOL    HW136365   4.483   2.335   2.793 -1.7337  1.9738  0.5963
 8244SOL    HW236366   4.437   2.398   2.665 -0.5299  0.5383  1.6742
 8245SOL     OW36367   1.995   3.788  11.992  0.0660  0.4774 -0.4140
 8245SOL    HW136368   1.985   3.878  11.961 -2.1046 -0.3293 -2.0494
 8245SOL    HW236369   1.986   3.798  12.087  1.0771  0.9970 -0.3746
 8246SOL     OW36370   3.680   1.849  15.945  1.0151  0.1577  0.1026
 8246SOL    HW136371   3.665   1.799  16.025 -0.6885 -0.0894 -0.3740
 8246SOL    HW236372   3.665   1.787  15.874  5.0547 -0.4357 -0.2528
 8247SOL     OW36373   0.217   1.229   5.716 -0.0905 -0.3603 -0.3478
 8247SOL    HW136374   0.249   1.229   5.626  0.7809  1.9860 -0.0319
 8247SOL    HW236375   0.129   1.264   5.705  0.2471  0.5229 -0.2062
 8248SOL     OW36376   0.356   1.397   7.151  0.2156 -0.7349  0.1472
 8248SOL    HW136377   0.349   1.450   7.071 -0.1586 -1.7746 -0.4989
 8248SOL    HW236378   0.264   1.390   7.172 -0.1019 -0.1381 -1.0114
 8249SOL     OW36379   2.143   1.502   4.083 -0.4361  0.5885  0.2253
 8249SOL    HW136380   2.224   1.533   4.041  0.9693 -2.0294  0.9714
 8249SOL    HW236381   2.161   1.544   4.167 -1.7106 -0.4345  1.0114
 8250SOL     OW36382   2.225   0.230   8.307 -1.0638 -0.6651  0.0444
 8250SOL    HW136383   2.245   0.214   8.399 -1.0391 -0.6725  0.0378
 8250SOL    HW236384   2.256   0.146   8.273  0.9092 -0.4482  1.2844
 8251SOL     OW36385   0.684   1.089  13.481 -0.0818  0.1476 -0.2598
 8251SOL    HW136386   0.690   1.132  13.396  0.6626  1.2891  0.3599
 8251SOL    HW236387   0.775   1.064  13.499  0.1729  0.6779 -0.7881
 8252SOL     OW36388   2.873   1.539  16.143 -0.0337 -0.1692  0.2278
 8252SOL    HW136389   2.945   1.477  16.158  0.4687  0.5125  0.6322
 8252SOL    HW236390   2.905   1.580  16.063  1.4091 -0.3890  0.6994
 8253SOL     OW36391   1.110   4.146   9.666  0.3165  0.0647 -0.3972
 8253SOL    HW136392   1.031   4.183   9.704  0.7175 -0.3887  0.8773
 8253SOL    HW236393   1.101   4.055   9.695  0.6710  0.2042  0.1497
 8254SOL     OW36394   3.448   4.712   3.523  0.0625  0.3539  0.0192
 8254SOL    HW136395   3.419   4.620   3.518  1.9544 -0.1880 -0.7666
 8254SOL    HW236396   3.417   0.012   3.439 -0.1879 -2.1044 -0.9116
 8255SOL     OW36397   4.402   4.635   8.467 -0.5479  0.6271  0.1845
 8255SOL    HW136398   4.497   4.648   8.470 -0.8747  3.0546 -0.5507
 8255SOL    HW236399   4.391   4.613   8.374  0.8188 -0.2533  0.2238
 8256SOL     OW36400   2.583   0.503   8.299  0.1007 -0.3932  0.4590
 8256SOL    HW136401   2.617   0.536   8.383 -1.3443 -1.3269  1.4117
 8256SOL    HW236402   2.671   0.488   8.267  0.1806  2.8047 -0.8672
 8257SOL     OW36403   0.309   4.041  11.352 -0.1206 -0.2152  0.2528
 8257SOL    HW136404   0.341   4.092  11.278  0.2184 -0.1713  0.4286
 8257SOL    HW236405   0.272   4.109  11.409 -0.9210 -0.2044 -0.2780
 8258SOL     OW36406   3.245   0.479   5.421 -0.1106 -0.0661  0.4994
 8258SOL    HW136407   3.156   0.466   5.452 -0.1333 -3.1426 -0.8490
 8258SOL    HW236408   3.291   0.464   5.504  0.1756 -0.7126  0.2255
 8259SOL     OW36409   4.140   4.191   6.438 -0.1184  0.1929  0.9382
 8259SOL    HW136410   4.124   4.272   6.488  0.2742  0.8275  0.0377
 8259SOL    HW236411   4.130   4.122   6.503  0.2111 -0.2305  0.5456
 8260SOL     OW36412   3.651   3.492   5.983 -0.3245 -0.7923 -0.9319
 8260SOL    HW136413   3.635   3.586   5.976  1.8251 -0.4180 -0.8228
 8260SOL    HW236414   3.636   3.476   6.076  2.4020  0.7147 -0.2241
 8261SOL     OW36415   4.384   2.973   2.263 -0.1626 -0.0972  0.1604
 8261SOL    HW136416   4.442   3.045   2.284  1.3297 -1.2683  0.0925
 8261SOL    HW236417   4.301   3.019   2.273 -1.4289 -3.1081  3.5443
 8262SOL     OW36418   4.667   1.599   4.415  0.1933 -0.0899  0.1388
 8262SOL    HW136419   4.613   1.595   4.494 -0.8890 -0.0646 -0.5958
 8262SOL    HW236420   4.605   1.623   4.347 -1.1642 -1.6471  0.8198
 8263SOL     OW36421   1.770   1.317   4.681 -0.6641  0.4320 -0.3876
 8263SOL    HW136422   1.703   1.249   4.677  0.1564 -0.3630 -0.8995
 8263SOL    HW236423   1.745   1.383   4.616  0.4278  0.8957 -0.3475
 8264SOL     OW36424   2.478   0.723  17.002  0.3264  0.2400  0.7891
 8264SOL    HW136425   2.426   0.643  17.003 -0.0445  0.4593 -0.3814
 8264SOL    HW236426   2.547   0.685  17.057  1.5722 -0.5267 -1.2607
 8265SOL     OW36427   4.459   1.388   3.148 -0.7647 -0.0297 -0.4099
 8265SOL    HW136428   4.459   1.370   3.054  2.0413 -0.1980 -0.3834
 8265SOL    HW236429   4.463   1.297   3.176  1.7657  1.3206  3.5785
 8266SOL     OW36430   0.338   0.277  17.460 -0.4436  0.1211 -0.7958
 8266SOL    HW136431   0.321   0.357  17.510  1.2228  0.6779 -1.1042
 8266SOL    HW236432   0.433   0.281  17.448 -0.6104 -0.0902 -2.1709
 8267SOL     OW36433   0.059   1.139  14.680  0.0595  0.4007  0.3954
 8267SOL    HW136434   4.722   1.203  14.678 -0.1099  0.2137  0.5540
 8267SOL    HW236435   0.135   1.197  14.672  0.0128  0.4280  0.1468
 8268SOL     OW36436   4.651   2.633   3.230 -0.1058  0.1152  0.0341
 8268SOL    HW136437   4.573   2.583   3.252  0.8010 -1.2516  0.1877
 8268SOL    HW236438   4.617   2.674   3.151 -0.6218  0.7139  0.5738
 8269SOL     OW36439   2.741   1.815   6.741 -0.1130 -0.0040 -0.2353
 8269SOL    HW136440   2.819   1.850   6.782 -0.1752  0.6240 -0.6477
 8269SOL    HW236441   2.675   1.828   6.809 -0.9863  1.0756 -1.2733
 8270SOL     OW36442   2.021   0.865   6.265  0.0357 -0.4622  0.0067
 8270SOL    HW136443   2.105   0.873   6.219  0.5157 -0.6205  0.8706
 8270SOL    HW236444   2.045   0.834   6.352  3.7545  1.3363 -0.3672
 8271SOL     OW36445   0.937   3.308   6.960  0.5458 -0.1393 -0.1654
 8271SOL    HW136446   0.867   3.265   6.911 -0.2908 -1.8269  2.5150
 8271SOL    HW236447   0.975   3.239   7.013 -0.2323 -0.2966  0.1943
 8272SOL     OW36448   3.131   2.421  10.290  0.1288 -0.8136 -0.3627
 8272SOL    HW136449   3.108   2.448  10.202  2.5898 -0.0015 -0.7611
 8272SOL    HW236450   3.201   2.357  10.272  1.2389  0.2400  0.1854
 8273SOL     OW36451   4.474   2.684   7.961  0.0113 -0.4641 -0.7421
 8273SOL    HW136452   4.391   2.651   7.996 -0.3841  1.0607 -0.1962
 8273SOL    HW236453   4.519   2.601   7.948 -1.3479 -1.2629 -0.3568
 8274SOL     OW36454   3.202   2.270   5.055 -0.2922 -0.1226  0.1493
 8274SOL    HW136455   3.153   2.190   5.034  3.1879 -1.8956 -1.2224
 8274SOL    HW236456   3.178   2.335   4.989  2.2269 -1.1669 -1.7789
 8275SOL     OW36457   3.378   1.983   9.574 -0.5049  0.1331 -0.0858
 8275SOL    HW136458   3.375   1.984   9.669  1.6744 -0.9357 -0.0185
 8275SOL    HW236459   3.463   2.026   9.568 -1.9568  3.1303  0.3319
 8276SOL     OW36460   3.612   0.589  11.932  0.0792 -0.1427  0.1124
 8276SOL    HW136461   3.600   0.680  11.961 -0.5245 -0.0414 -0.4783
 8276SOL    HW236462   3.533   0.559  11.888 -1.2144  0.6854  1.8401
 8277SOL     OW36463   2.848   1.177   7.488  0.2224  0.6575 -0.4370
 8277SOL    HW136464   2.817   1.261   7.454  0.7964  0.6894 -0.8825
 8277SOL    HW236465   2.939   1.172   7.460 -0.0150 -0.6626 -0.9930
 8278SOL     OW36466   1.149   3.315   5.516 -0.0874  0.4469  0.2406
 8278SOL    HW136467   1.208   3.311   5.592 -1.0997 -0.8529  0.9445
 8278SOL    HW236468   1.213   3.304   5.446  0.7780 -0.5490  1.1853
 8279SOL     OW36469   4.299   3.693   7.927 -0.0872  0.4446 -0.3928
 8279SOL    HW136470   4.370   3.713   7.866  0.4620  0.3679  0.2123
 8279SOL    HW236471   4.297   3.598   7.913 -1.6415  0.2292  1.2362
 8280SOL     OW36472   1.044   1.562  11.829 -0.1230 -0.1565  0.5279
 8280SOL    HW136473   1.127   1.592  11.867 -0.3472 -0.7380  1.4712
 8280SOL    HW236474   1.035   1.472  11.861 -0.8741  0.0079  0.7845
 8281SOL     OW36475   2.258   3.778   7.418 -0.0508 -0.1776 -0.1276
 8281SOL    HW136476   2.266   3.831   7.497 -0.4098 -0.3746  0.0352
 8281SOL    HW236477   2.229   3.851   7.363  0.7358  0.9952  1.0219
 8282SOL     OW36478   1.947   3.494   7.297 -0.4141  0.0217 -0.2394
 8282SOL    HW136479   2.031   3.518   7.337  0.1415 -0.8230 -0.9016
 8282SOL    HW236480   1.929   3.410   7.341  2.8521 -0.0481  0.9748
 8283SOL     OW36481   2.445   4.207   9.897 -0.1107 -0.5296  0.2970
 8283SOL    HW136482   2.458   4.293   9.937 -0.2265 -0.2860 -0.1806
 8283SOL    HW236483   2.354   4.181   9.913  0.1497 -1.8527 -0.3646
 8284SOL     OW36484   3.432   3.559   9.578 -0.2922  0.0273  0.4663
 8284SOL    HW136485   3.372   3.632   9.592  0.7438  1.5650 -3.1068
 8284SOL    HW236486   3.513   3.608   9.562 -0.0355 -0.6996 -0.4327
 8285SOL     OW36487   2.404   3.695   8.005  0.9747 -0.2872  0.4578
 8285SOL    HW136488   2.477   3.750   8.033 -0.0445  1.0335  0.5307
 8285SOL    HW236489   2.426   3.715   7.914  2.3274 -0.9952  0.6303
 8286SOL     OW36490   2.216   0.626  11.894  0.9137 -0.3914  0.1625
 8286SOL    HW136491   2.205   0.716  11.865  0.0238 -0.7335 -0.5488
 8286SOL    HW236492   2.185   0.575  11.819 -0.9545 -1.1414  1.4663
 8287SOL     OW36493   0.952   3.184   9.593 -0.3493  0.0614  0.3282
 8287SOL    HW136494   0.871   3.227   9.566 -1.0553 -1.2283  0.3871
 8287SOL    HW236495   0.931   3.094   9.617  1.9115 -0.7231 -0.6382
 8288SOL     OW36496   4.588   2.213   3.822  0.6380  0.6092  0.1612
 8288SOL    HW136497   4.659   2.186   3.880 -0.9430  0.5588  2.0854
 8288SOL    HW236498   4.518   2.223   3.886  0.6368  0.7601  0.1355
 8289SOL     OW36499   0.534   1.142  10.606 -0.3227 -0.0475 -0.0262
 8289SOL    HW136500   0.600   1.156  10.673 -0.2225 -2.2694  0.3364
 8289SOL    HW236501   0.452   1.157  10.653 -0.1434 -1.7852  0.8390
 8290SOL     OW36502   3.668   3.578  14.886 -0.8332  0.4978 -0.3129
 8290SOL    HW136503   3.575   3.558  14.898 -0.8120  0.7527  0.2613
 8290SOL    HW236504   3.687   3.643  14.954  1.5089 -0.4201 -0.0978
 8291SOL     OW36505   2.983   3.131  13.288 -0.5712 -0.2905  0.2155
 8291SOL    HW136506   3.021   3.155  13.203 -2.1083  1.3319  0.0014
 8291SOL    HW236507   3.041   3.183  13.344  0.0823  0.0362 -0.7588
 8292SOL     OW36508   0.692   2.697   0.303  0.2348  0.1577 -0.3396
 8292SOL    HW136509   0.688   2.779   0.353 -1.1450 -0.6038  0.8268
 8292SOL    HW236510   0.649   2.637   0.364 -0.6266  1.0706 -0.0359
 8293SOL     OW36511   2.048   2.425   9.831 -0.7237 -0.2990 -0.6442
 8293SOL    HW136512   2.131   2.378   9.839 -0.3503  0.0034 -2.7911
 8293SOL    HW236513   2.074   2.472   9.752  1.2838  0.4724  0.4755
 8294SOL     OW36514   0.480   4.230   1.314 -0.6857 -0.7343  0.1451
 8294SOL    HW136515   0.500   4.150   1.363 -0.9465 -1.6777 -1.2900
 8294SOL    HW236516   0.409   4.189   1.264 -0.7844  0.1427 -0.4223
 8295SOL     OW36517   2.989   1.530   6.862  0.0343  0.8203  0.2773
 8295SOL    HW136518   2.921   1.545   6.927 -0.3777  0.1962 -0.0141
 8295SOL    HW236519   3.016   1.620   6.848  2.2921 -0.4714 -3.8914
 8296SOL     OW36520   1.899   3.942   9.200 -0.1460 -0.2762  0.2395
 8296SOL    HW136521   1.919   4.028   9.163  0.3742 -1.0849 -1.3895
 8296SOL    HW236522   1.978   3.941   9.255 -0.0248  0.1881  0.0759
 8297SOL     OW36523   1.404   3.668   4.706 -0.4387 -0.3725  0.9672
 8297SOL    HW136524   1.403   3.655   4.801  2.8263  1.8392  1.2987
 8297SOL    HW236525   1.386   3.580   4.674  1.5299 -0.5264  0.3067
 8298SOL     OW36526   1.181   4.695   6.750 -0.8602  0.1331 -0.6306
 8298SOL    HW136527   1.184   0.020   6.675 -0.1573  1.7571  0.6970
 8298SOL    HW236528   1.141   0.018   6.815  2.4034 -1.8911  3.1502
 8299SOL     OW36529   3.132   1.928   9.288 -0.0723  0.5955 -0.5359
 8299SOL    HW136530   3.101   1.901   9.202 -1.8836  2.0367 -0.3473
 8299SOL    HW236531   3.157   1.843   9.323  0.7511  0.7911 -0.6623
 8300SOL     OW36532   1.337   0.060   2.370  0.6192  0.1540 -0.0147
 8300SOL    HW136533   1.427   0.046   2.339  0.2495 -1.6178 -0.2544
 8300SOL    HW236534   1.299   0.002   2.303  0.5208  2.9820 -2.4251
 8301SOL     OW36535   3.074   1.407   9.014 -0.0788  0.6219 -0.9152
 8301SOL    HW136536   2.983   1.428   8.993 -1.4190 -2.1943  2.0555
 8301SOL    HW236537   3.110   1.398   8.926 -4.1901 -1.7699 -2.3760
 8302SOL     OW36538   2.655   0.587  12.279 -0.4742  0.4854 -0.6904
 8302SOL    HW136539   2.606   0.628  12.350  0.8822 -0.4757  0.7707
 8302SOL    HW236540   2.593   0.523  12.244 -2.0733  1.5038  0.2807
 8303SOL     OW36541   4.444   4.301   3.710 -0.3384  0.4794  0.5283
 8303SOL    HW136542   4.538   4.285   3.705 -0.7781 -2.2094  0.7754
 8303SOL    HW236543   4.416   4.283   3.620 -0.2497 -2.5770  1.1264
 8304SOL     OW36544   0.066   1.701   6.946 -0.5178  0.5611 -0.6688
 8304SOL    HW136545   4.712   1.666   6.935 -1.0752  1.0797  2.1111
 8304SOL    HW236546   0.094   1.726   6.858  1.9459  1.1808  0.2996
 8305SOL     OW36547   2.767   4.027   1.795 -0.1487  0.0108  0.3127
 8305SOL    HW136548   2.854   4.051   1.763 -0.6115  0.3701 -0.6649
 8305SOL    HW236549   2.779   3.933   1.806  0.3093 -0.2961 -2.6148
 8306SOL     OW36550   2.931   2.937   8.584  0.3658  0.2496  0.2686
 8306SOL    HW136551   2.948   2.851   8.623 -2.0556 -1.1312 -1.7109
 8306SOL    HW236552   2.896   2.994   8.653  3.9461  2.3655  0.2857
 8307SOL     OW36553   1.574   4.206  13.193  0.4220 -0.2703 -0.1795
 8307SOL    HW136554   1.606   4.207  13.103 -1.0978  0.4503 -0.7027
 8307SOL    HW236555   1.535   4.294  13.185  1.7456  0.2408 -0.9996
 8308SOL     OW36556   2.744   4.175   4.305  0.0462  0.1878  0.1714
 8308SOL    HW136557   2.692   4.254   4.318 -1.5429 -0.5351 -1.7889
 8308SOL    HW236558   2.732   4.119   4.382  1.7520 -0.0625  0.2673
 8309SOL     OW36559   3.150   0.704   0.092  1.4247 -0.2831  0.7091
 8309SOL    HW136560   3.073   0.654   0.119  0.8507  0.8828  1.2401
 8309SOL    HW236561   3.207   0.705   0.168  0.5820 -0.7663  1.3489
 8310SOL     OW36562   4.185   1.612   5.666 -0.3659 -0.0142 -0.0689
 8310SOL    HW136563   4.252   1.557   5.704  1.8615  2.6640 -0.0919
 8310SOL    HW236564   4.109   1.554   5.662 -0.7567  0.2424  3.4909
 8311SOL     OW36565   3.078   0.163  14.637 -0.0522 -0.0031 -0.1858
 8311SOL    HW136566   3.166   0.159  14.600  0.2256  0.7914  0.3903
 8311SOL    HW236567   3.045   0.245  14.602  0.4431  0.4149  0.3441
 8312SOL     OW36568   2.113   2.129  14.324  0.2510  0.6337  0.2959
 8312SOL    HW136569   2.042   2.081  14.367  0.7338 -0.2364  0.1145
 8312SOL    HW236570   2.135   2.187  14.396  0.9477 -0.6557  1.1136
 8313SOL     OW36571   2.227   4.059  11.948 -0.2361 -1.0978 -0.7079
 8313SOL    HW136572   2.136   4.063  11.917 -0.2731  0.3931 -0.4069
 8313SOL    HW236573   2.238   3.970  11.982 -1.7685 -1.1264 -0.2874
 8314SOL     OW36574   4.461   1.365  11.769  0.4241  0.1483 -0.0467
 8314SOL    HW136575   4.486   1.393  11.681 -0.2836 -0.0527 -0.3069
 8314SOL    HW236576   4.397   1.297  11.749  0.3468  0.4647 -0.8683
 8315SOL     OW36577   1.382   1.006  12.705  0.5509 -0.4590 -0.6921
 8315SOL    HW136578   1.457   1.064  12.714  0.7004 -0.3875 -2.3676
 8315SOL    HW236579   1.405   0.940  12.770 -2.6410 -0.4520  0.4457
 8316SOL     OW36580   2.017   1.311  12.374 -0.3571  0.3903 -0.4426
 8316SOL    HW136581   1.998   1.358  12.294 -1.6906 -0.6395 -0.7369
 8316SOL    HW236582   2.100   1.346  12.407  0.9443 -1.6622 -1.5567
 8317SOL     OW36583   0.664   4.382   9.072  0.6220 -0.5661  0.2602
 8317SOL    HW136584   0.582   4.427   9.093  1.2242  0.4628  0.3978
 8317SOL    HW236585   0.733   4.438   9.108  0.4158  0.0842 -0.3652
 8318SOL     OW36586   3.617   1.475   7.005  0.1961 -0.3779  0.5864
 8318SOL    HW136587   3.687   1.454   7.066  0.1522  1.2924  1.2132
 8318SOL    HW236588   3.591   1.391   6.968 -2.5440  0.1814  1.2109
 8319SOL     OW36589   3.207   2.547  15.874 -0.0854 -0.4822  0.1551
 8319SOL    HW136590   3.132   2.605  15.892  0.8709  0.6489  0.5570
 8319SOL    HW236591   3.260   2.562  15.953 -1.4679 -0.9359  1.1740
 8320SOL     OW36592   4.265   4.420  10.492 -0.9696 -0.2538  0.2712
 8320SOL    HW136593   4.314   4.338  10.487 -0.3813  0.2927 -3.0967
 8320SOL    HW236594   4.182   4.386  10.524 -1.1244  0.1838  0.3372
 8321SOL     OW36595   0.331   1.510  11.258  0.4324  0.4374  0.4264
 8321SOL    HW136596   0.334   1.585  11.200  0.8060 -0.0902 -0.2405
 8321SOL    HW236597   0.422   1.496  11.284 -0.2650 -3.1916  0.9463
 8322SOL     OW36598   0.566   1.229   1.644  0.2405  0.1408 -0.6917
 8322SOL    HW136599   0.567   1.324   1.645 -0.7670  0.1224  1.9225
 8322SOL    HW236600   0.491   1.198   1.695  1.2304 -1.5098 -0.2102
 8323SOL     OW36601   0.218   0.976   2.065 -0.5323 -0.2255  0.5074
 8323SOL    HW136602   0.294   0.934   2.105 -0.7649  1.0359  2.2825
 8323SOL    HW236603   0.147   0.971   2.129 -0.0689  0.5463  1.0967
 8324SOL     OW36604   2.036   2.738  14.967  0.1331 -0.5189 -0.8572
 8324SOL    HW136605   1.945   2.721  14.991  0.5108 -2.3340 -0.7337
 8324SOL    HW236606   2.043   2.829  14.995  0.4275 -0.9348  0.4185
 8325SOL     OW36607   0.238   1.588   2.888 -0.4966 -0.2328 -0.2947
 8325SOL    HW136608   0.301   1.554   2.823 -1.0007 -2.9000  0.6168
 8325SOL    HW236609   0.156   1.590   2.838 -0.5591 -2.0169 -0.2433
 8326SOL     OW36610   2.504   4.552  16.353  0.6807  0.4171  0.5473
 8326SOL    HW136611   2.493   4.482  16.418 -1.4495  1.8554  1.7411
 8326SOL    HW236612   2.430   4.608  16.376  0.6461  1.3251 -1.7912
 8327SOL     OW36613   4.215   2.073  17.697 -0.2825 -0.3973  0.1329
 8327SOL    HW136614   4.159   2.009  17.652 -0.0325 -0.2978 -0.3232
 8327SOL    HW236615   4.252   2.016   0.026  0.1151  2.1904  2.0949
 8328SOL     OW36616   0.301   1.916   5.883 -0.4637 -0.0171 -0.1344
 8328SOL    HW136617   0.266   1.973   5.951 -1.8983  0.4187 -1.2445
 8328SOL    HW236618   0.329   1.840   5.935  1.7636  1.9643  1.5542
 8329SOL     OW36619   2.377   0.590   5.372  0.4198  0.2188 -0.6625
 8329SOL    HW136620   2.381   0.547   5.286  2.8578 -0.1484 -0.3652
 8329SOL    HW236621   2.441   0.660   5.357 -0.2543  1.1650  0.9652
 8330SOL     OW36622   2.502   1.896   2.152  0.6117  0.1757  0.4493
 8330SOL    HW136623   2.501   1.861   2.241  0.2301 -1.4998 -0.2174
 8330SOL    HW236624   2.451   1.977   2.152  2.7056  1.4968 -1.5468
 8331SOL     OW36625   3.787   4.291   3.866  0.0463  0.3276  0.2375
 8331SOL    HW136626   3.847   4.358   3.833  0.5015  0.6754  1.8202
 8331SOL    HW236627   3.839   4.213   3.849 -0.2211  0.1739  0.1234
 8332SOL     OW36628   2.491   0.274   7.757  0.4734  0.1178  0.8123
 8332SOL    HW136629   2.431   0.337   7.717 -0.4752 -0.4616  1.3292
 8332SOL    HW236630   2.516   0.205   7.696 -0.4462 -0.1066  0.6859
 8333SOL     OW36631   2.647   2.473   2.562 -0.3077  0.2248  0.2463
 8333SOL    HW136632   2.639   2.438   2.651  2.4011  0.2910  0.5166
 8333SOL    HW236633   2.681   2.559   2.587  1.0405  0.0645 -1.0373
 8334SOL     OW36634   1.909   2.949   8.373 -0.2844 -0.4070 -0.2742
 8334SOL    HW136635   1.890   3.031   8.418  0.3597 -0.3452 -0.1208
 8334SOL    HW236636   1.994   2.967   8.334 -0.6748  0.6333 -0.6314
 8335SOL     OW36637   4.165   4.176  17.226 -0.2762  0.1079 -0.0426
 8335SOL    HW136638   4.181   4.136  17.312 -0.4929 -0.8686 -0.4648
 8335SOL    HW236639   4.231   4.136  17.171  1.0756  1.6186  0.4584
 8336SOL     OW36640   2.237   2.291   3.484  0.2260  0.1978 -0.5129
 8336SOL    HW136641   2.160   2.271   3.431 -0.6457 -0.8027  1.1447
 8336SOL    HW236642   2.304   2.239   3.439 -0.2260 -0.4165 -0.4794
 8337SOL     OW36643   3.424   2.701  14.447  0.4228 -0.0603  0.3999
 8337SOL    HW136644   3.353   2.640  14.470  2.0478 -1.9175  0.5153
 8337SOL    HW236645   3.415   2.772  14.511  2.1526  2.0955 -1.7569
 8338SOL     OW36646   0.072   2.389   5.793  0.1832 -0.4108 -0.6435
 8338SOL    HW136647   0.137   2.322   5.816  0.4397  0.1346  0.2327
 8338SOL    HW236648   0.081   2.449   5.867 -0.3053 -2.4230  1.0288
 8339SOL     OW36649   0.863   0.832   6.007 -0.1444  0.0796  0.6162
 8339SOL    HW136650   0.842   0.761   5.946  1.5830  2.5970 -2.8851
 8339SOL    HW236651   0.881   0.780   6.086 -1.4234  2.5836  2.5687
 8340SOL     OW36652   4.054   1.734   7.448 -0.5570 -0.3332 -0.1295
 8340SOL    HW136653   4.039   1.828   7.452  1.7664  0.0651 -1.2843
 8340SOL    HW236654   3.985   1.707   7.387 -0.7666  0.6945 -0.3520
 8341SOL     OW36655   3.013   1.506   2.487 -0.6244 -0.4329  0.0558
 8341SOL    HW136656   3.090   1.452   2.505  1.1509  2.5891  1.5175
 8341SOL    HW236657   3.059   1.590   2.496  1.4987 -1.7617  1.5924
 8342SOL     OW36658   2.715   3.946   0.374  0.3548  0.3889  0.0378
 8342SOL    HW136659   2.811   3.954   0.376  0.4342 -0.7874  1.2036
 8342SOL    HW236660   2.706   3.943   0.279  0.3065  2.4743 -0.0291
 8343SOL     OW36661   0.634   3.845   4.333 -0.5576 -0.0275 -0.1373
 8343SOL    HW136662   0.683   3.919   4.368  0.5150 -0.2273 -1.2197
 8343SOL    HW236663   0.655   3.848   4.240  0.1514  5.7199  0.2013
 8344SOL     OW36664   2.971   2.425   7.038 -0.1438  0.2351 -0.1536
 8344SOL    HW136665   2.899   2.439   7.099  0.5827  0.8308  0.5688
 8344SOL    HW236666   3.009   2.510   7.016  1.6380 -1.0161 -1.9876
 8345SOL     OW36667   4.697   4.678   6.966 -0.0406 -0.3306  0.8723
 8345SOL    HW136668   0.020   4.702   7.039  2.1952  2.9157 -2.0220
 8345SOL    HW236669   4.632   0.004   7.001 -1.8723 -0.4146 -2.4117
 8346SOL     OW36670   0.344   1.620   1.276 -0.5982 -0.0795 -0.1316
 8346SOL    HW136671   0.275   1.559   1.247  0.5537 -0.5799 -1.8405
 8346SOL    HW236672   0.418   1.598   1.220 -1.0861 -1.2761 -0.3068
 8347SOL     OW36673   1.170   2.921   1.796  0.4872  0.7027 -0.5160
 8347SOL    HW136674   1.189   3.015   1.807 -0.3330  0.7685  0.3560
 8347SOL    HW236675   1.092   2.925   1.740  1.0424  0.9103 -1.2666
 8348SOL     OW36676   0.643   1.357   4.654 -0.1532  0.1024  0.3718
 8348SOL    HW136677   0.676   1.410   4.581 -1.2096 -0.3350 -0.4249
 8348SOL    HW236678   0.686   1.400   4.728 -0.5946 -1.0346  1.2677
 8349SOL     OW36679   0.161   0.192   9.023  0.1121 -0.1582 -0.1213
 8349SOL    HW136680   0.078   0.195   9.070  0.5522 -0.5071  0.6795
 8349SOL    HW236681   0.216   0.137   9.078  3.7562  0.3620 -3.1945
 8350SOL     OW36682   0.728   3.290   5.194 -0.5480  0.2027 -0.2930
 8350SOL    HW136683   0.713   3.230   5.121 -0.3678 -0.4225  0.1832
 8350SOL    HW236684   0.733   3.227   5.265 -1.8550  1.2991  0.7786
 8351SOL     OW36685   2.464   0.454  12.116  0.6474 -0.0679 -0.1228
 8351SOL    HW136686   2.393   0.476  12.056  0.9320  1.5781  0.1411
 8351SOL    HW236687   2.484   0.364  12.089 -1.0046 -0.8276  1.1309
 8352SOL     OW36688   2.942   0.501   9.310  0.0849 -0.1945 -0.2763
 8352SOL    HW136689   2.970   0.533   9.224  1.4383  1.4339  0.7779
 8352SOL    HW236690   2.988   0.557   9.372  0.0703  1.6322 -1.9154
 8353SOL     OW36691   1.383   1.506  12.966  0.2723 -0.4870  0.0897
 8353SOL    HW136692   1.350   1.433  13.017 -0.6397  0.1762  0.4438
 8353SOL    HW236693   1.301   1.541  12.932  0.3875 -0.6983 -0.4082
 8354SOL     OW36694   0.841   4.684   7.467 -0.2146  0.4326  0.3769
 8354SOL    HW136695   0.915   4.682   7.406  1.3576  1.8914  2.2508
 8354SOL    HW236696   0.809   4.599   7.437  0.9722 -0.0454  0.4669
 8355SOL     OW36697   1.699   0.830   8.187 -0.0703 -0.0495  0.3479
 8355SOL    HW136698   1.760   0.771   8.230  1.4113 -1.5594 -3.8800
 8355SOL    HW236699   1.643   0.770   8.138  2.3431 -0.2941 -2.0558
 8356SOL     OW36700   1.583   1.719   4.873 -0.3117 -0.0582  0.5540
 8356SOL    HW136701   1.550   1.780   4.939 -2.1478 -0.1672 -0.2732
 8356SOL    HW236702   1.581   1.641   4.928  1.4415 -0.9545 -0.6309
 8357SOL     OW36703   4.481   4.610   3.952 -0.4787  0.5899  0.2803
 8357SOL    HW136704   4.398   4.654   3.972 -0.4919  0.9376 -0.5554
 8357SOL    HW236705   4.441   4.524   3.938 -0.6830  0.2606  2.8625
 8358SOL     OW36706   3.926   0.397   2.610  0.2408  0.9216 -0.2640
 8358SOL    HW136707   3.854   0.394   2.673 -1.4454  1.0410 -2.1568
 8358SOL    HW236708   3.874   0.403   2.530 -1.6403 -0.5907  0.8570
 8359SOL     OW36709   3.879   2.708   1.434  0.1217 -0.0431 -0.3590
 8359SOL    HW136710   3.916   2.672   1.353  2.3772 -0.9362  1.1097
 8359SOL    HW236711   3.863   2.799   1.409  0.0601 -0.1726 -0.8035
 8360SOL     OW36712   0.420   1.678   6.990  0.0139 -0.3110 -0.5575
 8360SOL    HW136713   0.474   1.757   6.994 -1.5837  0.7596 -0.2104
 8360SOL    HW236714   0.386   1.667   6.901 -0.7097 -0.7745 -0.2143
 8361SOL     OW36715   1.370   2.778  13.031  0.3227  0.2985 -0.5101
 8361SOL    HW136716   1.450   2.830  13.040  1.7609 -1.7553 -1.3111
 8361SOL    HW236717   1.316   2.842  12.984 -1.1804  0.1874  1.0790
 8362SOL     OW36718   1.416   4.215   2.631 -0.1088 -0.4409  0.0005
 8362SOL    HW136719   1.422   4.310   2.639 -1.2500 -0.3018 -0.6733
 8362SOL    HW236720   1.505   4.200   2.662  0.2801 -0.3599 -1.0790
 8363SOL     OW36721   1.270   3.000   2.940  0.2508  0.1866  0.0911
 8363SOL    HW136722   1.193   2.944   2.927  0.7158 -0.0143 -1.7705
 8363SOL    HW236723   1.247   3.039   3.024 -1.0655  2.1700 -1.1682
 8364SOL     OW36724   0.720   0.420  17.237  0.1279  0.3643 -0.3709
 8364SOL    HW136725   0.812   0.445  17.245 -0.4154  2.5711 -1.1312
 8364SOL    HW236726   0.718   0.360  17.163  0.8033  0.0324 -0.1231
 8365SOL     OW36727   1.276   1.104  12.150 -0.1528  0.2001  0.1665
 8365SOL    HW136728   1.330   1.059  12.085  0.1819  1.0090 -0.1141
 8365SOL    HW236729   1.202   1.046  12.166 -0.3188  0.6101  0.8710
 8366SOL     OW36730   0.241   0.042   6.315  0.0151  0.5001  0.3418
 8366SOL    HW136731   0.226   4.686   6.289  0.5504 -0.3368  2.9538
 8366SOL    HW236732   0.203   0.084   6.238  0.1715 -0.1527 -0.0830
 8367SOL     OW36733   1.545   2.836  10.257 -0.0519  0.0586  0.2972
 8367SOL    HW136734   1.583   2.900  10.317  2.2034  0.5135 -1.6243
 8367SOL    HW236735   1.482   2.802  10.320 -1.8380  0.5133 -1.2587
 8368SOL     OW36736   2.443   1.687  14.431 -0.0346  0.2967 -1.0916
 8368SOL    HW136737   2.478   1.765  14.473  0.6096 -0.2540 -0.6173
 8368SOL    HW236738   2.505   1.683  14.359 -0.4805 -2.7214 -1.3184
 8369SOL     OW36739   1.017   0.846  14.985  0.3008 -0.0002  0.2877
 8369SOL    HW136740   1.000   0.917  14.923  0.1134 -0.8411 -0.6066
 8369SOL    HW236741   0.988   0.764  14.947  0.3834  0.4721 -0.8030
 8370SOL     OW36742   1.078   0.897  12.142  0.0907 -0.7044  0.6103
 8370SOL    HW136743   1.077   0.840  12.219 -1.4230 -3.4607 -1.4596
 8370SOL    HW236744   1.152   0.857  12.096 -0.3292 -0.2174 -0.4917
 8371SOL     OW36745   2.886   0.874   0.946  0.0039  0.3360 -0.0200
 8371SOL    HW136746   2.829   0.839   0.877 -1.3985 -0.0043  1.3320
 8371SOL    HW236747   2.850   0.961   0.960 -2.0461 -0.8015  1.6753
 8372SOL     OW36748   0.907   0.661   2.450 -0.4525 -0.4199 -0.6355
 8372SOL    HW136749   0.948   0.594   2.395  0.5711 -1.2994  1.1865
 8372SOL    HW236750   0.846   0.615   2.507  3.5139 -2.9460  1.5667
 8373SOL     OW36751   1.619   2.481  13.117  0.3439  0.4897  0.7600
 8373SOL    HW136752   1.555   2.410  13.113 -1.0213  1.7910 -0.9304
 8373SOL    HW236753   1.696   2.435  13.082  0.1922  1.5578 -1.0051
 8374SOL     OW36754   4.116   0.523   2.806 -0.2328  0.5057 -0.0801
 8374SOL    HW136755   4.086   0.454   2.748 -1.4545  0.8564  0.1439
 8374SOL    HW236756   4.137   0.592   2.743  0.6823  0.5605  0.2799
 8375SOL     OW36757   3.121   2.512  17.513  0.3107  0.4408 -0.5502
 8375SOL    HW136758   3.140   2.529  17.605 -1.4700  1.9360 -0.4410
 8375SOL    HW236759   3.027   2.530  17.510  0.6111  2.0477 -0.5111
 8376SOL     OW36760   3.576   2.858  14.830  0.1051  0.6388  0.7129
 8376SOL    HW136761   3.633   2.795  14.785  0.0075  2.5265 -2.0373
 8376SOL    HW236762   3.627   2.862  14.911  1.0211 -0.8740  0.2099
 8377SOL     OW36763   1.281   4.331   9.816 -0.2532 -0.6428 -0.0098
 8377SOL    HW136764   1.343   4.394   9.779 -1.3461 -0.1728 -1.0120
 8377SOL    HW236765   1.196   4.349   9.777 -0.8155 -2.3008  0.4443
 8378SOL     OW36766   1.025   4.705   2.467  0.1730  0.4643  0.0346
 8378SOL    HW136767   1.055   4.655   2.542 -0.5364 -0.5504 -0.3586
 8378SOL    HW236768   1.100   4.719   2.408 -2.5224 -0.0876 -3.5443
 8379SOL     OW36769   4.517   2.653  13.663 -0.0969 -0.0033 -0.4735
 8379SOL    HW136770   4.609   2.629  13.668 -0.1009 -0.2983 -1.7028
 8379SOL    HW236771   4.524   2.717  13.592 -0.5734 -1.4096 -1.7842
 8380SOL     OW36772   1.526   2.451   5.590 -0.8097 -0.7508 -0.2760
 8380SOL    HW136773   1.509   2.503   5.512 -1.8305 -0.0835  0.3949
 8380SOL    HW236774   1.459   2.493   5.644 -0.1055  2.6675 -2.1268
 8381SOL     OW36775   4.697   4.710   5.931 -0.3940  0.1371  0.3452
 8381SOL    HW136776   0.031   4.678   5.989  0.7109 -0.1993 -1.1283
 8381SOL    HW236777   4.617   4.691   5.980 -0.0549 -0.3339  0.7139
 8382SOL     OW36778   3.057   2.389  16.952 -0.2213 -0.1369 -0.0758
 8382SOL    HW136779   3.098   2.317  17.000  1.7265 -0.3787 -2.0932
 8382SOL    HW236780   3.038   2.454  17.019 -0.7901  1.8547 -2.1772
 8383SOL     OW36781   0.646   2.928   7.216  0.1557 -0.0920  0.5661
 8383SOL    HW136782   0.687   2.882   7.142  2.3014  0.6541  1.2882
 8383SOL    HW236783   0.720   2.916   7.276  0.7928 -0.9225 -0.3677
 8384SOL     OW36784   3.320   1.573   8.294  0.2188 -1.0136 -0.1079
 8384SOL    HW136785   3.400   1.596   8.342 -0.0246 -0.6360  0.1083
 8384SOL    HW236786   3.312   1.480   8.315  2.0955 -0.8741  1.2359
 8385SOL     OW36787   0.416   4.244  17.124 -0.0135  0.0114 -0.5709
 8385SOL    HW136788   0.338   4.297  17.139 -0.3182  0.0451 -2.2741
 8385SOL    HW236789   0.373   4.162  17.101 -2.2716  0.8355  0.6685
 8386SOL     OW36790   1.285   1.042   3.599  0.1785  0.1595 -0.0410
 8386SOL    HW136791   1.368   1.085   3.620  0.9714 -1.9229  1.1358
 8386SOL    HW236792   1.289   0.971   3.663  1.0137 -0.1157 -0.3977
 8387SOL     OW36793   1.754   3.357   9.221  0.8219 -0.2393 -0.1476
 8387SOL    HW136794   1.666   3.361   9.260  1.6526 -0.9815  1.7826
 8387SOL    HW236795   1.727   3.362   9.129  1.5632 -0.5695 -0.3869
 8388SOL     OW36796   3.285   4.510   5.856  0.1062 -0.4672  0.0668
 8388SOL    HW136797   3.266   4.439   5.794  0.3445  0.9155 -1.5874
 8388SOL    HW236798   3.319   4.469   5.936  1.2620 -1.6532 -1.0244
 8389SOL     OW36799   3.172   0.893   4.995  0.3405  0.0354  0.0498
 8389SOL    HW136800   3.181   0.849   5.079 -2.2788 -2.0465 -0.7539
 8389SOL    HW236801   3.093   0.941   5.019 -0.4003 -1.1423 -0.0335
 8390SOL     OW36802   2.254   3.229   4.465 -0.0311  0.7235 -0.4401
 8390SOL    HW136803   2.301   3.153   4.431  0.7130  1.0941 -0.2318
 8390SOL    HW236804   2.320   3.256   4.529 -1.8210 -0.5794  1.9814
 8391SOL     OW36805   1.223   0.427   7.757 -0.2984  0.3010  0.3757
 8391SOL    HW136806   1.221   0.333   7.779  0.1213  0.3955  0.8230
 8391SOL    HW236807   1.161   0.435   7.685  1.3865 -0.7531 -1.2099
 8392SOL     OW36808   3.386   3.188  11.388 -0.2916  0.3031  0.2297
 8392SOL    HW136809   3.394   3.189  11.483  0.9985  0.5658  0.1220
 8392SOL    HW236810   3.431   3.270  11.369 -0.3759  0.2906 -0.0341
 8393SOL     OW36811   0.107   4.092  17.126 -0.0237 -0.4954 -0.3021
 8393SOL    HW136812   0.200   4.073  17.114  0.1854  0.7529 -0.7099
 8393SOL    HW236813   0.114   4.182  17.159 -0.7352 -1.2870  2.0364
 8394SOL     OW36814   3.793   0.674   5.099 -0.0166 -0.5943  0.1661
 8394SOL    HW136815   3.714   0.715   5.062  0.9847  1.1684 -0.0168
 8394SOL    HW236816   3.851   0.685   5.023 -0.0613  1.2281  0.4099
 8395SOL     OW36817   0.868   0.158   2.733  0.0537  0.1710 -0.0459
 8395SOL    HW136818   0.918   0.214   2.673  0.3112  1.0394  0.9610
 8395SOL    HW236819   0.784   0.148   2.688 -0.9555  1.7779  1.4752
 8396SOL     OW36820   1.285   1.615   3.144  0.1460 -0.0821 -0.2957
 8396SOL    HW136821   1.217   1.634   3.208  1.0632 -2.0736  1.2888
 8396SOL    HW236822   1.242   1.648   3.066  1.8786 -0.0042 -1.2071
 8397SOL     OW36823   1.662   3.123   7.605  0.4774 -0.9143  0.0653
 8397SOL    HW136824   1.708   3.060   7.548  2.0900  0.8008 -0.5592
 8397SOL    HW236825   1.587   3.071   7.630 -0.4539  0.4943  0.1823
 8398SOL     OW36826   2.265   3.767  16.412  0.3436 -0.1656  0.0155
 8398SOL    HW136827   2.219   3.690  16.380  1.0337 -0.1995 -0.8783
 8398SOL    HW236828   2.358   3.744  16.401  1.2737  2.8001  1.6264
 8399SOL     OW36829   0.173   4.514   6.579  0.1239  0.0136  0.4761
 8399SOL    HW136830   0.124   4.580   6.530 -0.3558  0.7741  1.9798
 8399SOL    HW236831   0.104   4.471   6.629  0.6812 -0.9337  0.4376
 8400SOL     OW36832   1.566   0.242   4.218  0.0099 -0.0955  0.3141
 8400SOL    HW136833   1.623   0.249   4.294  0.9798  1.3164 -0.5525
 8400SOL    HW236834   1.534   0.331   4.201 -2.3403 -0.8940  0.5685
 8401SOL     OW36835   3.872   1.765   8.142  0.4339 -0.1177  0.1747
 8401SOL    HW136836   3.883   1.794   8.052  0.7252  0.3844  0.3654
 8401SOL    HW236837   3.958   1.745   8.179 -0.1116 -4.4698 -0.9557
 8402SOL     OW36838   2.881   2.281   5.669 -0.6570 -0.5173 -0.2060
 8402SOL    HW136839   2.869   2.259   5.761  0.8111 -1.7236 -0.2913
 8402SOL    HW236840   2.837   2.211   5.620  0.5876 -0.6152 -1.1769
 8403SOL     OW36841   4.520   4.597   2.084 -0.5919 -0.3302 -0.4771
 8403SOL    HW136842   4.433   4.625   2.055 -0.7591  1.3351  1.6278
 8403SOL    HW236843   4.494   4.556   2.167 -0.0591  1.3874  0.5274
 8404SOL     OW36844   0.702   1.973   3.068 -0.0461 -0.3238 -0.3247
 8404SOL    HW136845   0.694   1.954   3.161 -1.2873 -1.0228 -0.5770
 8404SOL    HW236846   0.638   2.043   3.058  0.5508  0.4217  0.9989
 8405SOL     OW36847   4.576   0.466   3.949  0.2883 -0.0312  0.5140
 8405SOL    HW136848   4.575   0.378   3.911  1.6523  0.1482  0.0509
 8405SOL    HW236849   4.487   0.468   3.982 -0.0472  1.4574 -0.4515
 8406SOL     OW36850   2.940   3.802   8.689  0.0427 -0.4935  0.1912
 8406SOL    HW136851   2.898   3.760   8.614  2.1204  0.1504 -1.3410
 8406SOL    HW236852   2.882   3.876   8.709  0.0683 -0.4641  0.1578
 8407SOL     OW36853   3.296   2.229  10.124  0.0277 -0.1081 -0.3369
 8407SOL    HW136854   3.284   2.140  10.091  0.9258 -0.4300  0.1922
 8407SOL    HW236855   3.343   2.214  10.206  1.7074  1.9265 -0.9193
 8408SOL     OW36856   2.199   2.658   3.933  0.3920  0.5906  0.2187
 8408SOL    HW136857   2.197   2.578   3.881  0.3878 -0.3595  1.6655
 8408SOL    HW236858   2.137   2.642   4.005 -0.3797 -2.0727 -1.0796
 8409SOL     OW36859   1.584   3.062   8.799 -0.4851 -0.5218  0.0489
 8409SOL    HW136860   1.515   3.125   8.820  0.6531  1.0171 -0.7996
 8409SOL    HW236861   1.585   3.064   8.703 -1.8524 -2.6693 -0.0132
 8410SOL     OW36862   1.902   3.319   6.792  0.4906 -0.0243 -0.4309
 8410SOL    HW136863   1.872   3.393   6.738  1.5841  1.4921  1.0420
 8410SOL    HW236864   1.977   3.358   6.836 -0.2515  1.1461 -0.1936
 8411SOL     OW36865   0.953   2.696   3.165 -0.3060  0.3338 -0.7206
 8411SOL    HW136866   0.878   2.748   3.196  0.5372 -0.3691  2.5534
 8411SOL    HW236867   0.932   2.607   3.191  0.1147  0.7484  1.0870
 8412SOL     OW36868   2.943   4.668   8.455  0.3397  0.6918  0.1811
 8412SOL    HW136869   2.881   4.686   8.385  0.6549  1.1423  0.0179
 8412SOL    HW236870   3.015   4.635   8.401  0.6281  2.6675 -0.6506
 8413SOL     OW36871   0.828   0.178   9.018 -0.7956 -0.1585 -0.0805
 8413SOL    HW136872   0.838   0.115   8.947 -2.1487  0.8235 -1.1373
 8413SOL    HW236873   0.817   0.262   8.974 -0.1951 -0.8164 -1.4790
 8414SOL     OW36874   3.152   3.786   7.878  0.0817  0.0377  0.4534
 8414SOL    HW136875   3.122   3.701   7.847  1.5235 -0.0663 -0.6741
 8414SOL    HW236876   3.154   3.835   7.796 -0.9077 -0.7609 -0.0461
 8415SOL     OW36877   2.370   0.470   8.123  0.3376  0.2141  0.0835
 8415SOL    HW136878   2.383   0.380   8.153  3.1385  0.7466  0.5029
 8415SOL    HW236879   2.441   0.511   8.174  1.2272 -2.1510  0.7587
 8416SOL     OW36880   3.619   3.896  16.554 -0.1636 -0.0910 -0.6681
 8416SOL    HW136881   3.628   3.985  16.587 -2.7506 -0.1133  0.0990
 8416SOL    HW236882   3.606   3.850  16.638 -0.4647 -2.4023 -1.9670
 8417SOL     OW36883   2.762   0.059  16.820  0.2971 -0.3012  0.7846
 8417SOL    HW136884   2.748   0.028  16.731 -0.8529 -0.5427  1.0560
 8417SOL    HW236885   2.789   0.148  16.799  0.6554 -0.0745  2.1854
 8418SOL     OW36886   4.577   2.055  10.149  0.3495  0.3377  0.2505
 8418SOL    HW136887   4.643   2.074  10.215  0.0979 -0.1271  0.6325
 8418SOL    HW236888   4.631   2.064  10.071  1.5105 -4.3465  0.5240
 8419SOL     OW36889   2.924   1.920  11.171 -0.4376  0.0749 -0.2954
 8419SOL    HW136890   2.863   1.875  11.230  0.4786 -0.9530 -0.1406
 8419SOL    HW236891   2.977   1.847  11.140 -1.0501  0.2976 -1.8745
 8420SOL     OW36892   0.210   3.025   4.299 -0.3472 -0.1431  0.0459
 8420SOL    HW136893   0.300   3.003   4.324  0.0849  2.6208  1.0087
 8420SOL    HW236894   0.160   2.954   4.340  1.0952 -1.2015 -0.0467
 8421SOL     OW36895   0.128   4.354   4.225  0.2356 -0.3405 -0.1378
 8421SOL    HW136896   0.054   4.355   4.165  2.0238 -2.7125 -2.3837
 8421SOL    HW236897   0.097   4.315   4.306 -0.3278 -0.3629 -0.3650
 8422SOL     OW36898   1.198   3.972   9.185  0.2683 -0.2579 -0.1385
 8422SOL    HW136899   1.200   4.068   9.183 -0.0818 -0.2898 -2.2409
 8422SOL    HW236900   1.171   3.953   9.275  0.3604  0.9200  0.1393
 8423SOL     OW36901   2.114   4.068   9.722  0.1415  0.6557  0.2355
 8423SOL    HW136902   2.201   4.100   9.748 -0.5980  1.5639  1.5612
 8423SOL    HW236903   2.133   3.989   9.671  0.9936  0.0972  1.4217
 8424SOL     OW36904   4.138   2.538   5.962  0.1595  0.3230  0.4371
 8424SOL    HW136905   4.052   2.578   5.973 -0.7222 -0.3864 -3.6748
 8424SOL    HW236906   4.201   2.599   6.001 -0.8906  0.9307  1.1843
 8425SOL     OW36907   1.267   2.237   3.279 -0.4667 -0.3221  0.3797
 8425SOL    HW136908   1.348   2.188   3.297  0.5091  0.6591 -1.3918
 8425SOL    HW236909   1.290   2.322   3.316 -2.3871  0.8666 -1.1670
 8426SOL     OW36910   3.236   1.720   5.312  0.1324 -0.1085  0.5242
 8426SOL    HW136911   3.161   1.696   5.257 -0.9743  3.4984  0.4382
 8426SOL    HW236912   3.194   1.760   5.388  0.2732 -0.5866  0.8530
 8427SOL     OW36913   4.731   0.407   3.012 -0.1036 -0.2369 -0.0006
 8427SOL    HW136914   0.059   0.421   3.083 -0.0347  0.4407 -0.1893
 8427SOL    HW236915   4.709   0.316   3.032 -0.4838 -0.1125  0.1350
 8428SOL     OW36916   0.709   2.459   7.932 -0.3106  0.6651 -0.2795
 8428SOL    HW136917   0.784   2.419   7.975  2.2066  2.5282 -2.9127
 8428SOL    HW236918   0.670   2.389   7.880  1.1472  1.5750 -2.5870
 8429SOL     OW36919   4.558   2.281   5.845 -0.4608  0.2039 -0.1435
 8429SOL    HW136920   4.643   2.312   5.813 -0.2739  0.0850  0.2418
 8429SOL    HW236921   4.520   2.240   5.767  0.4230  1.4739 -1.2525
 8430SOL     OW36922   2.541   1.596   6.869 -0.5420  0.6512  0.4610
 8430SOL    HW136923   2.473   1.576   6.933 -0.1231 -1.9080  0.0827
 8430SOL    HW236924   2.484   1.646   6.810 -0.8983 -1.3110 -0.8746
 8431SOL     OW36925   3.251   2.573   1.115 -0.2881  0.1613  0.1096
 8431SOL    HW136926   3.233   2.530   1.031  1.8979  0.2715 -0.4218
 8431SOL    HW236927   3.313   2.512   1.155 -1.1719 -2.0602 -1.9084
 8432SOL     OW36928   2.299   0.400   5.919  0.8329  0.2770 -0.3289
 8432SOL    HW136929   2.317   0.395   5.825 -1.7679 -0.0757 -0.8296
 8432SOL    HW236930   2.388   0.426   5.943  0.7907  2.3468 -2.4374
 8433SOL     OW36931   0.068   0.655   8.639  0.5013 -0.0079  0.3439
 8433SOL    HW136932   0.163   0.649   8.651  0.5056  0.8495  0.7488
 8433SOL    HW236933   0.060   0.750   8.641  0.9012  0.0011  2.2651
 8434SOL     OW36934   2.780   3.878  14.905  0.3883  0.2588 -0.1380
 8434SOL    HW136935   2.803   3.945  14.969 -1.0232  0.7044 -0.1035
 8434SOL    HW236936   2.862   3.832  14.886  1.0887  0.3595  2.6694
 8435SOL     OW36937   4.245   3.909   6.480  0.1329 -0.6738  0.4595
 8435SOL    HW136938   4.226   3.926   6.572 -0.1726  0.6627  0.1611
 8435SOL    HW236939   4.253   3.815   6.491 -0.6126 -0.7406  0.4532
 8436SOL     OW36940   0.928   0.053  12.363 -0.0916  0.1396  0.3353
 8436SOL    HW136941   0.992   4.717  12.353  0.4014  0.7476 -0.7615
 8436SOL    HW236942   0.850   4.734  12.374 -0.9857  1.0614 -1.6941
 8437SOL     OW36943   3.299   3.173   1.226 -0.1303 -0.1351  0.8984
 8437SOL    HW136944   3.360   3.240   1.197 -2.4411  1.7567  0.3596
 8437SOL    HW236945   3.266   3.150   1.139  3.0454 -1.8047  0.1497
 8438SOL     OW36946   3.108   3.967  12.455 -0.0728  0.3985  0.1496
 8438SOL    HW136947   3.088   3.956  12.548  0.0687 -0.9592  0.0205
 8438SOL    HW236948   3.040   3.905  12.428  2.0264 -0.9994 -1.9631
 8439SOL     OW36949   0.129   2.873   3.887 -0.5494 -0.3580  0.6518
 8439SOL    HW136950   0.176   2.824   3.954 -0.4856  0.0264  0.8858
 8439SOL    HW236951   0.198   2.929   3.853 -0.5635 -0.6351  0.1624
 8440SOL     OW36952   2.819   0.572  13.060  0.5083 -0.3182 -0.4263
 8440SOL    HW136953   2.746   0.510  13.067  1.4154 -1.4562 -1.0910
 8440SOL    HW236954   2.882   0.511  13.098 -1.5797 -2.0329  0.2889
 8441SOL     OW36955   2.058   2.962   9.804  1.1186  0.3757  0.2470
 8441SOL    HW136956   2.065   2.945   9.897 -1.8929 -2.8426 -0.1119
 8441SOL    HW236957   1.994   3.034   9.804  1.3084  0.5484 -2.6909
 8442SOL     OW36958   3.009   3.815   2.687  0.3489 -0.1575 -0.1324
 8442SOL    HW136959   2.943   3.883   2.674 -0.0092 -0.4321  0.2891
 8442SOL    HW236960   2.981   3.742   2.632  1.3481 -1.6112  1.2892
 8443SOL     OW36961   0.533   4.159  15.291  0.0655  0.2779 -0.2876
 8443SOL    HW136962   0.602   4.154  15.358  0.5118 -1.6627 -0.8882
 8443SOL    HW236963   0.555   4.245  15.256  0.1704  0.2530 -0.2829
 8444SOL     OW36964   3.898   2.694   4.544  0.2558  0.6553 -0.5882
 8444SOL    HW136965   3.869   2.652   4.463  0.4615  1.6404 -1.1729
 8444SOL    HW236966   3.861   2.782   4.534  0.2278  0.6506 -0.5254
 8445SOL     OW36967   3.682   3.851   5.249 -0.1089 -0.0007  0.1752
 8445SOL    HW136968   3.655   3.870   5.339  1.7434 -0.8801  0.9148
 8445SOL    HW236969   3.694   3.756   5.261  0.6404  0.1548  0.6764
 8446SOL     OW36970   2.476   3.208   5.224 -0.3124  0.0688  0.0447
 8446SOL    HW136971   2.529   3.167   5.156 -1.0152  0.1848 -0.5797
 8446SOL    HW236972   2.404   3.147   5.240 -1.4440  0.9668 -1.6081
 8447SOL     OW36973   2.268   1.369  12.431 -0.3269  0.1626  0.1317
 8447SOL    HW136974   2.307   1.443  12.477 -1.6975  0.1949  1.2318
 8447SOL    HW236975   2.339   1.352  12.370  2.5865  1.1259  3.2467
 8448SOL     OW36976   1.467   3.808   8.937  0.0757  0.0855 -0.0966
 8448SOL    HW136977   1.528   3.843   9.002  0.2904 -2.2489  0.9627
 8448SOL    HW236978   1.457   3.714   8.950 -0.1729  0.0576 -0.5098
 8449SOL     OW36979   3.066   2.212  15.780  0.1028 -0.2654  0.3323
 8449SOL    HW136980   3.085   2.154  15.854  1.8604  1.1899  1.0059
 8449SOL    HW236981   3.095   2.295  15.815 -0.0910  0.0795 -0.3122
 8450SOL     OW36982   1.748   3.326   8.023  0.0072 -0.1449 -0.5464
 8450SOL    HW136983   1.662   3.318   8.064  0.0837 -3.0017 -0.9686
 8450SOL    HW236984   1.719   3.364   7.940  1.2971 -0.1560 -0.9982
 8451SOL     OW36985   2.044   1.053   0.253  0.2782  0.5083 -0.3272
 8451SOL    HW136986   2.088   1.005   0.323 -0.2854  1.2994  0.5743
 8451SOL    HW236987   1.954   1.062   0.285  0.2251  1.3903 -0.7340
 8452SOL     OW36988   0.206   1.758   0.376  0.0073  0.4747 -0.1807
 8452SOL    HW136989   0.163   1.719   0.300  2.1467 -2.0367 -0.0922
 8452SOL    HW236990   0.191   1.688   0.439  2.8251 -1.3998 -1.6292
 8453SOL     OW36991   0.635   1.322   6.097 -0.1612  0.2034 -0.2692
 8453SOL    HW136992   0.628   1.234   6.061  0.3953  0.1733 -0.2931
 8453SOL    HW236993   0.592   1.367   6.024 -0.2509  1.5680  0.6235
 8454SOL     OW36994   3.331   3.849  10.696  0.0305  0.0636  0.2523
 8454SOL    HW136995   3.408   3.875  10.645 -0.7877 -0.2716 -1.1463
 8454SOL    HW236996   3.333   3.911  10.768  3.2511  0.8702 -0.5217
 8455SOL     OW36997   3.223   2.995   3.524 -0.2002 -0.1537 -0.0398
 8455SOL    HW136998   3.313   2.988   3.492  0.3603 -3.2320  2.3369
 8455SOL    HW236999   3.205   2.904   3.502  1.0633 -0.4036  0.0248
 8456SOL     OW37000   3.197   4.609   6.111  0.1713 -0.1122 -0.3995
 8456SOL    HW137001   3.120   4.554   6.103  1.8663 -2.4108 -1.0993
 8456SOL    HW237002   3.231   4.609   6.022 -0.0460  0.9510 -0.4724
 8457SOL     OW37003   0.441   4.174   7.906 -0.0665 -0.6150 -0.2593
 8457SOL    HW137004   0.346   4.163   7.908 -0.6111  3.9709 -1.5864
 8457SOL    HW237005   0.468   4.161   7.815 -1.0743 -1.2688 -0.4723
 8458SOL     OW37006   1.146   1.886  16.697 -0.9376 -0.1906 -0.9600
 8458SOL    HW137007   1.158   1.908  16.789 -0.1635 -1.1111 -0.8324
 8458SOL    HW237008   1.232   1.899  16.657 -0.5941  0.0181 -0.1510
 8459SOL     OW37009   2.941   3.952   4.200  0.0153 -0.5080  0.3924
 8459SOL    HW137010   2.893   4.019   4.249 -0.9035 -2.0419  1.5978
 8459SOL    HW237011   3.021   3.954   4.252 -0.4824 -0.1607  1.1470
 8460SOL     OW37012   1.224   1.171  12.527 -0.2048  0.4379  0.5946
 8460SOL    HW137013   1.301   1.159  12.583  1.1847  0.7016 -1.2643
 8460SOL    HW237014   1.194   1.081  12.520 -0.1095  0.5008 -0.5431
 8461SOL     OW37015   2.214   1.161   5.211 -0.1467 -0.0227  0.5012
 8461SOL    HW137016   2.123   1.145   5.238  0.9862 -1.5615  3.3251
 8461SOL    HW237017   2.195   1.170   5.117  0.4439  1.0406  0.4854
 8462SOL     OW37018   0.615   3.552   2.587  0.3874 -0.1299  0.5857
 8462SOL    HW137019   0.705   3.585   2.582 -0.0515  0.8961 -0.5820
 8462SOL    HW237020   0.583   3.574   2.500  1.2568  0.0483  0.3050
 8463SOL     OW37021   2.289   0.385   5.603  0.1468 -0.5992 -0.2289
 8463SOL    HW137022   2.217   0.324   5.619  0.0640 -0.2515  0.7342
 8463SOL    HW237023   2.365   0.329   5.616  1.1630  0.7015 -0.5254
 8464SOL     OW37024   3.590   3.751   0.354 -0.3775 -0.9376  0.9224
 8464SOL    HW137025   3.609   3.755   0.448 -0.5839  0.6513  0.9005
 8464SOL    HW237026   3.661   3.806   0.319 -0.8951 -0.5984  0.3953
 8465SOL     OW37027   0.301   3.790   4.106 -0.6757 -0.4171  0.1870
 8465SOL    HW137028   0.247   3.754   4.035 -1.4821  1.2977 -0.0735
 8465SOL    HW237029   0.303   3.883   4.087 -4.6060 -0.7009 -1.6124
 8466SOL     OW37030   0.558   0.747   3.683  0.6158  0.5283  0.3415
 8466SOL    HW137031   0.634   0.787   3.641 -0.0066  1.4097  0.0488
 8466SOL    HW237032   0.497   0.815   3.654 -0.6100 -0.7217 -0.0172
 8467SOL     OW37033   0.774   3.546   5.907 -0.1730  0.1144 -0.1743
 8467SOL    HW137034   0.781   3.616   5.842 -0.0261 -0.2201 -0.5194
 8467SOL    HW237035   0.841   3.579   5.966  1.6549 -1.5987 -1.3061
 8468SOL     OW37036   4.215   2.705   8.150 -0.5384  0.3120  0.0544
 8468SOL    HW137037   4.176   2.633   8.200  1.6411  0.0764  1.4281
 8468SOL    HW237038   4.189   2.781   8.201 -0.6575 -0.4411  1.1163
 8469SOL     OW37039   1.803   2.561   0.897  0.0318  0.3164 -0.2129
 8469SOL    HW137040   1.747   2.512   0.959 -1.0089  2.4576  0.5541
 8469SOL    HW237041   1.883   2.528   0.937 -1.1019 -1.1724  0.8724
 8470SOL     OW37042   2.866   0.028   3.588  0.1794 -0.1352 -0.3204
 8470SOL    HW137043   2.855   0.075   3.671  0.0101 -2.3812  0.9234
 8470SOL    HW237044   2.814   4.683   3.594 -0.6872  0.3979 -0.7041
 8471SOL     OW37045   1.556   0.640   5.900 -0.2983 -0.0539  0.2048
 8471SOL    HW137046   1.645   0.627   5.934 -1.2607 -2.9698  1.5513
 8471SOL    HW237047   1.495   0.605   5.965 -1.9879  1.0043 -0.8145
 8472SOL     OW37048   4.693   1.255   3.767  0.6679 -0.4026  0.3301
 8472SOL    HW137049   4.611   1.209   3.784  1.7175 -2.8038 -1.0474
 8472SOL    HW237050   4.682   1.263   3.672  0.4444 -1.7821  0.2404
 8473SOL     OW37051   4.411   1.420   9.587  0.3221  0.2527 -0.9783
 8473SOL    HW137052   4.391   1.422   9.680  1.6769 -2.9197 -0.6047
 8473SOL    HW237053   4.367   1.338   9.564 -0.1868  0.0391  0.7352
 8474SOL     OW37054   1.477   0.750   7.065 -0.2911  0.5951  0.2568
 8474SOL    HW137055   1.559   0.743   7.114 -0.4851 -0.8379  0.3619
 8474SOL    HW237056   1.422   0.686   7.110 -0.5971 -0.1840 -1.2432
 8475SOL     OW37057   1.622   0.160   1.630  0.0044 -0.0554  0.5075
 8475SOL    HW137058   1.638   0.254   1.632 -0.8904  0.1271 -1.3726
 8475SOL    HW237059   1.535   0.163   1.670  0.6122  0.8957  1.7486
 8476SOL     OW37060   1.332   4.353   4.945  0.0675  0.0826 -0.5202
 8476SOL    HW137061   1.325   4.419   4.876 -2.0909 -0.2085 -0.5969
 8476SOL    HW237062   1.257   4.294   4.933 -0.3650  0.3457  0.9689
 8477SOL     OW37063   2.169   0.044   3.353 -0.5916 -0.4031 -0.2160
 8477SOL    HW137064   2.126   0.056   3.438 -0.6805  0.9574 -0.4569
 8477SOL    HW237065   2.181   4.684   3.343 -1.2305 -0.6032  0.8621
 8478SOL     OW37066   3.036   2.830   2.539  0.2765  0.0939  0.5932
 8478SOL    HW137067   3.074   2.906   2.583  1.9272  0.1313 -0.9195
 8478SOL    HW237068   3.056   2.767   2.608  1.1979  0.9281  1.0831
 8479SOL     OW37069   1.870   4.197   5.936  0.5146  0.0805 -0.2820
 8479SOL    HW137070   1.800   4.201   6.001 -0.3527 -0.5423 -1.1850
 8479SOL    HW237071   1.849   4.114   5.893  0.4862  0.1779 -0.4511
 8480SOL     OW37072   1.893   0.898   3.685  0.0128  0.6358  0.1831
 8480SOL    HW137073   1.889   0.804   3.702  1.4531  0.3744 -0.9700
 8480SOL    HW237074   1.986   0.915   3.702  0.4213 -1.3470 -0.0896
 8481SOL     OW37075   0.274   3.555   6.738 -1.1885 -0.1050 -0.0929
 8481SOL    HW137076   0.326   3.613   6.682  0.8586 -1.2587  0.5850
 8481SOL    HW237077   0.184   3.565   6.708 -0.1362  0.2876 -3.0704
 8482SOL     OW37078   4.097   0.179   6.703  0.6626 -0.0908  0.0950
 8482SOL    HW137079   4.139   0.134   6.777 -0.0662  1.1178  1.2441
 8482SOL    HW237080   4.171   0.226   6.666 -0.1614  1.2052  0.1067
 8483SOL     OW37081   1.234   1.838  12.514  0.6597  0.0398  0.6936
 8483SOL    HW137082   1.230   1.872  12.425  1.0354  1.2530  1.1492
 8483SOL    HW237083   1.238   1.913  12.572  0.2068  0.9814 -0.4886
 8484SOL     OW37084   2.931   0.986  13.564  0.1071 -0.1747  0.0980
 8484SOL    HW137085   3.010   1.029  13.532 -0.2845 -0.2615 -0.9667
 8484SOL    HW237086   2.861   1.016  13.506 -0.7333 -1.5815  0.3718
 8485SOL     OW37087   1.223   2.698   3.053 -0.5441  0.0029 -0.1685
 8485SOL    HW137088   1.148   2.693   3.112 -2.0002  1.6895 -1.8667
 8485SOL    HW237089   1.290   2.648   3.099  0.6282  1.1265 -0.6484
 8486SOL     OW37090   2.719   0.888  13.743 -0.4937 -0.0271  0.2223
 8486SOL    HW137091   2.756   0.950  13.681 -0.6091 -0.6103 -0.4259
 8486SOL    HW237092   2.750   0.927  13.825  0.0037 -0.8825  0.4421
 8487SOL     OW37093   4.174   4.120  15.599 -0.8653 -0.0412 -0.1505
 8487SOL    HW137094   4.184   4.214  15.584  1.8078 -0.2696  0.0973
 8487SOL    HW237095   4.153   4.102  15.691 -0.3861  0.6010  0.0769
 8488SOL     OW37096   1.935   1.116   4.100 -0.4244 -0.0941 -0.1669
 8488SOL    HW137097   1.864   1.133   4.161 -0.1881 -0.6457  0.2664
 8488SOL    HW237098   2.004   1.099   4.165  0.1232 -0.6208 -0.8790
 8489SOL     OW37099   2.784   2.723   4.325  0.3778 -0.3543  0.2806
 8489SOL    HW137100   2.736   2.720   4.408  2.1169  0.2662  1.3071
 8489SOL    HW237101   2.867   2.766   4.346  0.6067 -0.9653  0.6207
 8490SOL     OW37102   1.899   0.797   2.749  0.2633  0.4614 -0.0809
 8490SOL    HW137103   1.989   0.790   2.720  0.1408 -2.1386  0.1685
 8490SOL    HW237104   1.908   0.881   2.794  0.9348  0.7569 -0.7828
 8491SOL     OW37105   1.409   1.204   5.330  0.5421 -0.0021  0.1588
 8491SOL    HW137106   1.392   1.235   5.419 -0.7103  2.3466 -0.8901
 8491SOL    HW237107   1.328   1.232   5.286 -0.5253 -2.2447  0.6614
 8492SOL     OW37108   4.403   3.764   2.807  0.3467 -0.5876  0.5550
 8492SOL    HW137109   4.313   3.736   2.793 -0.5210  2.7398 -0.4280
 8492SOL    HW237110   4.432   3.764   2.716 -0.5301 -0.4350  0.2812
 8493SOL     OW37111   0.434   3.642  17.331  0.4531  0.3787 -0.1064
 8493SOL    HW137112   0.454   3.552  17.305 -1.4818  0.2661 -1.2134
 8493SOL    HW237113   0.416   3.644  17.425 -0.9225 -1.5966 -0.3311
 8494SOL     OW37114   1.273   1.452   8.083  0.3439 -0.1046  0.2452
 8494SOL    HW137115   1.321   1.531   8.105 -1.4748  1.2011 -0.4334
 8494SOL    HW237116   1.340   1.409   8.030 -0.2189 -0.8621  0.1323
 8495SOL     OW37117   2.703   1.591   5.801 -0.0922 -0.2078 -0.2773
 8495SOL    HW137118   2.741   1.545   5.876 -0.2335  3.1161  1.8284
 8495SOL    HW237119   2.610   1.571   5.813  0.3684 -2.3410 -0.3787
 8496SOL     OW37120   3.555   3.957   7.941  0.5042 -0.0307  0.0188
 8496SOL    HW137121   3.594   3.889   7.995  1.3752  0.4822  0.0473
 8496SOL    HW237122   3.506   3.995   8.013 -0.3846 -0.8801 -0.1378
 8497SOL     OW37123   1.499   2.571   2.913 -0.2134 -0.0120  0.5134
 8497SOL    HW137124   1.488   2.478   2.891  1.1497  0.1359 -0.8067
 8497SOL    HW237125   1.438   2.576   2.986 -0.7569 -0.0251  0.0619
 8498SOL     OW37126   2.535   3.129   4.304 -0.1803  0.6666  0.1252
 8498SOL    HW137127   2.442   3.114   4.287  0.2225 -1.6013 -0.0651
 8498SOL    HW237128   2.573   3.060   4.249  1.0476  0.7466  0.8707
 8499SOL     OW37129   2.455   0.442   5.165  0.4257 -0.0994  0.0358
 8499SOL    HW137130   2.488   0.371   5.219  0.8469 -0.8193 -1.1554
 8499SOL    HW237131   2.525   0.456   5.100 -1.0068 -1.0999 -1.7346
 8500SOL     OW37132   2.263   0.207   2.653 -0.1668  0.7175 -0.0485
 8500SOL    HW137133   2.266   0.121   2.696 -0.7403  1.3614  1.2770
 8500SOL    HW237134   2.349   0.240   2.625  0.9087 -2.4545 -0.4746
 8501SOL     OW37135   0.946   4.332   4.302  0.0232  0.1327  0.1465
 8501SOL    HW137136   0.910   4.270   4.366 -1.3344  0.0803 -0.6718
 8501SOL    HW237137   0.938   4.277   4.224  3.2131 -2.3888  1.5749
 8502SOL     OW37138   0.824   2.042  11.188  0.2215 -0.0146  0.7475
 8502SOL    HW137139   0.877   2.085  11.255  0.3314  0.3236  0.4386
 8502SOL    HW237140   0.750   2.011  11.240 -1.6926  0.8251 -1.5208
 8503SOL     OW37141   1.958   2.867   2.503  0.2876  0.0163 -0.3094
 8503SOL    HW137142   1.913   2.788   2.531  0.4579 -0.3914 -1.2111
 8503SOL    HW237143   2.044   2.854   2.543 -0.7136  1.8481  2.4832
 8504SOL     OW37144   2.423   3.217   9.465  0.2199 -0.4556  0.0187
 8504SOL    HW137145   2.361   3.189   9.532  1.3588 -0.5560  1.0212
 8504SOL    HW237146   2.385   3.172   9.389  2.2116 -0.5130 -0.9463
 8505SOL     OW37147   2.461   3.644   2.772  0.0364 -0.3263  0.5791
 8505SOL    HW137148   2.506   3.562   2.794 -3.3368 -1.1020  4.4878
 8505SOL    HW237149   2.424   3.627   2.685  2.7066  1.2299 -0.8607
 8506SOL     OW37150   1.607   0.001   7.842  0.1171  0.4306 -0.4799
 8506SOL    HW137151   1.559   4.655   7.863  0.3988  0.2107 -0.6856
 8506SOL    HW237152   1.657   0.019   7.921  0.9331 -1.2124 -0.6238
 8507SOL     OW37153   0.353   0.334  16.779 -0.3742 -0.0116  0.1231
 8507SOL    HW137154   0.425   0.383  16.739 -1.2425  0.1832 -1.1963
 8507SOL    HW237155   0.273   0.353  16.732 -0.8714 -0.6533  0.7097
 8508SOL     OW37156   1.757   3.090   2.788  0.4778 -0.3656  0.1130
 8508SOL    HW137157   1.754   3.055   2.699  0.2819 -1.3400  0.5068
 8508SOL    HW237158   1.667   3.074   2.816 -0.0980  0.6372 -1.1377
 8509SOL     OW37159   1.805   1.311   7.017 -0.5924  0.1436  0.2392
 8509SOL    HW137160   1.870   1.260   6.969 -0.1991  1.2576 -0.4089
 8509SOL    HW237161   1.781   1.366   6.942  3.0166 -0.1423 -1.1324
 8510SOL     OW37162   0.487   3.693   5.682 -0.1048  0.0069  0.0594
 8510SOL    HW137163   0.465   3.687   5.775  1.0671  0.3604  0.3478
 8510SOL    HW237164   0.468   3.602   5.657 -2.2751  0.5252 -0.2448
 8511SOL     OW37165   1.213   0.989   8.785 -0.4252  0.0222 -0.2647
 8511SOL    HW137166   1.304   1.015   8.801 -0.4674 -0.5547  0.9268
 8511SOL    HW237167   1.221   0.898   8.815 -1.0165  0.0998  0.1234
 8512SOL     OW37168   2.818   2.931  11.362 -0.2731 -0.8010  0.1924
 8512SOL    HW137169   2.820   2.855  11.303 -2.3747 -0.3741 -0.3987
 8512SOL    HW237170   2.901   2.970  11.334 -0.0737 -3.1342 -2.5304
 8513SOL     OW37171   1.396   4.348  13.940  0.0302  0.7193  0.2280
 8513SOL    HW137172   1.405   4.431  13.987 -1.3053  2.7869 -3.1693
 8513SOL    HW237173   1.448   4.292  13.999  0.2847 -1.4987 -2.1191
 8514SOL     OW37174   2.012   1.798  11.676 -0.6010 -0.1381 -0.5919
 8514SOL    HW137175   1.981   1.722  11.627 -2.1576 -1.3047  2.1498
 8514SOL    HW237176   1.987   1.877  11.628  0.1663  1.3359  1.4152
 8515SOL     OW37177   1.313   3.960   7.745 -0.1079 -0.5125 -0.0094
 8515SOL    HW137178   1.361   4.033   7.784 -1.4175  0.0144  0.6032
 8515SOL    HW237179   1.360   3.886   7.785  1.9000  1.4931  1.3447
 8516SOL     OW37180   1.456   4.527   7.971 -0.5621 -0.4911 -0.0652
 8516SOL    HW137181   1.392   4.457   7.957 -2.7789  1.3070  1.0867
 8516SOL    HW237182   1.436   4.567   8.056 -0.4033  0.0799 -0.2917
 8517SOL     OW37183   1.445   1.923   5.002 -0.0444 -0.3452  0.4831
 8517SOL    HW137184   1.404   1.900   5.086  2.0458  0.3767  1.7247
 8517SOL    HW237185   1.368   1.937   4.949 -0.2498 -1.7196  0.4222
 8518SOL     OW37186   3.040   2.568  12.889  0.4319  0.3579  0.1534
 8518SOL    HW137187   3.095   2.496  12.857 -0.7229  0.3167 -1.7366
 8518SOL    HW237188   3.097   2.627  12.939  2.0034 -1.2829  0.2928
 8519SOL     OW37189   0.030   2.040   4.335 -0.3608  0.2527 -0.3917
 8519SOL    HW137190   4.688   2.018   4.283 -0.2723 -0.6731 -0.1218
 8519SOL    HW237191   4.724   2.114   4.381  0.2607 -0.1545  0.8146
 8520SOL     OW37192   1.453   0.893   1.323 -0.0900  0.3445  0.1259
 8520SOL    HW137193   1.385   0.827   1.336 -0.3453  1.1681  2.7652
 8520SOL    HW237194   1.517   0.862   1.387  0.7390 -1.7128 -1.6843
 8521SOL     OW37195   4.610   1.242  14.406  0.4653  0.4388 -0.0186
 8521SOL    HW137196   4.664   1.169  14.374 -0.5805 -0.7133  0.8254
 8521SOL    HW237197   4.540   1.191  14.446 -0.8829  2.3353  0.0312
 8522SOL     OW37198   0.523   0.040   0.268 -0.6019  1.0803 -0.3797
 8522SOL    HW137199   0.583   0.056   0.341  2.2927 -1.6127 -2.1704
 8522SOL    HW237200   0.502   4.682   0.273  0.6656  0.7484 -1.1238
 8523SOL     OW37201   0.366   2.461  16.303  0.2405 -0.5824 -0.3088
 8523SOL    HW137202   0.331   2.462  16.392 -2.0459 -2.3261 -1.1695
 8523SOL    HW237203   0.298   2.512  16.259 -0.3350 -1.3817 -0.3615
 8524SOL     OW37204   0.514   2.983   5.240  0.1772  0.1069 -0.2101
 8524SOL    HW137205   0.577   2.977   5.312  0.6361  0.1431 -0.6147
 8524SOL    HW237206   0.434   2.982   5.293  0.1264 -0.3827 -0.2957
 8525SOL     OW37207   1.554   0.030   2.237  0.4191 -0.2822 -0.2233
 8525SOL    HW137208   1.603   4.689   2.270  0.7739 -0.9572 -2.2918
 8525SOL    HW237209   1.622   0.074   2.185  0.0589  0.5350  0.0024
 8526SOL     OW37210   0.714   4.516   3.508 -0.6129  0.6979 -0.0129
 8526SOL    HW137211   0.627   4.520   3.549 -0.1112  1.5236  0.9782
 8526SOL    HW237212   0.689   4.471   3.427  0.0074  0.5091 -0.0953
 8527SOL     OW37213   3.908   3.122   2.006  0.3128  0.5001  0.6947
 8527SOL    HW137214   3.942   3.192   1.950 -0.0297  0.7366  0.7793
 8527SOL    HW237215   3.895   3.176   2.085  1.0316 -0.3891  1.4118
 8528SOL     OW37216   1.003   4.697   9.379 -0.2307 -0.4260  0.1843
 8528SOL    HW137217   1.034   0.008   9.301  1.6367 -3.0670 -0.6488
 8528SOL    HW237218   1.063   0.007   9.439  1.5330 -2.7679  0.1499
 8529SOL     OW37219   4.677   1.306   8.081 -0.1436  0.3167 -0.1454
 8529SOL    HW137220   4.684   1.397   8.109  1.0683  0.2915 -0.3664
 8529SOL    HW237221   4.664   1.314   7.987 -1.4139  1.3462  0.1281
 8530SOL     OW37222   1.878   1.118  13.468  0.1539  0.0331  0.3177
 8530SOL    HW137223   1.876   1.111  13.563  0.4576  1.3046  0.4096
 8530SOL    HW237224   1.891   1.212  13.460 -0.9763  0.2296  0.7928
 8531SOL     OW37225   1.236   1.094   8.511 -0.2275  0.7223 -0.2566
 8531SOL    HW137226   1.227   1.072   8.604  0.1300 -0.1396 -0.4266
 8531SOL    HW237227   1.330   1.076   8.509 -0.2383  0.5341  0.6902
 8532SOL     OW37228   2.057   0.034   1.634  0.1881  0.0194  0.4386
 8532SOL    HW137229   2.083   4.690   1.682  1.0232 -0.9315 -1.5627
 8532SOL    HW237230   1.976   0.009   1.588  0.3015 -1.9917  1.3462
 8533SOL     OW37231   4.024   3.412   0.870 -0.3800  0.5643 -0.4900
 8533SOL    HW137232   4.093   3.366   0.917  0.2731  0.2941 -1.7346
 8533SOL    HW237233   4.013   3.360   0.790 -2.4741  0.3538 -0.0578
 8534SOL     OW37234   3.044   3.527   9.687 -0.1593  0.0581 -0.2575
 8534SOL    HW137235   2.969   3.573   9.726 -0.9822 -0.5718 -1.0944
 8534SOL    HW237236   3.100   3.527   9.765 -1.1483 -0.1973  0.4635
 8535SOL     OW37237   3.558   2.862   6.332 -0.3700  0.0505 -0.2316
 8535SOL    HW137238   3.516   2.776   6.344 -2.4528  1.0588 -0.1686
 8535SOL    HW237239   3.479   2.915   6.344 -0.4425  0.1523 -1.1824
 8536SOL     OW37240   2.053   0.688   8.989  0.8769 -0.0517 -0.4586
 8536SOL    HW137241   2.041   0.675   8.895 -3.1644  0.9432 -0.0559
 8536SOL    HW237242   1.964   0.702   9.020  0.5812  0.1139 -1.3724
 8537SOL     OW37243   3.533   2.242   2.051 -0.7562 -0.0374  0.1143
 8537SOL    HW137244   3.526   2.295   2.131  0.9531  1.3798 -0.6782
 8537SOL    HW237245   3.511   2.309   1.986  0.8327 -0.8571 -1.2436
 8538SOL     OW37246   3.012   4.196   9.436 -0.1294 -0.1536  0.5468
 8538SOL    HW137247   3.049   4.107   9.437 -2.0570 -0.9720 -2.4765
 8538SOL    HW237248   2.960   4.189   9.516 -0.4280  0.9198  0.4316
 8539SOL     OW37249   2.285   0.110   8.555 -0.3900 -0.3726 -0.1947
 8539SOL    HW137250   2.371   0.074   8.574 -0.1640  0.4696  0.3264
 8539SOL    HW237251   2.231   0.049   8.606  1.6306 -2.0102  0.0119
 8540SOL     OW37252   1.343   0.461   5.757 -0.1805  0.2647 -0.6577
 8540SOL    HW137253   1.266   0.422   5.718 -0.8884  0.2718  0.7191
 8540SOL    HW237254   1.318   0.554   5.751  2.9896  1.0775 -1.2081
 8541SOL     OW37255   4.086   3.296   5.037 -0.0998 -0.2283  0.1859
 8541SOL    HW137256   4.046   3.379   5.014  0.4995 -0.1731 -0.6671
 8541SOL    HW237257   4.168   3.321   5.079  0.6145  0.3216 -1.5534
 8542SOL     OW37258   2.984   1.697   2.226 -0.2947 -0.1244  0.3160
 8542SOL    HW137259   2.949   1.743   2.302 -0.9453  0.1561 -0.1555
 8542SOL    HW237260   3.000   1.618   2.278  1.8065 -0.4172 -0.7417
 8543SOL     OW37261   0.479   0.579   3.132 -0.4325  0.5003  0.6106
 8543SOL    HW137262   0.441   0.518   3.069  0.7928  0.3239  0.0337
 8543SOL    HW237263   0.480   0.535   3.217 -0.5423 -0.7129 -0.0258
 8544SOL     OW37264   3.474   1.615   4.182  0.2652 -0.0319 -0.0197
 8544SOL    HW137265   3.385   1.600   4.149  0.0240  2.4962 -0.4817
 8544SOL    HW237266   3.473   1.699   4.227 -2.1631 -0.0715  0.0295
 8545SOL     OW37267   1.155   4.237   7.610  0.2811  0.2855 -0.1799
 8545SOL    HW137268   1.163   4.230   7.705  1.4821 -0.0368 -0.3053
 8545SOL    HW237269   1.224   4.299   7.586 -0.0210  0.4089 -0.7344
 8546SOL     OW37270   3.861   1.732   6.552 -0.4023 -0.1590  0.0972
 8546SOL    HW137271   3.823   1.807   6.508  0.0947  0.4800  0.7604
 8546SOL    HW237272   3.920   1.694   6.488 -0.9558  2.4228 -1.9200
 8547SOL     OW37273   2.037   3.157   4.608 -0.0864  0.4659 -0.7077
 8547SOL    HW137274   2.083   3.073   4.614  1.7855  1.3206 -2.8492
 8547SOL    HW237275   2.086   3.199   4.538 -0.3459  3.1845  0.7700
 8548SOL     OW37276   2.744   4.191   6.562 -0.3459 -0.9946 -0.2581
 8548SOL    HW137277   2.682   4.158   6.627 -0.7385 -0.5188 -0.3926
 8548SOL    HW237278   2.830   4.184   6.604 -0.4932  2.0543  0.5031
 8549SOL     OW37279   1.023   0.450   0.092 -0.4975 -0.0295 -0.7373
 8549SOL    HW137280   0.954   0.384   0.090  0.2302 -0.7103 -2.5997
 8549SOL    HW237281   1.085   0.405   0.150 -0.9268  0.8719  0.4279
 8550SOL     OW37282   3.302   4.355  12.154  0.3456 -0.7144  0.1692
 8550SOL    HW137283   3.267   4.422  12.213  1.1443  1.3537 -1.6852
 8550SOL    HW237284   3.252   4.277  12.179  0.8306 -1.0418  0.1115
 8551SOL     OW37285   4.693   3.391   2.465 -0.2843  0.3139  0.3989
 8551SOL    HW137286   4.673   3.311   2.515 -2.3404  1.7724  1.9368
 8551SOL    HW237287   0.050   3.399   2.490 -0.9396  2.0164  2.3038
 8552SOL     OW37288   0.691   1.038   7.663  0.0226  0.4293  0.2887
 8552SOL    HW137289   0.775   1.005   7.631  0.2279  0.1822  1.0661
 8552SOL    HW237290   0.648   1.079   7.588  1.2543  0.9098 -0.1611
 8553SOL     OW37291   0.445   3.126   2.617  0.1984  0.6166  0.0210
 8553SOL    HW137292   0.504   3.163   2.552 -1.7063  1.7685 -1.0647
 8553SOL    HW237293   0.414   3.047   2.573  2.1970  0.4530 -1.0709
 8554SOL     OW37294   3.638   0.986   4.263  0.0875 -0.0932 -0.1049
 8554SOL    HW137295   3.677   1.009   4.348  0.8136 -2.7603  0.2800
 8554SOL    HW237296   3.561   1.043   4.271  0.6894  0.7027  0.1136
 8555SOL     OW37297   1.637   4.511   8.891  0.2771  0.0607  0.2315
 8555SOL    HW137298   1.606   4.602   8.895 -1.0792 -0.4306  0.9746
 8555SOL    HW237299   1.569   4.459   8.933  0.6154 -0.4844  0.0955
 8556SOL     OW37300   2.201   2.047   4.918 -0.2479  0.2843  0.2875
 8556SOL    HW137301   2.229   1.989   4.848  0.5479  0.4264  0.4921
 8556SOL    HW237302   2.186   1.987   4.991  2.1366 -1.9410 -1.0701
 8557SOL     OW37303   4.008   2.170   9.349  0.1703  0.2045 -0.2337
 8557SOL    HW137304   4.085   2.141   9.301  2.4798  3.0050  1.7244
 8557SOL    HW237305   3.990   2.099   9.411  1.7429  0.5340  0.6099
 8558SOL     OW37306   2.729   1.635   8.564 -0.3472  0.2985  0.0553
 8558SOL    HW137307   2.726   1.729   8.580 -0.4931  0.6576 -2.0119
 8558SOL    HW237308   2.637   1.613   8.551 -0.3294  0.8094 -0.9095
 8559SOL     OW37309   2.610   0.093   7.025 -0.0694 -0.1261  0.2905
 8559SOL    HW137310   2.646   0.110   6.938  0.5324 -0.6248  0.4399
 8559SOL    HW237311   2.520   0.111   6.997  0.5010 -0.1830 -1.5895
 8560SOL     OW37312   3.570   2.366   3.730 -0.3771 -0.4570 -0.1636
 8560SOL    HW137313   3.501   2.356   3.797  1.2726  0.2422  1.6360
 8560SOL    HW237314   3.648   2.349   3.783 -0.6089  4.1820  1.6704
 8561SOL     OW37315   3.861   2.203   7.154  0.4153 -0.1098 -0.0068
 8561SOL    HW137316   3.954   2.185   7.142  0.3289 -0.3999 -0.2454
 8561SOL    HW237317   3.855   2.248   7.070  0.0199 -1.3942 -0.6815
 8562SOL     OW37318   3.248   0.203   1.000 -0.0908  0.9277 -0.0753
 8562SOL    HW137319   3.197   0.197   0.919 -0.9952  1.6242  0.4419
 8562SOL    HW237320   3.187   0.250   1.057 -0.8059  0.6590 -0.6110
 8563SOL     OW37321   1.256   0.679   6.234  0.1505 -0.2234 -0.0318
 8563SOL    HW137322   1.286   0.638   6.153  1.2124 -1.1129  0.8131
 8563SOL    HW237323   1.333   0.737   6.237  1.0146 -1.4541  1.3278
 8564SOL     OW37324   4.332   1.225   3.765 -0.2536  0.2652 -0.2123
 8564SOL    HW137325   4.378   1.267   3.837  1.4296  0.8862 -1.6579
 8564SOL    HW237326   4.239   1.237   3.785 -0.0378 -0.3185  1.1229
 8565SOL     OW37327   2.337   0.741   8.395 -0.2789  0.6979  0.0769
 8565SOL    HW137328   2.387   0.701   8.466 -0.8277 -0.9331 -0.4516
 8565SOL    HW237329   2.403   0.769   8.331  0.5093  0.4147  0.7711
 8566SOL     OW37330   3.874   0.213   3.963 -0.3007  0.2724  0.1423
 8566SOL    HW137331   3.877   0.120   3.985  0.0625  0.3517  0.4309
 8566SOL    HW237332   3.850   0.198   3.872  2.1472 -0.1173 -0.4301
 8567SOL     OW37333   1.221   2.652   1.764  0.3396 -0.1143  0.0261
 8567SOL    HW137334   1.217   2.741   1.800 -2.2245 -0.0600 -0.4038
 8567SOL    HW237335   1.150   2.648   1.700  0.1001  3.6668  0.0144
 8568SOL     OW37336   3.874   4.701   5.682  0.3969  0.0982 -0.4098
 8568SOL    HW137337   3.880   4.655   5.598 -0.9460  1.3229 -1.1651
 8568SOL    HW237338   3.925   0.046   5.674  2.6336 -1.1151  1.5933
 8569SOL     OW37339   0.781   1.932   1.375 -0.3209 -0.3321 -0.5626
 8569SOL    HW137340   0.843   1.880   1.323  0.9917  1.4492 -0.7465
 8569SOL    HW237341   0.730   1.862   1.416 -0.0441 -0.6429 -0.7419
 8570SOL     OW37342   2.738   1.295   8.317 -0.3582 -0.0265 -1.2325
 8570SOL    HW137343   2.669   1.318   8.254 -1.1226  1.5973  0.2273
 8570SOL    HW237344   2.698   1.300   8.404 -0.8417  1.3454 -1.5417
 8571SOL     OW37345   1.788   4.160   8.263 -0.2405 -0.0902 -0.5185
 8571SOL    HW137346   1.836   4.188   8.185 -0.5836  0.6104 -0.4724
 8571SOL    HW237347   1.855   4.133   8.325 -1.5136  0.8926  1.2830
 8572SOL     OW37348   3.045   0.569   2.426  0.1421  0.5341  0.1327
 8572SOL    HW137349   3.135   0.600   2.427  0.3341 -0.0477  1.1798
 8572SOL    HW237350   3.002   0.636   2.374  1.2389  1.0511 -0.0945
 8573SOL     OW37351   2.951   1.088   1.541 -0.1135  0.4717  0.6892
 8573SOL    HW137352   3.045   1.074   1.555 -0.3358 -0.3302  1.4002
 8573SOL    HW237353   2.936   1.026   1.470  1.4985  0.1526  0.6115
 8574SOL     OW37354   2.026   4.062  10.888 -0.3211 -0.4776 -0.0643
 8574SOL    HW137355   2.082   4.139  10.899  1.2030 -0.9444 -4.5458
 8574SOL    HW237356   2.096   4.002  10.913  0.7455  0.8687  0.1860
 8575SOL     OW37357   3.318   2.645   8.633  0.2371 -0.0501 -0.0217
 8575SOL    HW137358   3.339   2.724   8.583 -0.9333  0.6210  0.5335
 8575SOL    HW237359   3.390   2.586   8.610 -0.2385 -0.3077 -0.8404
 8576SOL     OW37360   3.650   4.396  12.458  0.5577 -0.5636 -0.3040
 8576SOL    HW137361   3.609   4.404  12.372  1.8855  4.4664 -0.4678
 8576SOL    HW237362   3.713   4.468  12.461 -0.6784  0.4425  1.0825
 8577SOL     OW37363   4.025   1.553   3.126 -0.1545 -0.5123 -0.1387
 8577SOL    HW137364   4.105   1.543   3.179  0.6546  2.0105 -0.8999
 8577SOL    HW237365   3.952   1.558   3.187 -0.9738  1.0850 -1.2520
 8578SOL     OW37366   3.680   1.102   8.122 -0.3195  0.1438 -0.7141
 8578SOL    HW137367   3.679   1.176   8.182  0.3930  0.3622 -0.9732
 8578SOL    HW237368   3.774   1.099   8.101 -0.0319  1.3079  0.4104
 8579SOL     OW37369   2.307   4.686   9.084 -0.2863  0.4230 -0.3912
 8579SOL    HW137370   2.221   4.700   9.124 -0.4290 -0.9541 -0.2216
 8579SOL    HW237371   2.358   4.679   9.164 -2.1255  2.2202  0.9456
 8580SOL     OW37372   1.601   2.111   9.899 -0.1423 -0.3546  0.1464
 8580SOL    HW137373   1.629   2.039   9.955  0.6308 -0.9458 -0.9862
 8580SOL    HW237374   1.687   2.152   9.890 -1.1500  1.1441 -2.5061
 8581SOL     OW37375   2.730   3.442   7.794  0.3463 -0.4129 -0.1141
 8581SOL    HW137376   2.760   3.427   7.704  0.7713 -0.0290 -0.0351
 8581SOL    HW237377   2.659   3.378   7.804 -1.1436  0.9013 -2.2644
 8582SOL     OW37378   1.750   1.659   5.482 -0.3556  0.3373 -0.3665
 8582SOL    HW137379   1.803   1.611   5.418  0.8446  1.4722 -0.2049
 8582SOL    HW237380   1.698   1.594   5.530  0.3909 -0.0693 -0.1120
 8583SOL     OW37381   1.887   1.380   5.081 -0.3373  0.2663 -0.1068
 8583SOL    HW137382   1.934   1.416   5.006  1.7474 -1.4007  0.3715
 8583SOL    HW237383   1.800   1.377   5.043 -0.0781  0.2157 -0.6973
 8584SOL     OW37384   0.350   3.042   3.352  0.3203 -0.3238 -0.5959
 8584SOL    HW137385   0.269   3.014   3.394  0.7529 -1.6329 -0.6031
 8584SOL    HW237386   0.365   2.957   3.310 -0.0874  0.1263 -1.6461
 8585SOL     OW37387   0.960   3.232   8.901 -0.1009  0.2150 -0.1562
 8585SOL    HW137388   0.907   3.311   8.893  0.2006  0.1908 -2.4820
 8585SOL    HW237389   0.943   3.199   8.813 -0.4308  1.7538 -0.6723
 8586SOL     OW37390   4.561   1.234   6.167  0.2508 -0.0290  0.5719
 8586SOL    HW137391   4.493   1.167   6.162 -0.6084  0.8918 -0.0890
 8586SOL    HW237392   4.514   1.317   6.176 -0.8366 -0.4036 -1.5354
 8587SOL     OW37393   1.644   0.998   3.840 -0.0554 -0.0791 -0.6326
 8587SOL    HW137394   1.599   0.930   3.892 -0.9230  1.2844  0.4111
 8587SOL    HW237395   1.639   0.955   3.754 -0.3646 -1.7914  0.2285
 8588SOL     OW37396   0.574   1.930   5.839  0.1385  0.0390  0.0730
 8588SOL    HW137397   0.479   1.919   5.844  0.2512 -1.2587 -0.8510
 8588SOL    HW237398   0.580   2.006   5.897  1.5315 -0.4493  0.5665
 8589SOL     OW37399   2.587   2.572   2.312  0.1761  0.0258 -0.6659
 8589SOL    HW137400   2.660   2.619   2.273  0.7772  0.3501  0.8291
 8589SOL    HW237401   2.607   2.581   2.406  2.2317 -2.0561 -0.9202
 8590SOL     OW37402   1.633   4.606   3.834  0.3232  0.2496  1.0393
 8590SOL    HW137403   1.596   4.529   3.876 -1.1343 -0.1806 -1.0545
 8590SOL    HW237404   1.652   4.669   3.904  1.2317  1.0906  0.0393
 8591SOL     OW37405   2.081   2.853   4.989  0.0195 -0.3141  0.2104
 8591SOL    HW137406   2.128   2.826   5.068  1.2648 -2.4776 -1.2484
 8591SOL    HW237407   2.037   2.769   4.975 -2.2734  0.6122  1.8676
 8592SOL     OW37408   4.590   4.080   7.145 -0.5759 -0.3589 -0.2586
 8592SOL    HW137409   4.511   4.128   7.121 -0.1339  2.6190  4.1364
 8592SOL    HW237410   4.575   3.991   7.115 -2.2020 -0.5254  1.0782
 8593SOL     OW37411   0.587   0.150  10.983 -0.2188 -0.4006 -0.0875
 8593SOL    HW137412   0.650   0.168  10.914  0.8234 -2.2640  0.3608
 8593SOL    HW237413   0.512   0.129  10.928 -0.9783 -2.8275  1.8615
 8594SOL     OW37414   3.696   1.613   1.413  0.0372 -0.6741 -0.0547
 8594SOL    HW137415   3.630   1.614   1.482  0.7414  1.1147  0.6075
 8594SOL    HW237416   3.714   1.519   1.409  0.3328 -0.6236  0.1012
 8595SOL     OW37417   2.891   0.216   9.274 -0.5342 -0.1048  0.0720
 8595SOL    HW137418   2.896   0.301   9.319  0.9664  0.6416 -1.5241
 8595SOL    HW237419   2.843   0.228   9.192 -1.3245 -0.6777  0.4515
 8596SOL     OW37420   3.863   4.105   4.637 -0.1204 -0.4294  0.0731
 8596SOL    HW137421   3.772   4.115   4.667  0.0005 -2.4625  1.1007
 8596SOL    HW237422   3.845   4.043   4.567 -0.2578 -1.6706  1.2120
 8597SOL     OW37423   3.832   3.767   2.988  0.3882 -0.5817 -0.5136
 8597SOL    HW137424   3.799   3.696   3.043  0.5988 -0.4675 -0.2395
 8597SOL    HW237425   3.780   3.754   2.909  0.9633  1.7656 -1.2657
 8598SOL     OW37426   2.764   1.767   4.732 -0.1138 -0.0123 -0.0444
 8598SOL    HW137427   2.682   1.785   4.777  0.9432 -1.7318  2.5454
 8598SOL    HW237428   2.778   1.842   4.673  0.9788  1.7222  2.4364
 8599SOL     OW37429   0.014   2.539   7.886  0.4154  0.3646 -0.2012
 8599SOL    HW137430   4.725   2.466   7.830 -2.0869  0.4622  0.7113
 8599SOL    HW237431   0.019   2.490   7.968 -2.1689 -0.8375 -0.7590
 8600SOL     OW37432   1.066   0.221   3.144 -0.2057  0.5057  0.4044
 8600SOL    HW137433   1.136   0.268   3.189  0.9060 -1.5422  0.8575
 8600SOL    HW237434   1.050   0.281   3.072 -0.8095  1.5730  1.4263
 8601SOL     OW37435   1.509   1.412  11.865  0.1080  0.4619 -0.1939
 8601SOL    HW137436   1.582   1.351  11.879 -2.0113 -1.7245  1.4607
 8601SOL    HW237437   1.556   1.493  11.849  0.1666  0.6065  0.7069
 8602SOL     OW37438   1.669   2.834   8.074  0.7641 -0.3530 -0.0695
 8602SOL    HW137439   1.662   2.825   8.169  0.6721  1.0480  0.0434
 8602SOL    HW237440   1.722   2.912   8.060 -0.9932  0.8898  0.2520
 8603SOL     OW37441   2.705   0.086   1.717  0.1377 -0.0149 -0.4994
 8603SOL    HW137442   2.672   0.118   1.633  1.3235 -2.3949 -1.8717
 8603SOL    HW237443   2.799   0.077   1.702  0.0740 -3.3978  1.0391
 8604SOL     OW37444   4.432   3.043   4.088  0.3907 -0.4153  0.2628
 8604SOL    HW137445   4.514   3.010   4.051 -0.9801 -0.9201 -2.3598
 8604SOL    HW237446   4.451   3.132   4.120 -1.1916 -0.0724  0.2301
 8605SOL     OW37447   4.164   1.848  15.203 -0.0577  0.0849  0.0377
 8605SOL    HW137448   4.150   1.884  15.116 -0.5465 -0.4131 -0.0949
 8605SOL    HW237449   4.146   1.755  15.188 -2.9018  0.6718 -0.1714
 8606SOL     OW37450   1.170   3.601   9.814 -0.7180 -0.0588 -0.4455
 8606SOL    HW137451   1.259   3.618   9.847 -0.0189 -1.3876 -1.6136
 8606SOL    HW237452   1.191   3.524   9.761  2.8854  3.1377 -3.7486
 8607SOL     OW37453   4.564   1.275   2.402  0.3822 -0.6787  0.5809
 8607SOL    HW137454   4.553   1.251   2.310  0.3379  1.4044  0.0487
 8607SOL    HW237455   4.490   1.228   2.440 -2.2604  0.1578 -3.5786
 8608SOL     OW37456   0.180   2.405   5.075  0.4544  0.5087  0.0676
 8608SOL    HW137457   0.247   2.342   5.104  0.4900  0.3096 -0.4591
 8608SOL    HW237458   0.233   2.449   5.008 -0.0443  2.1164  0.7127
 8609SOL     OW37459   4.167   2.393  17.204 -1.0334 -0.3609 -0.3806
 8609SOL    HW137460   4.204   2.481  17.196 -1.9146 -0.1524 -2.1374
 8609SOL    HW237461   4.124   2.380  17.119  0.4870 -0.4139 -1.1444
 8610SOL     OW37462   2.180   0.882  11.791  0.7911  0.1013 -0.3627
 8610SOL    HW137463   2.196   0.971  11.759 -0.3992  1.1291  1.9005
 8610SOL    HW237464   2.166   0.895  11.885  2.4646 -1.3035  0.0840
 8611SOL     OW37465   4.111   2.667   9.435 -0.1976  0.3022  0.4900
 8611SOL    HW137466   4.087   2.589   9.486 -1.7204  0.7692  0.4750
 8611SOL    HW237467   4.152   2.727   9.497  4.0639 -2.4485  0.3674
 8612SOL     OW37468   2.259   1.999   3.633  0.3251 -0.3132  1.1343
 8612SOL    HW137469   2.253   1.948   3.713 -1.9370 -2.2929 -0.3134
 8612SOL    HW237470   2.286   2.082   3.672  1.9575  0.8252 -2.3325
 8613SOL     OW37471   3.930   3.473   6.260 -0.0975  0.7187 -0.0963
 8613SOL    HW137472   3.896   3.385   6.247 -2.4524  1.3635  1.6273
 8613SOL    HW237473   4.012   3.473   6.211 -1.1720  1.7883 -1.8868
 8614SOL     OW37474   2.342   3.701   3.137  0.6973 -0.0369 -0.0131
 8614SOL    HW137475   2.384   3.704   3.051 -1.6847  0.7253 -1.1434
 8614SOL    HW237476   2.348   3.606   3.147  0.0137  0.1368  2.0225
 8615SOL     OW37477   4.649   4.584  13.899 -0.2589 -0.0107  0.5767
 8615SOL    HW137478   4.725   4.540  13.861  1.3333  1.2052  2.3572
 8615SOL    HW237479   4.626   4.502  13.943 -0.0467 -0.8030 -0.7825
 8616SOL     OW37480   3.984   3.678  13.924  0.1679  0.2863  0.0917
 8616SOL    HW137481   3.938   3.758  13.949 -0.8285  0.0999 -1.1685
 8616SOL    HW237482   3.960   3.614  13.991  0.0144 -2.0671 -2.2535
 8617SOL     OW37483   0.583   3.135  12.859 -0.0264  0.5312  0.2345
 8617SOL    HW137484   0.651   3.143  12.926  2.1007  0.5443 -1.8919
 8617SOL    HW237485   0.530   3.215  12.855  0.0095  0.6131  1.5848
 8618SOL     OW37486   3.570   2.068   7.579 -0.1439 -0.2284  0.2268
 8618SOL    HW137487   3.530   2.001   7.524 -0.5552  1.7630 -1.8896
 8618SOL    HW237488   3.614   2.130   7.521 -0.3319  0.0076  0.3385
 8619SOL     OW37489   3.305   1.975  17.280 -0.5279 -0.1206  0.4914
 8619SOL    HW137490   3.350   1.903  17.323 -2.0142 -1.5615 -0.3729
 8619SOL    HW237491   3.240   1.998  17.346 -1.8769  1.3165 -1.3230
 8620SOL     OW37492   2.080   4.315   3.918  0.9508 -0.0628 -0.1567
 8620SOL    HW137493   2.161   4.306   3.969 -0.0081 -1.0897  1.1836
 8620SOL    HW237494   2.051   4.226   3.900 -0.7754  0.7584 -1.3516
 8621SOL     OW37495   4.619   1.475   4.004 -0.5338  0.3780 -0.3077
 8621SOL    HW137496   4.693   1.416   3.991  1.3271  2.7541 -0.2859
 8621SOL    HW237497   4.591   1.483   3.913  4.2747 -0.2553 -1.8358
 8622SOL     OW37498   4.246   0.435   7.947 -0.1730 -0.3890  0.0067
 8622SOL    HW137499   4.171   0.487   7.916  1.8124  0.7993 -2.7473
 8622SOL    HW237500   4.231   0.349   7.909 -0.1853 -1.2641  1.9762
 8623SOL     OW37501   3.659   1.823   7.186 -0.2708 -0.9501  0.2731
 8623SOL    HW137502   3.638   1.748   7.241 -2.8369 -1.2408 -1.0957
 8623SOL    HW237503   3.751   1.841   7.204 -0.4326  0.6655 -0.5088
 8624SOL     OW37504   3.482   4.305   6.112  0.6589  0.4222 -0.4459
 8624SOL    HW137505   3.424   4.255   6.055 -0.7335  2.7491 -1.0988
 8624SOL    HW237506   3.524   4.373   6.060 -0.0104  0.0548 -1.4629
 8625SOL     OW37507   0.816   2.752   2.855  0.7077  0.0929 -0.3767
 8625SOL    HW137508   0.795   2.754   2.949  0.0467 -1.1985 -0.4976
 8625SOL    HW237509   0.866   2.670   2.848  0.2506 -0.0678 -1.8378
 8626SOL     OW37510   0.821   1.937   6.590  0.1319 -0.2082  0.0761
 8626SOL    HW137511   0.856   1.855   6.556 -1.0760 -1.4609  1.8575
 8626SOL    HW237512   0.733   1.930   6.553  0.9885 -0.9176 -1.8193
 8627SOL     OW37513   4.276   1.555  11.889 -0.0888  0.3798  1.1408
 8627SOL    HW137514   4.191   1.513  11.903 -0.8499  1.3797 -0.3333
 8627SOL    HW237515   4.335   1.486  11.860 -1.4939 -0.1515 -0.5041
 8628SOL     OW37516   0.068   3.163   6.822 -0.0196 -0.0640 -0.6990
 8628SOL    HW137517   0.116   3.246   6.819  0.8609 -0.5443  0.1002
 8628SOL    HW237518   0.094   3.125   6.906 -1.4726  0.1426 -0.1622
 8629SOL     OW37519   4.698   2.984   2.319  0.0757 -0.1799 -0.0446
 8629SOL    HW137520   4.649   3.066   2.307  1.2206  0.5029 -0.1556
 8629SOL    HW237521   0.041   3.012   2.270 -1.8292 -0.3701 -3.1632
 8630SOL     OW37522   1.773   4.534   5.900  0.3454 -0.6409  0.3507
 8630SOL    HW137523   1.790   4.512   5.808  1.0038  0.4146  0.2182
 8630SOL    HW237524   1.828   4.468   5.944  1.7750  1.8443  2.2888
 8631SOL     OW37525   1.016   0.413   4.944  0.1150 -0.0789 -0.4091
 8631SOL    HW137526   1.045   0.349   4.879 -1.5131 -1.6164  0.3636
 8631SOL    HW237527   1.100   0.456   4.959 -0.0873  0.5883 -1.2151
 8632SOL     OW37528   1.369   1.573   9.885 -0.1723 -0.3231 -0.2135
 8632SOL    HW137529   1.432   1.633   9.846 -0.6130  0.3661  0.1362
 8632SOL    HW237530   1.291   1.627   9.896 -0.9721 -1.4302 -0.4567
 8633SOL     OW37531   1.163   2.243  14.986 -0.3305  0.6085  0.3717
 8633SOL    HW137532   1.183   2.185  15.059  3.3588 -0.9268 -1.8546
 8633SOL    HW237533   1.071   2.245  15.010 -0.2243 -0.7314  0.8670
 8634SOL     OW37534   0.288   3.676   5.085 -0.7486  0.1099  0.5176
 8634SOL    HW137535   0.269   3.739   5.154 -1.1215  1.8411 -1.1669
 8634SOL    HW237536   0.359   3.624   5.122 -0.5210  2.0740  2.8731
 8635SOL     OW37537   2.311   0.390   9.802 -0.5242 -0.1682  0.0212
 8635SOL    HW137538   2.333   0.336   9.726 -2.4899 -0.1950 -0.5242
 8635SOL    HW237539   2.390   0.444   9.802 -0.2551 -0.5655 -0.3053
 8636SOL     OW37540   1.239   1.862   4.170  0.4277 -0.2431  0.0915
 8636SOL    HW137541   1.303   1.912   4.221  2.1541 -2.0893 -0.2441
 8636SOL    HW237542   1.220   1.922   4.098 -1.4486 -1.0990 -0.1236
 8637SOL     OW37543   2.455   1.428   4.795  0.0053  0.3909  0.0001
 8637SOL    HW137544   2.489   1.488   4.861 -1.2208  0.4207  0.6073
 8637SOL    HW237545   2.364   1.457   4.797 -0.5293 -1.3098  0.4477
 8638SOL     OW37546   1.358   1.587   5.608  0.9489 -0.5740  0.0021
 8638SOL    HW137547   1.434   1.585   5.667  0.9359 -0.4008  0.0231
 8638SOL    HW237548   1.341   1.494   5.595  1.2537 -0.6125 -0.1226
 8639SOL     OW37549   0.968   3.510   3.467 -0.2483 -0.3805  0.6661
 8639SOL    HW137550   0.907   3.465   3.408 -0.4099  0.3900  0.2452
 8639SOL    HW237551   1.035   3.530   3.402 -0.2758  3.1685  1.7536
 8640SOL     OW37552   0.116   0.820   7.352 -0.2440 -0.0070 -0.3774
 8640SOL    HW137553   0.090   0.793   7.440 -1.7518 -0.7713 -1.0621
 8640SOL    HW237554   0.041   0.861   7.311 -1.6852 -2.2325  0.0544
 8641SOL     OW37555   3.999   0.768  11.734  0.2554 -0.3335  0.1047
 8641SOL    HW137556   4.050   0.838  11.693 -1.2349  1.3030  1.0154
 8641SOL    HW237557   3.908   0.793  11.715  0.9117  2.4731  0.6297
 8642SOL     OW37558   3.959   3.757   3.344  0.1435 -0.1413 -0.5657
 8642SOL    HW137559   4.018   3.803   3.283  0.1807  2.0746  1.1429
 8642SOL    HW237560   3.955   3.828   3.408  3.3851 -1.3259  0.9651
 8643SOL     OW37561   3.837   4.286   2.707  0.2325 -0.1439  0.3688
 8643SOL    HW137562   3.916   4.260   2.755  0.1648 -1.8975 -0.4521
 8643SOL    HW237563   3.876   4.305   2.621  0.1643  0.5457  0.4946
 8644SOL     OW37564   1.594   0.900  15.426  0.4879  0.0356 -0.1243
 8644SOL    HW137565   1.521   0.962  15.420 -0.0068 -0.3794  1.6330
 8644SOL    HW237566   1.657   0.948  15.480  1.4187  0.1744 -1.3236
 8645SOL     OW37567   2.315   1.299  13.226  0.1112 -0.0942  0.0753
 8645SOL    HW137568   2.223   1.280  13.244  0.0417 -1.2649 -1.4996
 8645SOL    HW237569   2.338   1.236  13.158 -2.6416  1.6044 -2.4423
 8646SOL     OW37570   2.149   0.799   5.513 -0.4458 -0.0265  0.3124
 8646SOL    HW137571   2.088   0.864   5.549 -0.5041 -0.7662  1.5685
 8646SOL    HW237572   2.221   0.856   5.487  0.7532 -0.9991  1.4852
 8647SOL     OW37573   1.817   4.501   4.957  0.1571  0.4005  0.2387
 8647SOL    HW137574   1.873   4.512   5.034  1.1342  1.3489 -0.6186
 8647SOL    HW237575   1.738   4.545   4.991  1.1899  1.7816  0.8599
 8648SOL     OW37576   1.350   1.439  16.415 -0.3473  0.0322  0.4003
 8648SOL    HW137577   1.306   1.480  16.340  0.4351  0.1335 -0.0007
 8648SOL    HW237578   1.440   1.469  16.409  0.6669 -3.1945 -0.4208
 8649SOL     OW37579   4.222   0.519  14.683  0.4255  0.0822 -0.3539
 8649SOL    HW137580   4.242   0.612  14.690  1.2097 -0.1981  1.2175
 8649SOL    HW237581   4.133   0.515  14.647 -0.4632  2.0241  1.6384
 8650SOL     OW37582   0.761   3.136   5.451  0.4173  0.0578 -0.5944
 8650SOL    HW137583   0.747   3.170   5.540 -0.4115 -1.5313 -0.1173
 8650SOL    HW237584   0.724   3.049   5.467 -1.3220  1.0821  1.0166
 8651SOL     OW37585   3.693   1.381   2.739  0.1689  0.1240 -0.1511
 8651SOL    HW137586   3.759   1.371   2.809 -0.4681 -2.4899  0.0721
 8651SOL    HW237587   3.703   1.474   2.721 -0.0154  0.0279 -0.7304
 8652SOL     OW37588   2.928   1.760   3.420  0.7058  0.0600  0.7083
 8652SOL    HW137589   2.869   1.695   3.457 -0.2589  0.7475  0.3892
 8652SOL    HW237590   2.873   1.816   3.365  0.8119 -0.3112  0.2246
 8653SOL     OW37591   4.432   3.545   1.536  0.0357 -0.1450 -0.1752
 8653SOL    HW137592   4.443   3.611   1.604 -0.1126 -0.9329  0.6259
 8653SOL    HW237593   4.403   3.606   1.469  0.1523  0.6040  0.4612
 8654SOL     OW37594   1.453   4.440   8.639 -0.2659  0.0121  0.3911
 8654SOL    HW137595   1.496   4.425   8.724  0.6893  1.3277  0.1386
 8654SOL    HW237596   1.454   4.351   8.605 -0.2190 -0.1780  0.8922
 8655SOL     OW37597   0.975   0.471  17.292 -0.1932 -0.1184 -0.4313
 8655SOL    HW137598   0.994   0.467  17.386 -0.8573  0.1170 -0.2850
 8655SOL    HW237599   0.961   0.565  17.285 -2.1933 -0.5032 -1.6427
 8656SOL     OW37600   2.357   3.548   4.987 -0.0454  0.3703  0.3586
 8656SOL    HW137601   2.371   3.523   5.078  2.3671 -0.9651 -0.3734
 8656SOL    HW237602   2.285   3.491   4.959 -0.2495  0.7132  0.1740
 8657SOL     OW37603   4.258   1.874   4.308  0.0343  0.4358  0.0338
 8657SOL    HW137604   4.270   1.780   4.320 -4.1912 -0.3253 -1.9351
 8657SOL    HW237605   4.244   1.907   4.397  0.9765  0.9437 -0.0036
 8658SOL     OW37606   1.723   1.347  14.455 -0.6007 -0.1785 -0.4833
 8658SOL    HW137607   1.667   1.332  14.378 -3.2671 -1.3215  1.6625
 8658SOL    HW237608   1.665   1.306  14.519  0.3645 -2.3325 -0.9860
 8659SOL     OW37609   1.882   3.956   0.485  0.2957 -0.1423 -0.0091
 8659SOL    HW137610   1.970   3.970   0.519  0.2767  1.1619 -0.5166
 8659SOL    HW237611   1.889   4.018   0.413  0.8480  1.5827  1.5293
 8660SOL     OW37612   1.873   2.559   6.008 -0.1637  0.4997 -0.6218
 8660SOL    HW137613   1.951   2.575   5.954  1.2355 -2.2266  0.5462
 8660SOL    HW237614   1.853   2.469   5.980 -0.5078  0.5891 -0.6603
 8661SOL     OW37615   0.968   4.328   7.959 -0.3157  1.1746 -0.7266
 8661SOL    HW137616   0.934   4.396   7.901 -1.3133 -0.6087 -2.2370
 8661SOL    HW237617   0.918   4.252   7.928 -0.1896  0.4945  0.7424
 8662SOL     OW37618   2.407   4.442   7.589  0.2445 -0.1162 -0.5921
 8662SOL    HW137619   2.489   4.466   7.545  1.2458  0.0918  1.3955
 8662SOL    HW237620   2.338   4.489   7.543  0.0479 -0.5086 -0.6992
 8663SOL     OW37621   3.907   3.986  13.160 -0.9497  0.3024  0.5511
 8663SOL    HW137622   3.854   4.062  13.184 -0.5409  0.8486 -0.2836
 8663SOL    HW237623   3.995   4.021  13.145 -1.6272  0.6385 -2.6674
 8664SOL     OW37624   3.562   2.800   2.940 -0.1791  0.5267 -0.7056
 8664SOL    HW137625   3.591   2.717   2.904 -1.4001 -0.1045 -0.2007
 8664SOL    HW237626   3.581   2.863   2.870 -2.0685  0.9686 -0.8274
 8665SOL     OW37627   3.677   4.001   0.627  0.0519 -0.0023 -0.0276
 8665SOL    HW137628   3.587   4.019   0.600  0.1399  1.0306  0.3685
 8665SOL    HW237629   3.687   3.909   0.605 -1.6982 -0.0473 -0.6335
 8666SOL     OW37630   4.585   2.063   9.374  0.1261 -0.9049  0.3139
 8666SOL    HW137631   4.562   2.056   9.466 -2.5839  3.2379 -0.0159
 8666SOL    HW237632   4.551   2.151   9.359  0.2143 -0.9262 -0.0150
 8667SOL     OW37633   3.954   2.635   0.412  0.2958  0.9495 -0.0418
 8667SOL    HW137634   4.027   2.590   0.370 -0.0742 -0.6108  1.0033
 8667SOL    HW237635   3.878   2.619   0.357  0.3223 -0.2007  0.2606
 8668SOL     OW37636   2.951   1.423  15.852 -0.1766  0.1624 -0.0741
 8668SOL    HW137637   2.887   1.459  15.790  1.7837  1.1422 -1.5207
 8668SOL    HW237638   2.915   1.338  15.880 -0.8197  0.1378 -0.9901
 8669SOL     OW37639   1.996   2.035   3.567  0.3523 -0.6548 -0.6283
 8669SOL    HW137640   2.084   2.053   3.600  0.1262 -3.6764  1.5766
 8669SOL    HW237641   1.997   1.946   3.600  0.9851  0.0859  1.3880
 8670SOL     OW37642   4.301   4.408  14.010 -1.1091  0.5457  0.1157
 8670SOL    HW137643   4.282   4.340  13.945  2.2499 -1.3792  1.2058
 8670SOL    HW237644   4.396   4.402  14.007 -1.1926 -0.6251 -0.4759
 8671SOL     OW37645   3.240   1.329   2.776  0.5026  0.3085  0.2867
 8671SOL    HW137646   3.181   1.255   2.782 -0.8985  1.2638 -1.7616
 8671SOL    HW237647   3.191   1.391   2.830  0.7130  0.7500 -0.0211
 8672SOL     OW37648   3.555   3.530   0.195 -0.2380 -0.3846  0.4422
 8672SOL    HW137649   3.539   3.609   0.247 -1.4964  0.2393 -0.9063
 8672SOL    HW237650   3.647   3.538   0.171  0.1956 -3.0181  1.2562
 8673SOL     OW37651   1.196   3.252   7.071  0.5639  0.0657  0.1829
 8673SOL    HW137652   1.250   3.285   6.999 -2.8587  0.7722 -2.0471
 8673SOL    HW237653   1.264   3.197   7.112 -0.2262 -1.6441 -0.8221
 8674SOL     OW37654   3.572   1.602   8.449  0.3990 -0.2737 -0.4451
 8674SOL    HW137655   3.664   1.624   8.464  0.1465 -1.1504  2.4634
 8674SOL    HW237656   3.519   1.663   8.501  1.5726  1.0575 -0.8033
 8675SOL     OW37657   1.278   3.865  17.552  0.6012 -1.1122  0.3346
 8675SOL    HW137658   1.275   3.913  17.469  0.5145 -0.9525  0.4295
 8675SOL    HW237659   1.370   3.842  17.567  0.8606 -1.2536 -1.5291
 8676SOL     OW37660   1.784   4.669   3.412  0.0177 -0.0854 -0.6619
 8676SOL    HW137661   1.698   4.705   3.435  0.8079 -0.1696  2.3353
 8676SOL    HW237662   1.824   4.652   3.497  0.4467  1.0308 -0.6398
 8677SOL     OW37663   3.632   2.218  11.699 -0.4435  0.1671  1.0643
 8677SOL    HW137664   3.566   2.189  11.636  0.0432 -0.4328  0.8299
 8677SOL    HW237665   3.708   2.199  11.644 -1.5732  0.4253 -0.5759
 8678SOL     OW37666   4.128   3.826   3.917  0.3330  0.6879  0.1496
 8678SOL    HW137667   4.127   3.869   4.002  4.0916  1.2018 -0.0571
 8678SOL    HW237668   4.091   3.744   3.949 -2.9204  2.2547  0.3529
 8679SOL     OW37669   1.046   0.042   8.640 -0.3771  0.3704 -0.9892
 8679SOL    HW137670   1.025   4.696   8.594  0.9053 -0.6880  0.2597
 8679SOL    HW237671   0.981   0.039   8.710  0.1627 -0.1015 -0.5040
 8680SOL     OW37672   4.717   0.544   3.547  0.1723  0.0135 -0.2524
 8680SOL    HW137673   4.688   0.475   3.607 -0.8704  0.5711 -0.1279
 8680SOL    HW237674   4.682   0.615   3.601 -1.2992 -1.3117  0.5652
 8681SOL     OW37675   2.744   4.404   9.506  0.3215  1.2969 -0.0604
 8681SOL    HW137676   2.716   4.357   9.428 -0.9744  3.2314 -0.7587
 8681SOL    HW237677   2.817   4.449   9.463  0.7829  0.2564 -0.3794
 8682SOL     OW37678   2.823   2.330   1.382  0.0468 -0.1875 -0.0671
 8682SOL    HW137679   2.857   2.414   1.352  0.7586 -1.1391 -1.8714
 8682SOL    HW237680   2.791   2.360   1.467  1.0001  3.2238 -0.8759
 8683SOL     OW37681   3.848   0.142  12.512 -0.3025  0.1023  0.3579
 8683SOL    HW137682   3.939   0.164  12.530 -0.5556  0.8071  0.7444
 8683SOL    HW237683   3.843   0.149  12.416 -0.2996 -0.1015  0.3421
 8684SOL     OW37684   3.929   4.029   8.697  0.1416  0.4093  0.0040
 8684SOL    HW137685   4.010   4.049   8.650  0.5062 -1.8578 -0.3446
 8684SOL    HW237686   3.910   4.114   8.735  1.4218 -0.2223  2.0900
 8685SOL     OW37687   1.756   0.331   2.772 -0.0643  0.3473  0.5621
 8685SOL    HW137688   1.771   0.426   2.780  1.3933  0.0999  0.8193
 8685SOL    HW237689   1.698   0.313   2.845  0.1658  0.7673  0.8518
 8686SOL     OW37690   1.944   4.534  10.183  0.0499 -0.1001 -0.2492
 8686SOL    HW137691   1.923   4.605  10.122 -2.4318  0.4172  1.2039
 8686SOL    HW237692   1.868   4.476  10.180 -1.2344  1.5937 -0.7934
 8687SOL     OW37693   2.405   1.300   6.823  0.0893 -0.4761  0.5233
 8687SOL    HW137694   2.354   1.365   6.873  0.1144  0.5856 -0.8261
 8687SOL    HW237695   2.418   1.234   6.891  5.3013  1.0462  1.0358
 8688SOL     OW37696   3.322   3.191   8.867 -0.1924 -0.5351  0.0555
 8688SOL    HW137697   3.396   3.215   8.811  1.0463 -1.2399  1.3884
 8688SOL    HW237698   3.267   3.143   8.804 -2.4654 -0.2529  1.8291
 8689SOL     OW37699   1.337   3.338   8.356  0.1616  0.1524 -0.1868
 8689SOL    HW137700   1.378   3.422   8.334  0.3218 -0.5510 -2.5929
 8689SOL    HW237701   1.315   3.317   8.265 -1.7490  2.0611 -0.1906
 8690SOL     OW37702   0.526   2.333  11.244 -0.0246  0.2440 -0.1930
 8690SOL    HW137703   0.572   2.363  11.165 -0.9337 -1.7221 -1.4843
 8690SOL    HW237704   0.604   2.305  11.291  0.6690  0.7161 -1.0626
 8691SOL     OW37705   0.948   4.300  17.616  0.4845  0.0619  0.4129
 8691SOL    HW137706   0.887   4.264  17.680 -0.4232  0.4641 -0.2220
 8691SOL    HW237707   0.977   4.219  17.574  0.8263  0.9065 -0.9954
 8692SOL     OW37708   4.556   3.127  12.798 -0.2323 -0.7018  0.1400
 8692SOL    HW137709   4.614   3.099  12.869 -4.3064 -2.5786  2.7359
 8692SOL    HW237710   4.518   3.193  12.855  0.5532 -0.7312  0.7061
 8693SOL     OW37711   4.244   3.665   4.493  0.6667 -0.3466 -0.1143
 8693SOL    HW137712   4.337   3.640   4.497  1.6344  3.2478  0.2669
 8693SOL    HW237713   4.252   3.757   4.467 -0.9702  0.0451  0.7782
 8694SOL     OW37714   2.001   4.418  13.377 -0.2719 -0.3125 -0.0613
 8694SOL    HW137715   1.955   4.500  13.355  1.2488  0.8701  1.1801
 8694SOL    HW237716   1.931   4.359  13.350  1.9187 -1.8872 -2.3019
 8695SOL     OW37717   0.839   2.054   8.061 -0.5439  0.2646  0.4923
 8695SOL    HW137718   0.891   1.974   8.047 -0.4128  0.3285  0.6166
 8695SOL    HW237719   0.772   2.045   7.994  0.7311  1.6283 -0.9554
 8696SOL     OW37720   4.569   3.715  12.152  0.4813 -0.5644  0.0638
 8696SOL    HW137721   4.516   3.639  12.176 -0.4608  0.2680  0.6090
 8696SOL    HW237722   4.641   3.706  12.215 -0.0579 -0.2077  0.7352
 8697SOL     OW37723   1.353   2.157   7.569 -1.2157  0.1965 -0.1001
 8697SOL    HW137724   1.382   2.245   7.595  0.0356  0.1936 -1.4614
 8697SOL    HW237725   1.386   2.161   7.479  0.4950 -1.7829  0.4401
 8698SOL     OW37726   2.336   3.577   7.721 -0.5073  0.0257  0.7001
 8698SOL    HW137727   2.380   3.507   7.672 -1.6698 -1.4540  1.7767
 8698SOL    HW237728   2.418   3.616   7.750 -0.0258 -0.7318  0.3578
 8699SOL     OW37729   2.548   3.026   9.187  0.0202  0.2277  0.6522
 8699SOL    HW137730   2.496   2.961   9.235 -0.3116 -0.1280 -0.1933
 8699SOL    HW237731   2.503   3.038   9.104  3.1301  0.6863 -0.9592
 8700SOL     OW37732   3.087   2.230   4.566 -0.6715  0.3180 -0.5806
 8700SOL    HW137733   3.134   2.173   4.627 -1.8474 -0.1204 -0.0831
 8700SOL    HW237734   3.162   2.268   4.520  0.1397  0.4545  0.8301
 8701SOL     OW37735   1.131   4.044   4.416 -0.3272  0.7698  0.0395
 8701SOL    HW137736   1.207   4.070   4.363  0.7332 -2.6688 -0.1534
 8701SOL    HW237737   1.167   3.984   4.481 -0.9739  0.4030  0.0528
 8702SOL     OW37738   1.514   4.539  14.881  0.2161  0.1331  0.6248
 8702SOL    HW137739   1.450   4.515  14.815  1.7535 -1.6926 -0.2168
 8702SOL    HW237740   1.549   4.451  14.894  0.7821  0.5074  1.6594
 8703SOL     OW37741   4.638   2.250   7.087  0.3184  0.0782  0.3014
 8703SOL    HW137742   4.594   2.168   7.067  2.5087 -0.9673 -0.2408
 8703SOL    HW237743   4.692   2.259   7.009  0.3615 -1.9404  0.0975
 8704SOL     OW37744   1.069   3.619   4.835 -0.6769 -0.9249 -0.3681
 8704SOL    HW137745   1.090   3.684   4.903  0.0575 -0.8187 -0.6894
 8704SOL    HW237746   0.990   3.664   4.805 -2.0749 -2.1876  1.4432
 8705SOL     OW37747   1.734   1.745   3.352  0.1455 -0.3465  0.2591
 8705SOL    HW137748   1.719   1.791   3.435 -0.1580 -0.6921  0.3950
 8705SOL    HW237749   1.658   1.766   3.297  2.6369  0.2682 -2.9931
 8706SOL     OW37750   1.261   0.803   3.764 -0.2736  0.0632 -0.0598
 8706SOL    HW137751   1.323   0.780   3.833  0.7689 -0.5351 -1.1869
 8706SOL    HW237752   1.198   0.732   3.770 -0.8169  0.5215 -0.3801
 8707SOL     OW37753   0.892   1.528   0.151  0.2373  0.3267 -0.8068
 8707SOL    HW137754   0.816   1.517   0.094 -0.9545  0.9917  0.6603
 8707SOL    HW237755   0.932   1.443   0.132  0.9233  0.2254  1.1090
 8708SOL     OW37756   2.563   4.066   2.596 -0.1014 -0.0400 -0.6224
 8708SOL    HW137757   2.485   4.113   2.568  0.4302  2.1176  1.5079
 8708SOL    HW237758   2.531   4.037   2.681  0.2847 -0.7714 -0.7270
 8709SOL     OW37759   4.587   0.916  12.766  0.0947 -0.0821 -0.0335
 8709SOL    HW137760   4.675   0.938  12.796  1.0003  0.0154 -2.6916
 8709SOL    HW237761   4.569   0.851  12.834 -0.8563 -0.8131 -0.9886
 8710SOL     OW37762   1.123   0.365   2.930 -0.1817 -0.5892 -0.1807
 8710SOL    HW137763   1.123   0.347   2.836  0.2044  3.0712 -0.8689
 8710SOL    HW237764   1.199   0.421   2.939 -0.3102 -0.1463 -1.9930
 8711SOL     OW37765   2.729   2.278   5.344  0.7842 -0.0371  0.0019
 8711SOL    HW137766   2.787   2.347   5.375 -1.6449  2.3376 -0.7639
 8711SOL    HW237767   2.771   2.263   5.259  0.1529  2.3002 -0.7122
 8712SOL     OW37768   3.798   3.958  12.740 -0.5332  0.3811  0.2536
 8712SOL    HW137769   3.816   4.031  12.800 -1.6074  2.8556 -2.4067
 8712SOL    HW237770   3.886   3.922  12.729 -0.8960 -0.4019 -0.0679
 8713SOL     OW37771   1.327   0.430   4.602  0.1997 -0.8189  0.1808
 8713SOL    HW137772   1.312   0.500   4.665 -0.4420 -0.5391 -0.2802
 8713SOL    HW237773   1.292   0.353   4.647 -0.1984 -2.2090 -2.5486
 8714SOL     OW37774   3.373   2.812  16.643 -0.5723 -0.1629 -0.3015
 8714SOL    HW137775   3.350   2.743  16.705  1.2185  1.6965  2.4181
 8714SOL    HW237776   3.445   2.852  16.692 -1.0317 -1.7875  1.6767
 8715SOL     OW37777   1.819   4.215  13.289  0.1459  0.0599 -0.2060
 8715SOL    HW137778   1.858   4.162  13.220  0.0330 -1.0620  0.5936
 8715SOL    HW237779   1.725   4.216  13.273  0.0143  2.6153  0.7036
 8716SOL     OW37780   2.127   1.234   1.160 -0.1304  0.1003 -0.6291
 8716SOL    HW137781   2.142   1.314   1.108  3.1212 -0.1698 -0.1256
 8716SOL    HW237782   2.037   1.244   1.190  0.1285 -1.1663  0.5566
 8717SOL     OW37783   1.999   3.642   5.923 -0.4050 -0.5118  0.2104
 8717SOL    HW137784   2.060   3.606   5.987 -1.0529 -2.2260 -0.1426
 8717SOL    HW237785   1.926   3.664   5.981 -0.8317  1.3027 -0.9992
 8718SOL     OW37786   4.351   3.448   2.498 -0.0918  0.1914  0.2127
 8718SOL    HW137787   4.421   3.390   2.529 -0.3344 -0.1112  0.1930
 8718SOL    HW237788   4.393   3.534   2.504 -1.5300  0.9241 -0.3003
 8719SOL     OW37789   1.001   3.905  15.178  0.1172  0.3137 -0.6928
 8719SOL    HW137790   0.926   3.848  15.196  0.3644 -0.3113 -1.6658
 8719SOL    HW237791   1.057   3.836  15.213 -0.1489 -1.1203 -3.1382
 8720SOL     OW37792   0.380   0.864  17.710  0.3328 -0.1422 -0.4113
 8720SOL    HW137793   0.404   0.796   0.035  0.4139 -0.1167 -0.4141
 8720SOL    HW237794   0.454   0.865  17.649 -0.7658  0.5764 -1.7311
 8721SOL     OW37795   4.516   3.276   4.286  0.5229 -0.0790  0.0599
 8721SOL    HW137796   4.530   3.357   4.236 -0.7411 -0.1642 -0.4338
 8721SOL    HW237797   4.599   3.231   4.274  0.0272 -1.6403  2.3998
 8722SOL     OW37798   1.854   4.733   0.460 -0.5272 -0.2208 -0.3024
 8722SOL    HW137799   1.937   0.042   0.478  1.4400 -2.9470 -2.7231
 8722SOL    HW237800   1.791   0.048   0.512  0.0991  2.1120 -1.7443
 8723SOL     OW37801   4.292   1.017   7.613  0.0427  0.7396  0.6141
 8723SOL    HW137802   4.248   0.996   7.530 -0.9643 -1.6467  1.7885
 8723SOL    HW237803   4.371   0.964   7.598 -0.8336 -0.3822  0.0028
 8724SOL     OW37804   1.983   3.215   8.432  0.0708  0.0067  0.3063
 8724SOL    HW137805   1.996   3.220   8.527 -2.2653  2.9891  0.4472
 8724SOL    HW237806   1.939   3.300   8.424  0.9320  0.5304  1.1622
 8725SOL     OW37807   3.199   3.658   4.808  0.2168 -0.3514  0.2457
 8725SOL    HW137808   3.161   3.675   4.722  1.4854 -1.4083 -0.5325
 8725SOL    HW237809   3.206   3.745   4.847  0.5874 -0.2430 -0.0638
 8726SOL     OW37810   3.710   4.064   5.727 -0.2309 -0.3163 -0.3536
 8726SOL    HW137811   3.770   4.005   5.772 -0.5007  1.0460  1.7903
 8726SOL    HW237812   3.759   4.069   5.645  1.8716 -0.3207  0.8943
 8727SOL     OW37813   0.494   4.632   5.434  0.4109 -0.3431  0.0017
 8727SOL    HW137814   0.578   4.635   5.388 -0.6503  0.4302 -1.9368
 8727SOL    HW237815   0.427   4.623   5.366 -1.7788 -0.8051  2.2569
 8728SOL     OW37816   0.333   3.972  15.111  0.5791  0.0704 -0.0215
 8728SOL    HW137817   0.376   3.887  15.106 -1.0978 -0.9801  3.8811
 8728SOL    HW237818   0.387   4.009  15.181  0.6752  0.2424 -0.1868
 8729SOL     OW37819   4.195   0.994   7.958  0.2637  0.4489  0.0842
 8729SOL    HW137820   4.269   0.974   8.016 -0.1653 -0.0247  0.4721
 8729SOL    HW237821   4.213   1.074   7.909  1.3834  0.4580  0.5200
 8730SOL     OW37822   3.771   0.928   3.601 -0.1087 -0.0677 -0.7721
 8730SOL    HW137823   3.815   1.011   3.621  1.4232 -0.3673 -2.9377
 8730SOL    HW237824   3.696   0.928   3.661 -0.8907  1.8661 -1.7412
 8731SOL     OW37825   3.860   2.030   9.873 -0.6721  0.1737  0.1662
 8731SOL    HW137826   3.947   2.009   9.907 -0.2792  3.3087  1.1211
 8731SOL    HW237827   3.831   2.080   9.949 -1.1946 -1.0676  0.7681
 8732SOL     OW37828   0.378   0.476   2.386  0.7504  0.5106  0.0481
 8732SOL    HW137829   0.404   0.567   2.393  1.1684  0.3609  0.4013
 8732SOL    HW237830   0.299   0.491   2.334  0.5402  2.4306  0.9256
 8733SOL     OW37831   2.708   0.153   4.909 -0.1513  0.1052 -0.2324
 8733SOL    HW137832   2.725   0.239   4.947  0.5852  1.0620 -2.7758
 8733SOL    HW237833   2.783   0.126   4.856 -0.0676 -1.8729  0.8790
 8734SOL     OW37834   1.157   1.088   7.907  0.1801 -0.4310  0.2347
 8734SOL    HW137835   1.127   1.002   7.934 -0.3722  0.4273  2.3360
 8734SOL    HW237836   1.116   1.097   7.821  2.0417  1.9915 -0.4055
 8735SOL     OW37837   3.872   2.181   2.063  0.3116  0.4028  0.2667
 8735SOL    HW137838   3.867   2.261   2.116 -2.6098  0.6808 -0.4205
 8735SOL    HW237839   3.797   2.128   2.090  1.9251 -0.3605  3.2156
 8736SOL     OW37840   0.548   0.444  16.576  0.2337  0.8354 -0.0766
 8736SOL    HW137841   0.576   0.428  16.486 -0.9791 -2.3551  0.1294
 8736SOL    HW237842   0.519   0.533  16.553  1.0338  0.6415 -1.8629
 8737SOL     OW37843   2.250   1.765   9.501  0.0665  0.3729 -0.7330
 8737SOL    HW137844   2.190   1.830   9.537  1.1466  1.4319 -0.8619
 8737SOL    HW237845   2.309   1.747   9.575 -0.5537  0.6935 -0.1629
 8738SOL     OW37846   0.355   3.272   8.423 -0.2837  0.7244  0.6888
 8738SOL    HW137847   0.356   3.249   8.516 -0.8400  1.3664  0.8518
 8738SOL    HW237848   0.266   3.242   8.407 -0.6191  2.9509 -1.5121
 8739SOL     OW37849   4.517   1.095   4.217 -0.1306 -0.2208  0.6534
 8739SOL    HW137850   4.583   1.051   4.271 -0.2003 -0.4686  0.5376
 8739SOL    HW237851   4.539   1.062   4.130  2.9179  0.2080  1.2772
 8740SOL     OW37852   2.177   0.748  12.231 -0.1889 -0.0473  1.0610
 8740SOL    HW137853   2.154   0.655  12.236 -1.6033  0.2671  0.3878
 8740SOL    HW237854   2.132   0.792  12.303 -1.5519  1.6773 -0.8401
 8741SOL     OW37855   2.121   3.607   9.020 -0.0611  0.1170 -0.3630
 8741SOL    HW137856   2.122   3.553   8.942 -1.8354 -0.4515  0.0212
 8741SOL    HW237857   2.027   3.608   9.035 -0.6042  0.4968 -3.8074
 8742SOL     OW37858   0.418   0.758   2.635 -0.3948  0.4111 -0.0555
 8742SOL    HW137859   0.406   0.845   2.675 -0.5830 -0.1414  1.0802
 8742SOL    HW237860   0.512   0.745   2.648 -0.3865  0.2867 -0.2434
 8743SOL     OW37861   0.076   0.671  16.016  0.7043 -0.0306 -0.3352
 8743SOL    HW137862   0.165   0.687  15.984  1.8984  2.0328  4.0980
 8743SOL    HW237863   0.030   0.750  15.990 -1.0588 -0.6418  0.9528
 8744SOL     OW37864   3.153   0.519   7.393  0.2514  0.2350  0.3614
 8744SOL    HW137865   3.220   0.513   7.325  0.0433 -2.9348  0.4123
 8744SOL    HW237866   3.106   0.598   7.369 -2.4615 -2.1642 -2.2881
 8745SOL     OW37867   2.266   1.324   3.299 -0.0160 -0.5364 -0.3606
 8745SOL    HW137868   2.193   1.330   3.361 -0.5315 -1.8301 -0.8488
 8745SOL    HW237869   2.328   1.273   3.351 -1.4145 -0.3580  1.4655
 8746SOL     OW37870   4.036   4.518   3.285 -0.0010  0.1747  0.2887
 8746SOL    HW137871   4.020   4.424   3.300 -1.3278  0.0806 -1.7219
 8746SOL    HW237872   3.945   4.535   3.260  0.0875 -0.4976 -0.4892
 8747SOL     OW37873   2.905   3.223   4.554  0.0791 -0.3380 -0.4907
 8747SOL    HW137874   2.933   3.157   4.619  1.5966  0.3145 -0.4911
 8747SOL    HW237875   2.870   3.295   4.607  0.8781  0.4648 -1.0602
 8748SOL     OW37876   4.119   0.795  10.244  0.3925 -0.2204 -0.1830
 8748SOL    HW137877   4.141   0.813  10.336  0.0713 -1.2641  0.0986
 8748SOL    HW237878   4.207   0.781  10.209  0.5680 -0.3620  0.3149
 8749SOL     OW37879   1.789   0.226  14.747 -0.2166 -0.8519  0.0845
 8749SOL    HW137880   1.756   0.243  14.659  2.6430  0.1996 -0.8007
 8749SOL    HW237881   1.819   0.316  14.761  0.4855 -1.3792  2.0485
 8750SOL     OW37882   4.234   0.478   7.535 -0.0804  0.1170  0.2440
 8750SOL    HW137883   4.212   0.487   7.443 -1.8625 -0.2460  0.6401
 8750SOL    HW237884   4.199   0.558   7.573  0.5895  0.0626  0.9895
 8751SOL     OW37885   3.018   2.791   2.048 -0.3614  0.2471  0.1411
 8751SOL    HW137886   3.082   2.736   2.093 -1.1284 -1.9149 -1.4158
 8751SOL    HW237887   3.007   2.731   1.974  2.3141  0.2935 -0.2804
 8752SOL     OW37888   3.364   4.515   1.980 -0.8056 -0.1503  0.1029
 8752SOL    HW137889   3.390   4.588   2.035  1.0066 -2.4847  2.3599
 8752SOL    HW237890   3.317   4.565   1.913 -0.4825  0.3290  0.2366
 8753SOL     OW37891   2.763   0.246   3.005  0.0806  0.2271  0.6114
 8753SOL    HW137892   2.742   0.337   3.025 -1.6653  0.1023 -0.6493
 8753SOL    HW237893   2.727   0.201   3.081  0.0118  0.3119  0.6298
 8754SOL     OW37894   2.805   3.732   1.849  0.1730 -0.1773 -0.5481
 8754SOL    HW137895   2.823   3.641   1.828  0.3859 -0.4734  0.9278
 8754SOL    HW237896   2.774   3.721   1.939  0.2391 -0.4356 -0.5572
 8755SOL     OW37897   2.934   4.535   8.862  0.3546 -0.2350 -0.2150
 8755SOL    HW137898   2.932   4.453   8.813  1.2971 -1.4865  1.8105
 8755SOL    HW237899   2.842   4.561   8.863  0.5733  0.5479 -0.4393
 8756SOL     OW37900   4.189   1.915  10.417  0.4335 -0.0540 -0.3653
 8756SOL    HW137901   4.180   1.897  10.510 -0.4709  2.4513  0.0321
 8756SOL    HW237902   4.107   1.958  10.392  1.7442  3.1121  0.7535
 8757SOL     OW37903   0.900   1.184   2.051  0.0844 -0.2767  0.7184
 8757SOL    HW137904   0.988   1.154   2.072 -0.4777 -0.5324  2.8084
 8757SOL    HW237905   0.897   1.178   1.956 -1.9981 -0.7940  0.7963
 8758SOL     OW37906   2.172   0.680   7.590  0.5801  0.3076 -0.2095
 8758SOL    HW137907   2.164   0.629   7.509 -0.2699 -0.4462  0.3555
 8758SOL    HW237908   2.088   0.725   7.597 -0.9621 -2.1622 -2.7171
 8759SOL     OW37909   1.572   2.995  13.424  0.6903 -0.1476  0.0274
 8759SOL    HW137910   1.617   3.065  13.377 -0.4283  2.3934  2.8513
 8759SOL    HW237911   1.633   2.968  13.493  0.6733  2.0257  0.8636
 8760SOL     OW37912   0.706   4.687  17.047  0.1763 -0.3425  0.6533
 8760SOL    HW137913   0.728   4.595  17.029  1.1292  0.0119 -0.0341
 8760SOL    HW237914   0.615   4.678  17.074 -0.5347  0.6268 -1.4312
 8761SOL     OW37915   0.653   4.353   4.460 -0.7426 -0.0061 -0.2520
 8761SOL    HW137916   0.563   4.325   4.473 -1.6867  2.7994 -0.9588
 8761SOL    HW237917   0.703   4.292   4.514 -0.2624  2.6858  2.3279
 8762SOL     OW37918   3.864   3.409   8.635  0.3261 -0.9645  0.0721
 8762SOL    HW137919   3.903   3.496   8.635  1.3261 -1.4092  2.0862
 8762SOL    HW237920   3.792   3.427   8.574 -0.3249 -0.3039  1.0467
 8763SOL     OW37921   1.452   4.724   6.214 -0.4224 -0.0329  0.1076
 8763SOL    HW137922   1.471   4.634   6.186 -1.1416  0.3688 -1.6769
 8763SOL    HW237923   1.383   0.008   6.151  1.2409 -2.3401 -2.3878
 8764SOL     OW37924   2.977   3.683   2.973 -0.2853 -0.2807  0.5722
 8764SOL    HW137925   2.901   3.728   2.937 -0.9313 -0.9642  1.0824
 8764SOL    HW237926   3.024   3.654   2.895 -1.6973  1.5330 -0.9521
 8765SOL     OW37927   2.784   1.940   8.637  0.1343  0.3313 -0.1082
 8765SOL    HW137928   2.871   1.970   8.666  0.5065  1.7985 -2.7698
 8765SOL    HW237929   2.742   1.959   8.721  1.4067 -0.6007  0.7392
 8766SOL     OW37930   4.652   1.281   9.389  0.2125 -0.1398 -0.2886
 8766SOL    HW137931   4.671   1.370   9.417 -0.3032 -0.4217  0.9622
 8766SOL    HW237932   4.633   1.302   9.298  2.3827 -0.3351 -0.7771
 8767SOL     OW37933   4.043   1.421   7.329  0.1327 -0.4684 -0.5670
 8767SOL    HW137934   4.108   1.438   7.397 -1.3255 -1.7922  1.1350
 8767SOL    HW237935   4.018   1.334   7.361 -0.1459 -0.1657  0.0214
 8768SOL     OW37936   3.007   2.512   1.261 -0.2567 -0.3578 -0.2557
 8768SOL    HW137937   2.971   2.487   1.175  1.6749  0.9123 -1.4169
 8768SOL    HW237938   3.060   2.587   1.237  1.7486 -0.7382  2.9909
 8769SOL     OW37939   4.666   0.303  10.817  0.3884  0.1861 -0.3397
 8769SOL    HW137940   0.006   0.262  10.861 -0.4095 -0.1349  0.7277
 8769SOL    HW237941   4.598   0.236  10.822 -0.0283  0.5795 -0.7688
 8770SOL     OW37942   2.033   0.557   3.332  0.4466  0.6183  0.2594
 8770SOL    HW137943   2.125   0.532   3.338 -0.0118 -1.4754 -1.8086
 8770SOL    HW237944   2.024   0.593   3.244  0.1633  2.5188  1.0445
 8771SOL     OW37945   4.360   0.640   8.961 -0.1999  0.1335 -0.0953
 8771SOL    HW137946   4.287   0.578   8.952  0.2480 -0.2130 -1.3036
 8771SOL    HW237947   4.425   0.588   9.009 -0.5988 -1.8837 -1.7344
 8772SOL     OW37948   0.175   3.687   5.706 -0.1408  0.0167 -0.3341
 8772SOL    HW137949   0.106   3.626   5.683 -1.2815  0.8541  0.9141
 8772SOL    HW237950   0.131   3.772   5.700 -0.1759  0.1762  2.0706
 8773SOL     OW37951   0.217   2.270   4.646 -0.3315 -0.2394  0.4958
 8773SOL    HW137952   0.130   2.252   4.610 -0.5454 -0.1187  0.9512
 8773SOL    HW237953   0.277   2.261   4.572 -2.3309  0.1197 -1.1703
 8774SOL     OW37954   3.077   1.774   6.816  0.0766 -0.4351 -0.2207
 8774SOL    HW137955   3.010   1.825   6.861  0.4738 -1.0084  1.0326
 8774SOL    HW237956   3.106   1.843   6.757  1.1261 -0.8815 -0.2218
 8775SOL     OW37957   3.684   4.651   6.330  0.2004  1.0073 -0.6811
 8775SOL    HW137958   3.679   4.555   6.328 -0.0582  1.0049  0.2170
 8775SOL    HW237959   3.596   4.686   6.320 -0.2465 -0.2775 -1.2703
 8776SOL     OW37960   2.629   0.938   6.833 -0.0292 -0.0666  0.1944
 8776SOL    HW137961   2.577   0.992   6.892  0.3132 -0.5749  0.9462
 8776SOL    HW237962   2.711   0.953   6.880 -1.1929  0.7963  1.9323
 8777SOL     OW37963   0.780   4.175   0.039 -0.0197  0.5562 -0.0218
 8777SOL    HW137964   0.733   4.124  17.712 -0.2276 -0.0159  0.5769
 8777SOL    HW237965   0.707   4.195   0.098  0.0252  0.3015  0.1189
 8778SOL     OW37966   0.227   2.302  16.925 -0.1752 -0.0833 -0.1121
 8778SOL    HW137967   0.293   2.233  16.922  0.7483  0.7935  0.1088
 8778SOL    HW237968   0.271   2.366  16.980 -0.3702  1.6291 -1.9707
 8779SOL     OW37969   2.338   3.212   2.427  0.1805 -0.3748 -0.0528
 8779SOL    HW137970   2.271   3.150   2.459 -0.2245  0.3647  0.5274
 8779SOL    HW237971   2.285   3.288   2.401  0.1700 -0.1903  0.5111
 8780SOL     OW37972   2.711   2.941  13.994  0.3068  0.2408 -0.8301
 8780SOL    HW137973   2.796   2.985  13.985  1.3685 -1.7242 -0.3874
 8780SOL    HW237974   2.742   2.857  14.026 -1.2441  0.1755  0.5164
 8781SOL     OW37975   2.272   4.559   1.031  0.2496 -0.0154  0.8440
 8781SOL    HW137976   2.338   4.620   1.063  2.3100 -0.4734 -2.5374
 8781SOL    HW237977   2.325   4.515   0.965  0.8177 -2.1446  2.7276
 8782SOL     OW37978   2.156   4.612   7.706 -0.5142 -0.1163  0.9209
 8782SOL    HW137979   2.147   4.600   7.800  0.7985  0.6834  1.1534
 8782SOL    HW237980   2.153   4.524   7.668 -1.3080 -0.3603  1.5829
 8783SOL     OW37981   1.507   0.603  12.470  0.2014  0.1799  0.3729
 8783SOL    HW137982   1.523   0.694  12.498  1.7463  0.1269 -0.3253
 8783SOL    HW237983   1.416   0.594  12.497 -0.0210 -0.7510 -0.7141
 8784SOL     OW37984   4.474   2.725   7.037  0.1487 -0.2545  0.3219
 8784SOL    HW137985   4.540   2.792   7.052 -1.6239  1.6683 -0.4639
 8784SOL    HW237986   4.428   2.734   7.121  1.7553  0.6713  1.0866
 8785SOL     OW37987   1.235   1.391   7.793 -0.0091  0.5949 -0.0986
 8785SOL    HW137988   1.161   1.447   7.769 -0.3403  0.9193  1.6408
 8785SOL    HW237989   1.196   1.304   7.796  1.1794  0.0629 -0.0056
 8786SOL     OW37990   1.764   1.990   1.401 -0.3772  0.4749 -0.0080
 8786SOL    HW137991   1.769   2.042   1.320  1.2721 -2.3775 -1.7452
 8786SOL    HW237992   1.811   2.042   1.467  0.3237  2.0772 -1.7661
 8787SOL     OW37993   3.627   0.657   1.835  0.0711  0.2262  0.1910
 8787SOL    HW137994   3.621   0.573   1.879 -2.1139 -1.0068 -2.4606
 8787SOL    HW237995   3.559   0.702   1.885  0.8060  0.8907  0.6036
 8788SOL     OW37996   0.441   0.300   0.213  0.5498 -0.0842  0.2392
 8788SOL    HW137997   0.478   0.220   0.252 -0.7022 -0.8386 -0.1094
 8788SOL    HW237998   0.348   0.279   0.211  0.4636  0.5118 -1.6345
 8789SOL     OW37999   1.114   4.207   9.414 -0.2628 -0.3042  0.3823
 8789SOL    HW138000   1.105   4.228   9.507  0.8027  1.5302  0.0802
 8789SOL    HW238001   1.104   4.112   9.410 -1.8505 -0.1352  0.3102
 8790SOL     OW38002   1.485   4.180   7.833 -0.2665 -0.2179 -0.4026
 8790SOL    HW138003   1.557   4.159   7.892 -0.2302 -0.9490 -0.7049
 8790SOL    HW238004   1.528   4.238   7.770  0.1831 -0.7394 -0.5824
 8791SOL     OW38005   4.109   1.044   0.385  0.6397 -0.1412 -0.0391
 8791SOL    HW138006   4.048   1.023   0.315  0.5045 -0.1033  0.0678
 8791SOL    HW238007   4.084   0.982   0.452 -2.4689  1.2728  0.1077
 8792SOL     OW38008   3.952   2.020   1.582  0.5721  0.2344 -0.2189
 8792SOL    HW138009   3.914   1.963   1.649 -0.9021  0.1278 -1.1464
 8792SOL    HW238010   3.995   2.080   1.643  2.5740 -0.7112 -0.7183
 8793SOL     OW38011   2.284   4.575   6.747  0.4352  0.1183  0.2261
 8793SOL    HW138012   2.375   4.553   6.727  0.1898 -1.9142  1.4464
 8793SOL    HW238013   2.266   4.512   6.816  0.7534 -2.3191 -1.9247
 8794SOL     OW38014   1.442   1.396   4.713  0.3200 -0.1791  0.7180
 8794SOL    HW138015   1.466   1.474   4.665 -1.8694  1.2102  1.8634
 8794SOL    HW238016   1.447   1.423   4.805 -0.2463 -0.6158  0.8798
 8795SOL     OW38017   1.318   4.674  15.061  0.1660 -0.1867 -0.3143
 8795SOL    HW138018   1.276   4.588  15.056 -3.4287  1.5602 -0.7418
 8795SOL    HW238019   1.382   4.669  14.990  1.5839 -1.5744  1.0617
 8796SOL     OW38020   2.867   2.964   6.597 -0.0013  0.7597 -0.1066
 8796SOL    HW138021   2.948   3.002   6.564  0.5669  0.1140  0.5567
 8796SOL    HW238022   2.890   2.873   6.579  0.9318  1.3025 -1.6794
 8797SOL     OW38023   1.314   4.329   0.458 -0.9550  0.0201  0.2861
 8797SOL    HW138024   1.335   4.376   0.377 -2.7885  1.4132  0.6252
 8797SOL    HW238025   1.383   4.263   0.453 -0.8050  0.2762 -0.9750
 8798SOL     OW38026   3.462   3.550   9.067 -0.5465  0.3689 -0.3006
 8798SOL    HW138027   3.511   3.587   9.140 -0.0022  2.2562 -1.6244
 8798SOL    HW238028   3.512   3.473   9.039 -1.6584 -0.2190 -0.7066
 8799SOL     OW38029   0.178   1.198   8.190  0.9234 -0.4226 -0.1436
 8799SOL    HW138030   0.234   1.276   8.193  1.8598 -1.1432  1.0641
 8799SOL    HW238031   0.103   1.223   8.136  0.3186  1.9797  1.8322
 8800SOL     OW38032   1.473   0.847   6.370 -0.1634 -0.4709  0.0822
 8800SOL    HW138033   1.560   0.880   6.348 -0.4424  1.7045  2.3069
 8800SOL    HW238034   1.422   0.928   6.365  2.4368  1.0940 -1.2635
 8801SOL     OW38035   2.067   2.683   4.459  0.6568 -0.1906  1.3472
 8801SOL    HW138036   2.122   2.662   4.383 -0.1959  0.9245  0.4268
 8801SOL    HW238037   2.010   2.607   4.451 -2.6826  2.8189 -3.0820
 8802SOL     OW38038   3.106   3.434   6.705  0.3677 -0.2624  0.1909
 8802SOL    HW138039   3.194   3.397   6.704  0.5792  0.3304 -2.4912
 8802SOL    HW238040   3.056   3.368   6.753 -2.3547  1.0165 -0.9285
 8803SOL     OW38041   2.352   2.178  10.932 -0.0268  0.3352 -0.1436
 8803SOL    HW138042   2.312   2.176  11.019 -3.1951 -0.8668 -1.6458
 8803SOL    HW238043   2.412   2.104  10.936  1.1782  1.2776 -0.7552
 8804SOL     OW38044   0.888   1.553   4.018 -0.3773  0.2901  0.2169
 8804SOL    HW138045   0.896   1.475   4.073  0.9841  0.3789  0.1420
 8804SOL    HW238046   0.803   1.551   3.974  0.7291  1.2676 -2.0008
 8805SOL     OW38047   2.215   1.402  16.069 -0.3879  0.9757 -0.4258
 8805SOL    HW138048   2.122   1.424  16.072 -0.7476 -0.6704  0.3603
 8805SOL    HW238049   2.215   1.313  16.104  2.4275  1.0908 -0.1373
 8806SOL     OW38050   3.664   2.850   0.358  0.3089 -0.4301 -0.6499
 8806SOL    HW138051   3.671   2.866   0.264 -1.7259  2.8147 -0.2565
 8806SOL    HW238052   3.663   2.942   0.386  1.9213 -0.6608  0.1690
 8807SOL     OW38053   0.499   1.232   6.669  0.3085 -0.1044  0.1440
 8807SOL    HW138054   0.577   1.260   6.621  0.3910  2.7081  1.8993
 8807SOL    HW238055   0.446   1.193   6.600  0.6283  0.9028 -0.6767
 8808SOL     OW38056   2.162   2.734   7.585 -0.1281 -0.7699  0.4173
 8808SOL    HW138057   2.162   2.773   7.672 -0.5697  0.0888  0.0300
 8808SOL    HW238058   2.257   2.748   7.577 -0.2729 -0.1286 -0.1840
 8809SOL     OW38059   1.506   3.373   3.081  0.5512 -0.0917 -0.2738
 8809SOL    HW138060   1.501   3.371   2.986 -0.4673 -0.1905 -0.2122
 8809SOL    HW238061   1.592   3.414   3.090 -0.2883  1.6747 -0.2745
 8810SOL     OW38062   3.349   0.425   8.311  0.1754 -0.6147 -0.0774
 8810SOL    HW138063   3.352   0.470   8.226 -1.7516  0.4684  0.4463
 8810SOL    HW238064   3.257   0.400   8.306 -0.0446  0.1107  0.4049
 8811SOL     OW38065   4.518   3.938   8.098 -0.3278 -0.2894  0.4132
 8811SOL    HW138066   4.544   3.867   8.156  4.0126 -1.2279 -2.6491
 8811SOL    HW238067   4.572   3.934   8.019 -0.3230  2.4851  0.2688
 8812SOL     OW38068   2.180   0.734   2.345  0.1370  0.2168  0.1879
 8812SOL    HW138069   2.239   0.680   2.398  0.9709  0.6118 -0.3356
 8812SOL    HW238070   2.164   0.679   2.268  0.6756 -0.0221  0.2429
 8813SOL     OW38071   3.608   4.091   0.885 -0.1916 -0.2684 -0.6220
 8813SOL    HW138072   3.678   4.156   0.877 -0.2650 -0.0044  0.9014
 8813SOL    HW238073   3.631   4.033   0.813 -1.3836 -1.3896 -0.0759
 8814SOL     OW38074   2.846   4.692  15.814 -0.3337  0.8779 -0.0591
 8814SOL    HW138075   2.940   4.693  15.797 -0.2994  0.2296  0.0770
 8814SOL    HW238076   2.823   0.009  15.738 -0.3666  1.0888  0.0964
 8815SOL     OW38077   2.574   1.224  14.988 -0.0855 -0.1011 -0.0327
 8815SOL    HW138078   2.517   1.215  15.065  0.7609 -0.1593  0.5838
 8815SOL    HW238079   2.515   1.271  14.929  0.3676 -1.1151 -1.2959
 8816SOL     OW38080   2.290   4.732   2.483 -0.2776  0.0162  0.5236
 8816SOL    HW138081   2.276   0.084   2.519  2.3715  0.6359  0.0916
 8816SOL    HW238082   2.302   0.029   2.393  0.6415  1.6314  1.2294
 8817SOL     OW38083   1.065   2.291   8.470 -0.1562  0.1568  0.0096
 8817SOL    HW138084   0.977   2.258   8.483  0.8622 -2.4006  0.4545
 8817SOL    HW238085   1.112   2.239   8.536 -0.8406 -1.4541 -0.7653
 8818SOL     OW38086   3.714   0.036  16.640 -0.1638 -0.6801 -0.3807
 8818SOL    HW138087   3.642   0.000  16.589 -0.0670  0.0740 -1.0355
 8818SOL    HW238088   3.666   0.088  16.704  0.1780 -0.3927 -0.3551
 8819SOL     OW38089   2.653   0.951  14.993  0.4372  0.0194 -0.0699
 8819SOL    HW138090   2.623   1.035  14.959 -1.2417 -0.7969 -0.6222
 8819SOL    HW238091   2.738   0.949  14.949 -0.1461  0.6984 -1.2264
 8820SOL     OW38092   4.373   3.361  10.080  0.5980  0.0178 -0.7802
 8820SOL    HW138093   4.390   3.283  10.028  0.9987 -0.2731 -0.2062
 8820SOL    HW238094   4.431   3.346  10.155  0.1299  3.1873  0.2444
 8821SOL     OW38095   0.059   4.292   7.578 -0.0397  0.2337 -0.2030
 8821SOL    HW138096   0.051   4.386   7.560  0.4270  0.2633 -0.2492
 8821SOL    HW238097   0.135   4.258   7.532  0.6180  0.1477  0.9443
 8822SOL     OW38098   0.194   4.009  13.920  0.0926  0.8326  0.0337
 8822SOL    HW138099   0.220   4.099  13.935  0.1893  0.2864  3.1617
 8822SOL    HW238100   0.258   3.962  13.974 -0.0802  0.9552  0.3423
 8823SOL     OW38101   0.029   4.351   8.427 -0.8485  0.0039 -0.2548
 8823SOL    HW138102   0.102   4.313   8.378 -0.2824 -0.4722  0.9384
 8823SOL    HW238103   4.716   4.270   8.442 -1.0795 -0.0609 -1.3553
 8824SOL     OW38104   4.247   2.901   1.972  0.3959  0.2005  0.5588
 8824SOL    HW138105   4.203   2.942   2.047  0.3855  0.2937  0.5011
 8824SOL    HW238106   4.332   2.941   1.987 -1.3367  3.5144  1.5839
 8825SOL     OW38107   3.705   1.209   5.380 -0.2931 -0.6889  0.2911
 8825SOL    HW138108   3.619   1.167   5.374 -0.4440 -0.3474  0.0443
 8825SOL    HW238109   3.678   1.278   5.440 -1.2594 -1.0921  0.3261
 8826SOL     OW38110   4.312   2.599  16.540  0.0940 -0.3990  0.3380
 8826SOL    HW138111   4.256   2.633  16.470  0.2273  1.2564  1.0282
 8826SOL    HW238112   4.370   2.674  16.553 -0.6886  0.1527  0.6003
 8827SOL     OW38113   2.714   3.666   9.564  0.3072 -0.3131 -0.1157
 8827SOL    HW138114   2.782   3.666   9.632  1.6328 -1.3239 -1.4559
 8827SOL    HW238115   2.674   3.580   9.576  0.7660 -0.4618  0.3580
 8828SOL     OW38116   0.571   1.772  12.210 -0.2125 -0.4794  0.3335
 8828SOL    HW138117   0.660   1.746  12.236  1.6931  2.0350 -3.6581
 8828SOL    HW238118   0.591   1.829  12.135 -0.6383  0.4630  0.9397
 8829SOL     OW38119   2.053   0.648   4.299 -0.0718 -0.1168 -0.3159
 8829SOL    HW138120   2.053   0.687   4.211  0.5790 -1.8858 -1.0885
 8829SOL    HW238121   2.057   0.730   4.349  0.7780  0.3188 -1.0950
 8830SOL     OW38122   1.928   0.302   3.468  0.2278 -0.1549  0.4200
 8830SOL    HW138123   2.009   0.257   3.494  1.0494  1.4027  0.5166
 8830SOL    HW238124   1.966   0.385   3.439  0.3579 -0.5431 -0.5130
 8831SOL     OW38125   3.359   4.487  16.115 -0.3184  0.0992  0.1079
 8831SOL    HW138126   3.310   4.419  16.069 -1.2739 -0.4726  1.9377
 8831SOL    HW238127   3.285   4.547  16.126 -0.2502  0.6730 -2.6357
 8832SOL     OW38128   2.382   4.487   1.361 -0.2785 -0.4853  0.4927
 8832SOL    HW138129   2.386   4.514   1.269 -0.2035  0.3981  0.7543
 8832SOL    HW238130   2.291   4.463   1.379 -0.8749  0.5726 -1.1052
 8833SOL     OW38131   4.628   1.313   9.820 -0.2386 -0.8640 -0.5887
 8833SOL    HW138132   4.567   1.331   9.749  0.0085  0.3354 -0.4916
 8833SOL    HW238133   4.593   1.369   9.890  1.2561 -0.2074 -0.3681
 8834SOL     OW38134   1.354   2.692   6.416  0.1150  0.5535  0.0976
 8834SOL    HW138135   1.310   2.775   6.434 -0.4235  1.0651 -3.5553
 8834SOL    HW238136   1.417   2.691   6.488  0.1578 -3.3576 -0.0153
 8835SOL     OW38137   1.627   3.499   0.159  0.0169 -0.2464 -0.5238
 8835SOL    HW138138   1.695   3.454   0.109  1.6446 -0.5444  1.9460
 8835SOL    HW238139   1.688   3.546   0.216  0.4402 -1.2222 -0.1763
 8836SOL     OW38140   1.663   0.912   7.845 -0.0473  0.7431 -0.1988
 8836SOL    HW138141   1.715   0.940   7.770 -1.1814 -0.4360 -1.4192
 8836SOL    HW238142   1.732   0.888   7.906 -1.8889 -1.4430  1.0128
 8837SOL     OW38143   1.932   4.393   8.530  0.4685  0.5211 -0.0938
 8837SOL    HW138144   1.955   4.301   8.530 -0.4808  0.2820 -0.4608
 8837SOL    HW238145   1.909   4.400   8.438 -1.6306  2.3690  0.5465
 8838SOL     OW38146   3.392   2.239   0.670 -0.3466 -0.8751  0.3395
 8838SOL    HW138147   3.442   2.162   0.695  2.0593  0.7442  0.4848
 8838SOL    HW238148   3.463   2.303   0.663 -0.6114 -0.5442  0.6341
 8839SOL     OW38149   3.056   0.206  10.021 -0.4976  0.4265  0.1461
 8839SOL    HW138150   3.068   0.113  10.002  0.9009  0.8201 -0.9364
 8839SOL    HW238151   2.985   0.231   9.962 -0.5547 -1.9279 -0.8164
 8840SOL     OW38152   4.286   2.701   2.888 -0.4092  0.1520 -0.4353
 8840SOL    HW138153   4.293   2.665   2.800  1.5233 -0.0556 -0.2166
 8840SOL    HW238154   4.286   2.622   2.942 -3.4181 -0.1772 -0.9291
 8841SOL     OW38155   0.108   0.751   6.089  0.2249  0.0830 -0.1907
 8841SOL    HW138156   0.096   0.656   6.083  0.3912  0.0835 -0.5169
 8841SOL    HW238157   0.194   0.748   6.130  0.6620 -1.3325 -1.2015
 8842SOL     OW38158   3.911   2.549   4.305 -0.0240  0.4224  0.2636
 8842SOL    HW138159   3.963   2.469   4.300 -0.3272  0.1288  2.1169
 8842SOL    HW238160   3.946   2.599   4.231 -2.3334 -0.9937 -1.7911
 8843SOL     OW38161   4.591   0.482   8.754  0.3392  0.0894 -0.5409
 8843SOL    HW138162   4.651   0.538   8.704  0.5145  0.0570 -0.3669
 8843SOL    HW238163   4.658   0.424   8.791 -0.6260 -0.4101  0.4213
 8844SOL     OW38164   1.357   4.622   2.759 -0.7886 -0.0244  0.1783
 8844SOL    HW138165   1.275   4.592   2.719 -1.2206 -0.1751  1.1620
 8844SOL    HW238166   1.423   4.556   2.739 -0.0875  1.1283 -1.3132
 8845SOL     OW38167   2.871   0.123   1.940 -0.2417  0.3862  0.5075
 8845SOL    HW138168   2.793   0.154   1.894  0.6971 -0.4018 -1.6247
 8845SOL    HW238169   2.859   0.028   1.938  1.3165  0.2223 -1.6578
 8846SOL     OW38170   3.465   3.883   8.766  0.6002  0.1056 -0.1040
 8846SOL    HW138171   3.459   3.788   8.778 -0.4790 -0.0705 -2.0334
 8846SOL    HW238172   3.397   3.896   8.700 -0.2433 -2.3944  0.2741
 8847SOL     OW38173   2.473   2.477  15.868 -0.3380  0.4614 -0.0828
 8847SOL    HW138174   2.439   2.409  15.926 -0.1806  0.0790 -0.4423
 8847SOL    HW238175   2.483   2.432  15.784  0.6975 -0.1081  0.3534
 8848SOL     OW38176   2.256   4.602  13.959  0.0155  0.2193 -0.0492
 8848SOL    HW138177   2.234   4.509  13.954  1.7754 -0.0978 -2.5791
 8848SOL    HW238178   2.292   4.630  13.874 -0.0397  0.9677  0.1765
 8849SOL     OW38179   1.855   2.250   8.744 -0.0550 -0.0354 -0.0599
 8849SOL    HW138180   1.901   2.270   8.662 -1.8512  0.2465 -0.9818
 8849SOL    HW238181   1.867   2.155   8.737  0.9151  0.0416  0.4341
 8850SOL     OW38182   3.710   2.841  10.880  0.6663  0.4568  1.3119
 8850SOL    HW138183   3.772   2.868  10.947  2.8592 -0.1219 -0.4731
 8850SOL    HW238184   3.647   2.913  10.883 -0.2730 -0.3046  0.0350
 8851SOL     OW38185   2.220   0.107   6.717 -0.5459  0.2050 -0.1236
 8851SOL    HW138186   2.143   0.064   6.680 -1.0627  0.7536  0.3206
 8851SOL    HW238187   2.262   0.027   6.751  2.6791  1.2811 -1.6375
 8852SOL     OW38188   0.307   1.964   2.493  0.5808  0.0542  0.0951
 8852SOL    HW138189   0.314   1.925   2.406 -0.0368 -0.5148  0.2908
 8852SOL    HW238190   0.394   2.002   2.502  0.5877  0.1813 -0.4989
 8853SOL     OW38191   4.295   3.805   1.410  0.2310  0.7479  0.2625
 8853SOL    HW138192   4.210   3.842   1.388 -0.8022 -0.3209  2.4710
 8853SOL    HW238193   4.331   3.865   1.475  3.6394 -2.2319  1.1908
 8854SOL     OW38194   3.293   1.227   6.020  0.1916 -0.2224 -0.4372
 8854SOL    HW138195   3.330   1.231   6.108 -2.9985 -0.1092  0.8737
 8854SOL    HW238196   3.320   1.136   6.005  0.0546  0.2672 -3.7241
 8855SOL     OW38197   3.618   4.086  10.622 -0.9888  0.0983  0.3228
 8855SOL    HW138198   3.586   4.176  10.629 -1.0841 -0.0062  1.1571
 8855SOL    HW238199   3.564   4.059  10.547 -0.5387 -0.3445  0.1622
 8856SOL     OW38200   1.482   2.894  17.145 -0.3145  0.9086 -0.8049
 8856SOL    HW138201   1.548   2.913  17.212  1.8908 -0.7019 -2.5073
 8856SOL    HW238202   1.496   2.801  17.128  0.9477  0.7041  1.3897
 8857SOL     OW38203   3.936   1.899   7.216  0.1626 -0.3765  0.6725
 8857SOL    HW138204   3.988   1.926   7.140  0.2705  1.4054  1.3639
 8857SOL    HW238205   3.931   1.980   7.268 -0.0663  0.8804 -1.2970
 8858SOL     OW38206   2.717   3.035   4.790 -0.2793  0.0240  0.0087
 8858SOL    HW138207   2.626   3.063   4.782 -0.9145 -1.9249  0.4540
 8858SOL    HW238208   2.716   3.006   4.881  5.1189  0.3090  0.1471
 8859SOL     OW38209   3.668   1.838   9.810  0.3580  0.6983 -0.0432
 8859SOL    HW138210   3.624   1.901   9.866  3.5770  1.2000  1.9527
 8859SOL    HW238211   3.752   1.885   9.806  0.7196 -0.0653 -1.6279
 8860SOL     OW38212   2.297   1.952   4.683  0.1563 -0.4300  0.1390
 8860SOL    HW138213   2.366   1.887   4.692  0.3762  0.0506  1.8366
 8860SOL    HW238214   2.343   2.035   4.673  2.0026 -1.6768 -1.8532
 8861SOL     OW38215   1.514   2.065   1.533 -0.7227 -0.2487  0.0766
 8861SOL    HW138216   1.582   2.004   1.504 -0.5095 -0.5129  1.1456
 8861SOL    HW238217   1.518   2.056   1.628 -1.1225  0.2998  0.1453
 8862SOL     OW38218   2.287   2.102   6.748  0.2360  0.2725  0.3629
 8862SOL    HW138219   2.229   2.167   6.788  0.0831  0.1930  0.2714
 8862SOL    HW238220   2.371   2.148   6.753  1.2860 -1.5649 -0.6929
 8863SOL     OW38221   1.007   2.601   9.188  0.0500  0.0394 -0.6041
 8863SOL    HW138222   0.958   2.519   9.186  1.6700 -0.9996  1.9041
 8863SOL    HW238223   1.097   2.567   9.185 -0.1296 -0.4471 -0.4571
 8864SOL     OW38224   1.046   0.529  10.549  0.6893 -0.1250 -0.4891
 8864SOL    HW138225   1.068   0.619  10.572  0.1019 -0.3052  0.7883
 8864SOL    HW238226   0.957   0.528  10.585  0.4398 -0.3441 -1.1250
 8865SOL     OW38227   0.970   1.799   7.265 -0.3451  0.2931 -0.2478
 8865SOL    HW138228   1.001   1.738   7.332  1.7973  1.8644  0.2182
 8865SOL    HW238229   1.041   1.807   7.201  1.5985  0.0293  1.8730
 8866SOL     OW38230   2.668   4.368   2.556 -0.2373  0.4046 -0.3241
 8866SOL    HW138231   2.587   4.342   2.599 -0.2085  0.3696 -0.2908
 8866SOL    HW238232   2.644   4.386   2.465 -0.5050 -0.7925 -0.4844
 8867SOL     OW38233   4.346   3.831   4.873 -0.3594 -0.0210 -0.6101
 8867SOL    HW138234   4.367   3.814   4.781 -0.8216 -0.4608 -0.6335
 8867SOL    HW238235   4.341   3.743   4.909 -1.6455  1.0633  1.8154
 8868SOL     OW38236   0.452   3.345   1.788 -0.2455 -0.2253  0.6877
 8868SOL    HW138237   0.481   3.359   1.878  1.6951 -1.4030  0.2570
 8868SOL    HW238238   0.515   3.396   1.737 -0.2312 -1.1301 -0.2136
 8869SOL     OW38239   3.022   3.239  13.910  0.3058 -0.0344 -0.5221
 8869SOL    HW138240   2.997   3.149  13.933  0.1361  0.3446  0.7888
 8869SOL    HW238241   2.965   3.274  13.842  0.6000  0.5104 -0.4879
 8870SOL     OW38242   0.587   2.091   1.891  0.6789  0.3990 -0.1654
 8870SOL    HW138243   0.608   2.079   1.799 -0.4917  0.2894 -0.4262
 8870SOL    HW238244   0.515   2.154   1.878  0.4167 -0.0575 -0.8989
 8871SOL     OW38245   3.270   3.189  13.069  0.1510 -0.2130  0.3028
 8871SOL    HW138246   3.308   3.202  12.982 -2.2704  3.2207 -0.2331
 8871SOL    HW238247   3.334   3.235  13.123 -1.6459  2.4028  0.2098
 8872SOL     OW38248   3.384   2.293   8.811 -0.3551  0.4968  0.0136
 8872SOL    HW138249   3.294   2.262   8.812  0.7704 -2.8556 -0.5681
 8872SOL    HW238250   3.412   2.268   8.723  0.3443  2.5454 -0.3463
 8873SOL     OW38251   4.560   1.707   1.254 -0.1718 -0.0793 -0.1094
 8873SOL    HW138252   4.651   1.706   1.283 -0.2882  2.2191  0.3840
 8873SOL    HW238253   4.565   1.776   1.187 -2.2709  1.2840  1.1143
 8874SOL     OW38254   0.730   4.416   6.204  0.3241  0.1072 -0.0625
 8874SOL    HW138255   0.744   4.409   6.110 -1.2835  1.3415 -0.3954
 8874SOL    HW238256   0.727   4.510   6.220 -0.2896  0.1563 -0.4831
 8875SOL     OW38257   2.555   3.626   6.572 -0.6525  0.3331 -0.1106
 8875SOL    HW138258   2.529   3.676   6.494 -0.5375 -1.1605 -1.0939
 8875SOL    HW238259   2.641   3.666   6.586  0.0709 -0.5160 -2.1050
 8876SOL     OW38260   2.169   2.869   4.154  0.0683 -0.1158 -0.0898
 8876SOL    HW138261   2.156   2.941   4.094 -1.5023  0.7502  1.3006
 8876SOL    HW238262   2.109   2.798   4.131 -1.4747  0.6885  1.5087
 8877SOL     OW38263   2.568   0.994   8.431 -0.4825 -0.3077  0.0877
 8877SOL    HW138264   2.647   1.017   8.382  0.4589 -0.0339  1.7241
 8877SOL    HW238265   2.524   0.948   8.359 -1.3825 -2.2797  1.9141
 8878SOL     OW38266   3.665   1.531  13.968 -0.8388 -0.4927 -0.1943
 8878SOL    HW138267   3.736   1.520  14.032  1.4328  0.6529 -2.5065
 8878SOL    HW238268   3.700   1.590  13.901 -2.3480 -1.0414 -1.4659
 8879SOL     OW38269   1.825   4.606  13.255 -0.0608 -0.3493  0.2694
 8879SOL    HW138270   1.739   4.628  13.292 -1.0656 -2.2768 -0.9294
 8879SOL    HW238271   1.840   4.690  13.213  0.0897  0.3531  1.7151
 8880SOL     OW38272   3.561   4.517  11.442 -0.9141  0.4354 -0.4705
 8880SOL    HW138273   3.504   4.569  11.385  0.3868  1.0385 -1.1994
 8880SOL    HW238274   3.556   4.427  11.408 -1.5010  0.4360 -0.4006
 8881SOL     OW38275   4.523   1.478   1.539  0.3686 -0.8365 -0.1443
 8881SOL    HW138276   4.583   1.552   1.524  1.1453 -1.6299 -0.8996
 8881SOL    HW238277   4.582   1.439   1.603 -0.0092  1.9576  1.8898
 8882SOL     OW38278   1.872   1.845   3.131 -0.1744  0.2766 -0.6576
 8882SOL    HW138279   1.801   1.795   3.090 -0.6930  1.2613 -0.9511
 8882SOL    HW238280   1.853   1.810   3.218  0.7006  0.7775 -0.2695
 8883SOL     OW38281   4.595   0.020  17.288 -0.6714  0.2664 -0.2921
 8883SOL    HW138282   4.596   0.046  17.196  0.7085  0.2878 -0.2752
 8883SOL    HW238283   4.588   4.660  17.281  0.1069  0.1683  0.2553
 8884SOL     OW38284   1.677   1.968  10.866 -0.6793  0.2481  0.6096
 8884SOL    HW138285   1.696   1.904  10.935  0.6957  0.5219  0.4880
 8884SOL    HW238286   1.710   1.932  10.783 -0.5389  0.5140  0.5493
 8885SOL     OW38287   0.256   2.592   6.805 -0.0885  0.2139  0.0182
 8885SOL    HW138288   0.165   2.569   6.822  0.1844 -1.2380 -0.4820
 8885SOL    HW238289   0.265   2.653   6.879 -1.0434  0.4575 -0.0714
 8886SOL     OW38290   2.127   0.143   4.426  0.1774  0.0849  0.7454
 8886SOL    HW138291   2.193   0.077   4.404  0.0543  0.2647 -0.1701
 8886SOL    HW238292   2.125   0.208   4.355  0.5676  0.6189  1.2218
 8887SOL     OW38293   2.414   2.746  16.216  0.2192  0.0806 -0.5189
 8887SOL    HW138294   2.342   2.696  16.179 -0.6611  0.2625  0.9131
 8887SOL    HW238295   2.404   2.716  16.307 -0.3981 -2.0724 -1.3106
 8888SOL     OW38296   1.396   2.153   8.390 -0.6180 -0.0048 -0.2424
 8888SOL    HW138297   1.372   2.233   8.437 -0.2014 -0.8901  1.4923
 8888SOL    HW238298   1.361   2.079   8.439  0.5902 -0.3791  0.0454
 8889SOL     OW38299   4.702   3.249  10.647  0.3962 -0.7639 -0.4773
 8889SOL    HW138300   4.699   3.167  10.598 -1.0031 -0.6039 -0.6598
 8889SOL    HW238301   0.060   3.250  10.667  0.1049 -0.1400  0.8251
 8890SOL     OW38302   4.629   0.212   2.090 -0.2534  0.5204  0.1403
 8890SOL    HW138303   4.638   0.253   2.004 -0.3785 -0.6127 -0.4175
 8890SOL    HW238304   4.650   0.121   2.069 -0.8325  0.1937  0.9498
 8891SOL     OW38305   2.734   0.305   5.675 -0.4146  1.1113 -0.0316
 8891SOL    HW138306   2.709   0.292   5.766  1.3572  0.1740  0.3299
 8891SOL    HW238307   2.674   0.376   5.654 -1.0956  1.1678  2.1549
 8892SOL     OW38308   3.445   2.595   1.394  0.5512 -0.3682 -0.0197
 8892SOL    HW138309   3.430   2.529   1.327  1.9192 -1.9541  1.2283
 8892SOL    HW238310   3.534   2.569   1.418  1.0502  0.9754 -0.4452
 8893SOL     OW38311   3.694   1.297   7.759  0.2845  0.1211 -0.2654
 8893SOL    HW138312   3.612   1.327   7.799  1.4927  1.0631  1.4783
 8893SOL    HW238313   3.760   1.347   7.806  0.7632  0.9223 -1.8259
 8894SOL     OW38314   3.738   0.747   2.549  0.1062  0.1448  0.0140
 8894SOL    HW138315   3.738   0.780   2.639  0.1011  1.5869 -0.5134
 8894SOL    HW238316   3.705   0.823   2.500  1.2746  1.5402  1.3600
 8895SOL     OW38317   4.003   0.203   4.653 -0.6763  0.0398 -0.1591
 8895SOL    HW138318   3.919   0.161   4.636 -0.6243 -0.6688  1.3630
 8895SOL    HW238319   4.032   0.169   4.738  2.0557 -0.3042 -1.2312
 8896SOL     OW38320   2.223   0.848   1.979  0.7183  0.5022 -0.5383
 8896SOL    HW138321   2.185   0.768   2.013  1.3793  0.2438 -0.3987
 8896SOL    HW238322   2.290   0.821   1.915  0.0966 -2.1455 -0.0401
 8897SOL     OW38323   3.094   2.780   7.990  0.0277 -0.0356 -0.6176
 8897SOL    HW138324   3.180   2.776   7.948  0.8629 -0.6894  1.1915
 8897SOL    HW238325   3.118   2.838   8.061  1.1949  0.7682 -1.6567
 8898SOL     OW38326   1.199   3.269   8.137  0.1324  0.2847 -0.2059
 8898SOL    HW138327   1.113   3.270   8.179  1.4209 -1.1698  2.4473
 8898SOL    HW238328   1.167   3.264   8.047  0.0332 -1.7106 -0.0612
 8899SOL     OW38329   3.567   4.014   1.510 -0.0914  0.0592  0.1696
 8899SOL    HW138330   3.642   4.012   1.451  0.8187  0.1250  1.3360
 8899SOL    HW238331   3.523   3.941   1.468 -2.5710  1.7400 -0.1835
 8900SOL     OW38332   1.902   0.049   7.973  0.4034  0.4615 -0.3188
 8900SOL    HW138333   1.992   0.017   7.980 -0.0233 -0.6320  0.1493
 8900SOL    HW238334   1.879   0.041   8.065 -0.4359 -0.0632 -0.5742
 8901SOL     OW38335   0.741   3.963   1.694  0.1199  0.4116 -0.1315
 8901SOL    HW138336   0.738   3.993   1.785 -1.7352 -0.8277  0.2186
 8901SOL    HW238337   0.832   3.935   1.685  1.3231  4.6315 -0.7000
 8902SOL     OW38338   2.627   0.223   2.779 -0.7935  0.2244 -0.3176
 8902SOL    HW138339   2.675   0.211   2.862  0.0847 -0.1387 -0.8777
 8902SOL    HW238340   2.550   0.168   2.795 -1.2150  1.8106  3.2190
 8903SOL     OW38341   1.396   3.658   0.052  0.4441 -0.2361  0.0833
 8903SOL    HW138342   1.478   3.624   0.086  0.7870  1.4806  0.9662
 8903SOL    HW238343   1.414   3.623  17.703  1.4439 -0.1477  0.2516
 8904SOL     OW38344   2.754   4.399  17.724  0.1016  0.1448  0.5224
 8904SOL    HW138345   2.661   4.419  17.730 -0.0924 -0.7971  0.6394
 8904SOL    HW238346   2.790   4.473  17.674  0.1966 -1.5773 -1.9922
 8905SOL     OW38347   2.852   2.378   4.327  0.5450 -0.5608 -0.3735
 8905SOL    HW138348   2.778   2.370   4.387  0.0624  1.3392 -0.7133
 8905SOL    HW238349   2.922   2.406   4.386 -0.3438  1.5838 -0.3388
 8906SOL     OW38350   2.825   1.392   3.839  0.4810 -0.0993  0.1075
 8906SOL    HW138351   2.789   1.480   3.846  1.9381  0.4643  0.5588
 8906SOL    HW238352   2.840   1.396   3.744  0.9362  0.9001  0.2272
 8907SOL     OW38353   0.977   2.242   9.984 -0.3480  0.2051 -0.7650
 8907SOL    HW138354   0.960   2.186  10.060 -1.1200  0.1738 -0.9567
 8907SOL    HW238355   0.943   2.325  10.019  1.2378  1.5936 -2.4958
 8908SOL     OW38356   2.143   3.656   9.290 -0.1887 -0.3949  0.2157
 8908SOL    HW138357   2.171   3.745   9.268  0.5993 -0.7449 -0.2019
 8908SOL    HW238358   2.147   3.605   9.210 -1.4294  0.0751 -0.1462
 8909SOL     OW38359   0.866   4.589   5.617 -0.2903 -0.2876 -0.1543
 8909SOL    HW138360   0.879   4.538   5.696 -0.7549  0.1609  0.2079
 8909SOL    HW238361   0.805   4.525   5.581 -0.7740  0.3254 -0.4331
 8910SOL     OW38362   3.756   2.456  11.054  0.7883 -0.0124 -0.0548
 8910SOL    HW138363   3.778   2.416  11.138  2.7833  0.2480 -0.4507
 8910SOL    HW238364   3.724   2.374  11.017  0.3684  1.3022 -2.6575
 8911SOL     OW38365   4.072   0.577  15.778 -0.0966 -0.1802  1.0387
 8911SOL    HW138366   4.015   0.602  15.850 -1.7988 -0.5572 -0.1857
 8911SOL    HW238367   4.152   0.557  15.826  1.6335  1.3189 -1.2213
 8912SOL     OW38368   1.799   2.898   7.515 -0.7284 -0.4556  0.7117
 8912SOL    HW138369   1.828   2.844   7.441 -0.6715  0.8168 -0.1848
 8912SOL    HW238370   1.818   2.828   7.578  0.4783 -0.3372  0.4871
 8913SOL     OW38371   0.577   0.798   0.741 -0.1284 -0.0244  0.1519
 8913SOL    HW138372   0.536   0.809   0.656 -0.2786 -0.9714  0.1033
 8913SOL    HW238373   0.518   0.858   0.787 -0.8382 -0.1282 -0.6369
 8914SOL     OW38374   2.791   0.929   3.844 -0.2303 -0.7716 -0.2583
 8914SOL    HW138375   2.819   0.997   3.904 -1.9230 -0.4300  0.1616
 8914SOL    HW238376   2.700   0.956   3.830 -0.4230 -1.7799 -1.0041
 8915SOL     OW38377   0.117   1.001  14.934  0.1254  0.4063 -0.0850
 8915SOL    HW138378   0.098   1.071  14.873 -2.2280 -0.8892 -0.8278
 8915SOL    HW238379   0.041   0.945  14.915 -0.2715  0.8907  0.0894
 8916SOL     OW38380   1.773   4.481   2.582  0.4619 -0.2449  0.5016
 8916SOL    HW138381   1.820   4.564   2.583 -0.7477  0.4476 -0.5899
 8916SOL    HW238382   1.837   4.414   2.559  0.5513  0.3424 -0.9251
 8917SOL     OW38383   0.705   0.026   6.892 -0.3422  0.1641 -0.2980
 8917SOL    HW138384   0.639   0.059   6.953  0.8079 -1.4797  1.7935
 8917SOL    HW238385   0.762   4.717   6.954  1.7134  1.3993 -1.3194
 8918SOL     OW38386   3.238   0.760   7.937 -0.0887 -0.4521  0.4601
 8918SOL    HW138387   3.153   0.718   7.950 -0.3054 -0.0646  0.2630
 8918SOL    HW238388   3.243   0.801   7.851  0.6255  1.8730  1.6063
 8919SOL     OW38389   4.598   3.341  10.236 -0.2468  1.0975 -0.3456
 8919SOL    HW138390   4.673   3.385  10.276  2.3586 -0.1872 -3.8394
 8919SOL    HW238391   4.633   3.253  10.222 -2.0402  0.4544 -0.8098
 8920SOL     OW38392   2.314   2.607  13.624  0.1970 -0.2269  0.0528
 8920SOL    HW138393   2.296   2.614  13.718  1.1068 -0.3726  0.2399
 8920SOL    HW238394   2.254   2.669  13.583  0.0075  1.0627  2.2807
 8921SOL     OW38395   1.173   3.985   8.322 -0.0854 -0.2453 -0.0265
 8921SOL    HW138396   1.208   4.004   8.409 -1.5019  0.7897  0.3194
 8921SOL    HW238397   1.119   3.906   8.326 -1.4133  0.5944 -1.3004
 8922SOL     OW38398   3.737   1.780   4.265 -0.0752 -0.3906 -0.0822
 8922SOL    HW138399   3.698   1.790   4.352  0.8087 -3.7178  0.7115
 8922SOL    HW238400   3.807   1.723   4.296 -0.8422 -0.0773  2.2607
 8923SOL     OW38401   4.669   0.769   5.312 -0.4887  0.0767  0.2624
 8923SOL    HW138402   4.677   0.804   5.223  0.4321 -2.0550 -0.4801
 8923SOL    HW238403   0.003   0.825   5.348  0.0667 -0.8428  0.6272
 8924SOL     OW38404   2.356   0.299   3.222 -0.4455  0.0546  0.3150
 8924SOL    HW138405   2.352   0.365   3.153 -1.0992  0.9091  1.1580
 8924SOL    HW238406   2.300   0.223   3.204  0.5333 -0.6131  0.0724
 8925SOL     OW38407   0.779   2.578   2.117 -0.2499  0.3141 -0.3059
 8925SOL    HW138408   0.791   2.618   2.203  0.0895 -0.4564  0.0103
 8925SOL    HW238409   0.718   2.511   2.147  0.8484  0.3893  2.1454
 8926SOL     OW38410   2.310   0.877   6.157  0.3597  0.0191  0.1179
 8926SOL    HW138411   2.292   0.783   6.158  2.3311 -0.3641 -0.7730
 8926SOL    HW238412   2.355   0.885   6.073  0.6161  1.0821  0.3663
 8927SOL     OW38413   0.368   2.580   4.943  0.0390 -0.5818  0.1480
 8927SOL    HW138414   0.376   2.670   4.975 -0.9168 -0.9052  1.3397
 8927SOL    HW238415   0.389   2.603   4.853  2.2390 -1.7736  0.3759
 8928SOL     OW38416   4.672   4.596   0.121  0.3118 -0.0851  0.0043
 8928SOL    HW138417   4.631   4.510   0.130  3.2092 -1.2174  2.2969
 8928SOL    HW238418   4.595   4.653   0.130 -0.6143 -1.2198 -0.7645
 8929SOL     OW38419   0.309   2.926   1.800 -0.3327 -0.1416 -0.3870
 8929SOL    HW138420   0.301   2.840   1.841  1.7118  0.6096  1.5888
 8929SOL    HW238421   0.294   2.912   1.706  1.3011 -1.1809 -0.4942
 8930SOL     OW38422   4.509   2.842   0.109 -0.5755 -0.9353 -0.2561
 8930SOL    HW138423   4.468   2.846   0.195 -0.4394  2.6466 -0.3621
 8930SOL    HW238424   4.599   2.869   0.123 -0.1456 -0.8783 -3.0878
 8931SOL     OW38425   3.087   2.193   8.871 -0.7310 -0.1479 -0.6054
 8931SOL    HW138426   3.052   2.279   8.848 -0.0759  0.7186  1.5880
 8931SOL    HW238427   3.018   2.173   8.935 -0.3573 -0.5304 -0.3225
 8932SOL     OW38428   3.097   2.770   3.414 -0.1481  0.7807 -0.0816
 8932SOL    HW138429   3.145   2.689   3.430 -0.7064  0.4672 -0.0032
 8932SOL    HW238430   3.032   2.770   3.484 -0.4296  0.5516 -0.3435
 8933SOL     OW38431   1.277   4.669   3.191  0.1881 -0.1630  0.1051
 8933SOL    HW138432   1.353   4.612   3.203 -0.3096 -1.2605 -1.9228
 8933SOL    HW238433   1.315   0.021   3.202  0.2137  0.1151 -2.1127
 8934SOL     OW38434   1.854   2.174   2.521 -0.1954 -0.8597  0.8309
 8934SOL    HW138435   1.921   2.240   2.541 -0.3339 -0.3146 -0.4938
 8934SOL    HW238436   1.793   2.245   2.499  0.3989 -0.5850  0.0342
 8935SOL     OW38437   4.024   1.970   3.631 -0.2598 -0.2805 -0.1636
 8935SOL    HW138438   4.033   1.875   3.619  1.4645 -0.0624 -0.6107
 8935SOL    HW238439   4.109   2.004   3.600 -1.3395 -0.3579 -3.2406
 8936SOL     OW38440   3.611   1.457   1.778 -0.1753 -0.1289  0.3558
 8936SOL    HW138441   3.615   1.522   1.708 -0.8027 -0.9310 -0.4173
 8936SOL    HW238442   3.567   1.505   1.848  0.3531  0.8804  0.0004
 8937SOL     OW38443   1.444   0.172   6.465  0.3414  0.0692 -0.5307
 8937SOL    HW138444   1.518   0.145   6.518  0.3441 -4.1718 -2.6647
 8937SOL    HW238445   1.427   0.096   6.409 -1.3511 -0.6442  0.9581
 8938SOL     OW38446   2.860   0.271   4.448  0.0117 -0.5225  0.3246
 8938SOL    HW138447   2.841   0.281   4.541  1.8152  1.7431  0.4698
 8938SOL    HW238448   2.817   0.349   4.413  1.1759  0.7055  1.6243
 8939SOL     OW38449   2.810   0.471   2.709 -0.0756  0.7239  0.0713
 8939SOL    HW138450   2.905   0.471   2.697 -0.2122 -2.5702 -0.9982
 8939SOL    HW238451   2.803   0.440   2.799 -0.9029  0.7258  0.0053
 8940SOL     OW38452   3.318   2.263   2.532 -0.2171 -0.2780  0.5494
 8940SOL    HW138453   3.406   2.293   2.554 -1.0800  1.9344  1.0028
 8940SOL    HW238454   3.272   2.347   2.533 -0.7995 -0.6060  1.5439
 8941SOL     OW38455   3.817   2.347   3.088  0.3382  0.5707  0.6643
 8941SOL    HW138456   3.846   2.329   2.999  2.3300 -0.1653  1.4738
 8941SOL    HW238457   3.833   2.440   3.102  0.9259  0.5406  0.1553
 8942SOL     OW38458   3.288   3.866   1.579 -0.1248 -0.5923 -0.1453
 8942SOL    HW138459   3.276   3.771   1.583 -0.7330 -0.4731  1.0325
 8942SOL    HW238460   3.328   3.877   1.493 -0.9242 -0.6817 -0.5348
 8943SOL     OW38461   1.659   2.043   7.012  0.4289 -0.3880 -0.7785
 8943SOL    HW138462   1.570   2.008   7.009  0.5039 -0.4499 -2.0141
 8943SOL    HW238463   1.677   2.057   6.919  0.8146 -0.2639 -0.6856
 8944SOL     OW38464   2.956   2.468   6.388  0.2526  0.4006  0.2457
 8944SOL    HW138465   3.023   2.402   6.406  2.0782  1.4013 -2.9092
 8944SOL    HW238466   2.894   2.451   6.459  1.6465 -0.2565  1.3204
 8945SOL     OW38467   4.704   2.550   6.982 -0.2006  0.0632  0.2809
 8945SOL    HW138468   4.623   2.592   7.012  0.4376  2.5654 -1.4974
 8945SOL    HW238469   4.734   2.498   7.057 -1.6264 -0.9359  0.1715
 8946SOL     OW38470   0.755   2.824   7.000  0.0463  0.0098 -0.1137
 8946SOL    HW138471   0.849   2.833   6.990  0.0317  0.1817 -0.1008
 8946SOL    HW238472   0.734   2.754   6.938  1.1906  0.2087 -0.7206
 8947SOL     OW38473   2.113   3.978   2.226 -0.1242 -0.0366 -0.3555
 8947SOL    HW138474   2.163   3.969   2.307 -0.7005  0.8795  0.0977
 8947SOL    HW238475   2.188   3.978   2.166  0.6609  2.1303  0.6228
 8948SOL     OW38476   3.886   3.691   7.147 -0.0549 -0.1435 -0.2629
 8948SOL    HW138477   3.857   3.782   7.150 -0.2199 -0.1711 -1.0683
 8948SOL    HW238478   3.832   3.656   7.077 -1.3207 -0.3039  0.7921
 8949SOL     OW38479   3.799   1.103  17.036  0.5565 -0.1023  0.0103
 8949SOL    HW138480   3.790   1.195  17.010 -0.0868  0.4485  2.1199
 8949SOL    HW238481   3.719   1.087  17.086 -0.9202 -0.4442 -2.4919
 8950SOL     OW38482   1.436   3.807   7.421 -0.7331 -0.3080 -0.7664
 8950SOL    HW138483   1.350   3.786   7.386 -0.8817 -2.6107  0.9583
 8950SOL    HW238484   1.446   3.729   7.476 -0.8451  1.0106  1.0991
 8951SOL     OW38485   1.998   4.641   7.289 -0.1491 -0.6182  0.4194
 8951SOL    HW138486   1.959   4.578   7.229  0.0412  1.1215 -1.5565
 8951SOL    HW238487   1.941   4.718   7.284  0.3312 -0.3282 -0.6220
 8952SOL     OW38488   3.115   2.554   1.915  0.3212  0.0981  0.1819
 8952SOL    HW138489   3.155   2.506   1.987  1.7420  0.2974 -0.4933
 8952SOL    HW238490   3.056   2.484   1.885  0.7809 -0.0874 -0.2832
 8953SOL     OW38491   4.307   0.457   8.661 -0.2795  0.1971 -0.1911
 8953SOL    HW138492   4.326   0.398   8.588  0.8124  2.8775 -2.0727
 8953SOL    HW238493   4.393   0.490   8.688 -1.1502  0.4782  2.2568
 8954SOL     OW38494   0.596   0.491   6.027 -0.1201  0.0798  0.4737
 8954SOL    HW138495   0.666   0.548   5.997 -0.3903  0.6073  0.8437
 8954SOL    HW238496   0.651   0.435   6.083  0.6956  0.8148  0.4025
 8955SOL     OW38497   4.088   4.134   8.258 -0.1010 -0.2052  0.0811
 8955SOL    HW138498   4.062   4.050   8.296  0.6698 -0.5911 -0.2543
 8955SOL    HW238499   4.041   4.186   8.324  0.9232  0.9001 -0.0493
 8956SOL     OW38500   3.950   2.079  10.299 -0.5147 -0.3918 -0.5571
 8956SOL    HW138501   3.884   2.096  10.231 -0.7478 -1.9654 -0.7273
 8956SOL    HW238502   4.014   2.145  10.274  0.2743 -0.8270  0.3286
 8957SOL     OW38503   0.362   0.681  13.218 -0.0110  0.3459 -0.0229
 8957SOL    HW138504   0.327   0.598  13.188 -1.4623  1.3852 -1.1935
 8957SOL    HW238505   0.438   0.664  13.274 -0.9556 -0.4064  1.0232
 8958SOL     OW38506   3.510   3.957   7.237 -0.2286 -0.0941 -0.1126
 8958SOL    HW138507   3.571   4.019   7.277  1.3489 -1.7679  0.0988
 8958SOL    HW238508   3.457   4.009   7.177  1.1439  1.1379 -0.2522
 8959SOL     OW38509   0.194   0.534   3.227 -0.5016 -0.3832  0.0606
 8959SOL    HW138510   0.262   0.509   3.289  0.2940  1.4497 -0.0523
 8959SOL    HW238511   0.128   0.466   3.240  0.0134 -1.3126 -2.1625
 8960SOL     OW38512   0.337   2.922  10.563 -0.2690  0.0843  0.9424
 8960SOL    HW138513   0.409   2.880  10.610  1.0874  1.8654  0.4405
 8960SOL    HW238514   0.261   2.900  10.617 -1.0674 -0.3809 -0.3650
 8961SOL     OW38515   1.763   0.209   0.292 -0.0857  0.3414 -0.1899
 8961SOL    HW138516   1.671   0.232   0.294 -0.1252  0.0600  0.9929
 8961SOL    HW238517   1.768   0.114   0.304  1.0222  0.2941 -0.9647
 8962SOL     OW38518   2.490   1.741   8.813 -0.3572  0.2396  0.3273
 8962SOL    HW138519   2.569   1.788   8.839  0.3920 -0.1772 -1.2085
 8962SOL    HW238520   2.422   1.775   8.872  0.9945  2.1220  0.8044
 8963SOL     OW38521   3.243   1.175   8.591  0.0518  0.8403  0.4181
 8963SOL    HW138522   3.215   1.224   8.668 -0.1533  1.4969 -0.0679
 8963SOL    HW238523   3.161   1.136   8.560 -0.7642  1.9626  1.1531
 8964SOL     OW38524   2.721   4.277   3.431 -0.1057  0.0953  0.4406
 8964SOL    HW138525   2.671   4.269   3.350  0.3958  0.5948  0.0868
 8964SOL    HW238526   2.724   4.372   3.447 -1.3225  0.0639  0.8337
 8965SOL     OW38527   0.596   3.840   7.446  0.3070 -0.4016  0.5104
 8965SOL    HW138528   0.652   3.904   7.402  1.1281  0.2931  2.5511
 8965SOL    HW238529   0.588   3.764   7.388 -0.6219  1.9040 -2.3660
 8966SOL     OW38530   1.462   2.228   4.488  0.7522  0.7504 -0.1266
 8966SOL    HW138531   1.510   2.311   4.491  0.2899  1.0072  0.1373
 8966SOL    HW238532   1.413   2.217   4.570  0.2445 -1.3210 -0.7135
 8967SOL     OW38533   4.364   0.650   8.423  0.0498 -0.1854  0.0750
 8967SOL    HW138534   4.310   0.606   8.489  3.6372 -2.4892  1.4516
 8967SOL    HW238535   4.322   0.609   8.347  0.7141 -3.4026  1.4346
 8968SOL     OW38536   4.097   2.056   2.143  0.3046  0.2371 -0.8172
 8968SOL    HW138537   4.016   2.091   2.107 -0.2727  0.0460  0.3044
 8968SOL    HW238538   4.155   2.074   2.069  0.8729  3.1600  0.3622
 8969SOL     OW38539   3.006   2.153  15.515 -0.0310  0.8290  0.1836
 8969SOL    HW138540   3.009   2.186  15.605 -2.1394  0.5707  0.3602
 8969SOL    HW238541   3.063   2.212  15.465 -0.8657  1.5879  0.1239
 8970SOL     OW38542   2.428   1.807   6.228  0.2319 -0.3644 -0.1124
 8970SOL    HW138543   2.485   1.768   6.295 -0.2169 -1.4720 -0.3718
 8970SOL    HW238544   2.368   1.733   6.216 -1.7206  1.5115 -2.0664
 8971SOL     OW38545   2.729   3.555  10.035 -0.6920 -0.5952 -0.5587
 8971SOL    HW138546   2.654   3.502  10.010 -2.2547  0.9002  0.9703
 8971SOL    HW238547   2.747   3.528  10.126  1.9470  2.1340 -0.2904
 8972SOL     OW38548   3.833   4.080   6.143  0.0834  0.3119  0.6747
 8972SOL    HW138549   3.845   4.122   6.228  1.4624  2.0454 -0.3793
 8972SOL    HW238550   3.747   4.041   6.159  0.1739  0.1877  0.8557
 8973SOL     OW38551   2.758   3.826   2.876 -0.5616  0.0268  0.5419
 8973SOL    HW138552   2.663   3.825   2.864 -0.5454 -0.4208  0.4487
 8973SOL    HW238553   2.781   3.890   2.809  0.0735 -1.4804 -0.6830
 8974SOL     OW38554   1.441   4.142  14.370  0.2787 -0.0622 -0.0533
 8974SOL    HW138555   1.418   4.152  14.278  0.6666  2.1733  0.1035
 8974SOL    HW238556   1.494   4.220  14.384 -2.5203  2.0411 -1.1554
 8975SOL     OW38557   3.579   0.431   1.990  0.3372  0.0885  0.6566
 8975SOL    HW138558   3.496   0.397   1.956  0.3840  1.2180 -0.5940
 8975SOL    HW238559   3.587   0.393   2.078 -1.5704 -0.8147  0.4330
 8976SOL     OW38560   4.626   3.099   6.048  0.2201  0.0854  0.4604
 8976SOL    HW138561   4.569   3.108   6.124 -2.0492 -0.0778 -1.2167
 8976SOL    HW238562   4.629   3.188   6.013 -0.3684  0.6099  1.7642
 8977SOL     OW38563   3.110   0.034   9.299 -0.3165  0.6610 -0.0846
 8977SOL    HW138564   3.085   4.715   9.224  1.9339 -0.9723  0.3471
 8977SOL    HW238565   3.034   0.091   9.305  0.6649  2.1190 -1.4526
 8978SOL     OW38566   1.842   2.688   7.921 -0.6559 -0.1042  0.2166
 8978SOL    HW138567   1.922   2.740   7.924 -0.5738 -0.2168 -0.0318
 8978SOL    HW238568   1.772   2.739   7.962  0.9924  1.2122  1.3710
 8979SOL     OW38569   4.545   4.550   6.088 -0.7561  0.1242  0.3689
 8979SOL    HW138570   4.475   4.614   6.098 -0.2717  0.5451  1.0786
 8979SOL    HW238571   4.489   4.474   6.104  3.0691 -2.3876  2.1193
 8980SOL     OW38572   4.472   3.285   8.262 -0.4305  0.8508 -0.2013
 8980SOL    HW138573   4.526   3.222   8.309  0.1548  0.1927 -1.7582
 8980SOL    HW238574   4.450   3.341   8.337 -3.1433 -1.1456  0.4741
 8981SOL     OW38575   4.679   4.419   1.951 -0.3688  0.3481 -0.1340
 8981SOL    HW138576   4.624   4.485   1.993 -2.5223 -0.7409 -1.2545
 8981SOL    HW238577   4.708   4.375   2.031  0.4525 -0.4048 -0.8436
 8982SOL     OW38578   4.183   0.074   2.400  0.2382  0.2461 -0.4851
 8982SOL    HW138579   4.256   0.107   2.348  1.9764 -1.3139  0.9682
 8982SOL    HW238580   4.215   4.722   2.423 -0.8118  0.1986  0.8145
 8983SOL     OW38581   0.481   0.213   5.174 -0.2670  0.5886 -0.5111
 8983SOL    HW138582   0.387   0.225   5.161 -0.5236  0.9513  1.8220
 8983SOL    HW238583   0.504   0.198   5.082  0.7813 -0.5746 -0.0546
 8984SOL     OW38584   2.866   2.601   5.689  0.2707 -0.2604 -0.0405
 8984SOL    HW138585   2.824   2.593   5.603  1.3979 -0.5544 -0.5670
 8984SOL    HW238586   2.959   2.586   5.673  0.2083 -1.4744  0.7452
 8985SOL     OW38587   0.560   0.074   1.061 -0.0396  0.4746 -0.1962
 8985SOL    HW138588   0.533   0.150   1.113  1.5485  0.8592  0.0474
 8985SOL    HW238589   0.560   0.098   0.968 -0.7147  2.3623  0.2992
 8986SOL     OW38590   1.787   4.416   4.150 -0.2450 -0.2141  0.3824
 8986SOL    HW138591   1.700   4.383   4.131 -1.5320  3.2810  0.1295
 8986SOL    HW238592   1.818   4.354   4.216  2.7817 -0.1651 -0.9852
 8987SOL     OW38593   3.925   3.294   1.744 -0.3054  0.4261 -0.3267
 8987SOL    HW138594   3.852   3.242   1.709 -0.7468  2.6761 -2.7172
 8987SOL    HW238595   3.996   3.288   1.679  1.0115 -0.6655  1.2162
 8988SOL     OW38596   3.435   3.105   6.808 -0.5625 -0.2394 -0.3379
 8988SOL    HW138597   3.522   3.065   6.801 -0.4672 -0.2824  1.0222
 8988SOL    HW238598   3.435   3.162   6.731 -1.0196  0.5530  0.2542
 8989SOL     OW38599   1.634   4.427   9.828 -0.3089  0.2917 -0.2537
 8989SOL    HW138600   1.690   4.399   9.756  0.2049  1.1246 -0.1823
 8989SOL    HW238601   1.562   4.473   9.786 -1.0233  0.2361  0.9155
 8990SOL     OW38602   3.038   4.037   1.736  0.1071 -0.1529  0.6973
 8990SOL    HW138603   3.097   3.980   1.686 -1.2325  0.0670 -1.1477
 8990SOL    HW238604   3.068   4.120   1.700  2.4677 -0.0423  2.9122
 8991SOL     OW38605   2.295   2.647   2.391  0.0295  0.0801  0.0460
 8991SOL    HW138606   2.211   2.619   2.356  0.2346 -1.0764  0.4740
 8991SOL    HW238607   2.301   2.611   2.480  1.1046  0.4043  0.1089
 8992SOL     OW38608   2.932   1.525   4.686  0.1082 -0.5167  0.5600
 8992SOL    HW138609   2.965   1.554   4.601 -0.2450 -1.3811  0.1217
 8992SOL    HW238610   2.871   1.595   4.710  0.8866  0.9611 -1.8191
 8993SOL     OW38611   1.357   2.295   8.836 -0.2627 -0.1778  0.0235
 8993SOL    HW138612   1.372   2.233   8.907 -1.7646  0.7685  1.1568
 8993SOL    HW238613   1.448   2.293   8.804 -0.1162 -1.0511  0.4927
 8994SOL     OW38614   0.559   1.175   5.455  0.7479  0.1380  0.1746
 8994SOL    HW138615   0.652   1.152   5.460  0.4749 -1.0374 -0.1801
 8994SOL    HW238616   0.566   1.251   5.396 -1.5910  0.0967 -0.1487
 8995SOL     OW38617   2.378   0.559  12.362  0.3880  0.1925 -0.0182
 8995SOL    HW138618   2.392   0.551  12.268 -1.5331  2.2933 -0.4644
 8995SOL    HW238619   2.283   0.555  12.370  0.4374 -2.3558 -0.7808
 8996SOL     OW38620   0.566   1.025  15.939  0.4162  0.2125  0.0203
 8996SOL    HW138621   0.524   1.018  16.025  1.5069 -1.0000  0.4425
 8996SOL    HW238622   0.633   0.957  15.936  0.5490  0.2787  1.6613
 8997SOL     OW38623   4.152   3.138   2.224  0.3106  0.2579  0.1875
 8997SOL    HW138624   4.185   3.195   2.154  1.5133 -0.8682 -0.1684
 8997SOL    HW238625   4.141   3.206   2.291 -1.6831 -0.2833  0.3791
 8998SOL     OW38626   4.077   2.429  10.863 -0.9452  0.0719 -0.5701
 8998SOL    HW138627   4.062   2.506  10.918  1.9263 -0.7956  1.4695
 8998SOL    HW238628   4.165   2.405  10.894 -1.2126  0.4075  0.4291
 8999SOL     OW38629   3.625   0.314  15.307  0.3507  0.2196 -0.6738
 8999SOL    HW138630   3.662   0.393  15.268  0.2717 -0.8585 -2.9248
 8999SOL    HW238631   3.701   0.255  15.312 -0.7208 -1.2454 -1.4133
 9000SOL     OW38632   1.990   0.257   4.865  0.0345  0.7842  0.6604
 9000SOL    HW138633   1.976   0.219   4.778 -1.7362  0.6625  0.9958
 9000SOL    HW238634   2.058   0.323   4.855 -1.3521  2.1620  0.3786
 9001SOL     OW38635   3.550   4.393   8.957  0.0300  0.6530  0.4382
 9001SOL    HW138636   3.471   4.427   8.915  0.6627  2.3092  0.5567
 9001SOL    HW238637   3.544   4.303   8.927  3.1445  0.3908  0.5471
 9002SOL     OW38638   0.139   0.097  15.709  0.2630  0.2468  0.2907
 9002SOL    HW138639   0.208   0.160  15.689  1.7820 -1.3881  0.3629
 9002SOL    HW238640   0.068   0.161  15.715  1.1485  1.1726  1.0968
 9003SOL     OW38641   4.376   0.615  17.717 -0.1376  0.3415  0.1663
 9003SOL    HW138642   4.347   0.591  17.628 -3.3242 -0.7926  1.5171
 9003SOL    HW238643   4.325   0.693  17.735  1.0635  0.5529  2.5486
 9004SOL     OW38644   3.670   3.205   3.828  0.0615 -0.4805  0.1175
 9004SOL    HW138645   3.755   3.170   3.853 -0.3475  0.7294  3.2340
 9004SOL    HW238646   3.630   3.230   3.911  1.3648 -0.7395  0.8265
 9005SOL     OW38647   1.876   1.994   9.062 -0.2352 -0.1822  0.3641
 9005SOL    HW138648   1.920   1.977   8.978  0.8538 -0.2237  0.9357
 9005SOL    HW238649   1.902   1.914   9.108 -0.8874 -0.4012  0.3539
 9006SOL     OW38650   3.135   1.359   2.088 -0.0101  0.3552 -0.5052
 9006SOL    HW138651   3.057   1.393   2.045 -0.8074  0.3948  0.9840
 9006SOL    HW238652   3.143   1.278   2.037 -0.0215 -1.5836  2.6001
 9007SOL     OW38653   2.839   2.692   8.097 -0.2551  0.7666  0.7515
 9007SOL    HW138654   2.862   2.680   8.005  0.5984  0.9522  0.9398
 9007SOL    HW238655   2.920   2.723   8.137 -0.1461  1.3738  0.0616
 9008SOL     OW38656   2.523   0.971   3.761 -0.3731 -0.1356  0.1034
 9008SOL    HW138657   2.471   1.051   3.770 -0.3913 -0.1752  0.3279
 9008SOL    HW238658   2.475   0.906   3.813 -1.4516 -0.4954 -1.3305
 9009SOL     OW38659   4.385   0.083   1.311  0.6152  0.0669  0.0400
 9009SOL    HW138660   4.328   0.061   1.237 -1.4184  1.6299  1.1239
 9009SOL    HW238661   4.336   0.159   1.344  2.3487  1.1722  0.0885
 9010SOL     OW38662   4.341   2.939  17.625  0.6472 -0.0309 -0.4162
 9010SOL    HW138663   4.395   2.909  17.699 -1.0641 -2.4413 -0.1176
 9010SOL    HW238664   4.391   3.011  17.587  1.8096 -0.6003  0.0232
 9011SOL     OW38665   2.295   2.697   3.381  0.1954 -0.0158  0.6290
 9011SOL    HW138666   2.305   2.640   3.305 -0.2061 -0.7322  1.1087
 9011SOL    HW238667   2.209   2.673   3.415 -0.9618  1.6167 -1.1611
 9012SOL     OW38668   1.487   2.236  13.074 -0.3039 -0.6963  0.3504
 9012SOL    HW138669   1.436   2.226  13.155 -0.9900 -1.7315 -0.2137
 9012SOL    HW238670   1.567   2.187  13.090 -0.6020 -0.5621  2.2867
 9013SOL     OW38671   2.836   1.017   7.025 -0.3715  0.1292  0.7366
 9013SOL    HW138672   2.928   1.037   7.039 -0.2672 -0.4725  0.9258
 9013SOL    HW238673   2.791   1.081   7.079 -0.1697  0.5424  0.4099
 9014SOL     OW38674   2.149   1.300  15.764 -0.3563 -0.1255  0.0983
 9014SOL    HW138675   2.174   1.357  15.692 -0.9403  0.5522  0.4333
 9014SOL    HW238676   2.154   1.362  15.837 -0.7477 -1.1477  0.9917
 9015SOL     OW38677   3.132   3.352   5.208 -0.0008 -0.2061 -0.6613
 9015SOL    HW138678   3.069   3.385   5.272  2.6489  1.3741  1.1532
 9015SOL    HW238679   3.148   3.432   5.157  0.0992  0.4074  0.3372
 9016SOL     OW38680   3.666   2.466  13.928 -0.3533  0.4259 -0.1188
 9016SOL    HW138681   3.582   2.506  13.950 -1.1766  0.0010 -2.5405
 9016SOL    HW238682   3.681   2.418  14.010  0.7219 -0.7948 -1.0442
 9017SOL     OW38683   2.687   3.902   9.191  0.1858 -0.4591 -0.4684
 9017SOL    HW138684   2.599   3.869   9.175  0.4197  0.8105 -4.5156
 9017SOL    HW238685   2.735   3.828   9.226  2.5373  1.0732 -0.4033
 9018SOL     OW38686   4.028   0.597  11.536 -0.6495 -0.0365  0.6471
 9018SOL    HW138687   4.095   0.645  11.487 -0.9058 -1.2046 -0.8803
 9018SOL    HW238688   4.013   0.663  11.603  0.4394  0.1897  0.6725
 9019SOL     OW38689   2.722   3.458  16.446  0.1685 -0.2024 -0.0116
 9019SOL    HW138690   2.800   3.414  16.478  1.3834  0.1330 -2.5427
 9019SOL    HW238691   2.688   3.497  16.526  1.3072 -2.5674  1.6077
 9020SOL     OW38692   3.571   3.139  11.174  0.0066  0.1824  0.4289
 9020SOL    HW138693   3.492   3.139  11.228  0.2014 -1.6307  0.7098
 9020SOL    HW238694   3.572   3.050  11.140  0.4551  0.1269  0.5823
 9021SOL     OW38695   0.732   4.229  15.501 -0.3597 -0.2249 -0.4832
 9021SOL    HW138696   0.802   4.263  15.445  0.0533 -3.2340 -1.8023
 9021SOL    HW238697   0.758   4.143  15.535  0.6146 -0.1285 -0.9730
 9022SOL     OW38698   0.658   0.055   9.178 -0.9073 -0.6652  0.2460
 9022SOL    HW138699   0.718   0.112   9.130 -0.5559 -1.0741  0.2026
 9022SOL    HW238700   0.702   4.706   9.164  0.5186  0.0665  0.2951
 9023SOL     OW38701   3.397   4.504   7.133 -0.6137  0.8855 -0.6858
 9023SOL    HW138702   3.393   4.545   7.047 -0.1301 -0.2325 -1.2428
 9023SOL    HW238703   3.329   4.551   7.182 -2.3483 -1.3791 -0.9099
 9024SOL     OW38704   2.107   2.212   3.211  0.2403  0.0549  0.1264
 9024SOL    HW138705   2.085   2.142   3.149  1.8808  0.4028 -0.8790
 9024SOL    HW238706   2.192   2.231   3.170  1.4916 -3.4585  1.0453
 9025SOL     OW38707   3.778   2.757   7.477  0.2873  0.3720 -0.3900
 9025SOL    HW138708   3.826   2.713   7.547  0.8550  0.8573 -0.4696
 9025SOL    HW238709   3.792   2.699   7.403  0.1709  1.4819 -1.2885
 9026SOL     OW38710   4.050   3.993   1.808  0.5429  0.1257  0.0232
 9026SOL    HW138711   4.145   4.000   1.804  0.7270 -0.6548  3.1905
 9026SOL    HW238712   4.046   3.966   1.900 -3.6985 -1.2304 -0.5675
 9027SOL     OW38713   4.222   1.130   5.606 -0.3350 -0.1545 -0.2433
 9027SOL    HW138714   4.153   1.091   5.659  1.0662 -0.1760  1.5587
 9027SOL    HW238715   4.197   1.125   5.514  0.8360  1.2631 -0.6453
 9028SOL     OW38716   4.036   4.712  11.270  0.3963 -0.1245 -0.1284
 9028SOL    HW138717   4.094   0.048  11.299 -1.0615  1.8935 -2.1255
 9028SOL    HW238718   3.951   0.000  11.307  0.1035 -1.6571  0.1515
 9029SOL     OW38719   0.464   0.755   6.409 -0.5840  0.1106 -0.0784
 9029SOL    HW138720   0.499   0.668   6.429  1.5372  0.9948  0.0735
 9029SOL    HW238721   0.429   0.771   6.497 -1.0295  0.8344 -0.3837
 9030SOL     OW38722   1.224   2.514  13.606  0.4429  0.2643 -0.4207
 9030SOL    HW138723   1.300   2.564  13.576  1.0270 -0.3030  0.1466
 9030SOL    HW238724   1.176   2.494  13.525  0.5955 -1.7831  0.0060
 9031SOL     OW38725   3.752   3.293   2.997 -0.6155  0.2518 -0.3997
 9031SOL    HW138726   3.716   3.376   3.029 -0.3123  0.7875 -1.4419
 9031SOL    HW238727   3.674   3.243   2.972  0.3944 -2.4579  1.9308
 9032SOL     OW38728   3.120   3.075   1.793 -0.1298 -0.3516 -0.0885
 9032SOL    HW138729   3.031   3.068   1.827 -0.5369 -1.8618 -1.4608
 9032SOL    HW238730   3.163   3.028   1.864  0.0568  2.3915  1.6129
 9033SOL     OW38731   1.069   4.703   7.310  0.0486  0.2114 -0.0353
 9033SOL    HW138732   1.129   4.632   7.285 -0.7131  0.0250 -1.3709
 9033SOL    HW238733   1.121   0.045   7.285 -1.2544  1.0048 -0.2643
 9034SOL     OW38734   3.842   3.550   1.832  0.1754  0.0175 -0.3789
 9034SOL    HW138735   3.875   3.622   1.778  0.9755  0.7277  1.0538
 9034SOL    HW238736   3.896   3.483   1.791  0.2945  0.1547 -0.4470
 9035SOL     OW38737   2.329   2.412   2.871  0.0736  0.2636  0.0024
 9035SOL    HW138738   2.298   2.484   2.926 -1.3160 -0.6366  0.3805
 9035SOL    HW238739   2.258   2.351   2.891 -0.0352  0.6013  0.6722
 9036SOL     OW38740   0.030   3.118   7.359 -0.4207  0.6915 -0.1447
 9036SOL    HW138741   4.726   3.055   7.420  0.2957 -0.2916 -0.6985
 9036SOL    HW238742   4.700   3.188   7.372  0.2858  1.1705  0.7248
 9037SOL     OW38743   1.252   4.336   7.882  0.0205 -0.0207  0.3003
 9037SOL    HW138744   1.295   4.254   7.905  0.2844 -0.3656 -1.4679
 9037SOL    HW238745   1.163   4.324   7.915 -0.4959 -0.7767 -1.3995
 9038SOL     OW38746   2.838   4.433   4.699 -0.0572 -0.6059 -0.2771
 9038SOL    HW138747   2.844   4.523   4.666  0.9771 -0.2468  0.8781
 9038SOL    HW238748   2.923   4.422   4.741  1.5791  1.9529 -2.9526
 9039SOL     OW38749   3.349   1.434   1.100 -0.1003  0.3190  0.5318
 9039SOL    HW138750   3.427   1.488   1.089 -0.6602  1.5581  2.6532
 9039SOL    HW238751   3.337   1.414   1.008 -0.5155  0.3005  0.5914
 9040SOL     OW38752   4.245   0.463   3.270  0.2542  0.2784  0.7141
 9040SOL    HW138753   4.243   0.455   3.175 -0.8411  3.7727  0.4569
 9040SOL    HW238754   4.339   0.457   3.290 -0.2515  1.1662  3.3290
 9041SOL     OW38755   0.666   1.255   3.529  0.2096 -0.4421 -0.7502
 9041SOL    HW138756   0.736   1.191   3.526  3.1590  2.7305  0.5196
 9041SOL    HW238757   0.651   1.277   3.437  3.0200 -1.2192 -1.3602
 9042SOL     OW38758   2.455   3.676   0.217  0.3251 -0.1546  0.3091
 9042SOL    HW138759   2.490   3.665   0.306 -2.7126 -0.2546  1.4795
 9042SOL    HW238760   2.497   3.759   0.194 -2.5171  1.6057  1.6033
 9043SOL     OW38761   3.029   0.060   1.126 -0.2747 -0.7184  0.5968
 9043SOL    HW138762   3.014   0.109   1.206 -0.5975  2.7005 -1.5589
 9043SOL    HW238763   3.100   0.001   1.149  0.9890  0.3882 -0.4495
 9044SOL     OW38764   4.676   4.311   4.446 -0.2273 -0.1179  0.1297
 9044SOL    HW138765   4.724   4.260   4.511  3.5890  1.7438 -1.2404
 9044SOL    HW238766   4.621   4.246   4.402  0.9937  0.9085 -2.9191
 9045SOL     OW38767   0.660   2.853   2.669  0.3465 -0.3035 -0.3010
 9045SOL    HW138768   0.690   2.940   2.641  0.8062 -0.7580 -1.2521
 9045SOL    HW238769   0.730   2.827   2.729  0.4181  3.0677  1.0931
 9046SOL     OW38770   2.215   3.312   2.018  0.3235 -0.2280 -0.5541
 9046SOL    HW138771   2.309   3.295   2.028 -0.0286 -1.8324  0.0395
 9046SOL    HW238772   2.171   3.227   2.013 -0.4079 -0.0511  2.5846
 9047SOL     OW38773   3.986   2.979   1.038 -0.5190  0.3374  0.2940
 9047SOL    HW138774   3.983   2.905   1.098 -0.3812 -0.3361 -0.5194
 9047SOL    HW238775   4.074   2.968   1.002  0.2774 -0.1888  2.4348
 9048SOL     OW38776   2.493   2.126   7.432  0.0734 -0.4367  0.0437
 9048SOL    HW138777   2.452   2.173   7.504  2.3633 -0.6269  1.5037
 9048SOL    HW238778   2.419   2.111   7.374 -0.6729  0.0885  0.8567
 9049SOL     OW38779   4.591   1.312   8.659  0.0578 -0.9502 -0.2860
 9049SOL    HW138780   4.657   1.349   8.718  0.6812 -0.8169 -1.0698
 9049SOL    HW238781   4.546   1.260   8.726  1.4067 -1.3106  0.3352
 9050SOL     OW38782   2.218   3.901   9.238  0.2477  0.5098  0.6328
 9050SOL    HW138783   2.279   3.876   9.168 -1.6371 -0.0655 -0.7817
 9050SOL    HW238784   2.272   3.965   9.286  1.6855  1.2670 -1.9509
 9051SOL     OW38785   2.182   3.267   3.135  0.0707  0.0022 -0.6846
 9051SOL    HW138786   2.135   3.258   3.218  0.3263 -0.4156 -0.5846
 9051SOL    HW238787   2.140   3.209   3.072 -0.9714 -0.5805  0.5413
 9052SOL     OW38788   3.032   3.022   2.864  0.9456  0.1440  0.6224
 9052SOL    HW138789   3.050   3.087   2.932 -0.2423  1.0900  0.0418
 9052SOL    HW238790   3.075   2.944   2.900  0.8497  1.0068  2.6098
 9053SOL     OW38791   4.095   1.053   8.788 -0.2357 -0.4814  0.0573
 9053SOL    HW138792   4.029   1.043   8.857 -0.1459 -0.2392  0.1770
 9053SOL    HW238793   4.125   0.963   8.784  0.0300 -0.2747 -2.2740
 9054SOL     OW38794   2.951   3.025   9.352 -0.1950 -0.2201  0.4272
 9054SOL    HW138795   2.983   3.041   9.441 -2.5296 -0.7394  1.3634
 9054SOL    HW238796   2.864   3.064   9.349  0.2722  0.8164  0.4756
 9055SOL     OW38797   4.401   0.284   8.483 -0.2499 -0.5771 -0.1996
 9055SOL    HW138798   4.341   0.221   8.443  2.4004 -2.9714 -0.3727
 9055SOL    HW238799   4.481   0.259   8.436  0.6513  1.9391 -0.0017
 9056SOL     OW38800   4.491   0.149   2.811  0.5884 -0.0680  0.1822
 9056SOL    HW138801   4.434   0.202   2.867 -0.9790 -1.5482 -0.0263
 9056SOL    HW238802   4.570   0.200   2.792  1.5267 -1.5213  0.1905
 9057SOL     OW38803   1.287   0.683   1.364  0.1541 -0.3886 -0.3268
 9057SOL    HW138804   1.234   0.606   1.345 -0.3335 -0.7463  2.5085
 9057SOL    HW238805   1.287   0.682   1.460  1.5204 -0.5612 -0.3287
 9058SOL     OW38806   0.163   4.619  17.638  0.0516 -0.2350 -0.5497
 9058SOL    HW138807   0.242   4.661  17.672  1.3394 -1.4628 -1.9984
 9058SOL    HW238808   0.101   4.691  17.646  1.9069  0.9891  2.6229
 9059SOL     OW38809   3.946   2.303   7.899 -0.1144 -0.1952 -0.3444
 9059SOL    HW138810   3.984   2.283   7.984 -0.2730 -0.8823 -0.4365
 9059SOL    HW238811   3.872   2.243   7.894 -1.4292  1.4264 -0.3939
 9060SOL     OW38812   3.883   2.691   8.937 -0.0894 -0.0317 -0.2904
 9060SOL    HW138813   3.806   2.747   8.943  0.5860  0.6194  2.7126
 9060SOL    HW238814   3.868   2.659   9.026  1.8410 -1.4828 -0.4742
 9061SOL     OW38815   4.131   4.529   2.869  0.4513  0.2309 -0.3924
 9061SOL    HW138816   4.203   4.495   2.922  0.4501 -0.1914 -0.6600
 9061SOL    HW238817   4.095   4.608   2.910 -2.7236 -2.4941  2.1073
 9062SOL     OW38818   1.760   0.688   9.040  0.3230 -0.3707 -0.3941
 9062SOL    HW138819   1.726   0.681   9.129  1.0604  0.6439 -0.0333
 9062SOL    HW238820   1.687   0.735   8.998  2.1317  1.7789 -1.1198
 9063SOL     OW38821   0.003   4.482  14.268 -0.2227  0.1510 -0.0519
 9063SOL    HW138822   4.707   4.553  14.324  1.2628  0.7501  0.0127
 9063SOL    HW238823   0.090   4.508  14.236 -0.3153 -1.2127 -1.4083
 9064SOL     OW38824   2.657   0.574   7.682  0.0208  0.4145 -0.1368
 9064SOL    HW138825   2.711   0.521   7.623 -0.4517  0.7568 -0.8852
 9064SOL    HW238826   2.579   0.588   7.628  1.6171  0.3682 -2.4406
 9065SOL     OW38827   1.385   0.941   5.402 -0.4379 -0.0812 -0.1225
 9065SOL    HW138828   1.400   1.024   5.357 -0.1823  0.1386  0.3748
 9065SOL    HW238829   1.322   0.902   5.341  0.1358  0.3880 -1.0128
 9066SOL     OW38830   3.918   0.031   0.447 -0.6670 -0.4522  0.6158
 9066SOL    HW138831   3.940   4.688   0.397  2.3991  0.2256  0.9006
 9066SOL    HW238832   3.990   0.093   0.434 -1.3719  0.5563  1.4762
 9067SOL     OW38833   3.590   1.509  17.657 -0.2545  0.2040  0.0020
 9067SOL    HW138834   3.558   1.598  17.670 -1.0549 -0.2878  1.4260
 9067SOL    HW238835   3.511   1.463  17.630 -0.6641 -0.3473  2.0934
 9068SOL     OW38836   1.922   2.714  16.389 -0.1702  0.4338 -0.2536
 9068SOL    HW138837   1.940   2.749  16.477  1.2749  0.5174 -0.5789
 9068SOL    HW238838   2.016   2.713  16.374  0.0716  0.5348  1.1970
 9069SOL     OW38839   2.552   0.932  15.550 -0.2135 -0.1153  0.4611
 9069SOL    HW138840   2.533   0.850  15.504 -0.1074  0.5381 -0.7694
 9069SOL    HW238841   2.463   0.964  15.562 -0.1249 -0.1317  1.1533
 9070SOL     OW38842   1.154   2.414  10.660  0.4436 -0.1683 -0.0032
 9070SOL    HW138843   1.168   2.378  10.572 -3.0454  0.7773 -0.9847
 9070SOL    HW238844   1.236   2.396  10.706 -0.5745 -1.5500  1.2904
 9071SOL     OW38845   2.665   1.334   6.010  0.3943 -0.0460  0.2547
 9071SOL    HW138846   2.647   1.242   6.026 -1.0237  0.3119  0.6880
 9071SOL    HW238847   2.760   1.337   6.023  0.3935 -0.0405  0.2596
 9072SOL     OW38848   1.117   2.123   3.500 -0.0584 -0.2199  0.0402
 9072SOL    HW138849   1.158   2.160   3.421 -1.1928  0.1229 -0.3881
 9072SOL    HW238850   1.028   2.140   3.470  0.0911  1.4297  0.5280
 9073SOL     OW38851   3.180   0.691   3.381 -0.1371  0.6277 -0.1054
 9073SOL    HW138852   3.166   0.597   3.372 -2.1066  1.1272 -2.3294
 9073SOL    HW238853   3.099   0.725   3.342 -0.2444 -1.3306 -1.6155
 9074SOL     OW38854   0.218   0.704   2.301 -0.2537 -0.2100 -0.3987
 9074SOL    HW138855   0.299   0.752   2.317 -0.8422  0.4052  0.8200
 9074SOL    HW238856   0.162   0.750   2.364  0.6768  1.9705 -1.1346
 9075SOL     OW38857   4.169   0.766  17.306  0.6718  0.5631  0.0032
 9075SOL    HW138858   4.261   0.769  17.334  0.6171  0.3641  0.1980
 9075SOL    HW238859   4.130   0.811  17.381  1.8185  0.9791  0.3501
 9076SOL     OW38860   2.168   1.251   2.822 -0.4657  0.3894 -0.2437
 9076SOL    HW138861   2.123   1.253   2.907  0.4062 -0.7256  0.2478
 9076SOL    HW238862   2.239   1.187   2.830 -2.4975 -1.9536 -0.8093
 9077SOL     OW38863   3.162   3.928   8.100  0.1378  0.1338  0.4599
 9077SOL    HW138864   3.143   3.880   8.020 -1.4538  0.2890  0.7386
 9077SOL    HW238865   3.129   4.013   8.068 -2.7305 -1.6017 -1.1952
 9078SOL     OW38866   0.229   3.739  17.183 -0.0342 -0.1470 -0.1340
 9078SOL    HW138867   0.177   3.741  17.263  0.7795 -0.9417  0.4148
 9078SOL    HW238868   0.303   3.690  17.218  0.1177 -0.6028 -1.1012
 9079SOL     OW38869   1.517   4.479   2.600 -0.3000  0.2027  0.3735
 9079SOL    HW138870   1.611   4.488   2.585 -0.2909  0.4829  0.6309
 9079SOL    HW238871   1.496   4.490   2.507  2.2071 -2.3130 -0.5008
 9080SOL     OW38872   2.373   2.812   7.039 -0.4732  0.1739  0.1362
 9080SOL    HW138873   2.349   2.901   7.015  0.5736  0.1440 -1.0048
 9080SOL    HW238874   2.368   2.819   7.134  2.1671  2.3462  0.1040
 9081SOL     OW38875   0.547   3.199   7.310 -0.0803 -0.3444 -0.1977
 9081SOL    HW138876   0.558   3.128   7.247 -0.8682  2.0597 -3.0196
 9081SOL    HW238877   0.453   3.194   7.325  0.3549 -5.7836  0.8683
 9082SOL     OW38878   2.725   3.405  13.474  0.5927 -0.1328 -0.0203
 9082SOL    HW138879   2.683   3.490  13.477 -0.7860 -0.8637  1.6589
 9082SOL    HW238880   2.691   3.375  13.390 -0.9121  1.7950 -0.1022
 9083SOL     OW38881   3.753   0.131  14.301 -0.1833  0.3752 -0.3343
 9083SOL    HW138882   3.787   0.092  14.382 -1.0039  1.2780  0.4430
 9083SOL    HW238883   3.674   0.077  14.303  0.3863 -0.5184 -2.1477
 9084SOL     OW38884   4.355   2.671  14.043 -0.1108  0.2869 -0.4215
 9084SOL    HW138885   4.422   2.724  13.999 -0.3191  1.0926  0.2352
 9084SOL    HW238886   4.292   2.667  13.971 -0.3349 -0.6051 -0.1769
 9085SOL     OW38887   1.420   3.742  15.155 -0.2903 -0.5299  0.1514
 9085SOL    HW138888   1.461   3.689  15.223  0.7769  0.8010  0.5461
 9085SOL    HW238889   1.364   3.686  15.102  2.2116  0.1005 -3.1487
 9086SOL     OW38890   0.802   1.096   8.921 -0.1099  0.1215  0.1171
 9086SOL    HW138891   0.790   1.155   8.846 -0.9205  0.9091  0.8517
 9086SOL    HW238892   0.849   1.025   8.879 -0.5082 -0.6503  0.9854
 9087SOL     OW38893   1.747   1.926   7.278  0.1039 -0.3865  0.5389
 9087SOL    HW138894   1.677   1.938   7.215  2.4641 -1.8241 -2.3321
 9087SOL    HW238895   1.757   2.021   7.286  1.0226 -0.6643  2.7717
 9088SOL     OW38896   4.627   0.694   4.211  0.3565 -0.1770  0.2046
 9088SOL    HW138897   4.535   0.716   4.229  0.9269  2.1073  0.2276
 9088SOL    HW238898   4.624   0.686   4.116 -2.2586  0.6745  0.2039
 9089SOL     OW38899   2.590   1.907  10.407  0.1521  0.4950  0.1593
 9089SOL    HW138900   2.668   1.868  10.448 -1.5340 -1.2727  1.6921
 9089SOL    HW238901   2.580   1.993  10.447  0.3771  0.4580  0.2996
 9090SOL     OW38902   3.707   2.063   5.268 -0.1367 -0.2406  0.1441
 9090SOL    HW138903   3.672   2.104   5.189 -1.1472  0.1606  0.8063
 9090SOL    HW238904   3.681   1.973   5.251 -0.4985 -0.0457 -0.3249
 9091SOL     OW38905   4.114   0.007   2.007  0.2778 -0.3927  0.2213
 9091SOL    HW138906   4.136   0.082   2.063 -1.6221 -0.2123  0.7231
 9091SOL    HW238907   4.025   4.721   2.034 -0.1102 -0.9346 -1.4617
 9092SOL     OW38908   2.072   3.926  16.539 -0.2324  0.1944 -0.5361
 9092SOL    HW138909   2.153   3.879  16.523 -0.5942  0.4522 -3.1480
 9092SOL    HW238910   2.088   4.014  16.507  1.0764  0.0131 -0.3441
 9093SOL     OW38911   2.423   1.391   6.365 -0.2335 -0.3325  0.2506
 9093SOL    HW138912   2.360   1.364   6.431 -0.6322  0.6692  0.2745
 9093SOL    HW238913   2.472   1.309   6.354  0.9753  0.5057 -0.6877
 9094SOL     OW38914   3.820   2.167   7.635  0.0978  0.0188 -0.0805
 9094SOL    HW138915   3.731   2.189   7.608 -0.4587 -0.6863  1.1637
 9094SOL    HW238916   3.875   2.240   7.609 -0.0486  0.3664  0.5739
 9095SOL     OW38917   1.365   4.092   6.918 -0.2792  0.2771  0.3250
 9095SOL    HW138918   1.428   4.120   6.852 -2.3212 -0.9110 -2.1523
 9095SOL    HW238919   1.340   4.000   6.905 -0.8515  0.7204 -1.6774
 9096SOL     OW38920   3.294   2.425   6.814  0.1679 -0.0747  0.5135
 9096SOL    HW138921   3.247   2.371   6.877  0.5620 -1.7919 -0.6862
 9096SOL    HW238922   3.346   2.359   6.770 -2.2640 -0.3476 -1.9818
 9097SOL     OW38923   2.035   0.747   1.585 -0.2414 -0.3037  0.1866
 9097SOL    HW138924   1.975   0.814   1.619 -0.9285 -0.6935 -0.2482
 9097SOL    HW238925   2.098   0.804   1.542  0.3842 -1.1543 -0.0164
 9098SOL     OW38926   1.100   2.429   3.051 -0.1890 -0.3153  0.1653
 9098SOL    HW138927   1.155   2.506   3.063 -2.6013  0.5228  5.8807
 9098SOL    HW238928   1.050   2.423   3.132 -0.7070  3.3474  0.1140
 9099SOL     OW38929   3.212   2.611   3.801 -0.1029 -0.2371  0.2150
 9099SOL    HW138930   3.173   2.687   3.845  1.9172  1.7767 -1.4954
 9099SOL    HW238931   3.204   2.544   3.869 -2.7251  0.0600  0.2078
 9100SOL     OW38932   2.219   2.443  10.580 -0.4590 -0.0351  0.1942
 9100SOL    HW138933   2.128   2.470  10.568 -0.5482  0.0942  1.1116
 9100SOL    HW238934   2.259   2.515  10.532  0.6538 -0.7211  0.0956
 9101SOL     OW38935   1.023   0.583   5.619 -0.0145  0.6637  0.2778
 9101SOL    HW138936   0.979   0.546   5.694  0.9475 -0.6525  0.1894
 9101SOL    HW238937   1.077   0.511   5.587 -1.0162 -0.1674  0.4882
 9102SOL     OW38938   3.070   3.054  11.311  0.4515  0.0052 -0.1326
 9102SOL    HW138939   3.137   3.052  11.378 -0.1500 -0.0917  0.4689
 9102SOL    HW238940   3.117   3.103  11.243  1.2163  0.8628  1.0170
 9103SOL     OW38941   3.299   3.789   9.514 -0.3579 -0.2349 -0.2415
 9103SOL    HW138942   3.221   3.836   9.484 -1.0473 -1.3283 -0.1836
 9103SOL    HW238943   3.363   3.821   9.451 -3.0211 -0.7670 -3.1830
 9104SOL     OW38944   2.184   1.938  17.288 -0.2067 -0.5803 -0.4696
 9104SOL    HW138945   2.162   1.882  17.214 -0.7312  0.7803 -1.3305
 9104SOL    HW238946   2.280   1.934  17.280 -0.2828 -2.4945 -0.4551
 9105SOL     OW38947   2.043   0.821  12.441  0.3767 -0.1546  0.6125
 9105SOL    HW138948   2.083   0.828  12.527 -0.2143 -1.5959  1.0112
 9105SOL    HW238949   1.950   0.821  12.465  0.5267  0.8749  1.1578
 9106SOL     OW38950   3.446   4.265   1.568  0.3469  0.1843  0.2951
 9106SOL    HW138951   3.530   4.252   1.525 -0.4791 -2.5473 -0.4691
 9106SOL    HW238952   3.463   4.259   1.662  0.2979  3.6354  0.5305
 9107SOL     OW38953   3.538   2.701  11.265  0.0891 -0.0464 -0.3796
 9107SOL    HW138954   3.552   2.691  11.171  0.5903  1.2078 -0.4388
 9107SOL    HW238955   3.554   2.611  11.293  0.9176  0.3138  0.3023
 9108SOL     OW38956   4.494   1.715   5.751  0.5310  0.6573  0.5489
 9108SOL    HW138957   4.453   1.764   5.680 -0.0121 -2.7900 -1.5148
 9108SOL    HW238958   4.576   1.685   5.713  0.6674  1.6397  0.0625
 9109SOL     OW38959   2.323   4.172  14.550  0.2469  0.5396  0.2625
 9109SOL    HW138960   2.417   4.173  14.536  0.2894 -0.6481  0.4195
 9109SOL    HW238961   2.318   4.079  14.572 -0.3587  0.4750 -0.1528
 9110SOL     OW38962   3.635   2.305   8.029 -0.1100  0.1589  0.2638
 9110SOL    HW138963   3.621   2.336   7.939 -1.3124 -1.3491 -0.0607
 9110SOL    HW238964   3.622   2.211   8.020  3.4529  0.0164 -3.6572
 9111SOL     OW38965   4.729   3.545  16.072  0.2515  0.7258 -0.3572
 9111SOL    HW138966   4.647   3.553  16.121 -0.9242 -4.3126 -1.4538
 9111SOL    HW238967   0.002   3.630  16.029  0.6372  1.3664  0.9780
 9112SOL     OW38968   1.862   4.320   1.654  0.4209  0.0708  0.3396
 9112SOL    HW138969   1.913   4.341   1.575 -1.9521  1.8454 -0.7566
 9112SOL    HW238970   1.882   4.229   1.672 -2.0053 -0.3452  0.8750
 9113SOL     OW38971   4.669   1.548   9.464 -0.3688  0.0329  0.2786
 9113SOL    HW138972   4.621   1.566   9.544 -0.3543  0.3899  0.2072
 9113SOL    HW238973   0.023   1.572   9.491 -0.6561 -1.0542  2.1291
 9114SOL     OW38974   4.452   4.240   4.210  0.2552 -0.4998  0.2311
 9114SOL    HW138975   4.481   4.188   4.135  1.4440  2.6031 -1.4406
 9114SOL    HW238976   4.465   4.169   4.273 -0.5910 -0.9497 -0.0963
 9115SOL     OW38977   3.669   1.758   2.921  0.4992  0.0674 -0.5629
 9115SOL    HW138978   3.730   1.733   2.852 -0.6889 -0.6210 -1.3559
 9115SOL    HW238979   3.648   1.849   2.902  2.4637  0.0444 -2.8407
 9116SOL     OW38980   2.358   3.523  10.462 -0.2588  0.4474  0.6165
 9116SOL    HW138981   2.398   3.538  10.547 -2.1209  0.8055  1.4120
 9116SOL    HW238982   2.268   3.496  10.479 -0.4688  1.4337  1.0438
 9117SOL     OW38983   4.603   0.454   5.747 -0.0154 -0.3550  0.1423
 9117SOL    HW138984   4.539   0.502   5.800  2.8859  1.4303  2.0223
 9117SOL    HW238985   4.657   0.528   5.718 -1.6458 -0.9066 -4.3370
 9118SOL     OW38986   4.700   0.116   3.132  0.6431  0.2961  0.1287
 9118SOL    HW138987   4.686   0.126   3.226  1.0555 -1.8463  0.4287
 9118SOL    HW238988   4.707   0.020   3.131 -1.2758  0.1837 -2.5096
 9119SOL     OW38989   4.568   0.586   7.602  0.2044 -0.2595  0.4514
 9119SOL    HW138990   4.605   0.523   7.664  1.8747  1.0832  0.7897
 9119SOL    HW238991   4.486   0.547   7.572 -0.3993  0.0559  1.6788
 9120SOL     OW38992   3.662   4.542   0.483  0.1346  0.3562  0.1969
 9120SOL    HW138993   3.672   4.447   0.493 -3.6967 -0.1192 -0.3499
 9120SOL    HW238994   3.705   4.563   0.400  0.3060 -0.7394 -0.0008
 9121SOL     OW38995   1.713   4.535   2.293  0.8008 -0.2099 -0.0160
 9121SOL    HW138996   1.646   4.471   2.318  0.0455  0.7878  0.5358
 9121SOL    HW238997   1.789   4.490   2.328  1.9522  0.1795 -2.0354
 9122SOL     OW38998   3.794   3.459   5.032  0.0661 -0.4429  0.3884
 9122SOL    HW138999   3.730   3.509   4.982 -0.3363 -0.4253  0.9239
 9122SOL    HW239000   3.880   3.483   4.996 -0.2933  3.7705  2.2456
 9123SOL     OW39001   4.083   2.446  16.112  0.0396 -0.2456 -0.2893
 9123SOL    HW139002   4.110   2.355  16.104 -0.7479 -0.1848 -3.5951
 9123SOL    HW239003   4.077   2.475  16.021 -3.1600  0.6797  0.2118
 9124SOL     OW39004   3.986   4.267   0.945  0.1580  0.6650  0.1620
 9124SOL    HW139005   4.067   4.264   0.895 -1.2147 -0.5844 -2.0135
 9124SOL    HW239006   3.915   4.267   0.881  0.6361 -0.0309 -0.3597
 9125SOL     OW39007   2.585   1.459   7.682 -0.0462  0.6524  0.3921
 9125SOL    HW139008   2.615   1.423   7.765  0.3915  2.6109  1.0983
 9125SOL    HW239009   2.525   1.391   7.654  0.7268 -0.3722  1.2404
 9126SOL     OW39010   0.643   1.396   9.812 -0.0865 -0.1591 -0.1004
 9126SOL    HW139011   0.616   1.411   9.721 -1.6038  1.8754  0.6960
 9126SOL    HW239012   0.614   1.305   9.819  0.9472 -0.2595  2.6226
 9127SOL     OW39013   3.721   2.237   6.707 -0.6274  0.3705  0.1409
 9127SOL    HW139014   3.632   2.203   6.694 -0.7468 -0.2397  2.4619
 9127SOL    HW239015   3.711   2.332   6.703 -2.2253  0.1466 -1.3429
 9128SOL     OW39016   2.044   2.023   9.372  0.3867 -0.5812 -0.0060
 9128SOL    HW139017   2.035   2.094   9.308 -1.6236 -0.9524 -0.1301
 9128SOL    HW239018   2.105   2.067   9.432 -0.5498 -0.7283  1.0540
 9129SOL     OW39019   2.644   2.460   6.779  0.0619 -0.3553 -0.5672
 9129SOL    HW139020   2.574   2.421   6.831  0.3936  1.2786  1.1271
 9129SOL    HW239021   2.623   2.553   6.789  0.4571 -0.4136  0.8323
 9130SOL     OW39022   1.699   0.091   4.011  0.1908 -0.1466  0.1744
 9130SOL    HW139023   1.785   0.132   3.998  1.0182 -1.5089  1.3398
 9130SOL    HW239024   1.662   0.127   4.092 -0.6315 -1.2629  0.2781
 9131SOL     OW39025   2.393   0.409   6.274  0.2736 -0.0611 -0.4396
 9131SOL    HW139026   2.361   0.360   6.351  0.4628  0.5015 -0.0056
 9131SOL    HW239027   2.487   0.403   6.292  0.1805  0.9856  0.3742
 9132SOL     OW39028   2.878   2.477   8.575  0.1078 -0.3576  0.7543
 9132SOL    HW139029   2.908   2.559   8.614 -2.6784  1.4501 -0.9869
 9132SOL    HW239030   2.956   2.470   8.520 -0.9793  0.3670 -0.8448
 9133SOL     OW39031   4.107   3.591   1.698  0.0053 -0.3989 -0.6052
 9133SOL    HW139032   4.116   3.514   1.754 -1.5622 -1.2721 -1.5531
 9133SOL    HW239033   4.157   3.645   1.759 -0.7235 -1.2458  0.7267
 9134SOL     OW39034   2.316   1.667   3.493 -0.0394  0.0360 -0.2095
 9134SOL    HW139035   2.255   1.738   3.513  2.4787  2.6907 -2.0317
 9134SOL    HW239036   2.259   1.604   3.448  0.9455 -1.1518  0.2194
 9135SOL     OW39037   1.102   2.395   2.283  0.0295 -0.4426  0.1662
 9135SOL    HW139038   1.079   2.473   2.232  0.2455 -1.4321 -1.4430
 9135SOL    HW239039   1.044   2.395   2.359 -2.5395  0.5953 -1.7711
 9136SOL     OW39040   1.753   1.783  11.121 -0.2634 -0.0394 -0.6982
 9136SOL    HW139041   1.822   1.716  11.125 -0.7568 -0.4694  0.5952
 9136SOL    HW239042   1.746   1.790  11.216 -0.5675 -0.6268 -0.6733
 9137SOL     OW39043   1.334   1.468   5.129 -0.5011 -0.7638  0.2849
 9137SOL    HW139044   1.324   1.521   5.208 -2.5436  0.8943 -1.0696
 9137SOL    HW239045   1.287   1.386   5.145 -1.9409  0.1718  0.8074
 9138SOL     OW39046   4.288   4.417  16.028  0.7265 -0.2788 -0.4449
 9138SOL    HW139047   4.259   4.454  15.944 -1.9015 -0.5490  0.3606
 9138SOL    HW239048   4.334   4.342  15.990  1.9187  0.3756 -0.2822
 9139SOL     OW39049   2.901   3.339   8.021  0.3788  0.1623  0.2711
 9139SOL    HW139050   2.841   3.276   8.060 -1.0441  0.3906 -1.4984
 9139SOL    HW239051   2.845   3.376   7.952  0.9106 -0.1322 -0.3205
 9140SOL     OW39052   4.633   1.503   1.065 -0.1000 -0.4245  0.3763
 9140SOL    HW139053   4.583   1.571   1.109 -0.8549  1.0515 -2.7569
 9140SOL    HW239054   4.564   1.461   1.014 -0.2261  0.6628 -0.3680
 9141SOL     OW39055   1.780   2.785  15.112  0.6302  0.0622  0.4066
 9141SOL    HW139056   1.751   2.701  15.148  3.4814 -0.8734  0.5517
 9141SOL    HW239057   1.827   2.809  15.191  0.9895 -0.0183  0.2181
 9142SOL     OW39058   1.900   4.447   0.531 -0.5177  0.1834 -0.1758
 9142SOL    HW139059   1.956   4.405   0.466 -0.1116 -1.0730  1.0013
 9142SOL    HW239060   1.918   4.536   0.500  0.3514  0.6762  1.7615
 9143SOL     OW39061   3.959   2.713  11.320  0.1779  0.1545 -0.2499
 9143SOL    HW139062   3.979   2.767  11.397  1.6287  0.0170 -0.5349
 9143SOL    HW239063   3.894   2.655  11.359 -0.1976 -0.2714 -1.5243
 9144SOL     OW39064   2.952   0.793   2.030 -0.1456 -0.6749  0.0232
 9144SOL    HW139065   2.949   0.853   1.955 -3.4127  0.4372  1.0172
 9144SOL    HW239066   3.037   0.753   2.011  0.2148  0.2494 -0.2789
 9145SOL     OW39067   3.995   4.245   7.554  0.2861 -0.0405  0.2078
 9145SOL    HW139068   4.052   4.303   7.604  1.2961 -0.2819 -0.6733
 9145SOL    HW239069   4.059   4.213   7.490 -1.2883  2.3500 -2.5852
 9146SOL     OW39070   1.878   3.463   4.407  0.2936 -0.1918 -0.5772
 9146SOL    HW139071   1.888   3.518   4.485 -0.0995  1.1694 -1.4850
 9146SOL    HW239072   1.811   3.514   4.363 -0.9107 -1.2396  0.0585
 9147SOL     OW39073   2.362   3.954  17.142 -0.3505  0.0026 -0.2905
 9147SOL    HW139074   2.433   3.914  17.193  0.1506  0.9260 -0.2696
 9147SOL    HW239075   2.316   3.874  17.117 -0.5947  0.4736 -1.3476
 9148SOL     OW39076   1.366   1.343   1.940  0.5968  0.1967 -0.0089
 9148SOL    HW139077   1.454   1.346   1.903  1.8380  0.3694  2.9463
 9148SOL    HW239078   1.341   1.435   1.934  0.4036  0.1504  0.0670
 9149SOL     OW39079   2.140   0.605   8.734  0.0611 -0.5691 -0.2147
 9149SOL    HW139080   2.219   0.654   8.712  0.9643 -2.6776 -1.6045
 9149SOL    HW239081   2.178   0.517   8.733  2.5968  0.5215  0.1797
 9150SOL     OW39082   1.815   1.339   2.134 -0.4181  0.4800 -0.0785
 9150SOL    HW139083   1.870   1.397   2.187  3.1089 -2.7138 -0.2691
 9150SOL    HW239084   1.825   1.382   2.049 -2.1019 -2.9072 -1.9689
 9151SOL     OW39085   0.738   4.098   1.930  0.1380  0.2927 -0.3748
 9151SOL    HW139086   0.809   4.160   1.944 -0.4931  1.5106 -2.4818
 9151SOL    HW239087   0.672   4.156   1.893 -1.6773  0.3940  3.0275
 9152SOL     OW39088   1.644   3.043   4.239  0.2151  0.3875  0.1204
 9152SOL    HW139089   1.676   3.044   4.149  1.7387  0.5588  0.6642
 9152SOL    HW239090   1.687   3.125   4.265  1.0193  0.0706 -0.2040
 9153SOL     OW39091   4.209   0.738  11.366  0.2239 -0.1886 -0.3405
 9153SOL    HW139092   4.184   0.772  11.280  0.9608 -1.0467 -0.8876
 9153SOL    HW239093   4.304   0.736  11.376  0.2051  0.0946 -0.0948
 9154SOL     OW39094   1.392   3.760   8.136  0.1264 -0.2015 -0.1550
 9154SOL    HW139095   1.320   3.805   8.179 -0.3318 -2.1873  1.1838
 9154SOL    HW239096   1.399   3.676   8.181 -0.0048  0.8352  1.7600
 9155SOL     OW39097   4.512   3.070  13.235  0.3971 -0.7929 -0.9043
 9155SOL    HW139098   4.490   3.037  13.148 -0.4993 -0.2872 -0.8633
 9155SOL    HW239099   4.439   3.024  13.276  0.5554 -0.4423 -0.2386
 9156SOL     OW39100   2.695   0.346  13.142 -0.6561  0.5219  0.0701
 9156SOL    HW139101   2.661   0.276  13.086 -1.5069  1.2339 -0.3047
 9156SOL    HW239102   2.614   0.394  13.158 -1.7596 -1.1884 -0.5070
 9157SOL     OW39103   1.231   1.530   3.740  0.1594 -0.6316  0.3487
 9157SOL    HW139104   1.196   1.442   3.724 -1.0337 -0.0608 -0.1860
 9157SOL    HW239105   1.276   1.544   3.657  0.9370  3.7034  1.5061
 9158SOL     OW39106   0.715   3.598   8.601  0.6625 -0.1308  0.2634
 9158SOL    HW139107   0.807   3.573   8.596  0.2901 -1.3030 -0.7932
 9158SOL    HW239108   0.699   3.628   8.691 -0.5182 -2.5665  0.8702
 9159SOL     OW39109   2.013   2.580   2.394 -0.1324  0.1116  0.3974
 9159SOL    HW139110   1.963   2.573   2.313  0.1273  3.6212 -0.0534
 9159SOL    HW239111   1.978   2.504   2.440  2.4905 -1.0900  0.3891
 9160SOL     OW39112   3.083   2.195   6.676 -0.3850 -0.4364 -0.6706
 9160SOL    HW139113   3.024   2.260   6.715  2.3609  1.1817  0.7884
 9160SOL    HW239114   3.130   2.173   6.756 -2.5422  1.1323  1.0264
 9161SOL     OW39115   3.649   4.635   5.283  0.3837 -0.6352  0.1046
 9161SOL    HW139116   3.629   4.727   5.302  0.5343 -0.9545  1.8040
 9161SOL    HW239117   3.598   4.595   5.353 -2.7083  0.7499 -1.3695
 9162SOL     OW39118   2.734   4.187   0.583 -0.1700  0.0193  0.0419
 9162SOL    HW139119   2.756   4.094   0.568 -1.2226  0.0718 -1.7905
 9162SOL    HW239120   2.656   4.193   0.528  0.2038  1.1206 -0.3668
 9163SOL     OW39121   2.248   0.047   3.052  0.1610  0.3521 -0.3591
 9163SOL    HW139122   2.173   0.104   3.033 -1.2608 -1.2313  0.5781
 9163SOL    HW239123   2.212   4.719   3.114  2.9666 -0.1914  0.7147
 9164SOL     OW39124   2.725   1.098   7.736  0.7305  0.0219  0.0347
 9164SOL    HW139125   2.739   1.105   7.642  0.8432  0.2271  0.0668
 9164SOL    HW239126   2.800   1.048   7.767  0.1839 -0.4298  0.6277
 9165SOL     OW39127   1.128   3.657   9.305 -0.4069  0.8330 -0.0323
 9165SOL    HW139128   1.183   3.606   9.365 -2.1770  0.2739  1.1158
 9165SOL    HW239129   1.110   3.739   9.351 -1.9351 -0.6079  1.9448
 9166SOL     OW39130   1.796   0.608   6.503 -1.1681 -0.3362  0.5625
 9166SOL    HW139131   1.708   0.588   6.472 -1.4473  0.9953  0.5025
 9166SOL    HW239132   1.808   0.701   6.486  0.0843 -0.9444 -1.9200
 9167SOL     OW39133   0.236   2.819   5.691 -0.1586 -0.1214 -0.1989
 9167SOL    HW139134   0.240   2.747   5.628 -2.2488 -1.4662  1.1876
 9167SOL    HW239135   0.170   2.874   5.648 -0.2222 -0.9520 -1.1600
 9168SOL     OW39136   1.587   0.133  16.881 -0.0636  0.0236 -0.6182
 9168SOL    HW139137   1.657   0.101  16.824 -0.5916 -0.0252 -1.2390
 9168SOL    HW239138   1.580   0.223  16.851 -1.3091  0.0842 -0.1330
 9169SOL     OW39139   0.222   0.994   7.973  1.0162  0.3638 -0.5076
 9169SOL    HW139140   0.185   1.058   8.034  2.1321  0.5847 -0.0673
 9169SOL    HW239141   0.292   1.047   7.936  1.2074  0.5974  0.1793
 9170SOL     OW39142   1.037   0.870   3.307  0.1084  0.6945  0.2371
 9170SOL    HW139143   1.128   0.849   3.326  0.2451  0.0549 -1.1653
 9170SOL    HW239144   1.003   0.853   3.395  1.8796  0.2301  0.8280
 9171SOL     OW39145   1.605   3.859   8.347  1.0268 -0.4162  0.6482
 9171SOL    HW139146   1.534   3.841   8.409  1.2039 -0.1296  0.9348
 9171SOL    HW239147   1.674   3.800   8.376  0.2499 -0.0816  3.1764
 9172SOL     OW39148   4.277   4.044   8.026 -0.5818  0.1820  0.5353
 9172SOL    HW139149   4.269   4.070   8.118  0.5445 -1.6932  1.1676
 9172SOL    HW239150   4.357   3.991   8.031  0.6742  1.9537 -0.8405
 9173SOL     OW39151   1.290   1.489   7.079 -0.1883  0.3614  0.2146
 9173SOL    HW139152   1.300   1.520   6.989  2.3045 -0.6327  0.1417
 9173SOL    HW239153   1.302   1.394   7.074  0.7086  0.5197 -0.6665
 9174SOL     OW39154   3.122   0.097   3.229  0.5804 -0.5285  0.2962
 9174SOL    HW139155   3.076   0.131   3.306 -0.5757  0.0466 -0.6440
 9174SOL    HW239156   3.051   0.107   3.166 -1.6968  1.8339  3.2670
 9175SOL     OW39157   3.874   3.455   5.326  0.2795 -0.2493  0.2494
 9175SOL    HW139158   3.799   3.514   5.322  0.4803 -0.2418 -3.2182
 9175SOL    HW239159   3.853   3.415   5.242 -0.4623 -2.3512  1.4194
 9176SOL     OW39160   4.332   4.698   6.364  0.6832  0.2484  0.3439
 9176SOL    HW139161   4.302   0.052   6.385 -1.2503  0.1687 -2.0473
 9176SOL    HW239162   4.282   4.662   6.291  1.2870  0.3832 -0.1409
 9177SOL     OW39163   4.316   0.691   4.673  0.2997  0.6970 -0.1402
 9177SOL    HW139164   4.236   0.639   4.664  2.9301 -3.4988  0.9977
 9177SOL    HW239165   4.363   0.666   4.594  1.0972  0.6188  0.3619
 9178SOL     OW39166   2.519   1.410  17.650  0.1693 -0.2185  0.1205
 9178SOL    HW139167   2.566   1.463  17.587  0.3097  1.9794  2.0801
 9178SOL    HW239168   2.432   1.429  17.616  1.5660  2.9120 -1.6862
 9179SOL     OW39169   1.997   0.326   5.927  0.5249 -1.0658  0.0150
 9179SOL    HW139170   2.025   0.402   5.876  0.0330 -0.7487  0.2233
 9179SOL    HW239171   2.058   0.339   6.000  2.0324 -1.3862 -1.1928
 9180SOL     OW39172   4.100   3.198  14.562  0.7092  0.4636 -0.5800
 9180SOL    HW139173   4.047   3.118  14.564  1.3838  0.0942  2.1656
 9180SOL    HW239174   4.132   3.190  14.472  2.7110 -0.6887  0.2203
 9181SOL     OW39175   1.525   4.270  14.910 -0.7267 -0.5308 -0.7291
 9181SOL    HW139176   1.443   4.222  14.920 -1.6636  0.9358 -1.4188
 9181SOL    HW239177   1.579   4.193  14.888  0.3665  0.1729 -0.5284
 9182SOL     OW39178   0.949   0.607   3.446  0.6071 -0.1155  0.2018
 9182SOL    HW139179   0.932   0.579   3.356  1.6933  0.6495 -0.2497
 9182SOL    HW239180   0.871   0.658   3.466  1.6137  1.1282  0.9853
 9183SOL     OW39181   1.852   2.507   2.168 -1.1514 -0.3291  0.0347
 9183SOL    HW139182   1.779   2.457   2.132 -0.7752 -2.4048  2.1106
 9183SOL    HW239183   1.930   2.490   2.114 -2.1142  2.0963 -2.1274
 9184SOL     OW39184   0.175   2.255  11.628  0.2404  0.8303  0.1044
 9184SOL    HW139185   0.138   2.229  11.712  0.6963 -0.8860 -0.2271
 9184SOL    HW239186   0.235   2.181  11.620  0.9239  1.4521 -0.5785
 9185SOL     OW39187   3.466   3.502   2.127 -0.4290  0.4007  0.7275
 9185SOL    HW139188   3.536   3.568   2.125  1.3438 -1.4465  1.8662
 9185SOL    HW239189   3.471   3.472   2.036 -0.2909  0.0228  0.8582
 9186SOL     OW39190   1.603   3.712   7.124  0.4745  0.4995 -0.3707
 9186SOL    HW139191   1.607   3.644   7.191  0.3666  0.1336 -0.7331
 9186SOL    HW239192   1.696   3.721   7.102  0.1745  1.3629 -1.3119
 9187SOL     OW39193   0.058   4.041   2.818 -0.5370  0.0169  0.1040
 9187SOL    HW139194   0.052   4.084   2.902  0.6624  0.0501  0.1667
 9187SOL    HW239195   0.011   3.959   2.836 -2.5192  0.5285 -2.7058
 9188SOL     OW39196   3.917   2.400   4.758 -0.0914  0.2011 -0.1153
 9188SOL    HW139197   4.012   2.408   4.770  0.0153 -1.7920  0.3993
 9188SOL    HW239198   3.918   2.332   4.691 -0.4798 -0.1632  0.2461
 9189SOL     OW39199   4.046   0.684  17.066 -0.5870  0.1332  0.1035
 9189SOL    HW139200   4.013   0.774  17.057  0.8034  0.6937  0.6469
 9189SOL    HW239201   4.079   0.689  17.156 -0.0329 -0.5114 -0.0627
 9190SOL     OW39202   2.291   1.173   8.826  0.3123  0.1712  0.1507
 9190SOL    HW139203   2.250   1.087   8.838  0.2085  0.1830 -0.1315
 9190SOL    HW239204   2.329   1.177   8.914 -0.3294 -1.6158  0.5127
 9191SOL     OW39205   3.952   1.874  15.866  0.2999  0.5544 -0.1798
 9191SOL    HW139206   3.969   1.963  15.897 -0.4196  0.2943  0.9752
 9191SOL    HW239207   3.859   1.866  15.891  0.3294 -0.5520 -0.4196
 9192SOL     OW39208   3.628   4.573   3.876  0.1878  0.2859  0.1175
 9192SOL    HW139209   3.640   4.615   3.792  0.5798 -0.3929 -0.1635
 9192SOL    HW239210   3.607   4.484   3.847  2.0181 -0.5377  1.3560
 9193SOL     OW39211   0.820   0.547   5.921 -0.0682  0.7624 -0.1896
 9193SOL    HW139212   0.815   0.487   5.847  0.3366 -0.1289  0.4974
 9193SOL    HW239213   0.865   0.497   5.989 -1.9609  1.0180  1.2595
 9194SOL     OW39214   4.033   0.557  17.595  0.3644 -0.0050 -0.0482
 9194SOL    HW139215   4.056   0.650  17.596  2.0066 -0.3950 -0.7654
 9194SOL    HW239216   4.006   0.549  17.504  0.9849 -3.2622  0.0314
 9195SOL     OW39217   3.397   0.754   9.806 -0.0513  0.2668  0.8215
 9195SOL    HW139218   3.476   0.782   9.853  1.5697  0.1344 -1.8244
 9195SOL    HW239219   3.328   0.788   9.863  0.5438  0.7317  1.2602
 9196SOL     OW39220   2.196   4.418   6.964  0.5931  0.2578  0.0857
 9196SOL    HW139221   2.231   4.365   7.036  1.1222  0.2466 -0.1822
 9196SOL    HW239222   2.168   4.353   6.901  0.7358 -0.7689  1.0726
 9197SOL     OW39223   2.226   1.725   9.239 -0.4075  0.2281 -0.3235
 9197SOL    HW139224   2.220   1.732   9.334  2.1130  0.6998 -0.2010
 9197SOL    HW239225   2.240   1.631   9.226  1.6218  0.3137  1.2200
 9198SOL     OW39226   2.029   1.312   8.851  0.0823  0.3545  0.0015
 9198SOL    HW139227   1.975   1.290   8.776  1.1782 -0.7509 -0.4575
 9198SOL    HW239228   2.114   1.304   8.808  0.0645  2.5757 -0.4826
 9199SOL     OW39229   1.697   4.134   3.077  0.1228 -0.3823 -0.3847
 9199SOL    HW139230   1.647   4.129   3.158 -2.0090  0.5273 -1.6529
 9199SOL    HW239231   1.745   4.216   3.087 -0.9832 -0.0265  1.8570
 9200SOL     OW39232   4.044   3.245   5.434 -0.3161  0.3695  0.5016
 9200SOL    HW139233   3.999   3.320   5.395  2.7165  1.0176 -1.7000
 9200SOL    HW239234   3.976   3.180   5.413 -0.5080  1.3758 -2.0577
 9201SOL     OW39235   1.075   0.744   8.316  0.5074 -0.0413 -0.5195
 9201SOL    HW139236   1.118   0.717   8.235  0.9066 -3.9436  1.0368
 9201SOL    HW239237   1.025   0.666   8.338 -1.4207  0.6498 -2.4199
 9202SOL     OW39238   3.925   2.399   2.230  0.2943 -0.3658 -0.5452
 9202SOL    HW139239   4.010   2.414   2.187  0.5121 -0.8699 -0.2901
 9202SOL    HW239240   3.944   2.342   2.304  1.9995 -0.4483 -1.0492
 9203SOL     OW39241   2.998   0.409   5.535  0.0641 -0.0073  0.2747
 9203SOL    HW139242   2.921   0.360   5.565  0.9979 -2.2844 -1.0615
 9203SOL    HW239243   3.002   0.487   5.591  1.4199 -0.7154  1.1599
 9204SOL     OW39244   1.117   3.462   4.320 -0.0452 -0.0340 -0.7538
 9204SOL    HW139245   1.076   3.532   4.271  1.8134  1.4030 -0.2627
 9204SOL    HW239246   1.042   3.411   4.350 -1.5480  1.7057 -1.6083
 9205SOL     OW39247   1.551   0.690   6.748  0.3308  0.3546 -0.7478
 9205SOL    HW139248   1.538   0.677   6.654 -0.1877 -0.8840 -0.5057
 9205SOL    HW239249   1.482   0.635   6.785 -0.2213  0.9534 -0.8883
 9206SOL     OW39250   2.485   1.230   3.762  0.4876 -0.1341  0.0008
 9206SOL    HW139251   2.486   1.222   3.857  0.3833  1.1381  0.1123
 9206SOL    HW239252   2.526   1.315   3.745 -0.6180  0.9885  2.9261
 9207SOL     OW39253   4.669   0.300   3.698  0.3902 -0.4456 -0.1739
 9207SOL    HW139254   0.011   0.253   3.731 -0.6514 -1.1747  1.1919
 9207SOL    HW239255   4.615   0.220   3.694  1.2522 -1.0494  0.1864
 9208SOL     OW39256   3.618   4.182   4.719  0.5385 -0.0114 -0.1779
 9208SOL    HW139257   3.548   4.247   4.719 -0.8191 -1.4678 -0.3146
 9208SOL    HW239258   3.572   4.103   4.746  1.6470 -1.0472 -1.2728
 9209SOL     OW39259   0.835   2.177   8.526 -0.1917 -0.3694  0.1965
 9209SOL    HW139260   0.750   2.147   8.493 -0.0400 -0.3226 -0.2314
 9209SOL    HW239261   0.827   2.170   8.622  1.5482 -0.4422  0.3440
 9210SOL     OW39262   4.098   2.594   6.647 -0.4048 -0.6984  0.0517
 9210SOL    HW139263   4.113   2.516   6.701  0.9004 -1.1800 -1.0108
 9210SOL    HW239264   4.136   2.559   6.567  0.5852 -0.5269  0.4393
 9211SOL     OW39265   0.046   0.432   6.311  0.0339 -0.0022 -0.5232
 9211SOL    HW139266   0.002   0.361   6.357 -1.0833  1.1293  0.1717
 9211SOL    HW239267   0.125   0.448   6.362 -0.3600 -1.7756  0.6199
 9212SOL     OW39268   2.666   2.590   9.075  0.4150  0.0603 -0.5472
 9212SOL    HW139269   2.588   2.631   9.037  1.4365  0.7567 -1.8818
 9212SOL    HW239270   2.727   2.664   9.084  2.4561 -1.7156  0.0657
 9213SOL     OW39271   0.416   4.558   7.117 -0.2475 -0.2596  0.1963
 9213SOL    HW139272   0.468   4.477   7.126  2.3298  1.2879 -0.7018
 9213SOL    HW239273   0.354   4.537   7.047  1.1833  1.0579 -1.4796
 9214SOL     OW39274   2.622   0.307   3.280  0.2624  0.4343 -0.4240
 9214SOL    HW139275   2.550   0.368   3.262 -1.1022 -1.1876 -0.4573
 9214SOL    HW239276   2.592   0.218   3.261 -3.2967  1.8347 -1.4109
 9215SOL     OW39277   2.230   2.124   7.358 -0.4130 -0.0888 -0.2507
 9215SOL    HW139278   2.161   2.063   7.381 -1.4899  0.6217 -1.5948
 9215SOL    HW239279   2.200   2.197   7.411 -1.6416 -2.3488  2.1343
 9216SOL     OW39280   1.823   0.423   7.341  0.0245 -0.2729 -0.1921
 9216SOL    HW139281   1.768   0.475   7.399  1.8640  0.9423  0.4645
 9216SOL    HW239282   1.821   0.473   7.259 -1.5514  2.0135  1.2754
 9217SOL     OW39283   4.185   3.848   4.196  0.3513  0.1333  0.1834
 9217SOL    HW139284   4.140   3.932   4.211 -4.3077 -1.9258 -2.2394
 9217SOL    HW239285   4.150   3.806   4.274 -2.1391  3.1874  0.7317
 9218SOL     OW39286   4.403   4.218   1.082 -0.6150  0.3919 -0.1265
 9218SOL    HW139287   4.496   4.198   1.095 -0.2033  0.3690 -3.0458
 9218SOL    HW239288   4.395   4.314   1.087  0.9345  0.5640 -0.8386
 9219SOL     OW39289   4.210   2.423   2.951  0.2211 -0.0310  0.6049
 9219SOL    HW139290   4.176   2.448   3.037  0.8524 -0.9285  1.1148
 9219SOL    HW239291   4.195   2.329   2.959 -2.3042  0.2885 -0.4519
 9220SOL     OW39292   3.683   1.133   6.839 -0.0111 -0.2421 -0.0996
 9220SOL    HW139293   3.751   1.120   6.773 -0.0558  0.6629 -0.3156
 9220SOL    HW239294   3.624   1.185   6.785  1.6562  0.7197 -0.9889
 9221SOL     OW39295   4.287   4.173   7.660  0.4285  0.5657  0.5030
 9221SOL    HW139296   4.373   4.183   7.618  0.6504  0.4813  0.9430
 9221SOL    HW239297   4.250   4.104   7.605  0.5059  0.7341  0.2398
 9222SOL     OW39298   1.898   2.760   9.199  0.1850 -0.5785  1.1672
 9222SOL    HW139299   1.817   2.756   9.250  0.8539  0.2466  2.2935
 9222SOL    HW239300   1.886   2.676   9.154  2.0994 -0.6315  0.7811
 9223SOL     OW39301   3.376   3.057   5.490 -0.1358  0.1981  0.4558
 9223SOL    HW139302   3.393   3.005   5.568 -0.9792  2.7721  2.3603
 9223SOL    HW239303   3.310   3.002   5.447  0.4449 -0.6949  0.7088
 9224SOL     OW39304   1.026   3.832   4.985 -0.7279  0.0023 -0.7351
 9224SOL    HW139305   0.957   3.790   5.038  0.3964 -1.7712 -0.6536
 9224SOL    HW239306   0.999   3.922   4.973  1.1303  0.5208 -1.0205
 9225SOL     OW39307   3.187   2.000   7.857  0.2851  0.3040  0.2521
 9225SOL    HW139308   3.280   1.983   7.870  0.0212 -1.7111 -0.5672
 9225SOL    HW239309   3.153   1.928   7.910  0.2939 -1.1311 -1.7132
 9226SOL     OW39310   0.754   0.038  14.384 -0.4111 -0.8532 -0.0761
 9226SOL    HW139311   0.724   4.682  14.377  0.7843 -1.0389 -2.9795
 9226SOL    HW239312   0.670   0.081  14.372  1.1072  1.8901 -1.0088
 9227SOL     OW39313   2.692   2.353   7.497  0.7832 -0.4811  0.3541
 9227SOL    HW139314   2.615   2.406   7.520  0.4565 -0.9241  0.2815
 9227SOL    HW239315   2.658   2.268   7.523  0.8535 -0.5440  0.2393
 9228SOL     OW39316   2.459   2.173   9.653 -0.0201  0.4067 -0.0038
 9228SOL    HW139317   2.533   2.223   9.687  0.6021 -0.2536 -0.3970
 9228SOL    HW239318   2.498   2.090   9.627 -0.2061  0.2140  0.3251
 9229SOL     OW39319   0.895   2.175   3.310  0.1831 -0.8485  0.3834
 9229SOL    HW139320   0.927   2.171   3.220  0.3967  0.8520  0.3867
 9229SOL    HW239321   0.820   2.115   3.305 -0.3520 -0.2486  1.2719
 9230SOL     OW39322   1.915   4.453   1.886 -0.0142  0.5624 -0.0506
 9230SOL    HW139323   1.864   4.530   1.858 -3.6528 -1.6657  0.4230
 9230SOL    HW239324   1.912   4.404   1.804  3.9624 -1.1411  0.8339
 9231SOL     OW39325   1.444   2.863  15.729 -0.0025  0.1815 -0.1471
 9231SOL    HW139326   1.519   2.887  15.784  0.7275  0.2354 -1.1652
 9231SOL    HW239327   1.493   2.798  15.679 -2.5404 -0.6943 -1.5045
 9232SOL     OW39328   3.641   4.701   9.150  1.1231  0.2585  0.4162
 9232SOL    HW139329   3.584   4.626   9.134 -0.7940  1.6387  0.8045
 9232SOL    HW239330   3.619   4.728   9.239  2.2982 -0.0147  0.7801
 9233SOL     OW39331   3.836   1.307   1.825  0.4973  0.7476  0.4061
 9233SOL    HW139332   3.786   1.233   1.859  1.2215  0.5399  1.0179
 9233SOL    HW239333   3.766   1.365   1.796 -0.2872 -1.9101 -3.0862
 9234SOL     OW39334   4.092   2.688  13.179  0.3721  0.0634 -0.3607
 9234SOL    HW139335   4.067   2.624  13.246 -1.7902 -0.1062 -1.3211
 9234SOL    HW239336   4.086   2.768  13.231 -0.3177  1.7013 -2.9632
 9235SOL     OW39337   1.490   4.070  12.078  0.2488  0.0281 -0.6052
 9235SOL    HW139338   1.489   4.028  11.992  3.3931  1.3653 -1.2873
 9235SOL    HW239339   1.498   4.163  12.060 -1.6375  0.5602  1.2226
 9236SOL     OW39340   0.834   3.074   1.835 -0.1404  0.1881 -0.2419
 9236SOL    HW139341   0.846   2.980   1.820 -0.4075 -0.0514  1.0305
 9236SOL    HW239342   0.745   3.076   1.800  0.0310  3.3144 -0.4591
 9237SOL     OW39343   0.166   1.625   1.765 -0.2235 -0.0155 -0.3287
 9237SOL    HW139344   0.179   1.584   1.850 -0.5624  0.3439 -0.1031
 9237SOL    HW239345   0.242   1.682   1.772 -0.4423  0.3152 -0.6193
 9238SOL     OW39346   0.587   1.998  14.544  0.0128  0.6343  0.3569
 9238SOL    HW139347   0.518   2.054  14.579 -0.0733 -0.1020  1.3703
 9238SOL    HW239348   0.616   1.957  14.626 -1.0486 -1.7679 -0.4440
 9239SOL     OW39349   1.869   0.120   8.224  0.0569 -0.1084  0.3669
 9239SOL    HW139350   1.890   0.063   8.298  3.0356 -0.6494 -0.9194
 9239SOL    HW239351   1.928   0.194   8.236 -0.7885  0.5377  0.5764
 9240SOL     OW39352   4.382   0.109  14.159 -0.0783  0.2097 -0.0733
 9240SOL    HW139353   4.366   0.107  14.253  1.1073  1.1860  0.1402
 9240SOL    HW239354   4.441   0.034  14.148  1.7937  1.8648 -1.2181
 9241SOL     OW39355   0.581   0.131   3.414  0.0365 -0.0839 -0.6004
 9241SOL    HW139356   0.673   0.142   3.391  0.1075  1.2408  0.3315
 9241SOL    HW239357   0.555   0.058   3.358 -2.4848  0.9664 -0.8152
 9242SOL     OW39358   0.747   3.107   6.868 -0.7080 -0.0777  0.2636
 9242SOL    HW139359   0.732   3.014   6.885  0.8602 -0.1945  0.9322
 9242SOL    HW239360   0.661   3.147   6.879 -1.3103 -1.0383 -0.9436
 9243SOL     OW39361   2.407   3.580   2.096 -0.1063  0.2355  0.3141
 9243SOL    HW139362   2.452   3.498   2.075  0.3880  0.1991  1.5032
 9243SOL    HW239363   2.361   3.549   2.173 -0.6114 -1.3399 -0.6306
 9244SOL     OW39364   2.154   1.246   3.956 -0.5023 -0.1960  0.1919
 9244SOL    HW139365   2.145   1.325   4.010 -0.8044 -1.8625  2.6148
 9244SOL    HW239366   2.070   1.201   3.969 -0.0803 -1.5460 -1.8092
 9245SOL     OW39367   1.114   0.864   4.838 -0.3527 -0.7620 -0.3392
 9245SOL    HW139368   1.125   0.900   4.750  0.0280  2.0186  0.8335
 9245SOL    HW239369   1.152   0.777   4.827  1.1057 -0.0002 -1.3130
 9246SOL     OW39370   2.624   2.958   8.273  0.1050  0.2081 -0.1803
 9246SOL    HW139371   2.670   3.003   8.202  0.5981  0.4917  0.3180
 9246SOL    HW239372   2.554   3.022   8.287 -1.3812 -1.0797 -1.7392
 9247SOL     OW39373   3.309   3.845   3.902 -0.5330 -0.2712  0.0110
 9247SOL    HW139374   3.349   3.763   3.930 -2.6885 -2.0083 -1.9552
 9247SOL    HW239375   3.275   3.813   3.818 -1.9163  1.8363 -0.2391
 9248SOL     OW39376   3.775   1.776  13.860 -0.0439  0.1111  0.0687
 9248SOL    HW139377   3.761   1.782  13.955 -0.2964  0.5141  0.0036
 9248SOL    HW239378   3.852   1.832  13.857 -2.4558  3.4588  0.9625
 9249SOL     OW39379   2.107   4.366   6.396 -0.0387 -0.7797 -0.3768
 9249SOL    HW139380   2.056   4.447   6.390  0.7616 -0.2630 -0.2041
 9249SOL    HW239381   2.042   4.311   6.353  1.3583 -1.2505 -1.8625
 9250SOL     OW39382   0.741   2.360   5.959  0.4807  0.0652 -0.2512
 9250SOL    HW139383   0.735   2.402   5.873 -0.8190 -0.9357 -0.6502
 9250SOL    HW239384   0.816   2.407   5.996 -0.1443  1.1466 -0.3648
 9251SOL     OW39385   0.018   4.042  15.412 -0.0847 -0.2354  0.0455
 9251SOL    HW139386   0.092   4.100  15.391 -1.1617  1.0054 -0.3109
 9251SOL    HW239387   0.050   3.952  15.413  3.4475  0.9780 -1.0680
 9252SOL     OW39388   1.742   3.360  16.387  0.3183  0.7311  0.9006
 9252SOL    HW139389   1.754   3.284  16.444  1.1964  0.0816 -0.1651
 9252SOL    HW239390   1.727   3.426  16.455  1.0692  0.5881  1.2103
 9253SOL     OW39391   2.081   1.034  16.386  0.3538  0.3418  0.4110
 9253SOL    HW139392   1.989   1.045  16.363  0.4151  0.6032  0.2798
 9253SOL    HW239393   2.073   0.952  16.433  2.2904 -0.8935 -1.4181
 9254SOL     OW39394   0.687   0.147   2.406  0.2342 -0.1626 -0.6558
 9254SOL    HW139395   0.672   0.141   2.312  2.5555  2.0842 -1.1658
 9254SOL    HW239396   0.653   0.062   2.435 -1.6780 -0.2216 -3.1440
 9255SOL     OW39397   0.382   2.148   4.066 -0.1586 -0.5425  0.6869
 9255SOL    HW139398   0.460   2.105   4.101  1.1196  1.8954  0.8791
 9255SOL    HW239399   0.350   2.085   4.002 -0.9093 -1.4603  1.9744
 9256SOL     OW39400   3.835   0.570   1.036  0.2546  0.0147  0.5673
 9256SOL    HW139401   3.866   0.578   0.946  2.5538 -0.2042  1.3263
 9256SOL    HW239402   3.787   0.652   1.048  0.6988  0.3180  0.2741
 9257SOL     OW39403   2.242   2.860   8.854 -0.1980 -0.6576  0.6751
 9257SOL    HW139404   2.274   2.936   8.805 -0.3526 -0.4073  0.9575
 9257SOL    HW239405   2.163   2.896   8.894  0.0260  0.7780 -0.1788
 9258SOL     OW39406   2.218   4.280   8.933  0.0747  0.7429 -0.0338
 9258SOL    HW139407   2.209   4.264   9.027 -0.9558 -0.2467 -0.3072
 9258SOL    HW239408   2.243   4.372   8.941 -0.5931  0.6513  3.0065
 9259SOL     OW39409   1.962   0.599   6.738 -0.0684  0.2732 -0.4309
 9259SOL    HW139410   1.917   0.570   6.659 -1.0757  1.8855 -0.4378
 9259SOL    HW239411   1.887   0.642   6.778 -0.5917 -2.0488  1.1255
 9260SOL     OW39412   2.779   0.575  10.311 -0.3940  0.1409 -0.0646
 9260SOL    HW139413   2.854   0.521  10.288  1.3248  1.4107  2.4816
 9260SOL    HW239414   2.745   0.530  10.389  1.3795 -0.0829  0.5733
 9261SOL     OW39415   1.792   4.109  16.413 -0.3947 -0.2011  0.2346
 9261SOL    HW139416   1.748   4.181  16.368  2.1549  1.0366 -0.2669
 9261SOL    HW239417   1.725   4.042  16.429 -0.4157  0.0523  1.1940
 9262SOL     OW39418   4.630   1.574   6.387  0.5008  0.5077  0.0438
 9262SOL    HW139419   4.715   1.542   6.358  0.8725  0.6095  1.0314
 9262SOL    HW239420   4.637   1.666   6.412 -1.7690  0.8991 -0.7347
 9263SOL     OW39421   3.931   0.703  14.750 -0.1052  0.4713  0.0062
 9263SOL    HW139422   3.964   0.791  14.732  0.6597  0.5240  1.6770
 9263SOL    HW239423   3.917   0.674  14.660  1.8353  2.9829 -1.1060
 9264SOL     OW39424   1.268   4.430  13.726 -0.0577 -0.3296  0.6158
 9264SOL    HW139425   1.323   4.388  13.793  0.3947 -2.4611 -1.0738
 9264SOL    HW239426   1.215   4.484  13.784  0.2750 -0.5149  1.0957
 9265SOL     OW39427   2.737   4.250   8.888 -0.2997 -0.1421  0.2999
 9265SOL    HW139428   2.819   4.273   8.932 -1.1519 -0.5572  2.0844
 9265SOL    HW239429   2.721   4.168   8.934 -2.3858 -0.3048 -0.7018
 9266SOL     OW39430   1.602   2.327   8.734 -0.1439 -0.6127 -0.3226
 9266SOL    HW139431   1.589   2.307   8.641  2.3745 -1.0358 -0.5849
 9266SOL    HW239432   1.692   2.293   8.736 -0.4810 -1.4909  0.0878
 9267SOL     OW39433   2.791   3.485  10.300 -0.4860 -0.5872 -0.1372
 9267SOL    HW139434   2.768   3.468  10.392  1.0181 -0.8467  0.1927
 9267SOL    HW239435   2.863   3.545  10.320 -0.6264  0.4613 -2.8166
 9268SOL     OW39436   0.799   0.319   9.831 -0.6949 -0.3181  0.1622
 9268SOL    HW139437   0.727   0.382   9.827  0.0376  0.3890 -2.1252
 9268SOL    HW239438   0.843   0.324   9.746  0.3004  0.5235  0.7106
 9269SOL     OW39439   1.117   0.167   0.157  0.0427 -0.1326  0.0680
 9269SOL    HW139440   1.080   0.137   0.073 -1.3487 -0.4314  0.7798
 9269SOL    HW239441   1.201   0.121   0.158  0.3591  0.4940  2.0804
 9270SOL     OW39442   3.466   2.772   4.252  0.3385 -0.1072  0.0384
 9270SOL    HW139443   3.375   2.750   4.269 -0.2190  1.1367 -1.3916
 9270SOL    HW239444   3.493   2.780   4.343 -0.9267 -0.1298  0.4061
 9271SOL     OW39445   4.099   3.137   5.916  0.2695  0.2248 -0.1243
 9271SOL    HW139446   4.180   3.103   5.953 -0.3749  0.7181  1.7416
 9271SOL    HW239447   4.040   3.064   5.936  0.0409  0.1383 -1.1480
 9272SOL     OW39448   4.085   3.185   6.873  0.2082 -0.4444 -0.1345
 9272SOL    HW139449   4.016   3.248   6.895 -0.7038 -2.2916  2.2276
 9272SOL    HW239450   4.050   3.117   6.929  1.1664 -0.0297  0.9685
 9273SOL     OW39451   2.575   3.782  15.939  0.6067  0.0182 -0.1745
 9273SOL    HW139452   2.517   3.780  16.015  3.0520 -1.7869  1.6443
 9273SOL    HW239453   2.540   3.708  15.889 -0.7166  1.5676 -1.5634
 9274SOL     OW39454   2.999   4.306   1.486  0.0878  0.0423 -0.0234
 9274SOL    HW139455   3.024   4.348   1.568 -3.2973 -1.4130  1.7093
 9274SOL    HW239456   3.075   4.326   1.431  0.4753  1.8382  1.1625
 9275SOL     OW39457   3.206   1.265   5.757 -0.2480 -0.6098  0.3841
 9275SOL    HW139458   3.230   1.254   5.849  0.3222 -0.5860  0.2381
 9275SOL    HW239459   3.168   1.351   5.744  0.6268 -0.2854 -0.0464
 9276SOL     OW39460   0.791   1.806  14.093  0.4391 -0.2870 -0.2945
 9276SOL    HW139461   0.710   1.773  14.054  0.0456  0.7275 -0.3427
 9276SOL    HW239462   0.816   1.857  14.016 -4.5892  1.7128 -0.5852
 9277SOL     OW39463   1.285   1.483  17.512  0.0486  0.4723  0.2767
 9277SOL    HW139464   1.205   1.432  17.501 -1.1575  2.2790  0.6227
 9277SOL    HW239465   1.319   1.483  17.422 -0.9077 -1.5119 -0.0871
 9278SOL     OW39466   2.835   4.614  17.554  0.2723  0.4033  0.3092
 9278SOL    HW139467   2.914   4.639  17.505  1.3331 -1.3892  1.0729
 9278SOL    HW239468   2.768   4.672  17.519 -0.0865 -0.7674 -0.9498
 9279SOL     OW39469   2.947   0.028  14.851  0.8960  0.0890 -0.0097
 9279SOL    HW139470   3.008   0.050  14.780  0.0098 -0.5509 -0.9815
 9279SOL    HW239471   3.014   4.720  14.904  2.5110  2.8320  0.1755
 9280SOL     OW39472   2.743   3.503   8.917  0.0429 -0.3029 -0.2989
 9280SOL    HW139473   2.834   3.531   8.927 -0.4340  1.3033 -0.4775
 9280SOL    HW239474   2.689   3.562   8.971  0.1583  0.8711 -1.4819
 9281SOL     OW39475   1.772   2.096   6.784  0.0307 -0.6366  0.2494
 9281SOL    HW139476   1.794   2.189   6.775  3.0161 -1.3211  0.6389
 9281SOL    HW239477   1.854   2.056   6.811  0.4880  1.3544  1.7717
 9282SOL     OW39478   2.435   1.179  16.651  0.2248 -0.3512  0.3917
 9282SOL    HW139479   2.416   1.097  16.696 -2.4071  0.6135  0.9986
 9282SOL    HW239480   2.528   1.174  16.629  0.9206 -0.7737  3.3747
 9283SOL     OW39481   4.133   1.307   2.666 -0.3634 -0.5701  0.4843
 9283SOL    HW139482   4.076   1.355   2.606  1.1481 -0.7583 -1.1200
 9283SOL    HW239483   4.218   1.315   2.622 -0.1685 -0.8916  0.8020
 9284SOL     OW39484   0.432   0.963   4.136 -0.2720  0.4935 -0.0005
 9284SOL    HW139485   0.340   0.940   4.148  0.0774 -0.9567 -0.1405
 9284SOL    HW239486   0.422   1.029   4.067 -1.2223  0.0652 -0.2666
 9285SOL     OW39487   0.763   0.748  14.565 -0.1707 -0.0200  0.1631
 9285SOL    HW139488   0.848   0.705  14.554 -0.3851 -0.2376 -0.6223
 9285SOL    HW239489   0.758   0.738  14.660  0.0410  1.2686  0.3090
 9286SOL     OW39490   3.531   4.393   8.256 -0.1232  0.0894 -0.8584
 9286SOL    HW139491   3.443   4.357   8.261  0.6310 -1.5425  0.8279
 9286SOL    HW239492   3.564   4.354   8.175 -1.2611  0.6132 -1.5631
 9287SOL     OW39493   3.453   3.498   0.901 -0.0841 -0.0724  0.3698
 9287SOL    HW139494   3.459   3.464   0.991  1.4075  0.6296  0.5446
 9287SOL    HW239495   3.422   3.587   0.915 -1.1358 -0.5885  1.3524
 9288SOL     OW39496   3.873   0.988   8.924  0.3970 -0.0312  0.3683
 9288SOL    HW139497   3.786   0.956   8.902  0.2375  2.0311 -1.9512
 9288SOL    HW239498   3.913   0.905   8.950  0.9285 -0.9146 -3.3084
 9289SOL     OW39499   3.628   0.424   2.790  0.0434 -0.0219  0.1352
 9289SOL    HW139500   3.578   0.503   2.767  0.2422 -0.3848 -1.5607
 9289SOL    HW239501   3.700   0.458   2.843  1.2004 -0.4771 -1.1519
 9290SOL     OW39502   1.438   3.373   5.116 -0.2343 -0.3414 -0.0966
 9290SOL    HW139503   1.395   3.288   5.131  0.1118 -0.8857 -2.1687
 9290SOL    HW239504   1.372   3.439   5.137 -1.1109 -0.9088 -1.0196
 9291SOL     OW39505   3.706   3.715   4.251  0.4340  0.1833  0.1737
 9291SOL    HW139506   3.730   3.792   4.304 -0.8523  0.0897  0.8781
 9291SOL    HW239507   3.707   3.758   4.166 -1.1682 -0.1307 -0.0007
 9292SOL     OW39508   3.138   1.399  11.298 -0.2554  1.1144  0.3893
 9292SOL    HW139509   3.227   1.433  11.312  0.8283 -1.4399 -0.2690
 9292SOL    HW239510   3.139   1.327  11.361  2.1943  2.1871  1.5953
 9293SOL     OW39511   3.481   2.419   1.848  0.1697 -0.3695 -0.0792
 9293SOL    HW139512   3.431   2.483   1.797  2.1471  2.3840  1.4405
 9293SOL    HW239513   3.546   2.476   1.888  0.7457  0.4319 -2.1483
 9294SOL     OW39514   0.468   1.547   1.898  0.1487 -0.3634  0.1129
 9294SOL    HW139515   0.396   1.523   1.957  0.2502  2.3364  1.3342
 9294SOL    HW239516   0.545   1.547   1.954 -1.3645 -0.3472  2.1937
 9295SOL     OW39517   0.722   0.679   1.124  0.2940  0.6265  0.3021
 9295SOL    HW139518   0.816   0.662   1.126  0.3300  0.7215 -1.0012
 9295SOL    HW239519   0.732   0.774   1.113 -0.0006  0.2712 -3.1115
 9296SOL     OW39520   2.088   3.664  10.361 -0.0140  0.3878  0.9475
 9296SOL    HW139521   2.115   3.741  10.411  0.9861  0.9616 -0.4935
 9296SOL    HW239522   2.164   3.607  10.369 -1.3642 -1.5827 -0.5312
 9297SOL     OW39523   1.098   3.384   2.289 -0.4904 -0.3529 -0.1367
 9297SOL    HW139524   1.186   3.421   2.293 -0.7696  0.2511  0.3990
 9297SOL    HW239525   1.105   3.330   2.367  0.3071  0.0087  0.0436
 9298SOL     OW39526   3.864   1.967  14.890 -0.4247 -0.4161 -0.3907
 9298SOL    HW139527   3.845   1.983  14.982 -0.3267 -0.6974 -0.3216
 9298SOL    HW239528   3.793   1.909  14.863 -0.2117 -1.9086  2.2646
 9299SOL     OW39529   3.821   4.705  14.503 -0.5911 -0.5427  0.3854
 9299SOL    HW139530   3.889   4.695  14.569  1.2471  1.4816 -1.2067
 9299SOL    HW239531   3.796   4.615  14.482 -0.5410 -0.7813  1.3479
 9300SOL     OW39532   2.687   3.013   9.626  0.0638  0.0376 -0.1988
 9300SOL    HW139533   2.781   2.995   9.627 -0.1596 -1.3676 -2.8056
 9300SOL    HW239534   2.667   3.058   9.543  1.0066 -1.7824 -1.4082
 9301SOL     OW39535   0.511   3.402   4.408 -0.2228  0.5471  0.1138
 9301SOL    HW139536   0.549   3.481   4.447 -1.9065  2.0169 -1.1764
 9301SOL    HW239537   0.460   3.433   4.333  0.8586 -0.5268 -1.0648
 9302SOL     OW39538   1.029   4.128  16.322  0.2273  0.2414  0.4594
 9302SOL    HW139539   0.996   4.140  16.411 -0.5304  0.7272  0.1120
 9302SOL    HW239540   1.047   4.034  16.312 -1.5693  0.1157 -1.4925
 9303SOL     OW39541   0.077   1.172   2.503  0.2099 -0.1124  0.3348
 9303SOL    HW139542   4.718   1.165   2.485  0.2227 -0.9257  0.6101
 9303SOL    HW239543   0.069   1.227   2.581  1.3526  1.2441 -0.5094
 9304SOL     OW39544   4.486   2.601   2.658 -0.3164 -0.3343 -0.2197
 9304SOL    HW139545   4.579   2.593   2.638 -1.0646 -4.0446 -2.2083
 9304SOL    HW239546   4.460   2.659   2.586 -0.3151 -0.0320  0.0225
 9305SOL     OW39547   4.312   1.990  10.174  0.3363  0.0629 -0.4990
 9305SOL    HW139548   4.402   2.021  10.163  0.0183  1.3333  0.4689
 9305SOL    HW239549   4.287   2.011  10.264 -0.3236 -0.1311 -0.6350
 9306SOL     OW39550   1.882   4.715  14.774  0.4784 -0.2910 -0.3867
 9306SOL    HW139551   1.977   4.727  14.783  0.0852  2.5294  0.1011
 9306SOL    HW239552   1.848   0.069  14.783  0.5529 -0.3070  0.0635
 9307SOL     OW39553   0.043   3.292   9.273  0.2110 -0.4528  0.5618
 9307SOL    HW139554   4.686   3.297   9.246  0.5938  1.9597 -0.2374
 9307SOL    HW239555   0.091   3.336   9.203 -1.9385 -1.2447 -1.4030
 9308SOL     OW39556   0.055   0.626  17.334  0.1271 -0.1208 -0.0968
 9308SOL    HW139557   0.034   0.538  17.304 -1.8880  0.4735 -0.4160
 9308SOL    HW239558   4.733   0.675  17.274  0.1086  2.9624  2.4398
 9309SOL     OW39559   2.939   1.526   2.017 -0.0011  0.0496  0.6304
 9309SOL    HW139560   2.852   1.510   1.980  0.1664 -0.7780  0.6095
 9309SOL    HW239561   2.917   1.593   2.082  0.9785  0.4963  0.5096
 9310SOL     OW39562   0.393   0.060   1.306  0.3008 -0.5701  0.2445
 9310SOL    HW139563   0.355   0.016   1.230 -1.4635 -1.7199  1.7875
 9310SOL    HW239564   0.331   0.030   1.373 -2.2089 -0.6834 -2.1318
 9311SOL     OW39565   3.367   2.022   3.562  0.1215  0.4864  0.1313
 9311SOL    HW139566   3.315   1.999   3.485 -0.1757 -0.9721  0.7670
 9311SOL    HW239567   3.340   2.114   3.569  0.7737  0.5596  1.6269
 9312SOL     OW39568   2.445   0.421   0.185  0.4983  0.4770 -0.2302
 9312SOL    HW139569   2.421   0.352   0.246 -0.2864  1.0587  0.1240
 9312SOL    HW239570   2.415   0.372   0.109 -0.3146  0.9064 -0.1894
 9313SOL     OW39571   3.774   2.918   4.188  0.3968 -0.0478  0.3011
 9313SOL    HW139572   3.861   2.880   4.194  0.8193  1.0444  1.0715
 9313SOL    HW239573   3.716   2.851   4.153  1.5971 -0.8435 -0.1336
 9314SOL     OW39574   2.837   4.595   1.938  0.0871  0.1263 -0.3048
 9314SOL    HW139575   2.783   4.576   1.860  0.5458 -1.1116 -0.3276
 9314SOL    HW239576   2.881   4.510   1.945  2.8786  1.7232  1.3759
 9315SOL     OW39577   3.039   1.352  16.268 -0.7235  0.2003 -0.0980
 9315SOL    HW139578   3.085   1.397  16.338  1.2573  0.9638 -1.8834
 9315SOL    HW239579   2.972   1.307  16.320  0.0274 -1.6666 -0.7300
 9316SOL     OW39580   4.621   3.623   2.239  0.4069  0.0027  0.0423
 9316SOL    HW139581   4.607   3.579   2.323 -1.9246 -0.2912 -0.5035
 9316SOL    HW239582   4.670   3.551   2.200  0.8164  0.3601 -0.0958
 9317SOL     OW39583   3.183   1.481   6.024  0.1388 -0.0149  0.3312
 9317SOL    HW139584   3.207   1.391   6.001  0.3234  0.3476 -0.9266
 9317SOL    HW239585   3.266   1.527   6.011  0.9959 -1.3899  1.0625
 9318SOL     OW39586   0.453   1.152   3.948  0.0275 -0.2601 -0.3616
 9318SOL    HW139587   0.370   1.200   3.948 -0.0069 -0.3235  0.2480
 9318SOL    HW239588   0.499   1.182   3.870 -0.3467 -0.9361 -0.8434
 9319SOL     OW39589   2.725   1.269   6.439  0.0251 -0.2225  0.6020
 9319SOL    HW139590   2.709   1.309   6.525  0.3938 -2.0786  1.5360
 9319SOL    HW239591   2.757   1.345   6.391 -1.2030 -0.6661 -0.8923
 9320SOL     OW39592   3.253   3.684   3.671  0.1182  0.0500 -0.4131
 9320SOL    HW139593   3.327   3.654   3.618 -0.3876  0.3166 -1.2530
 9320SOL    HW239594   3.231   3.762   3.622 -0.6046 -0.6763 -1.2419
 9321SOL     OW39595   2.575   1.825   3.464 -0.0103  0.4865  0.2128
 9321SOL    HW139596   2.498   1.799   3.414  1.4457 -1.4564 -1.0264
 9321SOL    HW239597   2.622   1.742   3.474 -0.5058  0.0207 -1.3584
 9322SOL     OW39598   3.442   2.347  12.559 -0.3591  0.5822 -0.5098
 9322SOL    HW139599   3.452   2.425  12.503 -1.5215  0.8936 -0.2871
 9322SOL    HW239600   3.460   2.280  12.493 -0.6488  0.0490 -0.0364
 9323SOL     OW39601   4.282   4.506   1.178 -0.7213 -0.3595 -0.5986
 9323SOL    HW139602   4.213   4.533   1.117  1.3124  2.7666 -1.5243
 9323SOL    HW239603   4.333   4.586   1.167  0.1544 -0.8051  0.2341
 9324SOL     OW39604   2.972   1.248   3.263  0.1340  0.2217  0.4351
 9324SOL    HW139605   3.046   1.187   3.259 -2.3225 -2.7636  0.9628
 9324SOL    HW239606   3.021   1.327   3.289  1.8171 -0.4236 -0.7632
 9325SOL     OW39607   1.091   2.462   4.641  0.1523 -0.0909 -0.3467
 9325SOL    HW139608   1.020   2.484   4.582  1.2297 -1.0598 -2.0100
 9325SOL    HW239609   1.101   2.542   4.694 -2.0137  0.6539 -1.0918
 9326SOL     OW39610   3.275   4.530   8.565 -0.4243 -0.2095  0.1770
 9326SOL    HW139611   3.215   4.474   8.515 -1.7903  1.2610  0.1756
 9326SOL    HW239612   3.210   4.585   8.608  2.4304  1.3786  2.4037
 9327SOL     OW39613   3.548   3.124  13.950 -0.1661  0.1709 -0.0487
 9327SOL    HW139614   3.532   3.133  13.856 -1.2048  0.9553  0.2150
 9327SOL    HW239615   3.554   3.209  13.993 -1.3587  0.1892  0.0766
 9328SOL     OW39616   1.132   3.141   3.137 -0.3518  0.1813 -0.3248
 9328SOL    HW139617   1.166   3.222   3.176  0.6034 -0.4346  0.1478
 9328SOL    HW239618   1.074   3.184   3.075  0.8660  0.7305 -1.0784
 9329SOL     OW39619   1.192   0.358   4.311  0.4828  0.0776  0.0005
 9329SOL    HW139620   1.265   0.352   4.374  1.0147  2.5830 -0.3624
 9329SOL    HW239621   1.153   0.442   4.335 -0.0735  0.1075 -1.0015
 9330SOL     OW39622   4.603   1.395  13.517 -0.4080  0.6154  0.5336
 9330SOL    HW139623   4.567   1.439  13.594 -1.7730  0.8256 -0.2272
 9330SOL    HW239624   4.524   1.347  13.490  0.2731  0.5419 -1.3490
 9331SOL     OW39625   0.034   3.885   6.255  0.0005 -0.1732  0.0174
 9331SOL    HW139626   4.711   3.957   6.231 -2.4278 -1.5210  1.8052
 9331SOL    HW239627   0.111   3.928   6.293 -1.3356  1.7318  0.5570
 9332SOL     OW39628   3.749   1.540  11.951  0.5856  0.0159 -0.4537
 9332SOL    HW139629   3.745   1.553  11.856 -1.0536  0.4669 -0.3259
 9332SOL    HW239630   3.658   1.558  11.972  0.9375  0.2117  0.8744
 9333SOL     OW39631   3.411   2.895   4.021  0.2219  0.2462  0.0399
 9333SOL    HW139632   3.435   2.862   4.108 -0.1609 -0.8109 -0.2457
 9333SOL    HW239633   3.485   2.853   3.977  2.1529  1.9100  1.7426
 9334SOL     OW39634   1.903   1.807   3.701  0.5613  0.0409  0.0193
 9334SOL    HW139635   1.894   1.833   3.793  0.2737 -2.4310  0.7035
 9334SOL    HW239636   1.897   1.712   3.703  1.0953 -0.0052 -0.7611
 9335SOL     OW39637   3.323   3.307   2.283 -0.2299  0.1671 -0.3393
 9335SOL    HW139638   3.245   3.320   2.337 -0.8169 -0.0719 -1.1125
 9335SOL    HW239639   3.296   3.346   2.200  0.7154  1.1250 -0.1935
 9336SOL     OW39640   1.754   1.604   1.583  0.4094  0.4123 -0.0189
 9336SOL    HW139641   1.673   1.553   1.573  0.9367 -0.5451  0.5874
 9336SOL    HW239642   1.819   1.544   1.620  1.2392  0.4048 -1.5037
 9337SOL     OW39643   4.657   3.525   3.030 -0.6450 -0.2870 -0.2117
 9337SOL    HW139644   4.566   3.499   3.014 -0.3625 -1.1112 -0.4818
 9337SOL    HW239645   4.700   3.440   3.043  0.2968  0.4436  1.5242
 9338SOL     OW39646   4.000   3.651   5.882 -0.5472  0.4020  0.0833
 9338SOL    HW139647   4.020   3.695   5.964 -0.7260 -0.2866  0.4954
 9338SOL    HW239648   3.992   3.724   5.821  0.1682 -0.0281 -0.5329
 9339SOL     OW39649   0.365   1.817   1.759 -0.3288 -0.1058 -0.0958
 9339SOL    HW139650   0.460   1.823   1.769 -0.0270 -1.5443 -2.0487
 9339SOL    HW239651   0.369   1.876   1.683  0.0232 -0.9330 -0.7173
 9340SOL     OW39652   4.065   0.348   3.451 -0.1317  0.1352  0.3239
 9340SOL    HW139653   4.003   0.420   3.463  0.3878  0.3235  1.8648
 9340SOL    HW239654   4.128   0.397   3.399  0.7181  0.1937  1.4326
 9341SOL     OW39655   2.267   2.964   4.395  0.5095  0.1592 -0.0687
 9341SOL    HW139656   2.237   2.931   4.310  0.1467 -2.1951  0.9701
 9341SOL    HW239657   2.201   2.931   4.456  1.1783 -0.7943  0.1259
 9342SOL     OW39658   1.598   1.697  15.882  0.0373 -0.3237 -0.3599
 9342SOL    HW139659   1.626   1.760  15.949 -3.2185  2.7187 -1.8871
 9342SOL    HW239660   1.639   1.739  15.806 -1.5661  2.0386  0.0832
 9343SOL     OW39661   4.095   2.913   2.902 -0.1019  0.3086  0.4025
 9343SOL    HW139662   4.186   2.885   2.906 -0.3196 -0.2573  1.4487
 9343SOL    HW239663   4.074   2.894   2.811 -1.3039  3.2067  0.0975
 9344SOL     OW39664   1.204   0.759   2.469  0.2571  0.2731 -0.3284
 9344SOL    HW139665   1.139   0.709   2.419 -2.2302 -1.1645  4.3680
 9344SOL    HW239666   1.186   0.725   2.556 -1.3326 -1.4274 -1.3208
 9345SOL     OW39667   1.086   3.936   9.422 -0.2917  0.0614 -0.2567
 9345SOL    HW139668   0.991   3.948   9.421 -0.3086  0.0828  2.3221
 9345SOL    HW239669   1.096   3.896   9.508  0.2132  2.2510  0.7028
 9346SOL     OW39670   4.166   1.910   5.662 -0.3015  0.3686  0.0643
 9346SOL    HW139671   4.230   1.940   5.726  0.8190 -2.7882  0.4384
 9346SOL    HW239672   4.198   1.822   5.642 -0.4057  0.7261 -1.6436
 9347SOL     OW39673   4.051   2.519   8.541 -0.3214  0.3203 -0.3371
 9347SOL    HW139674   4.084   2.603   8.575  1.9284  0.1597 -2.0895
 9347SOL    HW239675   4.002   2.494   8.619 -1.0657 -1.1191 -1.2582
 9348SOL     OW39676   1.808   2.364  12.953 -0.0012  0.1347 -0.0027
 9348SOL    HW139677   1.757   2.320  12.886  0.1648  1.1407 -0.7758
 9348SOL    HW239678   1.895   2.372  12.914  0.7294 -2.6156  1.0131
 9349SOL     OW39679   0.312   2.904  15.127  0.1241  0.4738  0.0009
 9349SOL    HW139680   0.318   2.996  15.155 -0.4153  0.0508  1.5227
 9349SOL    HW239681   0.325   2.917  15.033  2.1250  0.2636  0.2403
 9350SOL     OW39682   0.006   2.349   4.130 -0.0167 -0.4617 -0.1158
 9350SOL    HW139683   0.034   2.265   4.094  0.0492  0.0134 -1.1801
 9350SOL    HW239684   0.086   2.403   4.122  2.2407 -3.7635  0.2776
 9351SOL     OW39685   3.854   1.394   7.134  0.1299 -0.0640 -0.0568
 9351SOL    HW139686   3.915   1.404   7.061 -1.0828 -1.4623 -1.2724
 9351SOL    HW239687   3.912   1.406   7.209 -0.2460  0.6247  0.1216
 9352SOL     OW39688   4.342   0.655  14.980  0.0034 -0.3576  0.9729
 9352SOL    HW139689   4.408   0.715  15.015  0.0360  0.9114 -1.2316
 9352SOL    HW239690   4.310   0.711  14.909  0.6072  0.1980  1.1437
 9353SOL     OW39691   0.296   3.784   7.754 -0.1413 -0.0856  0.1340
 9353SOL    HW139692   0.348   3.708   7.728 -0.6613 -0.4331  0.0966
 9353SOL    HW239693   0.302   3.842   7.679 -0.0285 -0.8195 -0.4235
 9354SOL     OW39694   0.357   3.547   0.378 -0.9767  0.0169 -0.4787
 9354SOL    HW139695   0.355   3.602   0.300 -0.9935 -0.8395 -1.0830
 9354SOL    HW239696   0.443   3.505   0.374 -0.0000  1.8123  1.6035
 9355SOL     OW39697   1.073   1.329   2.593 -0.2548  0.3613  0.3315
 9355SOL    HW139698   1.075   1.381   2.673  0.4519  0.7857  0.0340
 9355SOL    HW239699   1.066   1.241   2.630 -1.0037  0.2837  0.0016
 9356SOL     OW39700   4.036   2.875  10.410 -0.1141  0.0248 -0.0443
 9356SOL    HW139701   4.064   2.938  10.344 -1.3956  0.8599  0.2127
 9356SOL    HW239702   4.043   2.932  10.486  1.3578  0.8052 -0.7795
 9357SOL     OW39703   4.290   1.647   1.787 -0.4153 -0.0486  0.4246
 9357SOL    HW139704   4.259   1.664   1.698  0.8585  0.0819  0.0099
 9357SOL    HW239705   4.212   1.658   1.841 -0.0195 -1.3371  1.2588
 9358SOL     OW39706   0.928   0.827   2.160  0.0311 -0.2290  0.2132
 9358SOL    HW139707   0.981   0.756   2.125  0.5263 -0.5019  1.5537
 9358SOL    HW239708   0.988   0.897   2.134  0.3814  0.0127  1.6738
 9359SOL     OW39709   2.317   1.126   5.737  0.0630  0.8761 -0.1204
 9359SOL    HW139710   2.239   1.154   5.784  0.2282  0.8677  0.1610
 9359SOL    HW239711   2.277   1.108   5.652 -0.1823 -0.1600  0.2174
 9360SOL     OW39712   3.887   2.380  10.427  0.6943 -0.5648 -0.1663
 9360SOL    HW139713   3.938   2.457  10.403  0.2664  0.2114  1.4249
 9360SOL    HW239714   3.832   2.370  10.349 -1.5157  1.1367  1.1742
 9361SOL     OW39715   0.590   0.610   6.810 -0.2375 -0.1765  0.2249
 9361SOL    HW139716   0.506   0.599   6.765 -0.9612  0.6146  1.3746
 9361SOL    HW239717   0.599   0.515   6.823 -1.9374 -0.2413  0.9995
 9362SOL     OW39718   3.866   2.419   6.260 -0.3001  0.2173  0.3880
 9362SOL    HW139719   3.954   2.427   6.296  1.2589  0.0377 -3.3369
 9362SOL    HW239720   3.868   2.335   6.214  0.0319  0.6887 -0.4651
 9363SOL     OW39721   2.886   2.121   2.917  0.0942  0.0105  0.1610
 9363SOL    HW139722   2.914   2.213   2.915 -0.9596  0.3172 -0.8073
 9363SOL    HW239723   2.939   2.078   2.850  1.4364 -0.2615  1.4003
 9364SOL     OW39724   2.502   2.804   2.527  0.4043 -0.1787  0.1936
 9364SOL    HW139725   2.414   2.799   2.490  0.2115 -0.3669  0.6842
 9364SOL    HW239726   2.491   2.795   2.621  0.7270 -1.3117  0.1121
 9365SOL     OW39727   0.211   4.590  11.331 -0.5403 -0.1827  0.0350
 9365SOL    HW139728   0.263   4.602  11.411 -1.2356  1.4927  0.2485
 9365SOL    HW239729   0.203   4.497  11.312 -1.5391  0.1006 -0.9568
 9366SOL     OW39730   4.623   1.202   4.534 -0.4139 -0.2596  0.2327
 9366SOL    HW139731   4.546   1.160   4.570 -0.6388  0.7732  0.9593
 9366SOL    HW239732   4.691   1.204   4.602  1.0123 -0.7130 -1.1743
 9367SOL     OW39733   3.877   1.241   3.396 -0.2701  0.1551  0.3360
 9367SOL    HW139734   3.837   1.239   3.483 -1.9861  2.4379 -0.3935
 9367SOL    HW239735   3.968   1.213   3.408 -0.1917  0.6042  0.7982
 9368SOL     OW39736   2.052   1.284  13.281  0.0886  0.3265 -0.0807
 9368SOL    HW139737   2.016   1.335  13.353  0.0098 -1.4314  1.1431
 9368SOL    HW239738   1.977   1.269  13.224  1.2930  1.5348 -1.9875
 9369SOL     OW39739   2.536   1.519  10.162  0.2956 -0.7054  0.2763
 9369SOL    HW139740   2.462   1.469  10.128  1.2463 -2.5760  1.0147
 9369SOL    HW239741   2.498   1.572  10.232  0.2994  0.7024 -0.7621
 9370SOL     OW39742   4.425   2.405  13.063  0.4024 -0.0788  0.0758
 9370SOL    HW139743   4.393   2.449  13.142  0.3842  0.8661 -0.4549
 9370SOL    HW239744   4.432   2.476  13.000 -1.6348 -0.0605 -0.1272
 9371SOL     OW39745   4.542   2.593  12.193  0.0486 -0.2782 -0.1818
 9371SOL    HW139746   4.594   2.542  12.255  1.1727  1.9814  0.7395
 9371SOL    HW239747   4.610   2.639  12.143  0.2243 -0.2431  0.0889
 9372SOL     OW39748   3.133   4.492   6.435 -0.0800 -0.1674 -0.0940
 9372SOL    HW139749   3.077   4.529   6.504  2.2721 -0.7750  2.1417
 9372SOL    HW239750   3.150   4.564   6.374 -0.6110 -0.0852 -0.1470
 9373SOL     OW39751   4.663   1.633  16.585 -0.2758  0.3315 -0.2921
 9373SOL    HW139752   4.683   1.562  16.523 -0.6470 -0.5926  0.6625
 9373SOL    HW239753   4.662   1.576  16.662  2.3861  0.0803 -0.4515
 9374SOL     OW39754   3.323   3.480   1.357 -0.8262 -0.1540  0.3420
 9374SOL    HW139755   3.278   3.396   1.362  0.2424 -0.5834  3.0735
 9374SOL    HW239756   3.370   3.469   1.441  2.9964 -0.0708 -1.7729
 9375SOL     OW39757   4.584   2.820  13.443  0.5522 -0.0279 -0.1964
 9375SOL    HW139758   4.538   2.793  13.364 -2.3845  0.3617  1.3909
 9375SOL    HW239759   4.519   2.884  13.471  1.0864  0.3521  0.1883
 9376SOL     OW39760   0.186   0.209   2.655 -0.7135  0.0585 -0.4161
 9376SOL    HW139761   0.268   0.206   2.605 -0.8910  0.2582 -0.7138
 9376SOL    HW239762   0.221   0.198   2.744  0.6795  0.5494 -0.8988
 9377SOL     OW39763   4.019   0.066  14.698 -0.0939  0.2475 -0.0601
 9377SOL    HW139764   4.109   0.083  14.671  1.0012  0.0663  3.4390
 9377SOL    HW239765   3.995   0.158  14.713  2.7792  1.1240 -0.9476
 9378SOL     OW39766   1.636   4.039   6.556 -0.1818  0.5836  0.1187
 9378SOL    HW139767   1.554   4.040   6.506  0.3163 -3.1774 -0.7910
 9378SOL    HW239768   1.632   4.134   6.567 -0.9398  0.8350 -2.2540
 9379SOL     OW39769   0.689   0.667  14.282 -0.0506 -0.0943 -0.0023
 9379SOL    HW139770   0.630   0.719  14.227 -0.0493  1.9303  1.8922
 9379SOL    HW239771   0.717   0.728  14.351  0.8062 -1.0767  0.5108
 9380SOL     OW39772   1.031   3.062   5.501 -0.2956  0.4139 -0.4243
 9380SOL    HW139773   1.058   3.153   5.518  1.6702 -0.0307 -1.2522
 9380SOL    HW239774   0.939   3.085   5.485  0.1360  0.3862 -2.9641
 9381SOL     OW39775   3.462   0.176   4.582 -0.5259  0.0900  0.0697
 9381SOL    HW139776   3.405   0.105   4.614  0.9139 -0.9430  0.3404
 9381SOL    HW239777   3.477   0.216   4.668  0.3586 -0.7257  0.2881
 9382SOL     OW39778   3.808   0.478   5.270 -0.1762 -0.1206 -0.2929
 9382SOL    HW139779   3.897   0.511   5.277  0.6617 -2.8440  1.9268
 9382SOL    HW239780   3.770   0.528   5.197 -2.5674 -0.2134  0.8886
 9383SOL     OW39781   2.658   0.767   1.789  0.1156 -0.1801 -0.7242
 9383SOL    HW139782   2.710   0.756   1.710 -1.0415  1.3269 -1.7011
 9383SOL    HW239783   2.663   0.862   1.786 -1.1788 -0.0389  1.7461
 9384SOL     OW39784   2.012   3.899   7.840 -0.0544 -0.2558 -0.0183
 9384SOL    HW139785   2.023   3.805   7.823 -0.5714 -0.4118  0.5394
 9384SOL    HW239786   1.937   3.887   7.898  0.2600  1.3240  0.7154
 9385SOL     OW39787   0.951   3.981  10.259  0.0303 -0.4438 -0.3933
 9385SOL    HW139788   1.001   3.997  10.179  2.3155  1.3522  1.4110
 9385SOL    HW239789   0.922   3.890  10.255  0.1587 -0.4238 -1.9872
 9386SOL     OW39790   3.824   3.512   3.946  0.5160  0.0585  0.6517
 9386SOL    HW139791   3.801   3.553   3.862 -1.3053  1.1077  1.6622
 9386SOL    HW239792   3.919   3.520   3.949  0.4528  0.8870  0.5893
 9387SOL     OW39793   2.016   1.843   7.875  0.7916  0.3459  0.5988
 9387SOL    HW139794   1.943   1.868   7.818  2.5044 -0.7437 -2.0528
 9387SOL    HW239795   2.007   1.748   7.887 -1.4906  0.4282 -0.4494
 9388SOL     OW39796   2.476   4.574   7.871  0.1298 -0.5172 -0.2754
 9388SOL    HW139797   2.389   4.583   7.911  1.4849  2.2873  2.0515
 9388SOL    HW239798   2.450   4.526   7.792 -2.7649 -1.7462  1.4026
 9389SOL     OW39799   2.407   2.246   4.615 -0.1324 -0.0666 -0.2302
 9389SOL    HW139800   2.345   2.237   4.543 -1.6897 -0.6385  1.1746
 9389SOL    HW239801   2.483   2.284   4.572  0.3942  0.3628  1.0694
 9390SOL     OW39802   1.896   4.035  11.973 -0.1296 -0.0244  0.2074
 9390SOL    HW139803   1.849   4.114  11.944  1.0612  1.0375  1.1442
 9390SOL    HW239804   1.871   4.045  12.065 -0.1084 -0.7897  0.2914
 9391SOL     OW39805   1.775   1.083   3.535 -0.5192 -0.5118 -0.7623
 9391SOL    HW139806   1.816   1.015   3.589 -1.1000 -1.1626 -1.1411
 9391SOL    HW239807   1.852   1.132   3.506 -1.2960  2.0558  1.5919
 9392SOL     OW39808   0.931   4.656   5.923 -0.2892  0.0925  0.1161
 9392SOL    HW139809   0.948   4.562   5.909  1.5912  0.5266 -0.5613
 9392SOL    HW239810   0.945   4.651   6.017 -1.9753 -1.4282  0.2890
 9393SOL     OW39811   2.322   4.397   6.022 -0.2558  0.3021  0.7386
 9393SOL    HW139812   2.252   4.332   6.018 -2.1315  2.2797  1.1332
 9393SOL    HW239813   2.311   4.440   5.937 -2.3533  0.0275  0.8601
 9394SOL     OW39814   1.288   3.663   3.720  0.5811  0.3487 -0.0477
 9394SOL    HW139815   1.309   3.644   3.811  0.6469 -0.2036 -0.1800
 9394SOL    HW239816   1.203   3.619   3.714  0.5115  0.3632  0.8436
 9395SOL     OW39817   3.382   4.123   2.232  0.4792  0.5395  0.5405
 9395SOL    HW139818   3.337   4.075   2.162  1.1297  0.4192  0.1995
 9395SOL    HW239819   3.343   4.209   2.221 -1.1186 -0.0533  1.6258
 9396SOL     OW39820   0.083   4.123   4.614  0.1286 -0.0515 -0.0772
 9396SOL    HW139821   0.150   4.105   4.680 -1.0605 -1.5961  0.7395
 9396SOL    HW239822   0.130   4.097   4.535  0.3306 -0.9096  0.3259
 9397SOL     OW39823   4.269   3.659   5.241 -0.0830  0.4930  0.1601
 9397SOL    HW139824   4.357   3.671   5.277 -1.0881  2.0484  2.0936
 9397SOL    HW239825   4.278   3.577   5.192  0.5066  1.2460 -0.9988
 9398SOL     OW39826   3.721   1.821   7.619 -0.3279  0.7268  0.5149
 9398SOL    HW139827   3.788   1.835   7.551 -0.8322 -3.6677 -0.9075
 9398SOL    HW239828   3.671   1.902   7.623  3.0263  2.7182  1.9569
 9399SOL     OW39829   1.181   1.934   5.963 -0.0947 -0.0525 -0.6887
 9399SOL    HW139830   1.201   1.990   5.888  3.2078  3.4442  2.7450
 9399SOL    HW239831   1.145   2.003   6.019  0.3664  0.4883 -1.0590
 9400SOL     OW39832   2.432   3.122   2.772 -0.0961  0.4916  0.1577
 9400SOL    HW139833   2.504   3.185   2.766  1.1272 -0.9683 -0.7099
 9400SOL    HW239834   2.449   3.076   2.854  0.1097 -1.8577 -1.1889
 9401SOL     OW39835   1.956   1.939  13.592 -0.1894  0.1885 -0.3515
 9401SOL    HW139836   1.921   1.962  13.506 -3.0224  1.3842  1.1336
 9401SOL    HW239837   1.896   1.982  13.653  2.4385  1.1819  1.5203
 9402SOL     OW39838   3.854   2.990   0.579 -0.4268 -1.1457 -0.5123
 9402SOL    HW139839   3.769   3.025   0.556 -0.4141 -0.1343  1.0109
 9402SOL    HW239840   3.868   3.034   0.663 -0.1937  0.8119 -1.5967
 9403SOL     OW39841   1.588   2.776  16.861  0.3802 -0.3002 -0.3417
 9403SOL    HW139842   1.605   2.732  16.944 -0.8696 -1.5766 -0.7784
 9403SOL    HW239843   1.628   2.861  16.884  1.1512 -1.1254  1.3710
 9404SOL     OW39844   0.983   1.438   6.123 -0.2652 -0.6628 -0.2389
 9404SOL    HW139845   0.920   1.389   6.175 -1.8347  0.9472 -0.6068
 9404SOL    HW239846   1.065   1.391   6.134 -0.9910 -1.8579  0.0383
 9405SOL     OW39847   4.462   3.187   6.525 -0.3481  0.4285 -1.0183
 9405SOL    HW139848   4.384   3.135   6.547 -0.9050  1.7351  0.1407
 9405SOL    HW239849   4.477   3.223   6.612 -0.2627  0.7685 -1.1756
 9406SOL     OW39850   0.714   1.224  13.210 -0.7252  0.3268 -0.5307
 9406SOL    HW139851   0.734   1.178  13.128  0.9033 -2.1382  1.2866
 9406SOL    HW239852   0.696   1.315  13.184 -0.8893  0.2611 -0.6496
 9407SOL     OW39853   0.335   1.300   8.964  0.6172  0.9902  0.0289
 9407SOL    HW139854   0.291   1.256   9.036  0.8196  1.0830  0.2091
 9407SOL    HW239855   0.419   1.254   8.958  0.0096  0.1141 -1.8584
 9408SOL     OW39856   3.067   1.417   5.397 -0.1059  0.0970 -0.0024
 9408SOL    HW139857   3.053   1.461   5.314  0.1486  0.5262  0.1821
 9408SOL    HW239858   2.982   1.373   5.397  0.8948 -1.8531  2.0126
 9409SOL     OW39859   2.220   4.260   9.200 -0.1252  0.0022  0.0332
 9409SOL    HW139860   2.155   4.261   9.270  1.4539 -0.5882  1.5043
 9409SOL    HW239861   2.303   4.227   9.237 -0.7267  0.4650  1.7921
 9410SOL     OW39862   1.786   3.279   3.585  0.4002 -0.0446 -0.1638
 9410SOL    HW139863   1.864   3.316   3.545 -0.1729 -0.3762 -1.5915
 9410SOL    HW239864   1.731   3.327   3.523  2.0549  0.8359 -0.9438
 9411SOL     OW39865   3.239   1.180  16.499  0.0796  0.3561 -0.1480
 9411SOL    HW139866   3.325   1.154  16.465  0.3758  0.6475  0.3670
 9411SOL    HW239867   3.188   1.143  16.428  1.6786 -0.7051 -0.7408
 9412SOL     OW39868   1.620   0.085   6.653 -0.7950  0.0430 -0.3560
 9412SOL    HW139869   1.695   0.119   6.605  0.3912 -2.1339 -0.0666
 9412SOL    HW239870   1.625   0.145   6.728  0.6776 -1.2630  0.6001
 9413SOL     OW39871   2.869   4.648  14.226 -0.1987  0.3021  0.1876
 9413SOL    HW139872   2.926   4.645  14.149 -0.3790 -0.2230  0.0758
 9413SOL    HW239873   2.828   4.562  14.220  0.7267 -0.0832 -0.6040
 9414SOL     OW39874   4.251   2.309   3.650  0.1563  0.1961  0.7619
 9414SOL    HW139875   4.327   2.263   3.613  0.3412  1.4627 -0.4305
 9414SOL    HW239876   4.194   2.310   3.574  0.0044 -1.6838  0.8491
 9415SOL     OW39877   3.168   3.442   4.095  0.3352  0.0868  0.2618
 9415SOL    HW139878   3.226   3.512   4.126 -0.9023  1.2670 -0.1118
 9415SOL    HW239879   3.158   3.458   4.001 -0.3540 -4.3845 -0.4064
 9416SOL     OW39880   0.705   0.592   5.497  0.1061 -0.1672  0.0369
 9416SOL    HW139881   0.703   0.523   5.431 -0.5719  0.0179 -0.1312
 9416SOL    HW239882   0.615   0.620   5.511  0.3645  0.1858  1.0209
 9417SOL     OW39883   0.095   3.295  16.060 -0.5044  0.0896  0.0484
 9417SOL    HW139884   0.170   3.341  16.022  1.1937 -0.7514  2.3492
 9417SOL    HW239885   0.054   3.372  16.100  3.6652  1.7459  1.1565
 9418SOL     OW39886   0.812   0.320   0.189  0.2217  0.6111  0.4210
 9418SOL    HW139887   0.768   0.402   0.209 -2.9672 -0.8272 -0.7820
 9418SOL    HW239888   0.831   0.285   0.276  0.2880  1.5214  0.7704
 9419SOL     OW39889   1.187   3.767   3.485 -0.5137  0.1261 -0.7176
 9419SOL    HW139890   1.240   3.847   3.489  1.9190 -1.4615 -1.5052
 9419SOL    HW239891   1.214   3.725   3.566 -1.5931  0.9774  0.0939
 9420SOL     OW39892   0.490   0.866   6.883 -0.3012 -0.3903  0.3023
 9420SOL    HW139893   0.521   0.788   6.837 -0.0866 -1.4287  2.2097
 9420SOL    HW239894   0.477   0.839   6.974  0.8528 -0.9438  0.2933
 9421SOL     OW39895   0.236   1.184   5.158  0.2406 -0.0074 -0.3337
 9421SOL    HW139896   0.165   1.128   5.128  1.0507 -0.9698 -0.4625
 9421SOL    HW239897   0.277   1.222   5.081  1.8536  0.7670  0.9031
 9422SOL     OW39898   0.194   3.744   2.001 -0.7535  0.0421  0.0183
 9422SOL    HW139899   0.286   3.752   1.975  0.1040 -0.1144  2.9350
 9422SOL    HW239900   0.157   3.698   1.926  0.5119 -1.5705  0.3803
 9423SOL     OW39901   0.200   3.516   8.663  0.2512 -0.0480  0.5312
 9423SOL    HW139902   0.261   3.443   8.669  0.1263 -0.4052 -2.7758
 9423SOL    HW239903   0.246   3.580   8.718 -2.0892  1.2875  0.9643
 9424SOL     OW39904   0.115   1.172   2.998  0.0074 -0.6221 -0.5405
 9424SOL    HW139905   0.158   1.087   2.993 -1.5450 -1.4469  0.1906
 9424SOL    HW239906   0.091   1.166   3.091  0.5203 -1.2145 -0.4463
 9425SOL     OW39907   2.574   1.636   5.148 -0.3860 -0.1403 -0.2788
 9425SOL    HW139908   2.536   1.669   5.067  0.3397  0.4128 -0.3884
 9425SOL    HW239909   2.516   1.679   5.212  1.6632  1.2155  0.6401
 9426SOL     OW39910   3.465   1.751  17.372 -0.5367  0.5775  1.1701
 9426SOL    HW139911   3.554   1.787  17.361 -1.4829  2.0447 -1.6707
 9426SOL    HW239912   3.465   1.734  17.466 -0.4634 -1.8136  0.7434
 9427SOL     OW39913   0.142   4.243   2.493  0.0227 -0.4462  0.1927
 9427SOL    HW139914   0.207   4.174   2.507 -0.3687 -0.1055  3.5965
 9427SOL    HW239915   0.081   4.183   2.451 -0.3264  1.9268 -2.6361
 9428SOL     OW39916   1.292   1.539  11.945  1.1190 -0.0568 -0.1469
 9428SOL    HW139917   1.352   1.611  11.963  2.4780 -1.5298  1.2689
 9428SOL    HW239918   1.356   1.486  11.897  0.6712  1.4280 -2.3644
 9429SOL     OW39919   3.152   1.160  16.098  0.8967  0.3136 -0.1934
 9429SOL    HW139920   3.242   1.186  16.077  0.8403  3.3665  3.3667
 9429SOL    HW239921   3.114   1.234  16.144  0.8801 -1.5841  2.8528
 9430SOL     OW39922   1.173   3.563   2.540 -0.0742  0.1306  0.0971
 9430SOL    HW139923   1.235   3.598   2.476 -0.0629  0.8539  0.5091
 9430SOL    HW239924   1.191   3.634   2.601  1.3036  1.4543 -1.8410
 9431SOL     OW39925   4.321   1.974   5.894 -0.2523 -0.2404  0.3871
 9431SOL    HW139926   4.314   2.069   5.905  0.1164  0.0060 -1.6045
 9431SOL    HW239927   4.284   1.951   5.980 -1.1775  3.6754  1.0264
 9432SOL     OW39928   4.589   0.559   8.243  0.2534 -0.3350  0.0585
 9432SOL    HW139929   4.506   0.562   8.289  0.4132  2.2933  0.1496
 9432SOL    HW239930   4.625   0.647   8.250 -1.8487  0.5390 -0.1506
 9433SOL     OW39931   3.889   4.055   5.482 -0.3049  0.2705 -0.1844
 9433SOL    HW139932   3.952   4.121   5.452  1.0681 -0.4631  1.0213
 9433SOL    HW239933   3.941   3.975   5.469 -1.5016 -0.6748  0.7855
 9434SOL     OW39934   3.482   1.480  12.062  0.6166  0.2680  0.2070
 9434SOL    HW139935   3.441   1.396  12.042  0.0948  0.5677  0.0017
 9434SOL    HW239936   3.466   1.510  12.151  1.0102  0.6545  0.1475
 9435SOL     OW39937   2.567   2.602   7.675  0.2984  0.0455  0.8818
 9435SOL    HW139938   2.657   2.636   7.675  0.4690 -0.4047  0.9101
 9435SOL    HW239939   2.556   2.562   7.761 -0.0345 -0.5754  0.5460
 9436SOL     OW39940   1.485   1.547   2.852  0.2910  0.1406  0.0630
 9436SOL    HW139941   1.445   1.563   2.767 -0.2026  0.9951  0.4612
 9436SOL    HW239942   1.576   1.573   2.838  0.5454 -0.0637  1.3603
 9437SOL     OW39943   1.102   4.154   2.107  0.0366  0.3391  0.0782
 9437SOL    HW139944   1.092   4.071   2.153  0.1851 -0.2426 -0.9668
 9437SOL    HW239945   1.190   4.179   2.135 -0.3994  1.1781  0.7007
 9438SOL     OW39946   3.154   1.326   6.972 -0.1820  0.4306  0.0471
 9438SOL    HW139947   3.197   1.385   7.034 -1.9359  2.2788 -0.5016
 9438SOL    HW239948   3.085   1.380   6.934 -1.3849 -2.5132 -1.9354
 9439SOL     OW39949   3.779   4.682  11.445  0.6318 -0.9219 -0.4589
 9439SOL    HW139950   3.830   4.641  11.514 -0.1550 -0.9536  0.0999
 9439SOL    HW239951   3.709   4.617  11.439 -1.0922  0.7111  2.3308
 9440SOL     OW39952   2.088   0.842   4.863  0.2617 -0.0555  0.4456
 9440SOL    HW139953   2.135   0.765   4.830 -0.5740 -0.1936 -0.4159
 9440SOL    HW239954   2.112   0.843   4.955 -4.0318  1.9362  1.5084
 9441SOL     OW39955   2.965   4.541  11.068 -0.2330 -0.6581  0.8257
 9441SOL    HW139956   3.050   4.566  11.103  0.5984  1.0022 -2.3475
 9441SOL    HW239957   2.959   4.596  10.990  1.5284 -0.7464  0.6302
 9442SOL     OW39958   0.526   1.540   8.433  0.6535  0.1333 -0.0333
 9442SOL    HW139959   0.445   1.590   8.440  1.2277  0.6345  2.7299
 9442SOL    HW239960   0.555   1.530   8.523 -0.6137  2.2235  0.6016
 9443SOL     OW39961   0.511   2.417  11.796  0.8821 -0.4635  0.3256
 9443SOL    HW139962   0.541   2.455  11.878 -1.8811  1.7754  0.2786
 9443SOL    HW239963   0.450   2.484  11.765  0.5401 -1.2333 -0.6659
 9444SOL     OW39964   4.514   2.473   2.127  0.9119  0.0790  0.0270
 9444SOL    HW139965   4.510   2.560   2.167  1.2380 -0.4938  1.2892
 9444SOL    HW239966   4.429   2.439   2.101  0.7476  1.3120 -1.0752
 9445SOL     OW39967   1.820   0.653  12.260  0.0121  0.1723  0.3406
 9445SOL    HW139968   1.775   0.733  12.233 -2.9007 -1.2823  0.9928
 9445SOL    HW239969   1.899   0.686  12.303  1.2069 -3.4843  0.9573
 9446SOL     OW39970   3.116   4.064  17.387  0.1540 -0.1240 -0.2956
 9446SOL    HW139971   3.193   4.063  17.330 -0.8846 -0.7256 -1.6917
 9446SOL    HW239972   3.133   4.149  17.429 -1.3215 -0.5839  1.2320
 9447SOL     OW39973   2.745   3.581   2.116 -0.3265 -0.0706 -0.3190
 9447SOL    HW139974   2.680   3.533   2.167  0.1126 -1.3781 -1.0000
 9447SOL    HW239975   2.795   3.504   2.088 -0.9354 -0.3456 -0.6470
 9448SOL     OW39976   1.761   4.675  16.771 -0.2548 -0.3483  0.0556
 9448SOL    HW139977   1.779   4.620  16.694  0.5239 -0.0954  0.0588
 9448SOL    HW239978   1.736   4.610  16.837 -0.2243 -0.3387  0.0764
 9449SOL     OW39979   0.809   4.500   2.017 -0.6017 -0.1474 -0.0222
 9449SOL    HW139980   0.767   4.483   1.933 -0.2164 -0.2497 -0.1926
 9449SOL    HW239981   0.745   4.454   2.071  1.1956 -1.8303  0.6696
 9450SOL     OW39982   4.652   4.595   8.033 -0.6073  0.3531 -0.4090
 9450SOL    HW139983   4.725   4.625   8.088 -1.0344 -0.0479  0.3729
 9450SOL    HW239984   4.692   4.597   7.946  0.0135 -0.1464 -0.1355
 9451SOL     OW39985   4.126   0.357  14.873 -0.2509 -0.2588  0.2736
 9451SOL    HW139986   4.180   0.416  14.820 -0.6422 -0.0186  0.1432
 9451SOL    HW239987   4.055   0.346  14.810  0.5925  1.6990 -1.0495
 9452SOL     OW39988   4.219   1.131   3.118 -0.1683 -0.6129  0.5233
 9452SOL    HW139989   4.138   1.080   3.117 -0.1074 -0.7038  0.2668
 9452SOL    HW239990   4.178   1.209   3.079 -0.1903 -0.9703 -0.1590
 9453SOL     OW39991   3.191   1.983   1.419 -0.0741  0.5765 -0.3163
 9453SOL    HW139992   3.234   2.036   1.352 -4.3814  0.5481 -3.1242
 9453SOL    HW239993   3.101   2.015   1.411 -0.5173 -0.8200 -0.8068
 9454SOL     OW39994   4.554   3.298   1.471 -0.1494  0.3693  0.1943
 9454SOL    HW139995   4.537   3.389   1.497  1.9681  1.2827 -1.6142
 9454SOL    HW239996   4.472   3.258   1.501 -0.1738  0.4342  0.2144
 9455SOL     OW39997   4.301   0.733   5.123 -0.2745  0.1705  0.1090
 9455SOL    HW139998   4.381   0.681   5.124 -0.9474 -0.8432  0.5988
 9455SOL    HW239999   4.332   0.807   5.175  0.5235 -0.5779  0.6838
 9456SOL     OW40000   3.706   0.794  16.753  0.5000  0.2384 -0.1791
 9456SOL    HW140001   3.704   0.700  16.771  0.2292 -0.4143 -3.7021
 9456SOL    HW240002   3.616   0.820  16.777  0.7949  2.5911 -1.5934
 9457SOL     OW40003   4.182   1.788   1.565  0.0538 -0.2757  0.2742
 9457SOL    HW140004   4.248   1.815   1.500  0.5816  0.7612  1.2513
 9457SOL    HW240005   4.110   1.796   1.502  1.0764  0.1755 -0.8434
 9458SOL     OW40006   2.722   2.454   0.358 -0.8766  0.5178  0.1445
 9458SOL    HW140007   2.773   2.378   0.386 -0.0020  0.3091 -1.9781
 9458SOL    HW240008   2.635   2.422   0.382 -0.8659  1.4504  1.4207
 9459SOL     OW40009   1.670   2.214   6.204  0.2265 -0.1862  0.0467
 9459SOL    HW140010   1.753   2.261   6.199  0.1088 -0.1928 -1.8825
 9459SOL    HW240011   1.630   2.268   6.272 -0.6689 -1.1774  0.3238
 9460SOL     OW40012   0.553   1.562   8.012 -0.2145 -0.6060 -0.3075
 9460SOL    HW140013   0.545   1.646   8.057  1.0130 -0.2580 -0.7396
 9460SOL    HW240014   0.628   1.530   8.062 -0.6082  1.6688  1.7431
 9461SOL     OW40015   0.947   0.638   6.252 -0.4094 -0.5279 -0.1113
 9461SOL    HW140016   1.040   0.628   6.229  0.5073  2.4408  2.2217
 9461SOL    HW240017   0.923   0.545   6.251  1.1502 -0.9406 -0.3040
 9462SOL     OW40018   4.318   0.051   4.508  0.6946  0.3644 -0.2057
 9462SOL    HW140019   4.385   0.112   4.538  1.2849 -0.5221  0.2732
 9462SOL    HW240020   4.298   0.007   4.591  0.6476 -0.5276 -0.6872
 9463SOL     OW40021   0.712   3.293   6.407 -0.3458  0.4183  0.5110
 9463SOL    HW140022   0.641   3.228   6.406  1.2113 -1.2645  0.2086
 9463SOL    HW240023   0.783   3.239   6.441  1.5325  3.0158  0.6778
 9464SOL     OW40024   0.784   0.654   3.173 -0.8362 -0.1227  0.0946
 9464SOL    HW140025   0.690   0.644   3.189 -0.7419 -1.6603 -0.3985
 9464SOL    HW240026   0.807   0.570   3.135 -2.8085 -0.3850 -0.5021
 9465SOL     OW40027   3.580   2.652  11.004  0.4557 -0.0138  0.7734
 9465SOL    HW140028   3.609   2.730  10.956 -1.5880 -0.8982 -1.9050
 9465SOL    HW240029   3.659   2.598  10.997 -0.2147 -1.1266  1.8536
 9466SOL     OW40030   1.357   4.642   8.519 -0.1249 -0.3095  0.1690
 9466SOL    HW140031   1.306   4.657   8.598 -0.7993  1.9797 -0.6967
 9466SOL    HW240032   1.406   4.567   8.553 -0.9766 -0.9218  0.0415
 9467SOL     OW40033   0.723   3.357  13.837  0.3375 -0.6429  0.0168
 9467SOL    HW140034   0.656   3.374  13.771 -1.3546 -0.4072  1.7782
 9467SOL    HW240035   0.739   3.268  13.806  0.1926 -0.4593 -0.5797
 9468SOL     OW40036   0.734   1.313   2.702 -0.3129 -0.2481 -0.0148
 9468SOL    HW140037   0.705   1.383   2.644  1.9850  0.4638 -0.2888
 9468SOL    HW240038   0.778   1.249   2.645  0.6545  0.9916 -0.6511
 9469SOL     OW40039   3.172   3.940  14.521  0.8169  0.3881 -0.2115
 9469SOL    HW140040   3.242   3.913  14.462 -1.5646  0.8073 -3.2215
 9469SOL    HW240041   3.225   3.972  14.594 -0.4185  0.4436  0.6785
 9470SOL     OW40042   2.091   0.414   7.699 -0.6437  0.0427 -0.1016
 9470SOL    HW140043   2.170   0.424   7.752 -1.2028  3.4469  0.1132
 9470SOL    HW240044   2.109   0.480   7.632 -2.7554  1.4855  0.7464
 9471SOL     OW40045   3.300   3.926   4.607  0.1858  0.3592 -0.4159
 9471SOL    HW140046   3.254   3.842   4.605  0.2706  0.2917  0.3804
 9471SOL    HW240047   3.229   3.969   4.656 -0.5532 -0.5904 -0.6472
 9472SOL     OW40048   2.161   3.755   6.686  0.0594 -0.0750  0.2637
 9472SOL    HW140049   2.209   3.829   6.648 -0.4592  0.9970  1.7090
 9472SOL    HW240050   2.224   3.686   6.666  0.6429  0.0147  1.8296
 9473SOL     OW40051   1.429   0.700   7.534  0.1294 -0.0355  0.5055
 9473SOL    HW140052   1.514   0.711   7.492  0.1750  1.7177  1.0655
 9473SOL    HW240053   1.394   0.624   7.488 -1.0768 -0.6622  2.4626
 9474SOL     OW40054   1.250   2.289   6.520  0.7426 -0.0008 -0.0948
 9474SOL    HW140055   1.247   2.327   6.607 -1.1715 -0.9625  0.2549
 9474SOL    HW240056   1.296   2.208   6.541  0.4334 -1.0090 -3.2042
 9475SOL     OW40057   0.497   2.597  15.913 -0.7597  0.1206 -0.1581
 9475SOL    HW140058   0.461   2.514  15.945  0.2355 -0.0549  0.5338
 9475SOL    HW240059   0.518   2.562  15.826 -2.1285  0.8712 -0.7848
 9476SOL     OW40060   2.184   1.760   5.013 -0.6023 -0.2504  0.5661
 9476SOL    HW140061   2.127   1.800   5.079 -1.4257 -1.7669  0.7825
 9476SOL    HW240062   2.190   1.675   5.056  0.7611 -1.6556 -2.3785
 9477SOL     OW40063   2.046   4.715   1.009 -0.6449 -0.8485 -0.0916
 9477SOL    HW140064   2.114   4.651   1.030  1.6953  1.5373 -0.3962
 9477SOL    HW240065   1.977   4.693   1.071  0.6763 -0.9280  1.3267
 9478SOL     OW40066   0.283   0.189   6.798  0.2023  0.0526 -0.1013
 9478SOL    HW140067   0.300   0.177   6.892  2.5828 -0.8099 -0.6377
 9478SOL    HW240068   0.293   0.095   6.778  0.7943  0.1895 -0.4582
 9479SOL     OW40069   0.869   2.374  14.914 -0.2780  1.0129 -0.3442
 9479SOL    HW140070   0.839   2.465  14.916 -0.1895  1.0924 -2.0683
 9479SOL    HW240071   0.965   2.374  14.913 -0.3044 -0.0181 -3.3634
 9480SOL     OW40072   1.343   3.084  11.219 -0.2100  0.7058  0.8658
 9480SOL    HW140073   1.324   2.991  11.229 -0.1970  0.8163  1.9701
 9480SOL    HW240074   1.256   3.119  11.238 -0.8523  0.1952 -1.1374
 9481SOL     OW40075   3.648   4.124   2.323  0.2827  0.0321 -0.4529
 9481SOL    HW140076   3.648   4.218   2.340  0.2741  0.2409 -1.6539
 9481SOL    HW240077   3.571   4.117   2.266  1.0555  0.3286 -1.5230
 9482SOL     OW40078   4.537   2.773   3.451 -0.3032  0.2352  0.0919
 9482SOL    HW140079   4.581   2.766   3.536 -1.7611 -0.5406  0.7770
 9482SOL    HW240080   4.583   2.704   3.403  0.9846 -0.3143  2.0624
 9483SOL     OW40081   4.114   0.043  15.216 -0.3427  0.5591 -0.2859
 9483SOL    HW140082   4.189   0.082  15.171  0.5748 -0.0704  0.6762
 9483SOL    HW240083   4.044   0.073  15.159  0.5798  1.7933 -0.7832
 9484SOL     OW40084   0.994   0.893   3.632 -0.0838 -0.6300 -0.3009
 9484SOL    HW140085   1.071   0.936   3.596 -0.9221 -0.9983 -2.5275
 9484SOL    HW240086   1.036   0.822   3.679 -1.0895 -1.5459 -0.7899
 9485SOL     OW40087   3.959   1.843   2.251 -0.1840 -0.5089 -0.0515
 9485SOL    HW140088   4.008   1.761   2.245  1.9440  0.6799  0.7750
 9485SOL    HW240089   4.026   1.902   2.214 -0.5753  0.4821  0.8057
 9486SOL     OW40090   0.466   3.160  13.596  0.5760  0.5995 -0.4671
 9486SOL    HW140091   0.481   3.254  13.609  0.8672  0.2182  2.0944
 9486SOL    HW240092   0.550   3.130  13.631  0.2546  0.8417  0.5150
 9487SOL     OW40093   2.719   4.616  16.046  0.1822  0.6376  0.2540
 9487SOL    HW140094   2.751   4.526  16.052  2.3612  1.3295 -0.9833
 9487SOL    HW240095   2.788   4.655  15.992  0.2362  0.0551 -0.0973
 9488SOL     OW40096   4.293   3.229   3.060 -0.6358  0.4663 -0.0809
 9488SOL    HW140097   4.291   3.270   3.146  0.3733  0.5740 -0.1071
 9488SOL    HW240098   4.205   3.192   3.051 -0.5850  0.5732 -1.0133
 9489SOL     OW40099   0.753   4.476   7.315  0.0249  0.3085  0.1895
 9489SOL    HW140100   0.709   4.524   7.245  1.2826  1.5184  0.2375
 9489SOL    HW240101   0.811   4.434   7.252  0.6309  0.9723  0.3155
 9490SOL     OW40102   3.512   3.235   9.656 -0.2238 -0.2714 -0.2793
 9490SOL    HW140103   3.601   3.215   9.629  0.3484  1.1232  0.6062
 9490SOL    HW240104   3.496   3.308   9.596 -0.0653  0.2892  0.3589
 9491SOL     OW40105   3.277   4.281  16.636 -0.3158 -0.0743 -0.1986
 9491SOL    HW140106   3.212   4.347  16.613 -1.2360 -0.5688  1.0071
 9491SOL    HW240107   3.314   4.309  16.720 -1.3079  0.1266  0.1671
 9492SOL     OW40108   3.937   1.249  15.142  0.0407 -0.0146 -0.1291
 9492SOL    HW140109   3.875   1.321  15.130  0.4844  0.3787 -0.0573
 9492SOL    HW240110   3.885   1.190  15.196  0.2810  1.1084  1.3481
 9493SOL     OW40111   2.330   4.279   5.443  0.5465  0.4353 -0.0090
 9493SOL    HW140112   2.375   4.246   5.366  0.2758 -2.4716  1.0646
 9493SOL    HW240113   2.248   4.298   5.397  0.8406  2.2063  0.2044
 9494SOL     OW40114   1.637   4.023   4.081 -0.3953  0.6127 -0.8097
 9494SOL    HW140115   1.690   3.958   4.127 -0.3844 -0.3116 -2.1390
 9494SOL    HW240116   1.547   3.991   4.094 -0.7950  2.2171  0.3814
 9495SOL     OW40117   2.100   2.889  17.228  0.2528  0.8693  0.2798
 9495SOL    HW140118   2.081   2.804  17.267 -0.7757  0.7240 -0.5221
 9495SOL    HW240119   2.082   2.871  17.136  0.2902 -1.1572  0.6639
 9496SOL     OW40120   0.747   4.409   0.721 -0.3639  0.4416 -0.6431
 9496SOL    HW140121   0.751   4.467   0.796  2.5005 -1.9947  1.0543
 9496SOL    HW240122   0.840   4.394   0.707 -0.1111  0.6781  0.8062
 9497SOL     OW40123   1.176   1.264   5.172 -0.0307  0.2863 -0.2954
 9497SOL    HW140124   1.171   1.195   5.105 -1.5492 -0.1128  0.2401
 9497SOL    HW240125   1.089   1.264   5.211  0.3314 -1.7307  0.4904
 9498SOL     OW40126   0.126   4.303   5.944 -0.5311 -0.4964 -0.0267
 9498SOL    HW140127   0.113   4.254   5.863 -2.2280 -0.0193 -0.0363
 9498SOL    HW240128   0.147   4.387   5.904 -0.6629  0.1277  1.1907
 9499SOL     OW40129   1.894   3.936   3.226 -0.1611 -0.5340 -0.3439
 9499SOL    HW140130   1.865   3.951   3.136  0.5253  0.6795 -0.3650
 9499SOL    HW240131   1.832   3.874   3.264  0.1335 -1.7088 -1.7496
 9500SOL     OW40132   0.556   3.905  10.786  0.5168  0.2593 -0.1360
 9500SOL    HW140133   0.469   3.925  10.751  1.1934 -0.2274 -2.1154
 9500SOL    HW240134   0.533   3.874  10.873 -0.3618 -1.4050 -0.9743
 9501SOL     OW40135   4.067   3.201   1.175 -0.4365 -0.2325 -0.2377
 9501SOL    HW140136   4.014   3.141   1.123  1.0579  0.6591 -2.7927
 9501SOL    HW240137   4.006   3.228   1.244 -1.0254  3.2116 -2.0728
 9502SOL     OW40138   4.619   4.054   6.504  0.1889 -0.2010  0.2073
 9502SOL    HW140139   4.566   4.131   6.523  0.2902  0.5691 -2.6784
 9502SOL    HW240140   4.702   4.100   6.513 -0.3268  0.6047  0.8800
 9503SOL     OW40141   3.334   1.313   7.936 -0.4612 -0.5083  0.0969
 9503SOL    HW140142   3.385   1.237   7.965  1.8306  1.0988  0.3194
 9503SOL    HW240143   3.407   1.373   7.919 -0.8239  0.3333  1.4904
 9504SOL     OW40144   2.148   0.616   3.073 -0.0620  0.5573 -0.3427
 9504SOL    HW140145   2.188   0.628   2.987  1.5271  0.2218  0.3459
 9504SOL    HW240146   2.185   0.691   3.119  1.3387 -0.4591  0.2090
 9505SOL     OW40147   3.835   4.499   9.338  0.0468 -0.1076 -0.4004
 9505SOL    HW140148   3.797   4.552   9.408  0.9089 -2.8458  2.1366
 9505SOL    HW240149   3.758   4.467   9.290 -0.2373  0.9701 -0.6660
 9506SOL     OW40150   0.368   3.135   9.898  0.0857  0.3540  0.6621
 9506SOL    HW140151   0.389   3.199   9.830 -1.8178 -0.8525 -1.0729
 9506SOL    HW240152   0.427   3.062   9.879 -0.2713 -0.1605  1.5164
 9507SOL     OW40153   1.979   1.082  10.338  0.2870  0.0918 -0.4066
 9507SOL    HW140154   1.899   1.099  10.288  0.6268  0.0331 -0.9622
 9507SOL    HW240155   2.003   1.004  10.290  1.2999  1.7280 -2.5336
 9508SOL     OW40156   0.446   4.179   0.364 -0.2438 -0.2327 -0.3742
 9508SOL    HW140157   0.446   4.119   0.289  0.2805 -0.6418 -0.0475
 9508SOL    HW240158   0.539   4.194   0.382  0.1087  1.3510 -3.5477
 9509SOL     OW40159   0.857   4.253   2.364 -0.0183  0.2794 -0.3868
 9509SOL    HW140160   0.948   4.264   2.339  0.1316 -0.2544 -0.0826
 9509SOL    HW240161   0.831   4.342   2.386 -1.0513 -0.3077  0.7657
 9510SOL     OW40162   1.799   2.160   2.122  0.2540  0.0901  0.0859
 9510SOL    HW140163   1.723   2.216   2.105  1.7150  2.7504  2.2038
 9510SOL    HW240164   1.763   2.088   2.173 -1.3440  0.9317  0.1525
 9511SOL     OW40165   1.511   0.414  15.519 -0.5808 -0.0688 -0.0491
 9511SOL    HW140166   1.440   0.434  15.581 -1.3510 -2.3148 -0.1961
 9511SOL    HW240167   1.503   0.478  15.448 -0.1511 -1.7718 -1.6277
 9512SOL     OW40168   1.272   0.473  12.328  0.0013 -0.1447  0.4354
 9512SOL    HW140169   1.262   0.387  12.370  0.6620 -0.3538  0.1613
 9512SOL    HW240170   1.350   0.457  12.274 -2.3068 -2.6335 -2.1173
 9513SOL     OW40171   3.283   4.243   8.274 -0.6157  0.0450 -0.0664
 9513SOL    HW140172   3.266   4.281   8.188  3.7271 -1.4852 -1.5902
 9513SOL    HW240173   3.192   4.253   8.304 -1.2133 -1.4123 -1.3870
 9514SOL     OW40174   4.484   1.671  11.341 -0.3149  0.2641  0.0306
 9514SOL    HW140175   4.557   1.668  11.278 -2.9639 -2.4461 -2.9350
 9514SOL    HW240176   4.470   1.765  11.354  1.4654  0.1330  2.8608
 9515SOL     OW40177   3.875   3.474   4.528 -0.4553 -0.2250  0.5040
 9515SOL    HW140178   3.785   3.441   4.522 -0.1336 -0.9166 -0.6272
 9515SOL    HW240179   3.914   3.396   4.566 -0.4151  0.4112  1.7595
 9516SOL     OW40180   0.130   1.311   9.697 -0.0040 -0.4921  0.3081
 9516SOL    HW140181   0.094   1.239   9.645  3.7023 -1.7026 -0.6317
 9516SOL    HW240182   0.052   1.326   9.750  0.5416  0.4493  0.8508
 9517SOL     OW40183   2.815   2.716   7.381 -0.0328  0.1123  0.3744
 9517SOL    HW140184   2.893   2.772   7.385  1.3066 -1.7639  0.5784
 9517SOL    HW240185   2.843   2.643   7.325 -0.2348 -0.5991  1.1967
 9518SOL     OW40186   3.210   3.959   4.265  0.4196  0.1404  0.0902
 9518SOL    HW140187   3.287   3.994   4.221  0.8471 -0.2080  0.5574
 9518SOL    HW240188   3.237   3.870   4.290 -1.4287 -0.6365 -0.6704
 9519SOL     OW40189   2.549   0.184   2.344  0.0625 -0.4786  0.0668
 9519SOL    HW140190   2.621   0.171   2.282 -0.4877  1.0212 -0.8902
 9519SOL    HW240191   2.474   0.139   2.304 -1.5818  1.8772  0.5243
 9520SOL     OW40192   1.566   4.417   3.457  0.1605 -0.2723  0.2672
 9520SOL    HW140193   1.632   4.399   3.525  1.4375 -1.3515 -1.2654
 9520SOL    HW240194   1.568   4.512   3.461  0.6315 -0.3191  1.2222
 9521SOL     OW40195   3.134   2.986   2.302 -0.2284  0.2029  0.0555
 9521SOL    HW140196   3.117   2.957   2.392 -4.1822  1.7718 -0.1928
 9521SOL    HW240197   3.065   3.049   2.281 -0.1433  0.2705 -0.0226
 9522SOL     OW40198   4.082   4.539   7.360  0.0725 -0.6236  0.0641
 9522SOL    HW140199   4.073   4.608   7.294  2.8248 -0.5380 -0.2567
 9522SOL    HW240200   4.032   4.564   7.437  0.5600  1.0224 -0.1550
 9523SOL     OW40201   2.000   1.562   7.435 -0.3540  0.0928 -0.3478
 9523SOL    HW140202   1.925   1.589   7.382  0.1412 -0.2972 -1.2534
 9523SOL    HW240203   2.065   1.631   7.426  0.7216 -0.5420  2.3658
 9524SOL     OW40204   3.853   0.071   6.652  0.0206  0.4925  0.5437
 9524SOL    HW140205   3.939   0.114   6.660  0.2191  0.1454  0.2472
 9524SOL    HW240206   3.844   0.070   6.557  2.0056 -2.1695  0.3867
 9525SOL     OW40207   4.069   0.242   4.147  0.8615  0.4613 -0.3098
 9525SOL    HW140208   3.992   0.260   4.094  0.0611 -0.6613  0.4715
 9525SOL    HW240209   4.027   0.240   4.233  0.2424 -0.4006 -0.6340
 9526SOL     OW40210   3.943   3.265   4.124 -0.1999 -0.2510  0.9271
 9526SOL    HW140211   3.938   3.354   4.160 -0.6911 -0.2095  0.7705
 9526SOL    HW240212   4.028   3.234   4.154  0.6886  1.2997  0.0097
 9527SOL     OW40213   2.082   2.170   2.142 -0.1124 -0.7794  0.3675
 9527SOL    HW140214   2.088   2.105   2.212  1.8945  0.0590  0.9916
 9527SOL    HW240215   1.989   2.185   2.153  0.1165  0.3053  0.7908
 9528SOL     OW40216   3.070   0.092   4.084 -0.5640 -0.4586  0.4180
 9528SOL    HW140217   3.149   0.143   4.102 -0.3904 -1.0767  1.4072
 9528SOL    HW240218   3.110   0.031   4.021 -0.5898  1.0213 -1.0178
 9529SOL     OW40219   2.069   3.233   5.190  0.4496 -0.1311  0.5576
 9529SOL    HW140220   2.130   3.250   5.262  0.7681  0.5172  0.1254
 9529SOL    HW240221   1.997   3.188   5.236  0.5068 -1.2723 -0.4673
 9530SOL     OW40222   1.309   0.619   0.984 -0.1034  0.1139  0.2694
 9530SOL    HW140223   1.247   0.563   0.938 -1.0219 -0.6207  2.3947
 9530SOL    HW240224   1.258   0.699   0.996 -0.8266  0.2313 -3.7815
 9531SOL     OW40225   1.190   1.395   8.497  0.2372 -0.0366 -0.3506
 9531SOL    HW140226   1.191   1.302   8.472 -1.9603  0.2058 -1.3624
 9531SOL    HW240227   1.100   1.421   8.478  0.8163  1.1214 -1.4389
 9532SOL     OW40228   1.471   1.620   4.469  0.3770 -0.1633 -0.2878
 9532SOL    HW140229   1.415   1.635   4.545  0.2888 -1.8659 -0.0081
 9532SOL    HW240230   1.418   1.623   4.389 -0.4579 -0.6029  0.2535
 9533SOL     OW40231   3.595   3.562   4.844 -0.6278  0.5109 -0.4033
 9533SOL    HW140232   3.551   3.492   4.796 -0.8163 -0.7141  1.5319
 9533SOL    HW240233   3.635   3.621   4.780  0.7573  0.1473  0.1452
 9534SOL     OW40234   2.006   4.327   2.528  0.4465 -0.0331 -0.5071
 9534SOL    HW140235   2.015   4.233   2.539  0.7400 -0.0859 -1.2062
 9534SOL    HW240236   1.973   4.340   2.439  0.2589  1.9897 -0.1571
 9535SOL     OW40237   3.433   4.010   4.107 -0.2220 -0.1325  0.2399
 9535SOL    HW140238   3.389   3.960   4.038 -1.5126 -0.4357  1.2826
 9535SOL    HW240239   3.477   4.078   4.057  2.0933 -1.7280  0.1222
 9536SOL     OW40240   3.058   4.048   8.363  0.0011 -0.1781  0.1144
 9536SOL    HW140241   3.077   3.954   8.358 -0.2360 -0.0721 -2.4488
 9536SOL    HW240242   3.111   4.057   8.442  0.6449  0.6078 -0.4169
 9537SOL     OW40243   1.703   3.284   9.624 -0.2501  0.1901 -0.6446
 9537SOL    HW140244   1.693   3.368   9.579  0.3417  0.6113  0.0155
 9537SOL    HW240245   1.746   3.322   9.701  0.3662 -0.9529 -0.4216
 9538SOL     OW40246   3.003   0.464   0.393 -0.1675 -0.2310 -0.4805
 9538SOL    HW140247   2.966   0.485   0.308  1.2889 -0.4248 -1.1616
 9538SOL    HW240248   3.029   0.379   0.358  0.3463 -1.1092  2.0152
 9539SOL     OW40249   3.302   4.460   8.869  0.0779  0.0426 -0.0388
 9539SOL    HW140250   3.276   4.552   8.868  1.8371  0.5445 -0.3113
 9539SOL    HW240251   3.272   4.438   8.958 -1.4303  0.8301 -0.3545
 9540SOL     OW40252   0.892   4.574  11.282  0.0300  0.3688  0.7708
 9540SOL    HW140253   0.812   4.606  11.241  1.2838  1.3842 -0.8965
 9540SOL    HW240254   0.914   4.484  11.257 -0.2117  0.8803 -1.2457
 9541SOL     OW40255   3.141   0.127   1.900 -0.1820  0.0362 -0.3740
 9541SOL    HW140256   3.046   0.139   1.893 -0.0612  0.5978 -0.9872
 9541SOL    HW240257   3.154   0.052   1.841  1.2803  0.5627 -0.7207
 9542SOL     OW40258   3.618   0.834   4.973  0.1608  0.7823 -0.5684
 9542SOL    HW140259   3.644   0.862   4.885 -2.3208  1.1031 -1.1838
 9542SOL    HW240260   3.523   0.839   4.975  0.1910  1.9041 -1.8597
 9543SOL     OW40261   3.171   4.628   1.681  0.0373 -0.1632 -0.2690
 9543SOL    HW140262   3.081   4.619   1.651  0.0975  0.2492 -0.5673
 9543SOL    HW240263   3.217   4.563   1.628  1.9419  0.2477  0.8774
 9544SOL     OW40264   0.480   3.021   2.875 -0.1803 -0.0935  0.3313
 9544SOL    HW140265   0.486   3.086   2.805  0.3821  0.3906  0.8295
 9544SOL    HW240266   0.476   2.941   2.821  0.2312  1.1363 -1.5215
 9545SOL     OW40267   1.254   2.160   1.327  0.6502  0.4623 -0.1025
 9545SOL    HW140268   1.267   2.151   1.232  0.6763 -0.9972  0.0306
 9545SOL    HW240269   1.334   2.203   1.355  0.4556 -0.1536  1.4179
 9546SOL     OW40270   3.791   2.653   9.990  0.3526  0.4501 -1.3370
 9546SOL    HW140271   3.724   2.626  10.053  0.4101 -0.4530 -1.6667
 9546SOL    HW240272   3.870   2.609  10.021  0.4873  2.2142  0.7666
 9547SOL     OW40273   2.189   4.653   9.442  0.1475 -0.4110  0.3763
 9547SOL    HW140274   2.138   4.733   9.431 -1.6447 -1.6423 -0.1980
 9547SOL    HW240275   2.147   4.586   9.388  0.1940 -0.0188 -0.1378
 9548SOL     OW40276   1.563   0.209   5.400  0.2304 -0.0621  0.2175
 9548SOL    HW140277   1.571   0.299   5.432  0.3333 -0.1744  0.5054
 9548SOL    HW240278   1.577   0.157   5.479 -0.1879  2.9144  2.2214
 9549SOL     OW40279   1.764   3.022   7.215  0.5074  0.1098 -0.0555
 9549SOL    HW140280   1.725   3.097   7.259 -0.8974 -1.3971  1.2700
 9549SOL    HW240281   1.741   2.946   7.269  0.9125 -1.2179 -1.7638
 9550SOL     OW40282   3.296   4.538   4.241  0.4274  0.2471 -0.7309
 9550SOL    HW140283   3.347   4.617   4.221  1.0371  0.4428  1.6706
 9550SOL    HW240284   3.318   4.483   4.165 -1.1117 -0.4401 -0.6747
 9551SOL     OW40285   2.788   1.365   8.674 -0.6544 -0.0121  0.3549
 9551SOL    HW140286   2.723   1.312   8.628  0.4676 -0.8592 -0.2477
 9551SOL    HW240287   2.766   1.453   8.643  0.4355  0.8228  1.9304
 9552SOL     OW40288   3.625   0.693   3.667  0.3598 -0.0569 -0.4778
 9552SOL    HW140289   3.610   0.785   3.692  0.6512 -0.0415 -0.3634
 9552SOL    HW240290   3.563   0.678   3.596 -0.6851 -4.4336  1.3541
 9553SOL     OW40291   1.359   3.698   5.021  0.1160  0.2535  0.0791
 9553SOL    HW140292   1.312   3.637   5.078 -0.6756 -0.9749 -1.8729
 9553SOL    HW240293   1.316   3.779   5.048  0.3794  0.0707  1.0731
 9554SOL     OW40294   3.847   3.879   8.940  0.1807 -0.1291 -0.7949
 9554SOL    HW140295   3.925   3.830   8.911  0.0024 -1.4403  0.9195
 9554SOL    HW240296   3.799   3.907   8.862  3.3024  0.2421 -2.6089
 9555SOL     OW40297   1.456   3.581   8.364 -0.1545  0.1624 -0.2564
 9555SOL    HW140298   1.433   3.574   8.457 -0.2105  1.3158 -0.1791
 9555SOL    HW240299   1.538   3.630   8.369 -0.2052  0.2859 -0.6800
 9556SOL     OW40300   4.556   2.900   6.652  0.1091 -0.3615 -0.0886
 9556SOL    HW140301   4.513   2.821   6.685  0.6571 -0.5999  0.0604
 9556SOL    HW240302   4.542   2.884   6.558  1.5322  1.2188 -0.5850
 9557SOL     OW40303   0.686   1.792   4.978 -0.8790  0.0578  0.0656
 9557SOL    HW140304   0.677   1.781   4.883 -1.9292  0.2207  0.1415
 9557SOL    HW240305   0.592   1.811   4.982 -0.6322  0.7829  2.2366
 9558SOL     OW40306   1.408   1.435   1.283  0.2000 -0.1935 -0.1706
 9558SOL    HW140307   1.352   1.413   1.358 -0.5073 -0.3410 -0.7384
 9558SOL    HW240308   1.363   1.503   1.233  0.2553 -0.8676 -1.1436
 9559SOL     OW40309   1.157   0.096   9.552  0.0816 -0.0418  0.0091
 9559SOL    HW140310   1.134   0.174   9.603 -0.0830 -0.9022  1.2606
 9559SOL    HW240311   1.183   0.032   9.618  2.5884 -0.1619 -1.1000
 9560SOL     OW40312   3.775   1.381   4.743  0.2256 -0.3255  0.1518
 9560SOL    HW140313   3.780   1.305   4.800  0.4788 -0.4518 -0.0394
 9560SOL    HW240314   3.680   1.390   4.733  0.2204 -0.9600 -0.3588
 9561SOL     OW40315   2.238   2.203  11.176 -0.0934  1.0021 -0.3698
 9561SOL    HW140316   2.185   2.279  11.199  1.0156  1.7339 -0.2559
 9561SOL    HW240317   2.176   2.129  11.176  1.4522 -0.3041  0.0331
 9562SOL     OW40318   3.421   3.073   0.700  0.4912  0.5504  0.2158
 9562SOL    HW140319   3.369   3.151   0.681 -2.2738 -1.3845 -0.0358
 9562SOL    HW240320   3.434   3.071   0.795 -1.5777  0.0670  0.4922
 9563SOL     OW40321   4.224   3.762   9.414  0.0962 -0.0600 -0.5027
 9563SOL    HW140322   4.264   3.840   9.451  0.2840  0.8622 -2.6975
 9563SOL    HW240323   4.205   3.720   9.499 -1.6746  1.8817  0.0505
 9564SOL     OW40324   0.384   0.854   3.309  0.1643 -0.1394  0.1641
 9564SOL    HW140325   0.374   0.950   3.305 -2.3627 -0.3747  0.6567
 9564SOL    HW240326   0.475   0.851   3.280  0.1256 -0.6268  0.1031
 9565SOL     OW40327   1.720   1.990  11.573  0.3554 -0.5658  0.0663
 9565SOL    HW140328   1.735   2.006  11.666 -1.9896 -0.6350  0.4636
 9565SOL    HW240329   1.637   2.034  11.553  0.1311 -2.0066 -2.2053
 9566SOL     OW40330   1.330   1.582   6.789 -0.1209  0.5398 -0.5349
 9566SOL    HW140331   1.373   1.548   6.711  1.8296 -0.5422  1.0095
 9566SOL    HW240332   1.238   1.585   6.763 -0.7031 -4.2531  0.9417
 9567SOL     OW40333   2.441   4.332  13.915 -0.3957  0.6419 -0.0651
 9567SOL    HW140334   2.516   4.280  13.886  1.4460  2.1107  1.9638
 9567SOL    HW240335   2.390   4.344  13.835 -0.0116  0.2229 -0.3767
 9568SOL     OW40336   1.068   4.002   9.975  0.3135 -0.0447 -0.5205
 9568SOL    HW140337   1.141   4.064   9.972 -0.0168  0.3214 -1.0937
 9568SOL    HW240338   1.059   3.974   9.883 -0.1966 -3.3130  0.5109
 9569SOL     OW40339   0.386   2.719  17.284  0.1987 -0.1559 -0.1995
 9569SOL    HW140340   0.312   2.721  17.223  0.2810 -1.9441 -0.3588
 9569SOL    HW240341   0.396   2.814  17.282  3.6901 -0.5110  0.7966
 9570SOL     OW40342   4.043   2.336   7.630  0.1557  0.0809  0.5594
 9570SOL    HW140343   4.030   2.326   7.724 -0.9226 -2.1847  0.1676
 9570SOL    HW240344   4.138   2.341   7.637  0.3033 -1.5780 -0.3416
 9571SOL     OW40345   0.681   2.139   9.280  0.0825 -0.1281  0.2886
 9571SOL    HW140346   0.712   2.090   9.203  2.4433  0.2854  0.9876
 9571SOL    HW240347   0.661   2.068   9.341 -1.6316  0.0314 -0.0622
   4.73481   4.73481  17.73818
