Membrane in water
40347
    1TMC1    C1    1   4.209   1.114  11.625  0.5327 -0.7620 -0.3114
    1TMC1    C2    2   4.153   1.185  11.731  0.9812 -0.2119  0.1272
    1TMC1    C3    3   4.121   1.313  11.706 -0.6689  0.3929  0.4943
    1TMC1    C4    4   4.225   1.164  11.498 -0.2457 -0.2401  0.4061
    1TMC1    C5    5   4.194   1.293  11.481  0.0188 -0.5714  0.7191
    1TMC1    C6    6   4.148   1.371  11.584 -0.0978 -0.2939 -0.8297
    1TMC1     C    7   4.245   0.978  11.658 -0.0950 -0.2734  0.3703
    1TMC1     O    8   4.213   0.932  11.765  0.3687  0.7561 -0.1312
    1TMC1     H    9   4.137   1.152  11.833 -0.0028 -1.3600 -0.3950
    1TMC1    H1   10   4.278   1.108  11.421  0.0892 -0.5255  0.8445
    1TMC1    H2   11   4.113   1.471  11.561 -0.2232  0.0847  1.0588
    1TMC1    C7   12   4.187   1.345  11.347  0.2898  0.2134 -0.2906
    1TMC1    C8   13   4.107   1.403  11.818 -0.3137  0.5044  0.3864
    1TMC1    O1   14   4.168   1.273  11.251  0.8395  0.7709  0.5500
    1TMC1    O2   15   4.152   1.378  11.925 -0.3888  0.5136 -0.2350
    1TMC1    O3   16   4.179   1.484  11.350 -0.5972  0.2263 -0.0176
    1TMC1    H3   17   4.205   1.528  11.434  3.9344  1.3806 -2.0172
    1TMC1    O5   18   3.991   1.476  11.796  0.2903 -0.1560 -0.5587
    1TMC1    H5   19   3.950   1.439  11.715  2.6061  0.3539 -1.9642
    2MPD2     C   20   4.444   0.503  11.536 -0.3918  0.0320  0.5397
    2MPD2    C1   21   4.351   0.547  11.630  0.3700  0.9552  0.1671
    2MPD2    C2   22   4.305   0.678  11.635  0.2135 -0.1055  0.2739
    2MPD2    C3   23   4.359   0.778  11.554  0.3020 -0.6382  0.6230
    2MPD2    C4   24   4.449   0.731  11.461  0.3194 -0.1649  0.6164
    2MPD2    C5   25   4.483   0.597  11.444  0.3628  0.5616 -0.1469
    2MPD2     H   26   4.234   0.711  11.710 -0.2946  0.1371 -0.3173
    2MPD2    H1   27   4.488   0.800  11.388  1.0261 -0.2136  0.9425
    2MPD2    H2   28   4.481   0.401  11.529  0.7054  0.2799  2.9734
    2MPD2    H3   29   4.566   0.570  11.380  1.0296  0.6455  0.6807
    2MPD2     N   30   4.327   0.914  11.568 -0.1953 -0.2749 -0.4635
    2MPD2    H5   31   4.377   0.972  11.502  0.7271 -1.4874 -0.8206
    2MPD2    N1   32   4.296   0.447  11.721  0.0159  0.2869  0.6061
    2MPD2    H7   33   4.236   0.489  11.791  2.6417  1.4905  2.1213
    3TMC1    C1   34   3.888   2.744  10.471  0.0771 -0.1226 -0.5946
    3TMC1    C2   35   3.904   2.787  10.341  0.6222  0.4235  0.1878
    3TMC1    C3   36   3.911   2.922  10.304  0.8573 -0.3975  0.1612
    3TMC1    C4   37   3.867   2.833  10.568 -0.1874  0.4676  0.1085
    3TMC1    C5   38   3.875   2.971  10.528  0.2134 -0.4470  0.3849
    3TMC1    C6   39   3.901   3.019  10.396  0.1803 -1.3111  0.3948
    3TMC1     C   40   3.871   2.600  10.484 -0.1833  0.5607 -0.4797
    3TMC1     O   41   3.923   2.539  10.393  0.1144  0.3325 -0.0337
    3TMC1     H   42   3.939   2.713  10.270  1.8738 -0.2920  1.5296
    3TMC1    H1   43   3.836   2.799  10.666 -1.2788  0.1437 -0.3555
    3TMC1    H2   44   3.907   3.120  10.358 -0.7287 -1.1665  0.6257
    3TMC1    C7   45   3.842   3.065  10.628 -1.1057 -0.0789 -0.1645
    3TMC1    C8   46   4.007   2.948  10.196  0.1558 -0.4230  0.6929
    3TMC1    O1   47   3.781   3.026  10.730  0.1935 -0.2599  0.1075
    3TMC1    O2   48   4.087   3.039  10.205 -0.2848  0.3096 -0.3634
    3TMC1    O3   49   3.864   3.188  10.585  0.3424 -0.0331  0.1412
    3TMC1    H3   50   3.921   3.201  10.506  0.1269 -1.0919 -0.1907
    3TMC1    O5   51   3.948   2.914  10.084 -0.2929  0.1704 -0.6734
    3TMC1    H5   52   3.869   2.858  10.096 -1.0582  1.3030 -0.4688
    4MPD2     C   53   3.660   2.160  10.655  0.2807  0.2150 -0.7725
    4MPD2    C1   54   3.635   2.264  10.747  0.0649  0.5750 -1.2424
    4MPD2    C2   55   3.686   2.386  10.729 -0.3909 -0.7035 -0.1162
    4MPD2    C3   56   3.766   2.413  10.616 -0.2331 -0.1402 -0.7814
    4MPD2    C4   57   3.797   2.311  10.530 -0.4673 -0.2154 -0.6313
    4MPD2    C5   58   3.740   2.186  10.548 -0.6140 -0.1470  0.0399
    4MPD2     H   59   3.667   2.464  10.801  2.0504 -0.8309  0.6714
    4MPD2    H1   60   3.870   2.325  10.452 -1.6340  1.5150 -1.4116
    4MPD2    H2   61   3.605   2.066  10.652 -0.4280  0.5839  1.1931
    4MPD2    H3   62   3.754   2.104  10.478 -0.5499 -0.4725  0.4326
    4MPD2     N   63   3.813   2.543  10.600  0.7340  0.0497 -0.4025
    4MPD2    H5   64   3.791   2.608  10.675 -1.2431 -0.8636 -0.2040
    4MPD2    N1   65   3.545   2.251  10.855  0.0980 -0.5773 -0.8559
    4MPD2    H7   66   3.542   2.337  10.910 -1.0691 -1.5034  0.5186
    5TCq1    O1   67   3.485   3.209  12.140  0.1590  0.0534  0.4914
    5TCq1    C1   68   3.564   3.120  12.197  0.2641  0.2637  0.3405
    5TCq1    O2   69   3.644   3.138  12.288  0.9005 -0.8943 -0.5713
    5TCq1    C2   70   3.564   3.002  12.115  0.1426 -0.5226 -0.2899
    5TCq1    C3   71   3.580   2.886  12.186 -0.1881 -0.3209 -0.9641
    5TCq1    C4   72   3.602   2.772  12.117 -0.0564  0.7258 -0.2673
    5TCq1    C5   73   3.618   2.780  11.976  0.7236 -0.2752 -0.4509
    5TCq1    C6   74   3.584   2.894  11.905 -0.7428  0.0420 -0.0542
    5TCq1    C7   75   3.568   3.008  11.973  0.5028 -0.0958  0.8729
    5TCq1    C8   76   3.613   2.915  11.766  0.2282 -0.3337  0.1490
    5TCq1    O4   77   3.666   3.019  11.733  0.5201 -0.0006 -0.3227
    5TCq1    C9   78   3.634   2.647  12.183 -0.7697  0.4887 -0.4220
    5TCq1    O5   79   3.657   2.545  12.114  0.1781  0.1223 -0.1914
    5TCq1    O6   80   3.666   2.657  12.301 -0.1405  0.1324 -0.1156
    5TCq1    H1   81   3.419   3.173  12.077 -0.0904 -1.2125  1.4891
    5TCq1    H2   82   3.558   2.887  12.292  1.4824  1.6521 -0.6302
    5TCq1    H3   83   3.659   2.697  11.919  0.5634  0.0953 -1.1052
    5TCq1    H4   84   3.542   3.101  11.924  0.5825 -0.1075  0.8078
    6MPD2     C   85   3.611   2.650  11.499 -0.9913  0.6401 -1.0009
    6MPD2    C1   86   3.635   2.772  11.558 -0.1198 -0.5612  0.1661
    6MPD2    C2   87   3.707   2.865  11.485 -0.4508 -0.7142 -0.1579
    6MPD2    C3   88   3.760   2.833  11.361 -0.0466 -0.0627  0.8123
    6MPD2    C4   89   3.735   2.709  11.315  0.2506 -0.5229 -0.4697
    6MPD2    C5   90   3.649   2.621  11.376  0.1524 -0.9953 -0.0024
    6MPD2     H   91   3.735   2.961  11.525  0.4096 -0.2251 -1.8988
    6MPD2    H1   92   3.763   2.679  11.214 -1.6476 -0.5903 -0.9844
    6MPD2    H2   93   3.552   2.579  11.555  0.8403 -0.6016 -0.6361
    6MPD2    H3   94   3.624   2.530  11.322  0.9292 -0.9417 -0.4524
    6MPD2     N   95   3.848   2.926  11.296  0.3684 -0.6555  0.1750
    6MPD2    H5   96   3.880   3.007  11.348 -1.0919  1.4308 -2.1683
    6MPD2    N1   97   3.589   2.799  11.692 -0.6663  0.7832 -0.2417
    6MPD2    H7   98   3.534   2.728  11.739  0.4821  1.0161  1.4541
    7TCq1    O1   99   1.194   2.301  12.950  0.6473  0.2337  0.2929
    7TCq1    C1  100   1.268   2.245  13.048  0.6301 -0.0217  0.2697
    7TCq1    O2  101   1.389   2.275  13.063  0.5571 -0.0242 -0.0766
    7TCq1    C2  102   1.181   2.236  13.178 -0.4736  0.1984 -0.1037
    7TCq1    C3  103   1.090   2.337  13.194  0.4891  0.2226 -0.0182
    7TCq1    C4  104   1.052   2.362  13.325 -0.6426  0.5449 -0.2536
    7TCq1    C5  105   1.107   2.292  13.432 -0.8308  0.3436 -0.0892
    7TCq1    C6  106   1.207   2.198  13.409 -0.3631 -0.3731 -0.0317
    7TCq1    C7  107   1.250   2.172  13.280 -0.4745 -0.4440  1.1303
    7TCq1    C8  108   1.286   2.141  13.516 -0.4596  0.1424  0.2576
    7TCq1    O4  109   1.378   2.070  13.475 -0.1114  0.5120 -0.2917
    7TCq1    C9  110   0.960   2.470  13.347  0.0103  0.3744 -0.5175
    7TCq1    O5  111   0.874   2.493  13.260 -0.9516 -0.0414 -0.3334
    7TCq1    O6  112   0.955   2.526  13.459 -0.1925  0.8412  1.0455
    7TCq1    H1  113   1.099   2.275  12.957  0.3091  1.2722 -0.4329
    7TCq1    H2  114   1.059   2.408  13.118 -1.8451 -0.3826  0.3665
    7TCq1    H3  115   1.075   2.330  13.529 -1.2489  1.1042 -0.5239
    7TCq1    H4  116   1.332   2.103  13.262  0.1985  0.2696  1.4935
    8MPD2     C  117   1.529   2.146  13.962 -0.0670  0.3303  0.9087
    8MPD2    C1  118   1.510   2.046  13.867 -0.4300 -0.3084  0.3093
    8MPD2    C2  119   1.424   2.066  13.759  0.2073 -0.6814  0.3351
    8MPD2    C3  120   1.355   2.183  13.743  0.5845 -0.5659 -0.6461
    8MPD2    C4  121   1.353   2.270  13.847  0.4876  0.1231  0.3822
    8MPD2    C5  122   1.438   2.251  13.956  0.7446 -0.2841  0.0354
    8MPD2     H  123   1.409   1.996  13.678  0.7128  0.1670 -0.4934
    8MPD2    H1  124   1.295   2.361  13.850  1.7882  1.0108 -1.1064
    8MPD2    H2  125   1.603   2.142  14.041 -0.5420 -1.2836  1.2759
    8MPD2    H3  126   1.438   2.326  14.034  0.8744 -0.0276 -0.2098
    8MPD2     N  127   1.280   2.214  13.632 -0.7460  0.2478  0.1892
    8MPD2    H5  128   1.207   2.282  13.647 -2.3008 -1.6030  0.9467
    8MPD2    N1  129   1.584   1.925  13.882 -0.6040  0.2218  0.1051
    8MPD2    H7  130   1.641   1.918  13.967  0.9686 -0.9535 -1.0477
    9TMC1    C1  131   4.041   1.659  11.136 -0.2115 -0.0316  0.4300
    9TMC1    C2  132   4.008   1.757  11.226 -0.9022  0.3091 -1.0921
    9TMC1    C3  133   4.089   1.870  11.243  0.0110  0.5298  0.0569
    9TMC1    C4  134   4.160   1.657  11.066  0.4384  0.6670 -0.1939
    9TMC1    C5  135   4.240   1.765  11.092  0.1398 -0.4233 -0.0141
    9TMC1    C6  136   4.210   1.873  11.175 -0.8495 -0.1306  0.5242
    9TMC1     C  137   3.956   1.540  11.128 -0.2079 -0.2181  0.0811
    9TMC1     O  138   3.944   1.484  11.023  0.2940  0.4731 -0.0359
    9TMC1     H  139   3.905   1.766  11.260 -0.3040  0.0409  0.7759
    9TMC1    H1  140   4.191   1.583  10.992 -1.6782  0.7080 -1.1137
    9TMC1    H2  141   4.278   1.957  11.176 -2.5793  1.2770  1.0438
    9TMC1    C7  142   4.333   1.803  10.985  0.3505 -0.1968  0.1447
    9TMC1    C8  143   4.079   1.966  11.353  0.5304 -0.1428  0.2008
    9TMC1    O1  144   4.363   1.920  10.965  0.1512 -0.2303 -0.1146
    9TMC1    O2  145   4.123   2.078  11.332 -0.1288 -0.2517 -0.6097
    9TMC1    O3  146   4.414   1.698  10.982  0.0486  0.8759 -0.8693
    9TMC1    H3  147   4.378   1.607  10.993  1.3800  0.4993  0.2938
    9TMC1    O5  148   4.115   1.890  11.458 -0.3450  1.1518 -0.0065
    9TMC1    H5  149   4.070   1.804  11.470 -0.3507  1.1098 -0.3259
   10MPD2     C  150   3.757   1.326  11.152 -0.3832 -0.7414 -0.0751
   10MPD2    C1  151   3.801   1.405  11.261 -0.3423  0.3265  0.4219
   10MPD2    C2  152   3.763   1.369  11.383 -0.5315 -0.7761  0.5115
   10MPD2    C3  153   3.692   1.253  11.400  0.0834 -0.8095  0.3390
   10MPD2    C4  154   3.642   1.187  11.294 -0.0924  0.2074  1.7489
   10MPD2    C5  155   3.676   1.226  11.169 -0.2074  0.1366  0.1524
   10MPD2     H  156   3.796   1.428  11.468  1.8913 -1.3552 -0.0357
   10MPD2    H1  157   3.583   1.096  11.294 -0.0595  0.1998 -1.0333
   10MPD2    H2  158   3.785   1.343  11.049 -1.2354 -0.5027 -0.2653
   10MPD2    H3  159   3.636   1.161  11.092 -0.5900 -0.5862  0.9657
   10MPD2     N  160   3.665   1.207  11.528  0.6355  0.1024 -0.0884
   10MPD2    H5  161   3.596   1.132  11.529 -1.3607  1.9057 -0.8152
   10MPD2    N1  162   3.890   1.514  11.247 -0.9982 -0.4761 -0.1107
   10MPD2    H7  163   3.918   1.564  11.330  0.7225 -1.3859 -0.1453
   11TCq1    O1  164   0.060   1.468  14.351  0.2371  0.2505 -0.4744
   11TCq1    C1  165   4.665   1.486  14.377  0.8931  0.1706 -0.5242
   11TCq1    O2  166   4.575   1.485  14.293  0.4713  0.1671 -0.3203
   11TCq1    C2  167   4.652   1.432  14.509 -0.1890  0.0383 -0.6925
   11TCq1    C3  168   4.740   1.474  14.602 -0.1104  0.5809 -0.7282
   11TCq1    C4  169   4.724   1.428  14.734 -0.2606 -0.5309  0.0156
   11TCq1    C5  170   4.627   1.339  14.760  0.3996  0.1023  0.4397
   11TCq1    C6  171   4.542   1.301  14.667  0.2214 -0.1616  0.0525
   11TCq1    C7  172   4.547   1.350  14.542 -0.0346  0.1909  0.1721
   11TCq1    C8  173   4.467   1.176  14.691 -0.6368 -0.0538  0.1072
   11TCq1    O4  174   4.426   1.152  14.804  0.3542 -0.2662 -0.0845
   11TCq1    C9  175   0.075   1.465  14.836 -0.3943  0.2514 -0.2515
   11TCq1    O5  176   0.079   1.401  14.948 -0.2023 -0.3143 -1.2375
   11TCq1    O6  177   0.163   1.549  14.809 -0.2630 -0.1789 -0.0503
   11TCq1    H1  178   0.095   1.417  14.427  2.5609  0.4647 -1.4158
   11TCq1    H2  179   0.054   1.566  14.584  0.5346  0.4962  0.8306
   11TCq1    H3  180   4.610   1.301  14.860  0.4238  0.3262  0.5279
   11TCq1    H4  181   4.489   1.329  14.453 -0.2876 -0.3857  0.4770
   12MPD2     C  182   4.267   0.946  14.669 -0.0543 -0.0732 -0.1951
   12MPD2    C1  183   4.336   1.005  14.562  0.0599  0.9292  0.0020
   12MPD2    C2  184   4.299   0.960  14.435 -0.1676  0.2322  0.4551
   12MPD2    C3  185   4.210   0.862  14.404  0.4391 -0.3247 -0.6335
   12MPD2    C4  186   4.145   0.806  14.516  0.2788 -0.7827  0.3307
   12MPD2    C5  187   4.168   0.856  14.643 -0.4717 -0.3789 -0.1412
   12MPD2     H  188   4.331   1.024  14.354  1.4930 -1.1222  0.0329
   12MPD2    H1  189   4.073   0.726  14.506 -1.4740  0.6939  1.2241
   12MPD2    H2  190   4.287   0.974  14.771  2.7738  1.9443 -1.2925
   12MPD2    H3  191   4.116   0.813  14.728 -0.9762  0.2448 -0.1323
   12MPD2     N  192   4.173   0.811  14.274  0.2029 -0.0225  0.0266
   12MPD2    H5  193   4.095   0.745  14.273  0.8662 -0.8355  1.7999
   12MPD2    N1  194   4.420   1.115  14.573 -0.3277  0.1338 -0.5867
   12MPD2    H7  195   4.478   1.136  14.493  0.4601  0.2948  0.0278
   13TCq1    O1  196   3.691   2.292  10.236  0.2494  0.0663 -1.0519
   13TCq1    C1  197   3.755   2.182  10.204  0.7447  0.6352  0.2947
   13TCq1    O2  198   3.874   2.174  10.209 -0.1650  0.3961 -0.2720
   13TCq1    C2  199   3.651   2.088  10.187 -0.2903  0.5562  0.2657
   13TCq1    C3  200   3.548   2.118  10.103 -0.2301 -0.5070  0.0196
   13TCq1    C4  201   3.450   2.025  10.097  0.7979  0.1152  0.2067
   13TCq1    C5  202   3.446   1.915  10.176  0.1263 -0.6519  0.1715
   13TCq1    C6  203   3.555   1.886  10.262  0.3322 -0.6190  0.3859
   13TCq1    C7  204   3.661   1.969  10.254 -0.4048 -0.0805  0.0928
   13TCq1    C8  205   3.556   1.773  10.353  0.3640 -0.0707  0.2686
   13TCq1    O4  206   3.634   1.782  10.448  0.7577  0.3700 -0.4080
   13TCq1    C9  207   3.346   2.052   9.999 -0.6545  1.0876 -0.3600
   13TCq1    O5  208   3.247   1.967   9.996 -0.9087  0.8010 -0.6285
   13TCq1    O6  209   3.345   2.173   9.945 -0.5132  0.5637 -0.4848
   13TCq1    H1  210   3.601   2.268  10.267  1.5553 -1.3374  1.6284
   13TCq1    H2  211   3.554   2.215  10.054  0.0469 -0.9596 -0.8501
   13TCq1    H3  212   3.359   1.851  10.184 -1.6469  1.6801 -0.5441
   13TCq1    H4  213   3.753   1.942  10.305  1.0297  0.2144 -2.3585
   14MPD2     C  214   3.391   1.444  10.292 -0.2854 -0.3541 -0.1192
   14MPD2    C1  215   3.453   1.541  10.370 -0.4572 -0.4323  0.2352
   14MPD2    C2  216   3.482   1.518  10.501  0.3930 -0.3870 -0.3258
   14MPD2    C3  217   3.440   1.401  10.561  0.1969 -0.6614 -0.0773
   14MPD2    C4  218   3.360   1.322  10.490  0.5409 -0.1376  0.4328
   14MPD2    C5  219   3.342   1.336  10.356  0.4589 -0.1643  0.0503
   14MPD2     H  220   3.535   1.593  10.560  0.9072 -0.1118 -1.1358
   14MPD2    H1  221   3.323   1.229  10.532 -0.8419  0.8230  1.3491
   14MPD2    H2  222   3.365   1.450  10.187 -2.7386  3.1701  0.6814
   14MPD2    H3  223   3.288   1.262  10.298  3.0400 -0.7357 -1.6080
   14MPD2     N  224   3.462   1.396  10.699 -0.5397  0.3290 -0.3313
   14MPD2    H5  225   3.522   1.468  10.739 -1.9700  0.5301  1.4748
   14MPD2    N1  226   3.476   1.671  10.306 -0.7478 -0.6017 -0.0834
   14MPD2    H7  227   3.445   1.675  10.209  0.0237  1.6816 -0.2276
   15TCq1    O1  228   0.722   0.584   1.907  0.5973  0.5197  0.0915
   15TCq1    C1  229   0.690   0.544   1.780 -0.2826 -0.2882 -0.0079
   15TCq1    O2  230   0.606   0.598   1.708 -0.2528  0.2768  0.1960
   15TCq1    C2  231   0.778   0.430   1.747 -0.3635 -0.7745 -0.3417
   15TCq1    C3  232   0.908   0.435   1.786  0.0576 -0.8038  0.5720
   15TCq1    C4  233   0.991   0.350   1.715  0.4360  0.5982 -0.4664
   15TCq1    C5  234   0.955   0.260   1.619  0.0286 -0.6002  0.3961
   15TCq1    C6  235   0.823   0.259   1.579 -0.1084  0.1352 -0.6534
   15TCq1    C7  236   0.734   0.346   1.644 -0.3611  0.4091  0.1309
   15TCq1    C8  237   0.780   0.139   1.511 -0.7827 -0.5891 -0.1707
   15TCq1    O4  238   0.860   0.051   1.490 -0.3192  0.2286  0.2467
   15TCq1    C9  239   1.127   0.346   1.760 -0.5176 -0.8816  0.1044
   15TCq1    O5  240   1.157   0.414   1.866  0.0505 -0.6684 -0.4939
   15TCq1    O6  241   1.209   0.269   1.706 -0.1938  0.0869  0.5005
   15TCq1    H1  242   0.779   0.514   1.945 -1.6104 -0.6989  1.1478
   15TCq1    H2  243   0.944   0.504   1.862 -0.7437  0.0931  0.1473
   15TCq1    H3  244   1.027   0.186   1.586 -0.5971 -0.1971 -1.8841
   15TCq1    H4  245   0.636   0.364   1.600  0.0151 -0.7017 -1.1702
   16MPD2     C  246   0.451   0.057   1.363  0.9983  0.3016 -0.1376
   16MPD2    C1  247   0.574   0.029   1.417  0.2777  0.0430 -0.5572
   16MPD2    C2  248   0.617   4.639   1.405  0.3604  0.0557  0.0159
   16MPD2    C3  249   0.546   4.541   1.343 -0.0281 -0.3122 -0.3653
   16MPD2    C4  250   0.415   4.572   1.301 -0.4104 -0.3570 -0.0037
   16MPD2    C5  251   0.372   4.702   1.304 -0.7606  0.1078  0.3923
   16MPD2     H  252   0.715   4.608   1.442  0.2476 -1.8324 -1.2910
   16MPD2    H1  253   0.357   4.490   1.261  0.1274 -1.2402  1.0141
   16MPD2    H2  254   0.398   0.152   1.359  2.7395  1.3703  2.2251
   16MPD2    H3  255   0.274   4.734   1.270 -1.1744 -1.1808  0.3735
   16MPD2     N  256   0.596   4.412   1.324  0.0545  0.3998 -0.5534
   16MPD2    H5  257   0.678   4.384   1.376  1.0093  2.6521 -0.8483
   16MPD2    N1  258   0.643   0.134   1.478  0.4819 -0.3470 -0.3916
   16MPD2    H7  259   0.586   0.217   1.491  3.1997  1.2718  1.1681
   17TMC1    C1  260   3.562   0.212  10.085  0.0435 -0.1284 -0.4868
   17TMC1    C2  261   3.642   0.250   9.981 -0.0339 -0.9030  0.5317
   17TMC1    C3  262   3.601   0.237   9.854 -0.5706 -0.1194  0.0433
   17TMC1    C4  263   3.435   0.178  10.066 -0.1269 -0.0005 -0.1709
   17TMC1    C5  264   3.393   0.178   9.935  0.0174 -0.1719 -0.0645
   17TMC1    C6  265   3.476   0.204   9.828  0.1268 -0.1069  0.2382
   17TMC1     C  266   3.593   0.232  10.225 -0.4953 -0.1615 -0.3552
   17TMC1     O  267   3.550   0.141  10.298 -0.6771  0.2254  0.2540
   17TMC1     H  268   3.747   0.265  10.006 -0.1492  0.3915  0.2544
   17TMC1    H1  269   3.365   0.159  10.147  1.2796  0.0951  1.0695
   17TMC1    H2  270   3.442   0.196   9.725  0.5506 -1.6772  0.2188
   17TMC1    C7  271   3.265   0.121   9.897 -1.1289  0.1106  0.5219
   17TMC1    C8  272   3.685   0.252   9.741 -0.0143  0.0769 -0.1948
   17TMC1    O1  273   3.229   0.127   9.782 -0.1180  0.5499 -0.1958
   17TMC1    O2  274   3.657   0.210   9.630  0.4466  0.3372  0.8913
   17TMC1    O3  275   3.192   0.075   9.996  0.4553 -0.0423  0.0801
   17TMC1    H3  276   3.239   0.029  10.069 -1.7666  0.5247  1.8804
   17TMC1    O5  277   3.782   0.344   9.762 -0.0577 -0.0599 -0.2318
   17TMC1    H5  278   3.782   0.368   9.857  0.9843 -2.8706  0.4678
   18MPD2     C  279   3.618   0.358  10.489  0.2998 -0.2807 -0.2593
   18MPD2    C1  280   3.669   0.413  10.371 -0.0024 -0.1909 -0.3105
   18MPD2    C2  281   3.733   0.534  10.377  0.6961 -0.0619 -0.5679
   18MPD2    C3  282   3.751   0.608  10.494  0.2529 -0.0185 -0.3011
   18MPD2    C4  283   3.704   0.554  10.607 -0.0363 -0.3105 -0.0289
   18MPD2    C5  284   3.641   0.432  10.606  0.7367  0.0623  0.0051
   18MPD2     H  285   3.777   0.582  10.290  1.7327 -1.3759 -0.7592
   18MPD2    H1  286   3.707   0.611  10.699 -0.4733  1.9146 -1.3660
   18MPD2    H2  287   3.570   0.261  10.500 -0.5246  0.0038 -1.3779
   18MPD2    H3  288   3.590   0.410  10.698 -2.1043  2.4826 -0.9745
   18MPD2     N  289   3.811   0.735  10.502 -0.4670 -0.2616 -0.6537
   18MPD2    H5  290   3.842   0.769  10.593  2.1253 -0.7401 -1.3665
   18MPD2    N1  291   3.662   0.351  10.243 -0.3838 -0.3649 -0.2378
   18MPD2    H7  292   3.687   0.394  10.155  1.8123 -2.0255 -0.4417
   19TMC2    C1  293   0.748   1.022  13.940  0.1337 -0.3329  0.7060
   19TMC2    C2  294   0.696   1.073  13.825 -0.8124  0.6694 -0.3601
   19TMC2    C3  295   0.644   0.989  13.734 -0.0866  0.4493 -0.0496
   19TMC2    C4  296   0.732   0.886  13.969 -0.1399  0.9479 -0.6955
   19TMC2    C5  297   0.680   0.805  13.873  0.0627 -0.3512 -0.5788
   19TMC2    C6  298   0.623   0.855  13.752  0.0269  0.4445 -0.2617
   19TMC2     C  299   0.746   1.121  14.045  0.9245  0.0901 -0.8736
   19TMC2     O  300   0.675   1.221  14.030  0.7760  0.5148 -0.1404
   19TMC2     H  301   0.686   1.180  13.815  1.4192  0.9576  0.5647
   19TMC2    H1  302   0.771   0.845  14.061 -1.5054  2.6247  0.6357
   19TMC2    H2  303   0.562   0.787  13.693 -0.7843  2.1042 -1.3230
   19TMC2    C7  304   0.663   0.659  13.900  0.2735 -0.3482 -0.0489
   19TMC2    C8  305   0.574   1.042  13.618 -1.1496 -0.3362  0.1770
   19TMC2    O1  306   0.634   0.637  14.018 -0.7101  0.9480 -0.3328
   19TMC2    O2  307   0.478   0.997  13.560  0.4982  0.5550 -0.0481
   19TMC2    O5  308   0.633   1.154  13.577  0.4343 -0.0009  0.0672
   19TMC2    H5  309   0.721   1.174  13.617 -0.3983 -0.4597  2.1096
   20MPD2     C  310   0.810   1.297  14.280  0.0927 -0.3427 -1.3544
   20MPD2    C1  311   0.855   1.168  14.269 -0.1603  0.4241  0.1213
   20MPD2    C2  312   0.928   1.111  14.369 -0.3424 -0.1270  0.4643
   20MPD2    C3  313   0.956   1.180  14.489 -0.3241  1.1992  0.0292
   20MPD2    C4  314   0.909   1.305  14.500 -0.6091  0.2465  0.0810
   20MPD2    C5  315   0.822   1.357  14.405  0.0938 -0.1912 -0.2174
   20MPD2     H  316   0.958   1.008  14.352 -3.0606 -1.1744  1.9777
   20MPD2    H1  317   0.939   1.363  14.586  0.3624  2.2401 -1.6244
   20MPD2    H2  318   0.750   1.347  14.203  2.4161  2.3399 -1.4326
   20MPD2    H3  319   0.777   1.452  14.432  0.2958  0.0306 -0.6630
   20MPD2     N  320   1.045   1.138  14.596 -0.5470 -0.8171  0.3110
   20MPD2    H5  321   1.040   1.201  14.675  1.9263  0.6456 -0.7062
   20MPD2    N1  322   0.833   1.092  14.147  0.8331  0.2906 -0.0484
   20MPD2    H7  323   0.889   1.009  14.129  1.2930  0.5736  0.0733
   21TMC2    C1  324   3.409   1.161  14.330  0.0577  0.0640  0.0148
   21TMC2    C2  325   3.439   1.078  14.227 -0.1028  0.4566  0.9641
   21TMC2    C3  326   3.349   1.054  14.124 -0.1559  0.1684 -0.3185
   21TMC2    C4  327   3.281   1.204  14.347 -0.2134  0.0900 -0.5744
   21TMC2    C5  328   3.196   1.177  14.247 -1.0060  0.8360 -0.2280
   21TMC2    C6  329   3.227   1.117  14.129 -0.4458  0.1847 -0.1314
   21TMC2     C  330   3.511   1.182  14.425  0.9412  0.5525  0.1819
   21TMC2     O  331   3.586   1.087  14.438  0.1689 -0.0514 -0.0067
   21TMC2     H  332   3.541   1.041  14.220 -1.5930 -3.2955 -0.8259
   21TMC2    H1  333   3.243   1.253  14.436 -1.3578  0.9943 -1.5725
   21TMC2    H2  334   3.152   1.083  14.058  1.8177 -0.9860 -1.9265
   21TMC2    C7  335   3.066   1.242  14.256  0.1703 -0.5422  0.3965
   21TMC2    C8  336   3.396   1.003  13.995  0.0927 -0.1273  0.0033
   21TMC2    O1  337   3.026   1.292  14.148  0.1135  0.1491  0.0115
   21TMC2    O2  338   3.377   1.051  13.884  0.5663 -1.0171 -0.6761
   21TMC2    O5  339   3.435   0.876  14.025 -0.3827 -0.2837  0.0243
   21TMC2    H5  340   3.435   0.854  14.121 -1.3644  0.6644  0.2480
   22MPD2     C  341   3.831   1.489  14.670  0.2280 -0.1939 -0.6398
   22MPD2    C1  342   3.819   1.349  14.681 -0.0108 -0.2680  0.0454
   22MPD2    C2  343   3.712   1.296  14.615  0.4659 -0.0376 -0.5354
   22MPD2    C3  344   3.627   1.368  14.533  0.3833  0.4157  0.0317
   22MPD2    C4  345   3.653   1.506  14.520 -0.0675  0.2948  0.3552
   22MPD2    C5  346   3.757   1.562  14.587  0.2335 -0.5631  0.6256
   22MPD2     H  347   3.692   1.191  14.632 -2.8257  0.4046 -1.6407
   22MPD2    H1  348   3.594   1.564  14.451  1.4074  1.8178  0.3696
   22MPD2    H2  349   3.899   1.545  14.733  0.3773 -1.0750 -0.0272
   22MPD2    H3  350   3.789   1.665  14.593  0.3479 -0.5454 -0.2399
   22MPD2     N  351   3.527   1.315  14.450 -0.5238  0.2181  0.3591
   22MPD2    H5  352   3.478   1.383  14.393  1.4484  2.2393  1.0770
   22MPD2    N1  353   3.896   1.270  14.768  0.0956  0.1511  0.9270
   22MPD2    H7  354   3.856   1.178  14.785  2.4120 -1.2067 -1.0560
   23TMC2    C1  355   4.073   2.146  15.051 -0.5406 -0.5159 -0.3362
   23TMC2    C2  356   4.138   2.205  14.950 -0.0122  0.2728 -0.1948
   23TMC2    C3  357   4.084   2.209  14.822 -0.4633 -0.4102  0.0408
   23TMC2    C4  358   3.954   2.081  15.029  0.0131 -0.1011 -0.4280
   23TMC2    C5  359   3.911   2.078  14.899 -0.4454  0.2816 -0.0248
   23TMC2    C6  360   3.965   2.151  14.795 -0.0474  0.9394  0.3848
   23TMC2     C  361   4.126   2.105  15.177  0.4607 -0.8534 -0.0114
   23TMC2     O  362   4.038   2.095  15.265 -0.2901 -0.4154  0.1799
   23TMC2     H  363   4.226   2.265  14.969 -0.5545  0.4818  1.7275
   23TMC2    H1  364   3.902   2.023  15.104 -1.0768  0.8898 -0.4024
   23TMC2    H2  365   3.937   2.143  14.691  0.9670  1.0045  0.1121
   23TMC2    C7  366   3.790   2.010  14.871 -0.7389  0.7789 -0.1866
   23TMC2    C8  367   4.171   2.241  14.713 -0.1646 -0.0292  0.4732
   23TMC2    O1  368   3.750   1.925  14.953  0.1940 -0.3734  0.3829
   23TMC2    O2  369   4.180   2.163  14.620  0.3108  0.7827 -0.3015
   23TMC2    O5  370   4.253   2.347  14.755 -0.3839 -0.3061  0.1303
   23TMC2    H5  371   4.215   2.391  14.834  2.1341 -2.2205  2.4169
   24MPD2     C  372   4.471   1.837  15.452 -1.0515 -0.2672 -0.0305
   24MPD2    C1  373   4.348   1.889  15.490 -0.6201  0.2725  0.4192
   24MPD2    C2  374   4.272   1.960  15.400 -0.1722  0.2566  0.4709
   24MPD2    C3  375   4.318   1.990  15.270  0.1177  0.0793  0.2825
   24MPD2    C4  376   4.440   1.936  15.236  0.4800 -0.3280  0.4397
   24MPD2    C5  377   4.514   1.856  15.322 -0.8358  0.3557  0.0618
   24MPD2     H  378   4.178   2.000  15.437 -1.3546 -1.0663 -1.1486
   24MPD2    H1  379   4.476   1.939  15.134  0.6068 -3.1297  0.4014
   24MPD2    H2  380   4.539   1.782  15.516 -0.4206  1.6216  0.9201
   24MPD2    H3  381   4.605   1.812  15.284 -1.1677 -1.3616  1.2437
   24MPD2     N  382   4.258   2.068  15.174 -0.4042 -0.6104 -0.3486
   24MPD2    H5  383   4.314   2.090  15.093  0.5161  1.5778  0.9014
   24MPD2    N1  384   4.308   1.858  15.622  0.2428  0.2426  0.1063
   24MPD2    H7  385   4.213   1.888  15.642  0.5860  0.5036  1.3107
   25TMC2    C1  386   3.936   0.106  11.282  0.5610  0.1740  0.0251
   25TMC2    C2  387   4.041   0.200  11.275  0.2710  0.0321  0.2241
   25TMC2    C3  388   4.101   0.243  11.386  0.8418  0.0247  0.4008
   25TMC2    C4  389   3.890   0.055  11.398 -0.2749 -0.2303  0.2712
   25TMC2    C5  390   3.955   0.096  11.505 -0.1675  0.6427 -0.2025
   25TMC2    C6  391   4.054   0.191  11.502 -0.3160  0.0918 -0.5191
   25TMC2     C  392   3.853   0.105  11.161  0.8007 -0.1343 -0.1235
   25TMC2     O  393   3.895   0.173  11.067  0.5293 -0.2587 -0.2903
   25TMC2     H  394   4.079   0.243  11.183  5.3210 -1.3600  1.7069
   25TMC2    H1  395   3.811   4.722  11.409  0.4747 -1.0179  0.3568
   25TMC2    H2  396   4.103   0.221  11.594 -1.3486  0.9398 -0.2558
   25TMC2    C7  397   3.930   0.036  11.634 -0.1767  0.3718  0.0663
   25TMC2    C8  398   4.169   0.373  11.382 -0.8991  0.5109 -0.9269
   25TMC2    O1  399   3.944   0.108  11.731 -0.7002 -0.2540  0.0794
   25TMC2    O2  400   4.264   0.387  11.304  0.1461  0.2321 -0.1512
   25TMC2    O5  401   4.089   0.469  11.428 -0.2768 -0.1872 -0.8237
   25TMC2    H5  402   3.999   0.438  11.452 -0.9556  1.3329 -1.4337
   26MPD2     C  403   3.440   4.707  10.885  0.2604 -0.3763 -0.2582
   26MPD2    C1  404   3.442   4.638  11.001 -0.1810  0.7544  0.8217
   26MPD2    C2  405   3.547   4.642  11.092  0.3148  0.4926  0.5962
   26MPD2    C3  406   3.656   4.726  11.062 -0.2126 -0.2883 -0.8242
   26MPD2    C4  407   3.650   0.061  10.949  0.2984  0.8586  0.4861
   26MPD2    C5  408   3.542   0.051  10.858 -0.1543  0.3827  0.3602
   26MPD2     H  409   3.540   4.596  11.190 -1.4223  0.5447  0.4825
   26MPD2    H1  410   3.717   0.140  10.918  2.3526 -1.4577 -1.0048
   26MPD2    H2  411   3.358   4.709  10.815 -0.8942 -1.8088  1.0609
   26MPD2    H3  412   3.534   0.106  10.765  1.3772 -0.4850 -0.2888
   26MPD2     N  413   3.749   0.017  11.171  0.0545  0.2687 -0.2307
   26MPD2    H5  414   3.739   4.688  11.244 -0.5452 -0.0679 -0.6243
   26MPD2    N1  415   3.329   4.566  11.030 -0.6490 -0.2628  0.3520
   26MPD2    H7  416   3.260   4.563  10.956 -3.2796  1.2825  2.7685
   27TMC2    C1  417   2.257   1.497  11.897  0.8151 -0.5662  0.4209
   27TMC2    C2  418   2.256   1.512  11.766 -0.5459  0.0095 -0.3448
   27TMC2    C3  419   2.316   1.623  11.706 -0.5064 -1.0777 -0.3363
   27TMC2    C4  420   2.325   1.581  11.984 -0.4513  0.1116 -0.4443
   27TMC2    C5  421   2.376   1.694  11.923 -0.3368 -0.3150  0.2864
   27TMC2    C6  422   2.382   1.716  11.786  0.5684 -0.3495 -0.7678
   27TMC2     C  423   2.165   1.395  11.945  0.5810 -0.4629  0.6269
   27TMC2     O  424   2.128   1.303  11.873 -0.1867 -0.3217 -0.3756
   27TMC2     H  425   2.198   1.448  11.700 -1.9896  0.8843  0.0903
   27TMC2    H1  426   2.347   1.564  12.089 -0.6301 -1.7469 -0.7185
   27TMC2    H2  427   2.424   1.811  11.756 -0.2387  0.4578  0.6893
   27TMC2    C7  428   2.430   1.792  12.015 -0.0809 -0.1000  0.6790
   27TMC2    C8  429   2.240   1.679  11.590  0.3823  0.0932 -0.1951
   27TMC2    O1  430   2.495   1.747  12.110 -0.4966 -0.1363  0.0223
   27TMC2    O2  431   2.125   1.661  11.556  0.3131 -0.1836 -0.2080
   27TMC2    O5  432   2.337   1.734  11.513 -0.0786  0.2266 -0.5214
   27TMC2    H5  433   2.424   1.719  11.554 -0.1597 -0.1616 -0.4973
   28MPD2     C  434   1.837   1.298  12.322 -0.3904 -0.0029  0.3155
   28MPD2    C1  435   1.926   1.386  12.365  0.0784  0.2112 -1.0169
   28MPD2    C2  436   2.036   1.421  12.285 -0.7785  0.2526  0.0249
   28MPD2    C3  437   2.040   1.366  12.156  0.6334  0.4216 -1.6714
   28MPD2    C4  438   1.948   1.277  12.107  0.3130 -0.2119 -0.3978
   28MPD2    C5  439   1.854   1.237  12.200  0.2418  0.9290  0.1022
   28MPD2     H  440   2.105   1.494  12.325 -0.0576  1.0028 -2.5606
   28MPD2    H1  441   1.945   1.218  12.016  1.0324  0.7035 -1.0179
   28MPD2    H2  442   1.757   1.269  12.389 -0.0471 -3.5078 -0.7753
   28MPD2    H3  443   1.773   1.171  12.171  0.8249  1.1793 -2.1264
   28MPD2     N  444   2.136   1.422  12.075  0.2669 -0.7393  0.5369
   28MPD2    H5  445   2.187   1.502  12.110  0.3188 -0.1178 -0.9424
   28MPD2    N1  446   1.896   1.448  12.484  0.3183 -0.3614  0.3629
   28MPD2    H7  447   1.824   1.421  12.550  0.2320  0.4901  0.6193
   29TMC2    C1  448   1.982   4.497  14.496  0.2103  0.8987 -0.5978
   29TMC2    C2  449   1.878   4.579  14.540  0.5097 -0.3828 -0.4807
   29TMC2    C3  450   1.919   4.693  14.608 -0.4190 -0.2047 -0.0557
   29TMC2    C4  451   2.108   4.524  14.525  0.2678 -0.3088  0.4972
   29TMC2    C5  452   2.142   4.640  14.591  0.0097  0.0152  0.8520
   29TMC2    C6  453   2.048   4.731  14.624  0.9812 -0.4155 -0.4629
   29TMC2     C  454   1.954   4.375  14.421 -0.2619  0.6755 -0.0967
   29TMC2     O  455   2.044   4.327  14.354 -0.0525  0.7914 -0.5373
   29TMC2     H  456   1.775   4.546  14.543  0.2232  0.5605  0.0194
   29TMC2    H1  457   2.189   4.464  14.487  0.8356  0.0481  1.1444
   29TMC2    H2  458   2.079   0.090  14.652 -1.6661  0.0720  0.7237
   29TMC2    C7  459   2.280   4.691  14.581  0.6723 -0.2839 -0.6399
   29TMC2    C8  460   1.823   0.042  14.668 -0.0763 -0.4714  0.7767
   29TMC2    O1  461   2.352   4.613  14.524  0.0840 -0.0435  0.4549
   29TMC2    O2  462   1.869   0.133  14.736  0.1506  0.1054 -0.6919
   29TMC2    O5  463   1.716   0.039  14.593  0.8372 -0.5926  0.2780
   29TMC2    H5  464   1.706   4.704  14.531  0.8200 -0.0735 -0.3512
   30MPD2     C  465   1.658   3.992  14.252  0.0465 -0.2111  0.1035
   30MPD2    C1  466   1.790   4.005  14.253 -0.7388 -0.2284 -0.4104
   30MPD2    C2  467   1.846   4.111  14.314 -0.3524  0.0199 -0.2924
   30MPD2    C3  468   1.770   4.206  14.385 -0.4956  0.9029 -0.5495
   30MPD2    C4  469   1.636   4.191  14.394 -0.3919 -0.0341 -0.0773
   30MPD2    C5  470   1.587   4.086  14.321 -0.0742  0.2019  0.4676
   30MPD2     H  471   1.953   4.126  14.303 -0.3775  1.2406  1.2076
   30MPD2    H1  472   1.576   4.263  14.449 -2.0068 -1.9085  0.6402
   30MPD2    H2  473   1.605   3.905  14.214  3.1261 -1.5761 -0.9946
   30MPD2    H3  474   1.480   4.079  14.306 -0.4756 -0.5806  3.6020
   30MPD2     N  475   1.828   4.325  14.441 -0.0706 -0.1364  0.0677
   30MPD2    H5  476   1.772   4.379  14.506 -1.1596  0.3380 -1.2494
   30MPD2    N1  477   1.875   3.909  14.200  0.0479 -0.5862 -0.3312
   30MPD2    H7  478   1.974   3.927  14.211 -0.1688 -0.0734  0.7889
   31TMC2    C1  479   4.366   3.101  15.844  0.4734 -0.4289 -0.1221
   31TMC2    C2  480   4.249   3.171  15.832 -0.0241  0.5144 -0.2735
   31TMC2    C3  481   4.158   3.174  15.937 -0.0073  0.9931 -0.3530
   31TMC2    C4  482   4.389   3.033  15.960  0.9326  0.0492  0.1679
   31TMC2    C5  483   4.291   3.027  16.057  1.0049  0.4601  0.0253
   31TMC2    C6  484   4.175   3.105  16.055  0.1468  0.0505 -0.3998
   31TMC2     C  485   4.471   3.112  15.742  0.3687  0.1741 -0.1402
   31TMC2     O  486   4.440   3.158  15.631  0.2005  0.7833  0.1914
   31TMC2     H  487   4.238   3.233  15.744 -0.9859  0.7736  0.0238
   31TMC2    H1  488   4.469   2.960  15.973  0.8710 -0.3347 -1.5096
   31TMC2    H2  489   4.108   3.116  16.139  1.3186 -3.0187  0.9594
   31TMC2    C7  490   4.298   2.917  16.150  0.3579  0.5034  0.2812
   31TMC2    C8  491   4.050   3.276  15.936 -0.4285  0.1645 -0.0933
   31TMC2    O1  492   4.396   2.849  16.155  0.1495 -0.0401 -0.4727
   31TMC2    O2  493   4.063   3.377  15.874 -0.4846  0.2968 -0.0103
   31TMC2    O5  494   3.936   3.228  16.003  0.3727  0.1476 -0.7995
   31TMC2    H5  495   3.935   3.132  16.022  0.7488  0.4912  1.0053
   32MPD2     C  496   0.217   3.077  15.586  0.0448 -0.4375 -0.0385
   32MPD2    C1  497   0.101   3.101  15.523 -0.1500 -0.1164 -0.0342
   32MPD2    C2  498   4.724   3.101  15.591 -0.2088 -0.7940  0.5459
   32MPD2    C3  499   4.720   3.096  15.727 -0.7067  0.9444 -0.4406
   32MPD2    C4  500   0.096   3.085  15.794 -0.2419 -0.0357 -0.0583
   32MPD2    C5  501   0.213   3.067  15.723  0.1250 -0.1570  0.1314
   32MPD2     H  502   4.625   3.111  15.548  0.5122 -0.2928 -0.9803
   32MPD2    H1  503   0.097   3.085  15.903  1.0059 -0.8430 -0.0662
   32MPD2    H2  504   0.306   3.061  15.526 -0.1528 -1.8489  0.0436
   32MPD2    H3  505   0.294   3.039  15.790  0.8491 -0.8412 -1.0285
   32MPD2     N  506   4.594   3.097  15.797 -0.3695  0.3776 -0.0308
   32MPD2    H5  507   4.606   3.079  15.896  1.7949  1.6999 -0.0556
   32MPD2    N1  508   0.109   3.105  15.386 -0.0939 -0.0663 -0.5291
   32MPD2    H7  509   0.198   3.101  15.338 -0.2226  0.0224 -0.7774
   33TMC2    C1  510   3.964   1.882  10.036  0.0283 -0.0287  0.8490
   33TMC2    C2  511   3.843   1.870   9.975  0.9155  0.0828  0.3463
   33TMC2    C3  512   3.807   1.963   9.884 -0.5809 -0.2000 -0.1681
   33TMC2    C4  513   4.050   1.986  10.010 -0.7326  0.6490 -0.6032
   33TMC2    C5  514   4.011   2.079   9.914  0.3251  0.6881 -0.6037
   33TMC2    C6  515   3.894   2.062   9.848 -0.6672  0.1234  1.2125
   33TMC2     C  516   3.998   1.772  10.125 -0.2933  0.8994 -0.4429
   33TMC2     O  517   3.909   1.708  10.177 -0.2105  0.4540 -0.0162
   33TMC2     H  518   3.790   1.776   9.983  1.8952 -0.5960 -1.0316
   33TMC2    H1  519   4.132   1.997  10.080  0.4364  0.1987 -1.9140
   33TMC2    H2  520   3.885   2.116   9.754  0.7663 -0.9944  0.4186
   33TMC2    C7  521   4.090   2.199   9.908  0.7566  0.3597  0.0897
   33TMC2    C8  522   3.698   1.933   9.794  0.7690 -0.0921 -0.1333
   33TMC2    O1  523   4.193   2.201   9.975  0.0810 -0.2287 -0.1280
   33TMC2    O2  524   3.595   1.885   9.845 -0.3524  0.1035 -0.0988
   33TMC2    O5  525   3.758   1.886   9.686  0.1238  0.0955  0.0619
   33TMC2    H5  526   3.854   1.907   9.691  0.5031 -1.3606 -1.0700
   34MPD2     C  527   4.346   1.477  10.391 -0.2427  0.6234 -0.0636
   34MPD2    C1  528   4.219   1.446  10.357 -0.4426  0.7270  0.1943
   34MPD2    C2  529   4.140   1.536  10.273  0.3987  0.4395  0.5835
   34MPD2    C3  530   4.196   1.655  10.225 -0.7994  0.4544  0.1686
   34MPD2    C4  531   4.325   1.677  10.260  0.0198  0.8923  0.1615
   34MPD2    C5  532   4.401   1.593  10.345  0.5347  0.0720  0.2053
   34MPD2     H  533   4.041   1.504  10.240  1.5752 -1.4824 -1.0492
   34MPD2    H1  534   4.371   1.765  10.216  2.0208 -0.9449 -1.4157
   34MPD2    H2  535   4.401   1.402  10.447  0.3399  1.5660  0.6303
   34MPD2    H3  536   4.501   1.618  10.379  0.9689 -2.1572  0.5817
   34MPD2     N  537   4.130   1.762  10.155  0.0241  0.3667  0.4269
   34MPD2    H5  538   4.189   1.822  10.099 -0.9803  0.7538 -0.2297
   34MPD2    N1  539   4.178   1.312  10.395 -0.2390 -0.4380 -0.3721
   34MPD2    H7  540   4.246   1.257  10.446 -1.3343 -1.2528  0.2243
   35TMC2    C1  541   0.757   2.094  11.255  0.0254  0.2550 -0.0800
   35TMC2    C2  542   0.680   2.151  11.153  0.6875 -0.0657  0.7914
   35TMC2    C3  543   0.544   2.111  11.141  0.6662 -0.3262  0.0811
   35TMC2    C4  544   0.700   2.012  11.344 -0.9910 -0.0162 -0.5228
   35TMC2    C5  545   0.566   1.986  11.341 -0.2961 -0.8271 -0.4878
   35TMC2    C6  546   0.489   2.029  11.234 -0.7878  0.2635  0.8505
   35TMC2     C  547   0.899   2.140  11.265 -0.1308 -0.1679  0.2269
   35TMC2     O  548   0.927   2.226  11.180 -0.3775  0.1619 -0.7711
   35TMC2     H  549   0.722   2.242  11.110  0.2121  0.7048  1.9312
   35TMC2    H1  550   0.765   1.972  11.421 -1.3032  1.4157  0.4797
   35TMC2    H2  551   0.384   2.010  11.215 -0.7174  0.0807  0.6496
   35TMC2    C7  552   0.506   1.899  11.439 -0.3031 -0.2224  0.0746
   35TMC2    C8  553   0.452   2.183  11.055 -0.2195 -0.2552  0.3426
   35TMC2    O1  554   0.590   1.836  11.506 -0.5761 -0.4663  0.3858
   35TMC2    O2  555   0.330   2.180  11.079  0.2532 -0.3386 -0.0822
   35TMC2    O5  556   0.503   2.201  10.932 -0.1321 -0.2292 -0.0386
   35TMC2    H5  557   0.600   2.196  10.917  0.0963  1.1174  1.0384
   36MPD2     C  558   1.324   2.273  11.520 -0.1592  0.4494  0.0359
   36MPD2    C1  559   1.272   2.164  11.583  0.5353 -0.0644  0.5530
   36MPD2    C2  560   1.163   2.108  11.522 -0.1439  0.4997 -0.2205
   36MPD2    C3  561   1.102   2.155  11.404 -0.0284 -0.3547 -0.3299
   36MPD2    C4  562   1.160   2.264  11.342 -0.2622  0.0704  0.4357
   36MPD2    C5  563   1.269   2.314  11.403  0.0440  0.5898  0.3236
   36MPD2     H  564   1.103   2.034  11.574 -0.5166  1.0066  0.0702
   36MPD2    H1  565   1.111   2.311  11.257 -1.6823 -2.0592  0.0929
   36MPD2    H2  566   1.416   2.311  11.562 -0.3802  0.9594  0.0555
   36MPD2    H3  567   1.311   2.403  11.357 -0.5936  0.9875  0.5138
   36MPD2     N  568   0.973   2.101  11.375 -0.7061 -0.0116  0.1261
   36MPD2    H5  569   0.934   2.028  11.435 -0.3578  0.2051  0.6143
   36MPD2    N1  570   1.330   2.109  11.704 -0.3655 -0.5286  0.1895
   36MPD2    H7  571   1.409   2.156  11.748  0.8499 -2.9878  0.6320
   37TMC2    C1  572   2.924   2.467  11.972 -0.6307  0.4769 -0.1715
   37TMC2    C2  573   2.878   2.572  11.900 -0.0185  0.3485 -0.5487
   37TMC2    C3  574   2.933   2.591  11.774  0.0873 -0.4160 -0.5695
   37TMC2    C4  575   3.021   2.376  11.930  0.0213  0.1795 -0.1871
   37TMC2    C5  576   3.070   2.404  11.810  0.0866  0.4494 -0.6693
   37TMC2    C6  577   3.036   2.513  11.736  0.2791 -0.7933 -0.4038
   37TMC2     C  578   2.883   2.465  12.116 -0.0179 -0.2948  0.0700
   37TMC2     O  579   2.787   2.531  12.155  0.3345  0.0078 -0.5939
   37TMC2     H  580   2.821   2.648  11.952 -1.1587 -0.0577 -1.2079
   37TMC2    H1  581   3.039   2.281  11.980 -1.1147 -0.8463 -1.7012
   37TMC2    H2  582   3.097   2.552  11.655  0.3943  1.7663  0.9328
   37TMC2    C7  583   3.185   2.327  11.774 -0.8512 -0.3398  0.0990
   37TMC2    C8  584   2.923   2.713  11.698 -0.8108  0.2848 -0.4618
   37TMC2    O1  585   3.254   2.262  11.854  0.2047 -0.5318  0.7876
   37TMC2    O2  586   3.021   2.775  11.653  0.4232 -0.2997 -0.2154
   37TMC2    O5  587   2.808   2.775  11.730 -0.5775  0.4677  0.2393
   37TMC2    H5  588   2.741   2.709  11.759 -2.9941  2.4537 -0.7832
   38MPD2     C  589   2.978   2.318  12.610  0.1789  0.1354 -0.1263
   38MPD2    C1  590   3.059   2.253  12.524 -0.3263  0.9445 -0.0884
   38MPD2    C2  591   3.048   2.275  12.387  0.3135  0.2564 -0.3485
   38MPD2    C3  592   2.967   2.370  12.333 -0.1067 -0.2827 -0.0647
   38MPD2    C4  593   2.884   2.441  12.426 -0.1429 -0.1387  0.4403
   38MPD2    C5  594   2.899   2.418  12.563 -0.0911 -0.5226 -0.3004
   38MPD2     H  595   3.118   2.225  12.321 -1.3853 -2.3502 -0.1482
   38MPD2    H1  596   2.808   2.511  12.393  1.5539  1.1347 -0.7962
   38MPD2    H2  597   2.978   2.300  12.717 -0.1513  0.3369 -0.0923
   38MPD2    H3  598   2.845   2.481  12.632  1.1274 -0.0883  0.2573
   38MPD2     N  599   2.973   2.388  12.191  0.6637 -0.3401 -0.1481
   38MPD2    H5  600   3.049   2.337  12.147  1.3139 -0.3927  1.0672
   38MPD2    N1  601   3.153   2.161  12.564  0.0806 -0.6040  0.1869
   38MPD2    H7  602   3.213   2.126  12.490 -1.3636 -2.9757  0.1527
   39TMC2    C1  603   1.329   3.138   1.479  0.3188 -0.0578 -0.8352
   39TMC2    C2  604   1.303   3.093   1.610 -0.1935  0.1407  0.2340
   39TMC2    C3  605   1.406   3.048   1.687 -0.0394  0.0646 -0.0815
   39TMC2    C4  606   1.456   3.147   1.434  0.0062  0.2206  0.2680
   39TMC2    C5  607   1.557   3.095   1.515  0.4144 -0.3269  0.1008
   39TMC2    C6  608   1.536   3.056   1.644  0.7502 -0.4868 -0.9306
   39TMC2     C  609   1.215   3.205   1.416  0.3288 -0.5675  0.2075
   39TMC2     O  610   1.098   3.166   1.437 -0.5779 -0.4259  0.6023
   39TMC2     H  611   1.202   3.091   1.649 -0.8049 -0.1123 -1.3621
   39TMC2    H1  612   1.464   3.189   1.334  1.8328  0.0768  0.3531
   39TMC2    H2  613   1.625   3.014   1.691  0.9599  0.0155 -0.8871
   39TMC2    C7  614   1.686   3.095   1.451 -0.0297  0.0045  0.5345
   39TMC2    C8  615   1.381   2.978   1.812 -0.7174  0.7133  0.1849
   39TMC2    O1  616   1.686   3.116   1.331  0.1505  0.0275 -0.1737
   39TMC2    O2  617   1.271   2.939   1.852 -0.4854 -0.1194 -0.2529
   39TMC2    O5  618   1.491   2.995   1.891 -0.1504 -0.5251  0.4065
   39TMC2    H5  619   1.550   3.070   1.867  0.2760 -1.0982 -0.3291
   40MPD2     C  620   1.202   3.512   1.219 -0.1851 -0.5181  0.4041
   40MPD2    C1  621   1.148   3.404   1.281 -0.3273 -0.6039 -0.5975
   40MPD2    C2  622   1.012   3.393   1.287 -0.2924 -0.2011  0.3113
   40MPD2    C3  623   0.935   3.498   1.236  0.1008 -0.0973 -0.0689
   40MPD2    C4  624   1.000   3.613   1.193 -0.7557 -0.6164  0.6973
   40MPD2    C5  625   1.133   3.620   1.171 -0.3315 -0.2018  0.2833
   40MPD2     H  626   0.969   3.300   1.320  1.5238 -1.3981 -0.7324
   40MPD2    H1  627   0.938   3.689   1.146 -0.3781 -1.6045 -1.4305
   40MPD2    H2  628   1.309   3.510   1.199 -0.0356  1.9680  0.9865
   40MPD2    H3  629   1.182   3.707   1.128  0.7078 -1.6995 -1.5800
   40MPD2     N  630   0.794   3.492   1.227 -0.4855 -0.0696  0.0257
   40MPD2    H5  631   0.747   3.572   1.185  0.9218 -0.4485 -2.2701
   40MPD2    N1  632   1.243   3.323   1.344 -0.7015 -0.2112  0.5139
   40MPD2    H7  633   1.338   3.348   1.316 -0.4872 -0.6280  0.8554
   41TMC2    C1  634   4.699   2.091  13.527 -0.1677 -0.0635 -0.2553
   41TMC2    C2  635   4.636   2.104  13.403 -0.8147 -0.3780  0.0432
   41TMC2    C3  636   4.713   2.064  13.298 -0.2575  0.2455 -1.1978
   41TMC2    C4  637   0.084   2.040  13.552 -0.6444  0.9017 -0.7149
   41TMC2    C5  638   0.160   2.010  13.438  0.0520  0.1418  0.0471
   41TMC2    C6  639   0.104   2.018  13.311 -0.5817 -0.1097 -0.2085
   41TMC2     C  640   4.615   2.095  13.634  0.1144  0.0627  0.1022
   41TMC2     O  641   4.499   2.073  13.601 -0.5703  0.3901  0.6521
   41TMC2     H  642   4.545   2.160  13.390 -0.7562  0.3789  2.8900
   41TMC2    H1  643   0.129   2.007  13.644  0.0411 -0.7326 -1.6351
   41TMC2    H2  644   0.146   1.975  13.220  1.9513  1.0522  0.4114
   41TMC2    C7  645   0.302   1.988  13.448 -0.3094  0.3645 -0.3251
   41TMC2    C8  646   4.675   2.092  13.160  0.2585  0.3266  0.4151
   41TMC2    O1  647   0.351   1.965  13.560  0.0160 -0.0681 -0.1557
   41TMC2    O2  648   0.020   2.092  13.071 -0.3302 -0.0863  0.3079
   41TMC2    O5  649   4.544   2.117  13.150  0.2213  0.1285  0.0865
   41TMC2    H5  650   4.486   2.069  13.213 -1.2050 -0.7513 -1.8866
   42MPD2     C  651   4.479   2.075  13.892 -0.7540  0.0506 -0.3447
   42MPD2    C1  652   4.605   2.133  13.875 -0.3064  0.6257  0.6183
   42MPD2    C2  653   4.669   2.200  13.975  0.9494 -0.1261  0.9242
   42MPD2    C3  654   4.621   2.190  14.100 -0.0945 -0.0408  0.0628
   42MPD2    C4  655   4.497   2.145  14.118  0.7600 -0.2903  0.2582
   42MPD2    C5  656   4.422   2.100  14.014 -0.1175  0.1693 -0.0405
   42MPD2     H  657   0.030   2.239  13.970 -0.0981  2.6171  1.3272
   42MPD2    H1  658   4.455   2.136  14.217 -0.7361 -1.0014 -0.4398
   42MPD2    H2  659   4.422   2.032  13.811 -0.2073  0.1972 -0.8050
   42MPD2    H3  660   4.317   2.073  14.021 -0.0373 -0.2045 -0.2601
   42MPD2     N  661   4.689   2.248  14.215  0.2221  0.1675  0.1977
   42MPD2    H5  662   4.642   2.236  14.304 -1.2132 -0.5071 -0.6388
   42MPD2    N1  663   4.671   2.131  13.756 -0.1233 -0.3293 -0.2348
   42MPD2    H7  664   0.026   2.161  13.763 -0.0314 -0.9786  1.2847
   43TMC2    C1  665   1.227   0.620   0.625 -0.0040 -0.8042 -0.1092
   43TMC2    C2  666   1.115   0.697   0.602  0.1579  0.2009  0.4215
   43TMC2    C3  667   1.094   0.810   0.673  0.7169  0.2774  0.2430
   43TMC2    C4  668   1.322   0.661   0.714  0.3504  0.2890 -0.1140
   43TMC2    C5  669   1.288   0.777   0.783 -0.3832  0.0096  0.2207
   43TMC2    C6  670   1.176   0.850   0.776 -0.5721  0.3883  0.2892
   43TMC2     C  671   1.228   0.479   0.595 -1.1001  0.5625 -0.4890
   43TMC2     O  672   1.336   0.421   0.605  0.3820 -0.5840  0.1233
   43TMC2     H  673   1.044   0.674   0.524 -1.5206  1.8006  1.4678
   43TMC2    H1  674   1.411   0.602   0.727  0.5190  0.3191 -1.1200
   43TMC2    H2  675   1.155   0.939   0.834 -3.1782  1.3529 -2.1433
   43TMC2    C7  676   1.381   0.824   0.888 -0.0238 -0.2376  0.1929
   43TMC2    C8  677   0.970   0.880   0.644  1.0939 -0.3185 -0.1822
   43TMC2    O1  678   1.352   0.905   0.977  0.1550 -0.9323 -0.0487
   43TMC2    O2  679   0.882   0.819   0.582  0.2864 -0.6110  0.4287
   43TMC2    O5  680   1.008   1.011   0.633  0.8244 -0.3995 -0.6424
   43TMC2    H5  681   1.089   1.044   0.677 -0.7578  0.3224  1.7058
   44MPD2     C  682   1.007   0.062   0.389 -0.2713 -0.3836 -0.5748
   44MPD2    C1  683   1.135   0.082   0.442 -1.1685  0.2736  0.9133
   44MPD2    C2  684   1.167   0.206   0.500  0.0604 -0.2771 -0.4272
   44MPD2    C3  685   1.079   0.310   0.497  0.2848  0.5371  0.2152
   44MPD2    C4  686   0.956   0.286   0.447  0.7072 -0.4423  1.2859
   44MPD2    C5  687   0.910   0.158   0.399 -0.3138  0.3673 -0.2649
   44MPD2     H  688   1.263   0.218   0.549 -1.5217  2.2022  2.0503
   44MPD2    H1  689   0.875   0.357   0.456  0.4152 -0.8032  1.4810
   44MPD2    H2  690   0.983   4.706   0.347  2.1279 -0.5989 -1.4624
   44MPD2    H3  691   0.814   0.150   0.351  0.0059 -0.5365 -0.7388
   44MPD2     N  692   1.103   0.435   0.553 -0.3797 -0.0771  0.1454
   44MPD2    H5  693   1.024   0.498   0.548 -0.6396 -0.2824  1.4778
   44MPD2    N1  694   1.229   4.717   0.436 -0.1114  0.0109  0.1553
   44MPD2    H7  695   1.203   4.638   0.377  0.9588  1.2337 -1.9761
   45TMC2    C1  696   2.299   3.306   9.426 -0.1895  0.0933  0.5236
   45TMC2    C2  697   2.347   3.180   9.464  0.5640  0.1099 -0.3459
   45TMC2    C3  698   2.461   3.184   9.540 -0.5013  0.3203  0.9183
   45TMC2    C4  699   2.359   3.427   9.454  0.2554  0.0356  0.7625
   45TMC2    C5  700   2.479   3.418   9.518  0.6268  0.0399 -0.5240
   45TMC2    C6  701   2.522   3.300   9.568  1.2239 -0.1556  0.2013
   45TMC2     C  702   2.164   3.327   9.378  0.3975  0.3328  0.6472
   45TMC2     O  703   2.117   3.438   9.374 -0.4013  0.3223 -0.0985
   45TMC2     H  704   2.288   3.090   9.455 -2.4264  1.9524  0.8846
   45TMC2    H1  705   2.315   3.523   9.431  0.6392  0.0628  0.1494
   45TMC2    H2  706   2.617   3.294   9.620  1.0231  0.6274  0.6484
   45TMC2    C7  707   2.509   3.528   9.604 -0.4018 -0.1879 -0.0517
   45TMC2    C8  708   2.525   3.055   9.585 -0.5197  0.4827  0.1179
   45TMC2    O1  709   2.557   3.503   9.714  0.2638  0.5694  0.0265
   45TMC2    O2  710   2.611   3.039   9.668  0.0480  0.5967 -0.6632
   45TMC2    O5  711   2.475   2.949   9.526  0.5185  0.0644  0.2388
   45TMC2    H5  712   2.417   2.965   9.449  2.1315  2.2826 -0.5239
   46MPD2     C  713   1.888   3.297   9.268 -0.9652  0.5645 -0.1132
   46MPD2    C1  714   1.958   3.201   9.334  0.0028  0.1731  0.2088
   46MPD2    C2  715   1.893   3.090   9.364  0.0828 -0.5608 -0.6219
   46MPD2    C3  716   1.758   3.064   9.342  0.0794  0.4049  0.2898
   46MPD2    C4  717   1.692   3.160   9.267 -0.1323  1.1469  0.0989
   46MPD2    C5  718   1.757   3.275   9.231  0.4098  0.4300 -0.2362
   46MPD2     H  719   1.939   3.015   9.428 -0.1102  0.4991  0.7671
   46MPD2    H1  720   1.591   3.139   9.235  0.1204  1.3722 -0.8296
   46MPD2    H2  721   1.928   3.392   9.233  1.8836  0.0959  1.9028
   46MPD2    H3  722   1.702   3.345   9.169 -0.3314 -0.3924 -0.5131
   46MPD2     N  723   1.701   2.945   9.391 -0.3990  0.3384  0.1585
   46MPD2    H5  724   1.769   2.873   9.412 -0.8639  0.0057  0.5282
   46MPD2    N1  725   2.093   3.208   9.372 -0.2296  0.5518  0.5213
   46MPD2    H7  726   2.142   3.121   9.392 -0.5982  0.6820  1.9523
   47TMC2    C1  727   0.504   3.552   8.873  0.4224 -0.5346  0.1065
   47TMC2    C2  728   0.472   3.560   8.738  0.1842 -0.2065  0.1080
   47TMC2    C3  729   0.342   3.535   8.705  0.5706 -0.3302 -0.0967
   47TMC2    C4  730   0.417   3.508   8.967 -0.1642 -0.6229 -0.2648
   47TMC2    C5  731   0.288   3.476   8.927  0.3309 -0.7735  0.1285
   47TMC2    C6  732   0.247   3.487   8.796 -0.6296  0.4717 -0.0445
   47TMC2     C  733   0.642   3.541   8.909 -0.4295 -0.1758  0.3077
   47TMC2     O  734   0.720   3.604   8.845 -0.4253 -0.4656 -0.2507
   47TMC2     H  735   0.552   3.578   8.667  0.1362 -1.6375 -0.3132
   47TMC2    H1  736   0.448   3.508   9.071 -4.2901  0.8780  0.9542
   47TMC2    H2  737   0.141   3.477   8.772 -0.4574  1.5855 -1.3214
   47TMC2    C7  738   0.174   3.500   9.011 -0.2596  0.4978  0.1124
   47TMC2    C8  739   0.283   3.583   8.586 -0.6533 -0.4220  0.3128
   47TMC2    O1  740   0.188   3.587   9.093 -0.5376  0.5240  0.7488
   47TMC2    O2  741   0.175   3.537   8.542  0.8079  0.7431  0.0384
   47TMC2    O5  742   0.371   3.658   8.528  0.2873 -0.7680 -0.2870
   47TMC2    H5  743   0.444   3.704   8.575 -0.2858 -0.6291  0.4645
   48MPD2     C  744   0.905   3.492   9.037  1.0538 -0.1773 -0.9852
   48MPD2    C1  745   0.799   3.409   9.044 -0.0805 -0.0352 -0.2756
   48MPD2    C2  746   0.814   3.281   9.096 -0.3282  0.1284 -0.5640
   48MPD2    C3  747   0.935   3.243   9.145  0.3103  0.0249 -0.2280
   48MPD2    C4  748   1.045   3.328   9.130  0.0194 -0.5009 -0.3572
   48MPD2    C5  749   1.029   3.449   9.081  0.1786 -0.8512 -0.4031
   48MPD2     H  750   0.733   3.209   9.104 -2.1844  2.3123  0.5793
   48MPD2    H1  751   1.144   3.299   9.163  0.2174  2.2019  1.4419
   48MPD2    H2  752   0.902   3.592   8.996 -1.3447 -0.5577 -1.7183
   48MPD2    H3  753   1.120   3.507   9.069 -2.9307  4.2273  0.5400
   48MPD2     N  754   0.932   3.116   9.203  0.4903  0.5327 -0.0293
   48MPD2    H5  755   0.838   3.078   9.204  1.6162 -2.3256 -2.5059
   48MPD2    N1  756   0.671   3.433   8.996  0.0544 -0.1114 -0.4358
   48MPD2    H7  757   0.596   3.371   9.024 -2.2828  1.9826 -1.9861
   49TMC2    C1  758   3.436   0.903  10.675  0.5222  0.8147 -0.3943
   49TMC2    C2  759   3.510   0.992  10.609  0.8345 -0.2347 -0.0733
   49TMC2    C3  760   3.513   0.980  10.474  0.3156  0.8108 -0.5727
   49TMC2    C4  761   3.390   0.786  10.617  0.2590  0.9702  0.4883
   49TMC2    C5  762   3.387   0.783  10.482  0.6140 -0.4504 -0.1117
   49TMC2    C6  763   3.447   0.880  10.406 -0.5512  0.0833 -0.0617
   49TMC2     C  764   3.471   0.886  10.816 -0.3444  0.5145 -0.0354
   49TMC2     O  765   3.579   0.921  10.855  1.0181  0.2491 -0.3375
   49TMC2     H  766   3.560   1.070  10.666 -1.1424  2.6561 -2.2814
   49TMC2    H1  767   3.359   0.703  10.680  1.8035 -1.5771 -2.1524
   49TMC2    H2  768   3.454   0.870  10.299  0.1819 -2.1967  0.2023
   49TMC2    C7  769   3.324   0.675  10.408 -0.3442  0.3278 -0.2625
   49TMC2    C8  770   3.595   1.060  10.383  0.4660 -0.7988  0.9066
   49TMC2    O1  771   3.299   0.699  10.287 -0.3714 -0.3267  0.0683
   49TMC2    O2  772   3.591   1.054  10.260 -0.2472  0.5547 -0.4033
   49TMC2    O5  773   3.627   1.170  10.447 -0.2911 -0.0769  0.5015
   49TMC2    H5  774   3.642   1.146  10.540  0.5269 -1.9242 -0.1193
   50MPD2     C  775   3.465   0.838  11.118  0.2674 -0.1603 -0.3820
   50MPD2    C1  776   3.355   0.825  11.030 -0.0012 -0.0346 -0.1417
   50MPD2    C2  777   3.226   0.797  11.084  0.6639 -0.0204  0.0389
   50MPD2    C3  778   3.210   0.786  11.224  0.5787 -0.3597  0.0393
   50MPD2    C4  779   3.315   0.805  11.302 -0.1248 -0.2949  0.0802
   50MPD2    C5  780   3.440   0.827  11.251 -0.0606 -0.3311 -0.4614
   50MPD2     H  781   3.145   0.794  11.013  1.0559  1.1815 -0.4612
   50MPD2    H1  782   3.304   0.795  11.409  0.0822  3.1944  0.4283
   50MPD2    H2  783   3.569   0.846  11.088  0.6923 -0.1381  1.1113
   50MPD2    H3  784   3.522   0.844  11.320 -0.2711 -1.3880  0.0548
   50MPD2     N  785   3.089   0.772  11.292 -0.6807 -0.3505  0.2289
   50MPD2    H5  786   3.089   0.769  11.393  0.5391  0.7712  0.2558
   50MPD2    N1  787   3.362   0.828  10.882 -0.6418  0.2833 -0.0860
   50MPD2    H7  788   3.278   0.817  10.826 -0.7665  2.0894 -0.2707
   51TMC2    C1  789   2.756   3.708   1.081 -1.0300 -0.0470  0.6019
   51TMC2    C2  790   2.664   3.789   1.147  0.5726 -0.3280  0.0086
   51TMC2    C3  791   2.642   3.908   1.082  0.5125 -0.4311  0.3055
   51TMC2    C4  792   2.812   3.732   0.956  0.0534 -0.4048 -0.4280
   51TMC2    C5  793   2.777   3.855   0.904 -0.4311 -0.2035 -0.4116
   51TMC2    C6  794   2.690   3.944   0.961 -0.0835 -0.4514 -0.1638
   51TMC2     C  795   2.816   3.602   1.162  0.2320  1.4295  0.1104
   51TMC2     O  796   2.914   3.546   1.119 -0.0079 -0.2296 -0.1499
   51TMC2     H  797   2.632   3.780   1.250  0.0513 -0.3069 -0.1498
   51TMC2    H1  798   2.897   3.673   0.925  0.3913 -1.0019  1.6380
   51TMC2    H2  799   2.688   4.047   0.926  1.0714 -0.2577  0.3430
   51TMC2    C7  800   2.876   3.911   0.818  0.3499 -0.4807 -0.0940
   51TMC2    C8  801   2.544   3.998   1.133  0.5747 -0.4591  0.2453
   51TMC2    O1  802   2.837   4.008   0.751 -0.0956 -0.1892 -0.0386
   51TMC2    O2  803   2.549   4.117   1.109 -0.0727 -0.2391 -0.0063
   51TMC2    O5  804   2.459   3.936   1.213 -0.2027 -0.4247 -0.1341
   51TMC2    H5  805   2.452   3.840   1.194 -1.1975 -0.4936  0.5733
   52MPD2     C  806   2.807   3.261   1.545  0.3219  0.8515 -0.5630
   52MPD2    C1  807   2.908   3.301   1.468  0.0912  0.1988  0.4153
   52MPD2    C2  808   2.896   3.399   1.372 -0.3311  0.7738  0.4995
   52MPD2    C3  809   2.782   3.479   1.375 -0.3322  0.5909 -0.0574
   52MPD2    C4  810   2.686   3.449   1.469 -0.3384  0.2907  0.2034
   52MPD2    C5  811   2.693   3.336   1.543  0.5250  0.3619 -0.1434
   52MPD2     H  812   2.983   3.416   1.309 -1.5642  0.3902 -1.3004
   52MPD2    H1  813   2.593   3.503   1.478  0.4079  1.9026 -1.7034
   52MPD2    H2  814   2.804   3.160   1.585  0.4911  1.6577  1.5096
   52MPD2    H3  815   2.599   3.310   1.590 -0.1221 -1.2910 -2.3157
   52MPD2     N  816   2.759   3.584   1.281 -0.4538  0.2302  0.0698
   52MPD2    H5  817   2.674   3.639   1.287 -1.4158 -1.1702 -0.6067
   52MPD2    N1  818   3.030   3.228   1.467  0.6982  1.1670  0.1960
   52MPD2    H7  819   3.109   3.256   1.410  0.5023  1.6391  0.1594
   53TMC2    C1  820   3.877   2.126  11.725 -0.4910 -0.1460 -0.2807
   53TMC2    C2  821   4.007   2.128  11.704 -0.5727  0.6846 -0.6914
   53TMC2    C3  822   4.091   2.123  11.811  0.4049  1.1776  0.3094
   53TMC2    C4  823   3.826   2.096  11.845  0.2641 -0.4836  0.6189
   53TMC2    C5  824   3.915   2.091  11.958  0.1922 -0.6371  0.4964
   53TMC2    C6  825   4.048   2.114  11.942  0.1832  0.0464 -0.1705
   53TMC2     C  826   3.793   2.181  11.616  0.7064  0.2208 -0.2402
   53TMC2     O  827   3.846   2.197  11.506  0.9302 -0.4019 -0.0965
   53TMC2     H  828   4.054   2.155  11.610  0.4688 -1.5962 -0.8276
   53TMC2    H1  829   3.721   2.071  11.848 -0.6416  3.2013  0.0954
   53TMC2    H2  830   4.108   2.140  12.028 -0.1859 -0.5130  0.2503
   53TMC2    C7  831   3.846   2.135  12.079  0.2000  0.0437  0.4315
   53TMC2    C8  832   4.235   2.095  11.789  0.3041  0.0229 -0.5204
   53TMC2    O1  833   3.735   2.186  12.068  0.3248 -0.0358  0.0054
   53TMC2    O2  834   4.297   2.129  11.687 -0.7928  0.5196 -0.1119
   53TMC2    O5  835   4.276   1.997  11.879  0.6897 -0.3604  0.6885
   53TMC2    H5  836   4.207   1.964  11.941  0.9384 -0.0247  1.1382
   54MPD2     C  837   3.578   2.279  11.442  0.0506 -0.2805 -0.1805
   54MPD2    C1  838   3.569   2.257  11.574 -0.1310  0.1636 -0.1902
   54MPD2    C2  839   3.453   2.271  11.640  0.2499  0.0627 -0.2281
   54MPD2    C3  840   3.333   2.310  11.572 -0.2536  0.8350  0.2502
   54MPD2    C4  841   3.341   2.337  11.440 -1.3757  0.0339  0.0825
   54MPD2    C5  842   3.463   2.322  11.380 -0.4102  0.2049  0.7096
   54MPD2     H  843   3.446   2.241  11.744 -1.3163 -1.1126 -0.6763
   54MPD2    H1  844   3.260   2.382  11.384 -2.2460 -0.2183  1.1233
   54MPD2    H2  845   3.666   2.275  11.378  1.1783 -1.3988  1.4483
   54MPD2    H3  846   3.465   2.355  11.277  1.6372  0.1415  0.7327
   54MPD2     N  847   3.211   2.338  11.640 -0.4160  0.0040  0.2527
   54MPD2    H5  848   3.138   2.383  11.586 -0.7393 -0.4035  0.3607
   54MPD2    N1  849   3.667   2.207  11.656 -0.6040  0.0165  0.1960
   54MPD2    H7  850   3.647   2.194  11.754 -0.5509  0.7425  0.2995
   55TMC2    C1  851   4.525   0.607  17.306  0.1054 -0.3441 -0.9859
   55TMC2    C2  852   4.551   0.629  17.176  0.1682 -0.1211 -0.0070
   55TMC2    C3  853   4.558   0.516  17.095  0.3619 -0.7778 -0.1298
   55TMC2    C4  854   4.508   0.476  17.353 -0.5872  0.7455 -0.0561
   55TMC2    C5  855   4.515   0.368  17.274  0.3541 -0.6121  0.8448
   55TMC2    C6  856   4.545   0.392  17.146 -1.2286 -0.4546 -0.4497
   55TMC2     C  857   4.501   0.715  17.396 -0.3063  0.7556  0.8652
   55TMC2     O  858   4.460   0.689  17.512 -0.3953 -0.6216  0.2029
   55TMC2     H  859   4.583   0.726  17.141  1.9699 -1.7805 -2.9629
   55TMC2    H1  860   4.498   0.472  17.461 -1.5019 -0.1632 -0.1749
   55TMC2    H2  861   4.579   0.308  17.085 -1.3401 -0.3141 -0.7060
   55TMC2    C7  862   4.536   0.234  17.330 -0.5627  0.2542  0.8685
   55TMC2    C8  863   4.588   0.548  16.958 -0.4482  0.2145 -0.6137
   55TMC2    O1  864   4.598   0.163  17.248  0.3102 -0.2904 -0.9240
   55TMC2    O2  865   4.614   0.660  16.910  0.0164  0.2284 -0.3056
   55TMC2    O5  866   4.495   0.465  16.902  0.3562  0.2056 -0.0551
   55TMC2    H5  867   4.443   0.416  16.969 -1.2020 -0.7143 -1.9212
   56MPD2     C  868   4.429   1.071  17.333  0.4466 -0.9177  0.1125
   56MPD2    C1  869   4.470   0.957  17.409  0.4259 -0.1203 -0.4408
   56MPD2    C2  870   4.444   0.958  17.549 -0.4408  0.0400  0.5199
   56MPD2    C3  871   4.360   1.054  17.600  0.3752 -0.2040  0.0325
   56MPD2    C4  872   4.320   1.164  17.529 -0.0081 -0.4927  0.4023
   56MPD2    C5  873   4.350   1.169  17.393  0.0652 -0.0287 -0.3063
   56MPD2     H  874   4.487   0.882  17.614 -3.3157  0.1301  2.5230
   56MPD2    H1  875   4.269   1.249  17.572  0.6329 -0.0721  0.3261
   56MPD2    H2  876   4.454   1.074  17.228  0.2778  4.4094  0.2233
   56MPD2    H3  877   4.313   1.254  17.337 -0.1365  0.7403  0.9950
   56MPD2     N  878   4.320   1.042  17.735 -0.0071 -0.2113 -0.0603
   56MPD2    H5  879   4.353   0.951   0.007 -0.6086 -0.6021 -0.5530
   56MPD2    N1  880   4.517   0.842  17.343 -0.0677  0.1695 -0.7940
   56MPD2    H7  881   4.554   0.857  17.249  3.8800  0.1963  0.7701
   57TMC2    C1  882   3.608   0.869  13.253  0.0444  0.3269  1.1438
   57TMC2    C2  883   3.560   0.747  13.209 -0.7771 -0.2920 -0.2149
   57TMC2    C3  884   3.659   0.658  13.161 -0.5741  0.3688 -0.2377
   57TMC2    C4  885   3.740   0.897  13.256 -0.7357 -0.6809  0.1473
   57TMC2    C5  886   3.829   0.807  13.207  0.4203 -0.4991 -0.2458
   57TMC2    C6  887   3.791   0.684  13.163 -0.2763  0.2058  0.5938
   57TMC2     C  888   3.521   0.974  13.299 -0.2477 -0.3942 -0.1474
   57TMC2     O  889   3.548   1.023  13.409 -0.1401 -0.0166 -0.0486
   57TMC2     H  890   3.454   0.728  13.207 -0.8257 -0.0695  0.4040
   57TMC2    H1  891   3.772   0.996  13.288  1.2226 -0.2624 -3.1176
   57TMC2    H2  892   3.852   0.632  13.090 -2.8797 -0.0561 -1.3759
   57TMC2    C7  893   3.966   0.840  13.200 -0.0896 -0.0211  0.2961
   57TMC2    C8  894   3.609   0.535  13.114  0.6507 -0.7219 -0.1882
   57TMC2    O1  895   3.997   0.955  13.229 -0.3572  0.6244 -0.2410
   57TMC2    O2  896   3.490   0.504  13.113 -0.1654 -0.2202  0.0555
   57TMC2    O5  897   3.710   0.441  13.111 -0.0226 -0.4117  0.0631
   57TMC2    H5  898   3.796   0.471  13.146 -0.0392 -0.8871  0.5038
   58MPD2     C  899   3.023   1.060  13.371  0.4646  0.2458 -0.5736
   58MPD2    C1  900   3.131   1.097  13.441 -0.1466 -0.3085 -0.2794
   58MPD2    C2  901   3.257   1.077  13.395 -0.0150 -0.0370  0.0461
   58MPD2    C3  902   3.268   1.002  13.278  0.5732  0.4326  0.6333
   58MPD2    C4  903   3.159   0.966  13.196 -0.1228 -0.0288 -0.2410
   58MPD2    C5  904   3.035   1.000  13.251  0.5269 -0.3698 -0.1397
   58MPD2     H  905   3.344   1.117  13.445 -0.0703  1.1303 -0.7962
   58MPD2    H1  906   3.160   0.893  13.116  0.0514 -1.9992  1.5476
   58MPD2    H2  907   2.920   1.074  13.403  0.2533 -3.1699  0.1915
   58MPD2    H3  908   2.947   0.971  13.195  0.5062 -1.4257  0.4369
   58MPD2     N  909   3.398   0.970  13.232  0.5927  0.5348  1.2323
   58MPD2    H5  910   3.407   0.937  13.137 -3.1201 -1.1016  1.4639
   58MPD2    N1  911   3.121   1.170  13.565 -0.0466 -0.0934 -0.5834
   58MPD2    H7  912   3.205   1.204  13.611 -0.4289  1.1344 -0.7933
   59TMC2    C1  913   1.255   1.243  12.728  0.3168  0.2375 -0.3991
   59TMC2    C2  914   1.202   1.190  12.838  0.3461  0.2363 -1.1846
   59TMC2    C3  915   1.073   1.146  12.831  0.4360  0.0779 -0.1555
   59TMC2    C4  916   1.182   1.261  12.611  0.7843  0.1255  0.4971
   59TMC2    C5  917   1.049   1.225  12.613  0.0241  0.3764 -0.2961
   59TMC2    C6  918   0.990   1.174  12.725 -0.6052 -0.1565 -1.1232
   59TMC2     C  919   1.403   1.261  12.713  0.5437 -0.9228  0.2008
   59TMC2     O  920   1.444   1.272  12.600 -0.0767  0.7671 -0.1823
   59TMC2     H  921   1.270   1.167  12.919  1.2753  1.3667 -1.6350
   59TMC2    H1  922   1.227   1.310  12.526 -2.6263  1.6630 -0.4580
   59TMC2    H2  923   0.891   1.131  12.722 -1.3823  1.3677  2.0569
   59TMC2    C7  924   0.954   1.270  12.516  0.2239 -0.0322 -0.3169
   59TMC2    C8  925   1.011   1.076  12.941 -0.5702  0.3100 -0.0823
   59TMC2    O1  926   0.840   1.226  12.516 -0.0720 -0.3103 -0.7844
   59TMC2    O2  927   0.891   1.092  12.964  0.8594 -0.3520  0.8702
   59TMC2    O5  928   1.103   1.030  13.024 -0.4289  0.3418 -0.2462
   59TMC2    H5  929   1.197   1.012  13.001  0.1955  2.0176  1.0283
   60MPD2     C  930   1.687   1.215  12.739  0.0959  0.1841 -0.2636
   60MPD2    C1  931   1.612   1.279  12.834 -0.2509  0.2848 -0.0886
   60MPD2    C2  932   1.670   1.337  12.944  0.1247 -0.8419 -0.2962
   60MPD2    C3  933   1.808   1.369  12.944  0.2283  0.5088 -0.5522
   60MPD2    C4  934   1.888   1.319  12.847 -0.4780 -0.2708 -0.4512
   60MPD2    C5  935   1.824   1.244  12.745  0.1035 -0.6790 -0.0131
   60MPD2     H  936   1.594   1.372  13.012  0.7945 -0.5721  0.3112
   60MPD2    H1  937   1.991   1.350  12.833 -1.3213  1.0371 -3.9420
   60MPD2    H2  938   1.642   1.148  12.666 -2.8620  3.0366 -1.0582
   60MPD2    H3  939   1.881   1.201  12.664  0.3922  0.5654 -0.4661
   60MPD2     N  940   1.873   1.443  13.051  0.1398 -0.3960 -0.8160
   60MPD2    H5  941   1.973   1.450  13.042  0.2107  0.2520  0.5222
   60MPD2    N1  942   1.474   1.275  12.828  0.1383  0.2493 -0.4719
   60MPD2    H7  943   1.441   1.280  12.923  0.0167 -0.7692 -0.4554
   61TMC2    C1  944   1.026   2.431  15.346  0.0271 -0.3097 -0.3420
   61TMC2    C2  945   1.025   2.367  15.470 -0.0310 -0.0598  0.3725
   61TMC2    C3  946   0.973   2.433  15.579  0.2164 -0.3299  0.3651
   61TMC2    C4  947   0.976   2.558  15.335 -0.2069 -0.0016 -0.0163
   61TMC2    C5  948   0.944   2.621  15.452 -0.0203 -0.2430 -0.2101
   61TMC2    C6  949   0.923   2.560  15.567 -0.8122 -0.0129 -0.2865
   61TMC2     C  950   1.102   2.358  15.244 -0.8935 -0.3828 -0.3719
   61TMC2     O  951   1.143   2.245  15.266 -0.2050 -0.2766  0.2055
   61TMC2     H  952   1.064   2.268  15.493  0.3616  0.7617  3.2668
   61TMC2    H1  953   0.976   2.610  15.239 -1.0158 -1.0423 -0.5712
   61TMC2    H2  954   0.909   2.620  15.656  0.5986 -3.1796  2.0737
   61TMC2    C7  955   0.912   2.759  15.431  0.2050  0.5921  0.1341
   61TMC2    C8  956   1.038   2.396  15.703 -0.1683 -0.4432 -0.0747
   61TMC2    O1  957   0.924   2.806  15.319 -0.6628  0.2321  0.2205
   61TMC2    O2  958   1.072   2.479  15.786 -0.6009 -0.1276 -0.2165
   61TMC2    O5  959   1.020   2.265  15.728  0.4509 -0.1592  0.8003
   61TMC2    H5  960   0.979   2.212  15.656  0.4721  0.2523  0.4857
   62MPD2     C  961   1.268   2.313  15.017 -0.3493 -0.0617  0.6796
   62MPD2    C1  962   1.176   2.414  15.010 -0.2942 -0.3599 -0.5546
   62MPD2    C2  963   1.169   2.503  14.905 -0.1562 -0.2790  0.0061
   62MPD2    C3  964   1.262   2.498  14.804 -0.1015  0.2607 -0.0361
   62MPD2    C4  965   1.353   2.401  14.806  0.3216  0.0161 -0.2183
   62MPD2    C5  966   1.358   2.313  14.912 -1.6247  0.3584 -0.4490
   62MPD2     H  967   1.100   2.586  14.912  2.3946  2.2501 -4.1459
   62MPD2    H1  968   1.430   2.383  14.732 -0.5973 -2.3142 -0.6152
   62MPD2    H2  969   1.279   2.232  15.088 -4.8927 -1.3098 -0.0279
   62MPD2    H3  970   1.430   2.234  14.896 -1.3356  0.7498 -1.0896
   62MPD2     N  971   1.269   2.588  14.698  0.2192 -1.1616  0.6200
   62MPD2    H5  972   1.344   2.574  14.632  0.9870  0.4367  1.1374
   62MPD2    N1  973   1.103   2.435  15.129  0.8412  0.1183 -0.0380
   62MPD2    H7  974   1.046   2.519  15.132 -2.5951 -2.2174 -1.0201
   63TMC2    C1  975   0.775   3.322   9.942 -0.1242  0.7999  0.1234
   63TMC2    C2  976   0.885   3.283  10.012  0.0313  0.5210  0.2406
   63TMC2    C3  977   0.994   3.356  10.009  0.3472 -1.1271 -0.0184
   63TMC2    C4  978   0.773   3.442   9.876 -1.1104 -0.1745  0.2129
   63TMC2    C5  979   0.889   3.515   9.881  0.2966  0.0759 -0.8667
   63TMC2    C6  980   1.006   3.472   9.941  0.2945 -0.5049 -0.1292
   63TMC2     C  981   0.648   3.248   9.952  0.0422  0.1542  0.2772
   63TMC2     O  982   0.545   3.297   9.907  0.2938 -0.2786 -0.2776
   63TMC2     H  983   0.902   3.186  10.057  0.6168  0.9457  0.9362
   63TMC2    H1  984   0.687   3.469   9.815 -2.1817  0.4270  1.9805
   63TMC2    H2  985   1.104   3.518   9.945  0.5346 -1.1282  1.0375
   63TMC2    C7  986   0.898   3.641   9.802 -0.4061  0.0804  0.0704
   63TMC2    C8  987   1.109   3.302  10.073 -0.7138  0.0141 -0.1667
   63TMC2    O1  988   0.798   3.668   9.734  0.0925  0.1455 -0.4934
   63TMC2    O2  989   1.164   3.206  10.022  0.3488 -0.1538 -0.3168
   63TMC2    O5  990   1.154   3.405  10.151  0.0993  0.0499  0.1150
   63TMC2    H5  991   1.084   3.465  10.184  0.9321  1.6059 -0.9631
   64MPD2     C  992   0.364   2.821  10.011  0.0354  0.6229  0.6392
   64MPD2    C1  993   0.470   2.815  10.100 -0.1293  0.2586 -0.6055
   64MPD2    C2  994   0.562   2.917  10.109  0.6512  0.0067 -0.6622
   64MPD2    C3  995   0.551   3.029  10.024 -0.4615  0.0712  0.2268
   64MPD2    C4  996   0.445   3.023   9.935 -0.4377  0.1307 -0.1546
   64MPD2    C5  997   0.350   2.925   9.927 -0.4149  0.6261  0.2275
   64MPD2     H  998   0.650   2.899  10.170  0.6366 -1.8737 -1.1919
   64MPD2    H1  999   0.423   3.112   9.876 -0.9046 -0.1917 -0.4670
   64MPD2    H2 1000   0.296   2.739   9.995  1.5247 -0.3963 -0.5687
   64MPD2    H3 1001   0.277   2.920   9.848 -0.9975 -1.2098  0.8902
   64MPD2     N 1002   0.655   3.128  10.022 -0.7340  0.6657 -0.1106
   64MPD2    H5 1003   0.744   3.111  10.069 -0.5229  0.7926 -0.4633
   64MPD2    N1 1004   0.496   2.704  10.183 -0.3260  0.3656  0.4964
   64MPD2    H7 1005   0.584   2.701  10.233  0.2433 -1.9012 -0.7000
   65TMC2    C1 1006   1.371   2.348  15.662 -0.0196 -0.3038  0.1766
   65TMC2    C2 1007   1.410   2.300  15.533 -0.1370  0.0107 -0.4648
   65TMC2    C3 1008   1.423   2.393  15.430 -0.4116 -0.0497 -0.0225
   65TMC2    C4 1009   1.354   2.485  15.688  0.7450  0.2777  0.4941
   65TMC2    C5 1010   1.364   2.565  15.575  0.1301  0.0045 -0.2604
   65TMC2    C6 1011   1.409   2.528  15.449  0.7234  0.0565 -0.4529
   65TMC2     C 1012   1.388   2.253  15.771 -0.1726 -0.1399  0.5483
   65TMC2     O 1013   1.432   2.293  15.875 -0.3409 -0.0586 -0.3868
   65TMC2     H 1014   1.432   2.195  15.518 -0.4772  0.0466 -1.2127
   65TMC2    H1 1015   1.367   2.524  15.788 -1.1437 -3.0856  2.0069
   65TMC2    H2 1016   1.417   2.604  15.372  3.5125 -2.0628 -2.2846
   65TMC2    C7 1017   1.295   2.694  15.581  0.1654  0.3628 -0.3289
   65TMC2    C8 1018   1.456   2.343  15.300  0.8150  0.0375  0.1320
   65TMC2    O1 1019   1.299   2.752  15.474 -0.5912 -0.1802 -0.1080
   65TMC2    O2 1020   1.444   2.225  15.264 -0.4573  0.0015 -0.0699
   65TMC2    O5 1021   1.521   2.445  15.239  0.2664  0.0901 -0.7308
   65TMC2    H5 1022   1.542   2.526  15.290 -0.3508 -0.5937  0.6140
   66MPD2     C 1023   1.441   1.999  15.922 -0.8831 -0.3446  0.7660
   66MPD2    C1 1024   1.358   2.012  15.811 -0.1991 -0.5063 -0.0381
   66MPD2    C2 1025   1.305   1.896  15.748  0.3502  0.0090  0.5833
   66MPD2    C3 1026   1.322   1.772  15.803 -0.2192  0.8220  0.3468
   66MPD2    C4 1027   1.396   1.760  15.922 -0.3701 -0.4211 -0.2000
   66MPD2    C5 1028   1.454   1.876  15.978 -0.4053 -0.0441 -0.1913
   66MPD2     H 1029   1.248   1.904  15.656  2.8900  1.4981 -0.8710
   66MPD2    H1 1030   1.422   1.668  15.973  1.6162  1.1234  1.5871
   66MPD2    H2 1031   1.482   2.087  15.969 -2.4706  0.5727  0.4460
   66MPD2    H3 1032   1.511   1.875  16.070 -0.3473  0.7057 -0.2184
   66MPD2     N 1033   1.284   1.648  15.747 -0.8189  0.0339 -0.4707
   66MPD2    H5 1034   1.277   1.569  15.810  1.4844 -0.3167 -0.6602
   66MPD2    N1 1035   1.340   2.130  15.740 -0.2569 -0.9747  0.0461
   66MPD2    H7 1036   1.285   2.118  15.656 -0.7168 -0.8286  0.3230
   67TMC2    C1 1037   1.845   1.635  14.509  0.2224 -0.1012 -0.1460
   67TMC2    C2 1038   1.785   1.755  14.531 -0.0963  0.1876  0.4973
   67TMC2    C3 1039   1.836   1.840  14.622  0.0134  0.4076 -0.0819
   67TMC2    C4 1040   1.950   1.594  14.592 -0.2772 -0.7787 -0.0167
   67TMC2    C5 1041   1.985   1.681  14.694  0.4023 -0.3901  0.1716
   67TMC2    C6 1042   1.932   1.800  14.708 -0.0840  0.4312 -0.2846
   67TMC2     C 1043   1.797   1.538  14.408  0.3804  0.0333  0.1482
   67TMC2     O 1044   1.857   1.432  14.403  0.8237  0.4584  0.2380
   67TMC2     H 1045   1.700   1.791  14.473  0.5069 -1.5399 -1.4402
   67TMC2    H1 1046   1.996   1.496  14.590  2.4166  0.4877  0.5758
   67TMC2    H2 1047   1.952   1.870  14.788 -0.4431  1.7372 -1.3351
   67TMC2    C7 1048   2.091   1.629  14.779  1.1001  0.1753 -0.1682
   67TMC2    C8 1049   1.806   1.978  14.596 -0.4278 -0.0123 -0.3968
   67TMC2    O1 1050   2.197   1.583  14.731 -0.5256  0.0564 -0.2602
   67TMC2    O2 1051   1.713   2.016  14.526 -0.6122 -0.0584  0.4379
   67TMC2    O5 1052   1.897   2.066  14.631  0.3192 -0.0678 -0.4241
   67TMC2    H5 1053   1.974   2.029  14.679  3.3371 -0.3055 -5.3633
   68MPD2     C 1054   1.624   1.347  14.225 -0.2143 -0.3687  0.2156
   68MPD2    C1 1055   1.588   1.470  14.281  0.1314  0.0306 -0.4119
   68MPD2    C2 1056   1.461   1.518  14.243  0.8120 -0.4583 -0.4435
   68MPD2    C3 1057   1.361   1.435  14.178  0.0492 -0.3074 -0.2520
   68MPD2    C4 1058   1.405   1.312  14.136 -0.1919 -0.4371  0.0410
   68MPD2    C5 1059   1.535   1.274  14.155 -0.3633  0.7057  0.0774
   68MPD2     H 1060   1.435   1.620  14.264 -0.0739 -0.9876  0.9896
   68MPD2    H1 1061   1.336   1.251  14.079  1.4946 -0.9716 -1.3987
   68MPD2    H2 1062   1.723   1.311  14.247 -0.0075 -0.3545 -0.7071
   68MPD2    H3 1063   1.563   1.174  14.122 -3.0799 -0.5539  1.5736
   68MPD2     N 1064   1.226   1.472  14.156  0.1181 -0.6273 -0.3819
   68MPD2    H5 1065   1.171   1.404  14.104  1.7837 -1.7317 -0.6730
   68MPD2    N1 1066   1.669   1.562  14.355  0.4098  0.1736  1.1914
   68MPD2    H7 1067   1.634   1.657  14.366 -2.5638 -0.8675  0.6617
   69TMC2    C1 1068   4.121   2.542  12.529 -0.3265  0.0257 -0.1527
   69TMC2    C2 1069   4.044   2.657  12.531 -0.3172  0.3152 -0.2967
   69TMC2    C3 1070   3.958   2.699  12.433  0.0689  0.4587  0.5294
   69TMC2    C4 1071   4.112   2.466  12.412 -0.6750 -0.9409  0.0466
   69TMC2    C5 1072   4.026   2.508  12.308  0.1778  0.7135  0.0448
   69TMC2    C6 1073   3.957   2.626  12.315  0.6214 -0.1984 -0.0222
   69TMC2     C 1074   4.124   2.473  12.657  0.3415  0.6834 -0.2171
   69TMC2     O 1075   4.039   2.511  12.735  0.1979 -0.1795  0.0836
   69TMC2     H 1076   4.039   2.717  12.621 -1.1138 -2.0431  1.2497
   69TMC2    H1 1077   4.171   2.376  12.412  0.6311 -0.0952  0.8023
   69TMC2    H2 1078   3.904   2.677  12.235  0.6145  1.0289  0.7641
   69TMC2    C7 1079   4.053   2.439  12.180 -0.0287  0.2870 -0.2988
   69TMC2    C8 1080   3.929   2.839  12.428 -0.2363 -0.0057 -0.2943
   69TMC2    O1 1081   4.158   2.374  12.179 -0.6719 -0.8050  0.3271
   69TMC2    O2 1082   4.003   2.928  12.476  0.0243  0.0970 -0.1685
   69TMC2    O5 1083   3.834   2.866  12.336  0.5746 -0.0980  0.0963
   69TMC2    H5 1084   3.778   2.788  12.316  0.8665  0.0491 -1.3048
   70MPD2     C 1085   4.313   2.193  12.777 -0.1841 -0.1319 -0.0663
   70MPD2    C1 1086   4.197   2.261  12.764  0.3951  0.3187  0.8174
   70MPD2    C2 1087   4.091   2.229  12.844  0.2326 -0.4092 -0.7169
   70MPD2    C3 1088   4.107   2.144  12.948 -0.0166  0.1072  0.1037
   70MPD2    C4 1089   4.224   2.084  12.973  0.0933 -0.3404  0.0092
   70MPD2    C5 1090   4.326   2.115  12.887  0.3102  0.0745  0.2782
   70MPD2     H 1091   3.994   2.277  12.834 -0.3085 -1.1235  1.0770
   70MPD2    H1 1092   4.239   2.014  13.055 -1.4555 -0.4632  0.1849
   70MPD2    H2 1093   4.401   2.216  12.717  0.2066  1.7039  1.2008
   70MPD2    H3 1094   4.429   2.084  12.903  0.1602 -0.3828  0.3378
   70MPD2     N 1095   4.000   2.112  13.038  0.7511  0.3664  0.8740
   70MPD2    H5 1096   4.021   2.045  13.111  0.0102  1.0466  1.7137
   70MPD2    N1 1097   4.197   2.358  12.653 -0.3018 -0.1167 -0.6768
   70MPD2    H7 1098   4.264   2.351  12.577  1.0336  0.6654  0.4255
   71TMC2    C1 1099   4.731   2.999   1.479  0.5219  0.7901  0.2861
   71TMC2    C2 1100   0.023   2.961   1.611 -0.0856  0.0484  0.2485
   71TMC2    C3 1101   4.692   2.999   1.722 -0.6302  0.0469  0.1251
   71TMC2    C4 1102   4.621   3.064   1.454  0.2281  0.1471  1.1256
   71TMC2    C5 1103   4.541   3.105   1.564 -0.0401  0.0299  0.5829
   71TMC2    C6 1104   4.586   3.082   1.694  0.1711 -0.0244  0.1122
   71TMC2     C 1105   0.093   2.984   1.379 -0.5111  0.6990  1.0150
   71TMC2     O 1106   0.107   3.075   1.297  0.1470 -0.8934  0.6679
   71TMC2     H 1107   0.108   2.895   1.626  2.0139  2.6138 -0.5429
   71TMC2    H1 1108   4.613   3.092   1.350  1.2910 -1.7715  0.5228
   71TMC2    H2 1109   4.513   3.101   1.772  1.3252 -1.2016  1.4658
   71TMC2    C7 1110   4.410   3.159   1.539  0.7708  0.1867  0.1564
   71TMC2    C8 1111   4.739   2.982   1.857  0.1010 -0.1427  0.3112
   71TMC2    O1 1112   4.364   3.219   1.637  0.5070  1.2134 -0.3398
   71TMC2    O2 1113   4.682   3.016   1.958  0.5877 -0.1391  0.7273
   71TMC2    O5 1114   0.124   3.016   1.839  0.4862 -0.2291  0.3721
   71TMC2    H5 1115   0.144   3.018   1.743 -0.6048  0.3927  0.1608
   72MPD2     C 1116   0.485   2.728   1.161  0.6951  0.7911  0.4775
   72MPD2    C1 1117   0.436   2.856   1.142  0.5947  0.4934  0.7148
   72MPD2    C2 1118   0.334   2.903   1.214  0.1337  0.1539 -0.3378
   72MPD2    C3 1119   0.269   2.824   1.305  1.0407 -0.5747  0.1618
   72MPD2    C4 1120   0.310   2.694   1.315  0.1117  0.2810 -0.0971
   72MPD2    C5 1121   0.414   2.645   1.248  0.5208  0.5349 -0.4137
   72MPD2     H 1122   0.294   3.001   1.191  1.0669  0.9892  1.6226
   72MPD2    H1 1123   0.260   2.630   1.387  1.6684  0.2126  0.9001
   72MPD2    H2 1124   0.573   2.686   1.115  0.2853  3.2313 -2.4704
   72MPD2    H3 1125   0.440   2.541   1.262  2.5800  1.4190  2.1669
   72MPD2     N 1126   0.157   2.862   1.385 -0.6448 -0.3287 -0.3411
   72MPD2    H5 1127   0.113   2.793   1.445  0.6596 -1.2094 -0.3854
   72MPD2    N1 1128   0.503   2.944   1.049  0.0978  0.8019  0.3403
   72MPD2    H7 1129   0.448   3.026   1.023 -2.4068 -1.7486 -2.3781
   73TMC2    C1 1130   0.952   0.225  14.073 -0.1386 -0.7149 -0.4726
   73TMC2    C2 1131   0.826   0.248  14.126 -0.0902  0.3083 -0.3428
   73TMC2    C3 1132   0.787   0.375  14.160  0.2769  0.7488 -0.1035
   73TMC2    C4 1133   1.034   0.328  14.054  0.4105  0.3031 -0.2638
   73TMC2    C5 1134   0.989   0.460  14.077 -0.4343  0.1177 -0.6576
   73TMC2    C6 1135   0.863   0.484  14.125  0.7576 -0.0601  0.2699
   73TMC2     C 1136   0.954   0.143  13.958 -0.1828 -0.1679  0.2599
   73TMC2     O 1137   1.020   0.198  13.869  0.0465  0.1398  0.1676
   73TMC2     H 1138   0.758   0.166  14.144 -2.0065  1.6348 -1.5364
   73TMC2    H1 1139   1.138   0.320  14.026  0.6332 -0.6513  0.8690
   73TMC2    H2 1140   0.828   0.586  14.141  2.7040  0.7291 -0.6133
   73TMC2    C7 1141   1.019   0.542  13.967 -0.0759 -0.2946  0.1008
   73TMC2    C8 1142   0.692   0.388  14.270 -0.4817 -0.0311  0.0796
   73TMC2    O1 1143   1.020   0.662  13.987 -0.0433  0.2099  0.2449
   73TMC2    O2 1144   0.675   0.306  14.360  0.7078  0.5153  0.4148
   73TMC2    O5 1145   0.595   0.471  14.227 -0.2772 -0.2841  0.0065
   73TMC2    H5 1146   0.614   0.522  14.145  1.4162 -0.0869  0.5092
   74MPD2     C 1147   0.939   4.463  13.669 -0.4638 -0.1986 -0.2951
   74MPD2    C1 1148   0.935   4.594  13.633 -0.0005  0.5970 -0.2543
   74MPD2    C2 1149   0.934   4.691  13.734  0.4916 -0.0444 -0.5175
   74MPD2    C3 1150   0.898   4.659  13.858  0.2446  0.1045  0.1313
   74MPD2    C4 1151   0.876   4.530  13.892 -0.8328 -0.2562  0.0918
   74MPD2    C5 1152   0.906   4.434  13.802 -0.1383 -1.0059 -0.4867
   74MPD2     H 1153   0.954   0.052  13.703 -2.2379  1.0512  1.3652
   74MPD2    H1 1154   0.848   4.507  13.994  1.9645  0.5708  1.0478
   74MPD2    H2 1155   0.964   4.386  13.598  1.8855 -0.6934  1.0797
   74MPD2    H3 1156   0.910   4.329  13.830 -1.3811 -0.4427  1.8154
   74MPD2     N 1157   0.884   0.027  13.956 -0.1468 -0.0151  0.7293
   74MPD2    H5 1158   0.834   0.002  14.041  1.6640 -0.5097  1.6368
   74MPD2    N1 1159   0.971   4.630  13.501  0.3830 -0.0682  0.6224
   74MPD2    H7 1160   0.990   4.548  13.443 -0.2056 -0.8912  1.5989
   75TMC2    C1 1161   1.026   1.602  14.145 -0.0083  0.0751 -0.4080
   75TMC2    C2 1162   0.970   1.712  14.198  0.9440  0.1792  0.3563
   75TMC2    C3 1163   0.877   1.779  14.128  0.0138 -0.5757  0.2439
   75TMC2    C4 1164   0.995   1.555  14.019  0.5424  0.3074 -0.2761
   75TMC2    C5 1165   0.897   1.623  13.953 -0.0182  1.0224  0.4150
   75TMC2    C6 1166   0.836   1.731  14.008 -0.1824  0.4018  0.0534
   75TMC2     C 1167   1.166   1.589  14.197 -0.5823  0.3766 -0.4999
   75TMC2     O 1168   1.209   1.669  14.282  0.0048 -0.2716 -0.0303
   75TMC2     H 1169   1.000   1.746  14.297 -0.7200  0.3847  0.7877
   75TMC2    H1 1170   1.044   1.475  13.964 -1.0113  0.0255 -1.2298
   75TMC2    H2 1171   0.792   1.804  13.941  0.3170 -0.3162 -1.0545
   75TMC2    C7 1172   0.847   1.578  13.826 -0.0354 -0.0693 -0.0833
   75TMC2    C8 1173   0.847   1.912  14.168 -0.1542  0.1062  0.1801
   75TMC2    O1 1174   0.902   1.485  13.771 -0.6598  0.4574  0.6391
   75TMC2    O2 1175   0.929   1.974  14.232 -0.7137  0.3592 -0.7802
   75TMC2    O5 1176   0.717   1.919  14.191  0.0091 -0.8426 -0.0423
   75TMC2    H5 1177   0.664   1.878  14.119 -0.5781 -0.4122  0.1418
   76TMC2    C1 1178   0.132   1.755  11.864  0.1730  0.0600  0.5295
   76TMC2    C2 1179   0.034   1.684  11.797 -0.0403  0.5250  0.0870
   76TMC2    C3 1180   4.718   1.568  11.849 -0.0343  0.5261 -0.1630
   76TMC2    C4 1181   0.182   1.703  11.979 -0.4952 -0.0165  0.1308
   76TMC2    C5 1182   0.151   1.575  12.012  0.1431 -0.0807 -0.9323
   76TMC2    C6 1183   0.051   1.509  11.945 -0.5199  0.2238  0.2563
   76TMC2     C 1184   0.161   1.892  11.822  0.0553 -0.8319  0.5664
   76TMC2     O 1185   0.086   1.933  11.738 -0.1104  0.2427  0.0819
   76TMC2     H 1186   4.719   1.734  11.719  1.1148  1.4093 -0.1814
   76TMC2    H1 1187   0.237   1.771  12.044 -0.8200  1.1664 -0.8136
   76TMC2    H2 1188   0.019   1.410  11.976  0.6969  0.1337  1.2417
   76TMC2    C7 1189   0.224   1.502  12.117 -0.0943  0.4827 -1.0600
   76TMC2    C8 1190   4.656   1.470  11.761 -0.2175  0.0895  0.7564
   76TMC2    O1 1191   0.173   1.390  12.137 -0.1836 -0.0676  0.0648
   76TMC2    O2 1192   4.674   1.349  11.761  0.2183  0.0448 -0.4218
   76TMC2    O5 1193   4.572   1.545  11.681  0.1020 -0.1997 -0.0619
   76TMC2    H5 1194   4.567   1.640  11.708  1.4792  0.5367 -2.4059
   77MPD2     C 1195   0.353   2.357  11.866  0.7754 -0.8431 -0.7656
   77MPD2    C1 1196   0.228   2.317  11.826  0.6024  0.2104 -0.0962
   77MPD2    C2 1197   0.195   2.185  11.828  0.0219  0.1000  0.2583
   77MPD2    C3 1198   0.296   2.094  11.868 -0.2097 -0.5957  0.7902
   77MPD2    C4 1199   0.417   2.140  11.911 -0.3501  0.3380 -0.6405
   77MPD2    C5 1200   0.446   2.273  11.907 -0.6506  0.0200 -0.0632
   77MPD2     H 1201   0.100   2.155  11.784 -0.3086  0.3277  0.8196
   77MPD2    H1 1202   0.491   2.078  11.960  0.3603  0.8246 -1.1032
   77MPD2    H2 1203   0.376   2.462  11.883  0.5937 -0.9989  0.4800
   77MPD2    H3 1204   0.541   2.317  11.937 -0.3067 -1.5764  1.1410
   77MPD2     N 1205   0.274   1.949  11.875  0.3582  0.4200  0.5739
   77MPD2    H5 1206   0.346   1.890  11.916 -1.4419 -1.6750  0.7123
   77MPD2    N1 1207   0.125   2.405  11.787  0.3630 -0.3580 -0.1799
   77MPD2    H7 1208   0.037   2.363  11.759 -0.7089  1.4025  0.6245
   78TMC2    C1 1209   1.048   3.053   1.067  0.7718  0.1454  0.7773
   78TMC2    C2 1210   0.935   3.041   1.138 -0.3197 -0.7498 -0.0054
   78TMC2    C3 1211   0.939   2.950   1.245  0.4766 -0.3680 -0.0124
   78TMC2    C4 1212   1.164   2.980   1.098 -0.9354 -0.4047 -0.1492
   78TMC2    C5 1213   1.162   2.902   1.207  0.4184 -0.4477  0.5079
   78TMC2    C6 1214   1.050   2.878   1.284 -0.5452  0.0158  0.0064
   78TMC2     C 1215   1.040   3.109   0.933  0.3101  0.1374  0.3426
   78TMC2     O 1216   1.099   3.055   0.841  0.1348 -0.1686  0.5087
   78TMC2     H 1217   0.841   3.086   1.109  0.6391  1.2237 -0.0352
   78TMC2    H1 1218   1.246   3.000   1.029 -0.1699 -0.3149  0.7948
   78TMC2    H2 1219   1.034   2.803   1.360  1.2179 -1.7334 -1.3482
   78TMC2    C7 1220   1.295   2.842   1.240  0.1970  0.5889  1.1227
   78TMC2    C8 1221   0.809   2.902   1.290 -0.2819 -0.5294 -0.2827
   78TMC2    O1 1222   1.373   2.840   1.146  0.1458 -0.1482  0.0290
   78TMC2    O2 1223   0.799   2.788   1.346 -0.2452 -0.4682  0.2959
   78TMC2    O5 1224   0.760   3.022   1.345 -0.4844 -0.4244 -0.0033
   78TMC2    H5 1225   0.781   3.105   1.297  0.5825 -0.3412  0.5923
   79MPD1     C 1226   1.007   3.539   0.666  0.0085 -0.4021  0.0656
   79MPD1    C1 1227   1.043   3.412   0.624  0.2430 -0.3165 -0.1669
   79MPD1    C2 1228   1.032   3.307   0.709 -0.2417  0.3205 -0.6269
   79MPD1    C3 1229   0.988   3.326   0.835  0.3074 -0.4305 -0.4660
   79MPD1    C4 1230   0.957   3.452   0.878  0.4258 -0.3464  0.2106
   79MPD1    C5 1231   0.964   3.559   0.796  0.7015 -0.0951  0.4502
   79MPD1     H 1232   1.070   3.216   0.663  1.7370  0.6032  0.4386
   79MPD1    H1 1233   0.921   3.472   0.978 -2.3092 -0.2645 -0.8086
   79MPD1    H2 1234   1.016   3.626   0.602 -1.2116  1.8175  2.9310
   79MPD1    H3 1235   0.936   3.657   0.833  0.4682  0.4898 -1.2774
   79MPD1     N 1236   0.978   3.232   0.937 -0.1920 -0.1426  0.3255
   79MPD1    H5 1237   0.950   3.260   1.031 -1.0966 -2.5682  0.7872
   79MPD1    N1 1238   1.077   3.393   0.489  0.1301 -0.3520 -0.1406
   79MPD1    H6 1239   1.092   3.479   0.437 -2.1489  0.1214 -0.0206
   79MPD1    H7 1240   1.162   3.337   0.486 -1.6269 -3.0197 -0.3744
   80TMC2    C1 1241   3.768   1.717  11.905  0.0609 -0.0087  0.2285
   80TMC2    C2 1242   3.833   1.735  11.790  0.1944  0.2266  0.3024
   80TMC2    C3 1243   3.763   1.683  11.681 -0.5930  0.2390 -0.0940
   80TMC2    C4 1244   3.659   1.641  11.925  0.2097 -0.5137 -0.5323
   80TMC2    C5 1245   3.608   1.579  11.814 -0.5246 -0.6119 -0.2385
   80TMC2    C6 1246   3.656   1.598  11.687 -0.1334 -0.4802 -0.1172
   80TMC2     C 1247   3.852   1.733  12.024 -0.0357  0.2179  0.9174
   80TMC2     O 1248   3.967   1.695  12.018 -0.1946 -0.4282 -0.0779
   80TMC2     H 1249   3.928   1.786  11.784  2.1726 -3.5482  0.0498
   80TMC2    H1 1250   3.605   1.654  12.018  1.1815  1.1003 -0.1963
   80TMC2    H2 1251   3.613   1.553  11.599 -1.1478 -0.3402  0.3090
   80TMC2    C7 1252   3.548   1.446  11.832 -0.3698  0.5009  0.7044
   80TMC2    C8 1253   3.816   1.713  11.550  0.4534  0.1921  0.0092
   80TMC2    O1 1254   3.500   1.390  11.731  0.3963  0.2872  0.2906
   80TMC2    O2 1255   3.913   1.654  11.497 -0.6650 -0.0275  1.0173
   80TMC2    O5 1256   3.787   1.847  11.539 -0.4692  0.2822 -0.2379
   80TMC2    H5 1257   3.714   1.872  11.599 -0.4571 -0.1436 -0.0457
   81MPD2     C 1258   3.955   1.717  12.309  0.0114 -0.4863  0.3298
   81MPD2    C1 1259   3.828   1.766  12.269 -0.0238 -0.2631 -0.1975
   81MPD2    C2 1260   3.744   1.811  12.370 -0.2729 -0.1443 -0.1063
   81MPD2    C3 1261   3.790   1.831  12.497  1.0817  0.1657 -0.5481
   81MPD2    C4 1262   3.913   1.780  12.535  0.4684 -0.2378  0.4519
   81MPD2    C5 1263   3.988   1.718  12.446  0.5900 -0.1499  0.1839
   81MPD2     H 1264   3.646   1.837  12.334 -0.0470  0.3153 -0.3859
   81MPD2    H1 1265   3.952   1.782  12.636 -0.9316  1.5179  0.9624
   81MPD2    H2 1266   4.027   1.672  12.241  0.5321  0.7763  0.0492
   81MPD2    H3 1267   4.081   1.676  12.482  0.1165 -0.5861  0.9180
   81MPD2     N 1268   3.712   1.889  12.600  0.6082 -0.6509 -0.3162
   81MPD2    H5 1269   3.754   1.896  12.692 -3.3438  1.8643  1.2824
   81MPD2    N1 1270   3.780   1.767  12.131 -0.4100 -0.5012  0.2319
   81MPD2    H7 1271   3.684   1.796  12.113  0.1152  1.3527  0.3729
   82TMC2    C1 1272   2.408   1.017  11.665  0.4555  0.3190  0.2200
   82TMC2    C2 1273   2.461   1.080  11.770  0.6868 -0.1982 -0.3206
   82TMC2    C3 1274   2.472   1.016  11.881  0.4242 -0.2637 -0.6240
   82TMC2    C4 1275   2.366   0.885  11.664  0.1044 -0.2510  0.2532
   82TMC2    C5 1276   2.383   0.815  11.783  0.1618  0.0141 -0.3896
   82TMC2    C6 1277   2.428   0.883  11.896  0.5036  0.2766 -0.2986
   82TMC2     C 1278   2.377   1.085  11.539  0.1275 -0.4394  0.0341
   82TMC2     O 1279   2.299   1.034  11.462  0.1811  0.4376  0.3813
   82TMC2     H 1280   2.486   1.186  11.768  1.2009 -0.3352 -1.4600
   82TMC2    H1 1281   2.336   0.841  11.570  1.2828 -1.0659  0.2502
   82TMC2    H2 1282   2.427   0.830  11.991  2.9994 -0.9030 -0.9385
   82TMC2    C7 1283   2.299   0.699  11.811 -0.0866  0.0584  0.7666
   82TMC2    C8 1284   2.519   1.087  11.993 -0.1888 -0.0357  0.1241
   82TMC2    O1 1285   2.265   0.694  11.925 -0.3965 -0.2013  0.1674
   82TMC2    O2 1286   2.479   1.204  12.005  0.3131  0.5911  1.3100
   82TMC2    O5 1287   2.560   0.997  12.084  1.2982  0.0880  0.3414
   82TMC2    H5 1288   2.597   0.920  12.036 -1.1318 -0.9030  0.0389
   83MPD2     C 1289   2.399   1.529  11.258  0.7499 -0.1978 -0.1115
   83MPD2    C1 1290   2.311   1.422  11.255 -0.0583 -0.1682 -0.2984
   83MPD2    C2 1291   2.328   1.311  11.338  0.9661  0.1646 -0.1082
   83MPD2    C3 1292   2.431   1.305  11.430 -0.1307 -0.1030 -0.0603
   83MPD2    C4 1293   2.516   1.413  11.435 -0.2317  0.0126  0.6131
   83MPD2    C5 1294   2.503   1.519  11.350  0.6851  0.0414 -0.0013
   83MPD2     H 1295   2.272   1.219  11.323  0.3245  0.4556  0.4851
   83MPD2    H1 1296   2.599   1.425  11.504 -0.6250  0.6105  0.9855
   83MPD2    H2 1297   2.396   1.608  11.184 -1.8021 -0.4982 -0.3289
   83MPD2    H3 1298   2.585   1.591  11.354  0.6615  0.1065 -0.8626
   83MPD2     N 1299   2.454   1.199  11.524  0.1345  0.2475  0.7833
   83MPD2    H5 1300   2.512   1.226  11.603 -1.9808  2.1153  1.7053
   83MPD2    N1 1301   2.213   1.425  11.158  0.2894 -0.2321 -0.0682
   83MPD2    H7 1302   2.217   1.495  11.084  1.1808  1.0122  1.1460
   84TMC2    C1 1303   2.793   0.849  11.539 -0.0087  0.0821  0.4751
   84TMC2    C2 1304   2.678   0.777  11.525  0.3022 -0.9069  0.2522
   84TMC2    C3 1305   2.654   0.710  11.408  0.1539  0.3021 -0.6851
   84TMC2    C4 1306   2.880   0.864  11.442  0.0952  0.1595 -0.1092
   84TMC2    C5 1307   2.861   0.785  11.326  0.2418  0.2242  0.2018
   84TMC2    C6 1308   2.749   0.712  11.311  0.1010 -0.6582  0.6895
   84TMC2     C 1309   2.776   0.964  11.627 -0.1763  0.3266  0.6971
   84TMC2     O 1310   2.736   0.947  11.739 -0.5006 -0.3131 -0.2411
   84TMC2     H 1311   2.604   0.775  11.604  0.0278  1.4361  0.0438
   84TMC2    H1 1312   2.969   0.924  11.456 -3.3122  4.8978  1.2315
   84TMC2    H2 1313   2.733   0.660  11.218 -2.7316 -1.1816  1.4692
   84TMC2    C7 1314   2.968   0.771  11.230  0.7374  0.1478  0.5268
   84TMC2    C8 1315   2.508   0.681  11.375  1.1524  0.2789 -0.0056
   84TMC2    O1 1316   2.940   0.738  11.116 -0.5010  0.1097 -0.2796
   84TMC2    O2 1317   2.426   0.657  11.460  0.3580 -0.3224 -0.5793
   84TMC2    O5 1318   2.482   0.713  11.251 -0.3634  0.3541 -0.3983
   84TMC2    H5 1319   2.567   0.733  11.207 -0.6394  1.8587 -0.2456
   85TMC2    C1 1320   3.392   3.440  16.278  0.8800  0.0502  0.2900
   85TMC2    C2 1321   3.288   3.462  16.188  0.1457 -0.4553  0.0486
   85TMC2    C3 1322   3.309   3.563  16.105  0.0461 -0.0970 -0.3860
   85TMC2    C4 1323   3.505   3.519  16.296  0.0283 -0.4841  0.1204
   85TMC2    C5 1324   3.520   3.615  16.202 -0.2365  0.3490 -1.1017
   85TMC2    C6 1325   3.421   3.645  16.109 -0.1977  0.6899 -0.6548
   85TMC2     C 1326   3.398   3.324  16.361 -0.7725  0.4685 -0.6604
   85TMC2     O 1327   3.490   3.317  16.443  0.3255 -0.0853  0.4082
   85TMC2     H 1328   3.191   3.414  16.191 -0.6849  1.3034  1.2215
   85TMC2    H1 1329   3.586   3.509  16.368  0.9782  3.0588 -0.4659
   85TMC2    H2 1330   3.447   3.689  16.013  1.3273  0.5853 -0.2742
   85TMC2    C7 1331   3.589   3.736  16.246  0.2992  0.2933 -0.2946
   85TMC2    C8 1332   3.241   3.579  15.982 -0.4322  0.3212 -0.3377
   85TMC2    O1 1333   3.659   3.723  16.346  0.3565 -0.1118 -0.4759
   85TMC2    O2 1334   3.231   3.691  15.940 -0.0177  0.1764  0.0715
   85TMC2    O5 1335   3.144   3.483  15.979 -0.2157 -0.0883  0.0287
   85TMC2    H5 1336   3.187   3.398  15.999 -0.1251 -0.2172 -0.7217
   86MPD2     C 1337   3.220   2.851  16.462 -0.0042  1.0564 -0.6319
   86MPD2    C1 1338   3.168   2.895  16.344 -0.7920 -0.1666  0.3937
   86MPD2    C2 1339   3.204   3.020  16.297 -0.2660  0.8165 -0.4210
   86MPD2    C3 1340   3.284   3.102  16.369 -0.6194  0.1869  0.5292
   86MPD2    C4 1341   3.342   3.064  16.487  0.3473 -0.3230  0.8670
   86MPD2    C5 1342   3.313   2.935  16.526  0.0345 -0.2774  0.0013
   86MPD2     H 1343   3.165   3.053  16.201 -0.3585  0.6814 -0.4299
   86MPD2    H1 1344   3.418   3.119  16.541  0.9517  0.2033 -0.5181
   86MPD2    H2 1345   3.210   2.751  16.502 -0.2877  0.8064 -1.3284
   86MPD2    H3 1346   3.358   2.903  16.620  2.9981  3.7823 -0.0688
   86MPD2     N 1347   3.307   3.229  16.320  0.1195 -0.1685  0.2451
   86MPD2    H5 1348   3.250   3.254  16.239  1.1886  0.2504 -0.3781
   86MPD2    N1 1349   3.093   2.807  16.255 -0.4407 -0.3180 -1.1742
   86MPD2    H7 1350   3.074   2.839  16.161 -0.2345 -0.1369 -1.1560
   87TMC2    C1 1351   1.097   1.351   1.448 -0.0960  0.0429 -1.2099
   87TMC2    C2 1352   1.118   1.305   1.571  0.0148  0.6918 -0.0968
   87TMC2    C3 1353   1.009   1.299   1.663  0.0013  0.4491  0.6810
   87TMC2    C4 1354   0.967   1.384   1.403 -0.4912 -0.5791 -0.5159
   87TMC2    C5 1355   0.865   1.372   1.489 -0.1963 -0.4017 -0.1276
   87TMC2    C6 1356   0.885   1.335   1.622  0.1993 -0.7694  0.6584
   87TMC2     C 1357   1.202   1.373   1.355  0.0495  0.2245 -0.8722
   87TMC2     O 1358   1.176   1.347   1.241 -0.6175 -0.4029  0.0008
   87TMC2     H 1359   1.215   1.279   1.612 -1.3377  0.4174  2.9165
   87TMC2    H1 1360   0.961   1.421   1.301  2.9090  0.4483 -0.3526
   87TMC2    H2 1361   0.808   1.339   1.699  1.2561  2.0809  1.5576
   87TMC2    C7 1362   0.731   1.403   1.445  0.1059  0.1647  0.2600
   87TMC2    C8 1363   1.013   1.204   1.769 -0.8204  0.4083 -0.1046
   87TMC2    O1 1364   0.720   1.449   1.336  0.1953 -0.0361 -0.0948
   87TMC2    O2 1365   0.923   1.198   1.856  0.1955 -0.0105  0.1223
   87TMC2    O5 1366   1.050   1.090   1.700 -0.4181  0.6123  0.2242
   87TMC2    H5 1367   1.102   1.103   1.618 -1.9386 -0.3698 -0.8995
   88MPD2     C 1368   0.401   1.419   1.605 -0.4356  0.1877  0.1412
   88MPD2    C1 1369   0.510   1.460   1.532  0.2112  0.1074  0.2108
   88MPD2    C2 1370   0.500   1.581   1.461 -0.3634  0.4416 -0.4862
   88MPD2    C3 1371   0.375   1.644   1.463 -0.1234 -0.3800 -0.4293
   88MPD2    C4 1372   0.270   1.594   1.528 -0.6301 -0.3108  0.4544
   88MPD2    C5 1373   0.282   1.478   1.600 -0.5843 -0.1649 -0.6522
   88MPD2     H 1374   0.586   1.620   1.406 -0.3835  0.7725 -0.2763
   88MPD2    H1 1375   0.179   1.652   1.540 -0.0459  0.2625  2.0237
   88MPD2    H2 1376   0.411   1.335   1.673 -2.3487  0.2170  0.4767
   88MPD2    H3 1377   0.196   1.450   1.660 -0.8935  0.6997 -0.6833
   88MPD2     N 1378   0.351   1.768   1.401  0.3430 -0.8033  0.1650
   88MPD2    H5 1379   0.253   1.790   1.390  0.7734  0.2692 -1.5221
   88MPD2    N1 1380   0.632   1.389   1.535 -0.2928  0.6098  0.7950
   88MPD2    H7 1381   0.632   1.312   1.601 -0.2222  0.5525  0.7276
   89TMC2    C1 1382   2.436   2.989   1.804  0.2555 -0.3865 -0.0022
   89TMC2    C2 1383   2.346   2.938   1.897 -0.7154 -1.3311 -0.0332
   89TMC2    C3 1384   2.408   2.916   2.020  0.1767  0.0870 -0.4934
   89TMC2    C4 1385   2.557   3.047   1.833  0.7940 -0.4805 -0.7039
   89TMC2    C5 1386   2.593   3.043   1.961  0.2750 -0.2541 -0.3019
   89TMC2    C6 1387   2.529   2.966   2.053  0.1472 -0.1568  0.1529
   89TMC2     C 1388   2.379   3.012   1.670  0.6898  0.4971 -0.6332
   89TMC2     O 1389   2.453   3.060   1.579 -0.6261 -0.2071  0.8724
   89TMC2     H 1390   2.252   2.885   1.882 -0.7256 -0.6547 -2.3084
   89TMC2    H1 1391   2.633   3.071   1.760  0.9403 -3.3306 -1.5178
   89TMC2    H2 1392   2.569   2.952   2.152  2.2881 -2.5682 -1.0682
   89TMC2    C7 1393   2.726   3.088   2.000  0.2974 -0.3046 -0.1545
   89TMC2    C8 1394   2.325   2.855   2.123  0.0708 -0.1172  0.6831
   89TMC2    O1 1395   2.781   3.023   2.085  0.2308 -0.8956  0.2063
   89TMC2    O2 1396   2.204   2.843   2.118  0.5315 -0.1262  0.5159
   89TMC2    O5 1397   2.401   2.768   2.187 -0.5355  0.2180 -0.5352
   89TMC2    H5 1398   2.493   2.789   2.160  0.1243 -1.1196  0.6979
   90MPD2     C 1399   1.977   3.137   1.383 -0.2230 -0.6324 -0.1321
   90MPD2    C1 1400   1.928   3.100   1.509 -0.3087 -0.0457  0.3120
   90MPD2    C2 1401   2.017   3.063   1.606 -0.3011  0.1444  0.6090
   90MPD2    C3 1402   2.149   3.061   1.577  0.4392  0.9610  0.1121
   90MPD2    C4 1403   2.193   3.109   1.454 -0.3407  0.0757 -0.6494
   90MPD2    C5 1404   2.109   3.147   1.356 -0.2456 -0.9523  0.7478
   90MPD2     H 1405   1.974   3.026   1.699 -2.7452  1.5396  0.0436
   90MPD2    H1 1406   2.298   3.121   1.431  0.0927 -0.7273  0.9719
   90MPD2    H2 1407   1.904   3.159   1.307 -1.9118  0.7837  1.8900
   90MPD2    H3 1408   2.139   3.193   1.262 -0.5287  0.2066  1.2269
   90MPD2     N 1409   2.238   3.023   1.680  0.5301 -0.3825  0.2277
   90MPD2    H5 1410   2.203   3.009   1.774  0.0380 -1.2334 -0.0833
   90MPD2    N1 1411   1.789   3.080   1.541  0.6821  0.3936  0.4863
   90MPD2    H7 1412   1.757   3.065   1.636  0.3399 -0.3237  0.2619
   91TMC2    C1 1413   3.155   3.910  16.789  0.2398 -0.3926 -0.6015
   91TMC2    C2 1414   3.152   3.909  16.929  0.2834 -0.0659 -0.8308
   91TMC2    C3 1415   3.036   3.869  16.992  0.3713 -0.1023 -0.2562
   91TMC2    C4 1416   3.055   3.870  16.715 -0.4024 -1.1368  0.2686
   91TMC2    C5 1417   2.941   3.822  16.774  0.1644 -0.3220 -0.4447
   91TMC2    C6 1418   2.931   3.829  16.907 -0.4507  0.2391  0.2173
   91TMC2     C 1419   3.277   3.941  16.719 -0.0778 -0.0591 -0.0060
   91TMC2     O 1420   3.283   3.944  16.599 -0.3361 -0.6323  0.5554
   91TMC2     H 1421   3.235   3.958  16.979 -0.3217  1.5791 -1.4330
   91TMC2    H1 1422   3.065   3.869  16.607  1.6712 -1.6406  0.4566
   91TMC2    H2 1423   2.845   3.784  16.956 -0.3376  1.5622  1.6559
   91TMC2    C7 1424   2.815   3.797  16.702  0.6926  0.6444  0.7847
   91TMC2    C8 1425   3.001   3.870  17.134 -0.4794 -0.3539 -0.5365
   91TMC2    O1 1426   2.727   3.738  16.766 -0.0798  0.2654 -0.4042
   91TMC2    O2 1427   2.903   3.822  17.184  0.2459 -0.0255 -0.2198
   91TMC2    O5 1428   3.083   3.950  17.211  0.7125  0.3681  0.2419
   91TMC2    H5 1429   3.159   4.000  17.175  0.9709 -1.6149 -1.9996
   92MPD2     C 1430   3.562   4.012  16.629 -0.0359  0.5398  0.2680
   92MPD2    C1 1431   3.521   3.978  16.754  0.4336 -0.1729  0.0902
   92MPD2    C2 1432   3.618   3.968  16.847 -0.1740 -0.8410 -0.1675
   92MPD2    C3 1433   3.751   3.988  16.815 -0.3256 -0.4065 -0.0107
   92MPD2    C4 1434   3.784   4.025  16.688  0.6775 -0.4885 -0.2083
   92MPD2    C5 1435   3.688   4.038  16.592  0.1761  0.1706 -0.2048
   92MPD2     H 1436   3.587   3.941  16.947  1.8221 -2.6509 -0.0246
   92MPD2    H1 1437   3.887   4.040  16.656  0.7597  2.0265  1.1888
   92MPD2    H2 1438   3.495   4.016  16.543  0.1794  0.0471  0.0799
   92MPD2    H3 1439   3.716   4.059  16.489  0.5200 -0.5839 -0.2670
   92MPD2     N 1440   3.846   3.980  16.924 -0.4671 -0.3255  0.1530
   92MPD2    H5 1441   3.804   3.965  17.015 -1.7182  2.5448  0.0497
   92MPD2    N1 1442   3.386   3.961  16.804 -0.6516 -0.0448  0.4106
   92MPD2    H7 1443   3.377   3.943  16.903  1.2853 -0.2032  0.5585
   93TMC2    C1 1444   1.037   4.094  13.918  0.4538  0.1913  0.0471
   93TMC2    C2 1445   0.962   4.155  14.010 -0.6069 -0.2867  0.2106
   93TMC2    C3 1446   1.020   4.224  14.113 -0.8456 -0.3965  0.3776
   93TMC2    C4 1447   1.170   4.104  13.923  0.4811  0.4198 -0.1045
   93TMC2    C5 1448   1.225   4.167  14.026 -0.6571 -0.5189  0.1897
   93TMC2    C6 1449   1.153   4.240  14.114  0.5711 -0.4812  0.5682
   93TMC2     C 1450   0.992   4.041  13.791  0.0798 -0.6251  0.7104
   93TMC2     O 1451   1.085   4.024  13.708  0.3656 -0.6580 -0.0192
   93TMC2     H 1452   0.855   4.172  14.003 -0.1363  2.0625 -1.0524
   93TMC2    H1 1453   1.238   4.057  13.852  0.6886  1.0966 -0.3515
   93TMC2    H2 1454   1.201   4.289  14.198 -2.1642 -0.6631  2.2518
   93TMC2    C7 1455   1.366   4.188  14.013 -0.8329 -0.5975  0.2102
   93TMC2    C8 1456   0.943   4.319  14.195 -0.3901  0.1947  0.2023
   93TMC2    O1 1457   1.430   4.087  13.976 -0.4120  0.1553  0.1956
   93TMC2    O2 1458   0.983   4.430  14.231 -0.3037 -0.5393 -0.2299
   93TMC2    O5 1459   0.832   4.256  14.235  0.1017 -0.8894 -0.4599
   93TMC2    H5 1460   0.824   4.163  14.206 -1.8532 -0.1755 -2.1563
   94MPD2     C 1461   0.851   3.928  13.556 -0.5621  0.1608  0.8941
   94MPD2    C1 1462   0.795   3.947  13.679 -0.0213  0.3001 -0.3238
   94MPD2    C2 1463   0.661   3.924  13.700 -0.3185 -0.3153  0.0653
   94MPD2    C3 1464   0.586   3.862  13.600 -0.2664 -0.6839 -0.6490
   94MPD2    C4 1465   0.639   3.843  13.476  0.1786  0.3782  0.0884
   94MPD2    C5 1466   0.768   3.881  13.452  0.7970  0.2134 -0.0764
   94MPD2     H 1467   0.613   3.936  13.796 -0.0126  2.8419 -0.1962
   94MPD2    H1 1468   0.585   3.802  13.391 -0.1397  2.0747 -0.5267
   94MPD2    H2 1469   0.951   3.956  13.526 -0.1848 -1.6215  0.4600
   94MPD2    H3 1470   0.810   3.870  13.353  0.2759  1.8518 -0.4782
   94MPD2     N 1471   0.458   3.820  13.615 -0.1452  0.5350 -0.2797
   94MPD2    H5 1472   0.403   3.806  13.530  0.6947 -1.6147 -0.4619
   94MPD2    N1 1473   0.861   4.006  13.788  0.2841 -0.0599  0.5533
   94MPD2    H7 1474   0.816   4.002  13.879 -1.7398  0.5283 -0.4128
   95TMC2    C1 1475   0.696   0.797  16.228 -0.1533  0.2882  0.1464
   95TMC2    C2 1476   0.687   0.662  16.197  0.1822  0.5050 -0.0844
   95TMC2    C3 1477   0.645   0.580  16.299 -0.2652 -0.8034  0.0927
   95TMC2    C4 1478   0.659   0.843  16.353  0.4381 -0.0207  0.5548
   95TMC2    C5 1479   0.626   0.757  16.447 -0.0437  0.2902 -0.7526
   95TMC2    C6 1480   0.612   0.626  16.422  0.7794  0.0559  0.2391
   95TMC2     C 1481   0.752   0.887  16.133  0.0156  0.2163 -0.1008
   95TMC2     O 1482   0.794   0.845  16.027 -0.4398 -0.0307 -0.2609
   95TMC2     H 1483   0.742   0.623  16.112 -0.6274 -4.0858  1.5053
   95TMC2    H1 1484   0.685   0.945  16.380 -2.4444  0.8259  0.0799
   95TMC2    H2 1485   0.588   0.563  16.507 -0.8305  1.6073  0.9443
   95TMC2    C7 1486   0.620   0.807  16.580  0.9714 -0.2450  0.0517
   95TMC2    C8 1487   0.678   0.442  16.299  0.0657  0.1486  0.0915
   95TMC2    O1 1488   0.611   0.929  16.590  0.4462  0.0355  0.6720
   95TMC2    O2 1489   0.731   0.382  16.390  0.5412  0.9375  0.4814
   95TMC2    O5 1490   0.672   0.399  16.171 -0.2078 -0.0509 -0.0782
   95TMC2    H5 1491   0.612   0.446  16.109 -0.3255 -1.7094 -1.2398
   96MPD2     C 1492   0.769   1.384  15.986 -0.0098 -0.0714  0.5923
   96MPD2    C1 1493   0.835   1.277  15.932  0.0462 -0.4322 -0.4924
   96MPD2    C2 1494   0.815   1.148  15.983  0.3392  0.3817 -0.2936
   96MPD2    C3 1495   0.735   1.136  16.093 -0.7510  0.3113  0.2863
   96MPD2    C4 1496   0.682   1.250  16.150  0.2986 -0.0248 -0.1500
   96MPD2    C5 1497   0.688   1.370  16.095 -0.0555 -1.8552 -0.6043
   96MPD2     H 1498   0.858   1.065  15.928 -0.3739  1.0500 -1.8571
   96MPD2    H1 1499   0.621   1.231  16.238  0.9228 -0.0725  0.2741
   96MPD2    H2 1500   0.784   1.486  15.953 -1.6947 -0.0912 -0.2285
   96MPD2    H3 1501   0.645   1.454  16.148  0.2679 -1.3768 -1.0934
   96MPD2     N 1502   0.701   1.015  16.155 -0.2552 -0.9146  0.2522
   96MPD2    H5 1503   0.637   1.027  16.232 -2.1178 -0.8745 -1.3107
   96MPD2    N1 1504   0.919   1.313  15.824  0.2370 -0.0031  0.2798
   96MPD2    H7 1505   0.927   1.412  15.805  0.5483  0.0579  0.7225
   97TMC2    C1 1506   2.709   3.893   0.466 -0.2674 -0.3445 -0.6837
   97TMC2    C2 1507   2.575   3.930   0.462  1.1342  0.0504 -0.2661
   97TMC2    C3 1508   2.551   4.052   0.400 -0.4241  0.0496 -0.0135
   97TMC2    C4 1509   2.813   3.966   0.418  0.1641  0.5003  0.4269
   97TMC2    C5 1510   2.784   4.085   0.361  0.4230  0.0050  0.4660
   97TMC2    C6 1511   2.654   4.130   0.349  0.0341 -0.3022  0.0974
   97TMC2     C 1512   2.734   3.779   0.561 -0.3791  0.3534 -0.3197
   97TMC2     O 1513   2.636   3.730   0.620  0.1647 -0.2033 -0.0788
   97TMC2     H 1514   2.501   3.882   0.525 -0.7819  2.2588 -0.8504
   97TMC2    H1 1515   2.919   3.951   0.432 -0.5150 -1.4316  3.6558
   97TMC2    H2 1516   2.643   4.237   0.332  0.3696 -0.5364 -1.6035
   97TMC2    C7 1517   2.895   4.165   0.322  0.1105 -0.4791 -0.0177
   97TMC2    C8 1518   2.421   4.112   0.419 -0.4943 -0.5334 -0.1569
   97TMC2    O1 1519   2.998   4.142   0.373  0.0713  0.6605 -0.2611
   97TMC2    O2 1520   2.396   4.230   0.414 -0.2727  0.0753  0.1802
   97TMC2    O5 1521   2.330   4.012   0.411 -0.1299 -0.3075 -0.2238
   97TMC2    H5 1522   2.364   3.921   0.397  2.0729  0.5397 -0.3039
   98MPD2     C 1523   3.045   3.447   0.775 -1.1096 -0.7458  0.2521
   98MPD2    C1 1524   2.908   3.450   0.772 -0.4017 -0.3475 -0.2174
   98MPD2    C2 1525   2.850   3.537   0.689  0.9383 -0.2485  0.0729
   98MPD2    C3 1526   2.925   3.626   0.617 -0.4888  0.3612  0.2168
   98MPD2    C4 1527   3.063   3.619   0.619 -0.3941  0.0108  0.2872
   98MPD2    C5 1528   3.124   3.522   0.695  0.2071  0.5783 -0.0214
   98MPD2     H 1529   2.742   3.549   0.685  0.8731 -1.1226 -0.8691
   98MPD2    H1 1530   3.122   3.693   0.567  0.6399 -1.3849 -0.5231
   98MPD2    H2 1531   3.089   3.374   0.842  0.4396 -0.0982 -0.0415
   98MPD2    H3 1532   3.232   3.508   0.692  0.3034  0.7355  2.6089
   98MPD2     N 1533   2.867   3.735   0.550  0.1184  0.2723 -0.7389
   98MPD2    H5 1534   2.929   3.782   0.484  1.9561 -0.6206  0.3473
   98MPD2    N1 1535   2.845   3.367   0.868 -0.1137 -0.0457 -0.1600
   98MPD2    H7 1536   2.906   3.312   0.928 -0.5822  0.1527  0.5054
   99TMC2    C1 1537   1.656   0.698   1.544  0.5649  0.0564  0.3945
   99TMC2    C2 1538   1.722   0.685   1.668 -0.8122  0.2175  0.1124
   99TMC2    C3 1539   1.655   0.709   1.783 -0.1931  0.1533 -0.0547
   99TMC2    C4 1540   1.523   0.720   1.544 -0.6525 -0.9285  0.2218
   99TMC2    C5 1541   1.455   0.725   1.657 -0.7710  1.1874 -0.4120
   99TMC2    C6 1542   1.520   0.730   1.778  0.6120 -0.0707 -0.2467
   99TMC2     C 1543   1.734   0.713   1.424 -0.3932  0.2696 -0.6224
   99TMC2     O 1544   1.854   0.742   1.432 -0.0490 -0.3974  0.1309
   99TMC2     H 1545   1.830   0.670   1.675 -0.5228  2.9531  1.4107
   99TMC2    H1 1546   1.472   0.748   1.453 -0.1363 -1.0261 -0.0961
   99TMC2    H2 1547   1.461   0.742   1.869 -0.0656  0.2396 -0.7248
   99TMC2    C7 1548   1.311   0.743   1.664  0.3213  0.7406 -0.3590
   99TMC2    C8 1549   1.714   0.643   1.899 -0.2078  0.7158 -0.6498
   99TMC2    O1 1550   1.268   0.808   1.758  0.7196  0.0163  0.0964
   99TMC2    O2 1551   1.830   0.666   1.934 -0.3936 -0.3158  0.5171
   99TMC2    O5 1552   1.610   0.593   1.976  0.3102  0.3711 -0.0018
   99TMC2    H5 1553   1.546   0.539   1.924  2.8767 -2.1900 -0.5222
  100MPD2     C 1554   1.827   0.727   1.127  0.0051 -0.3571  0.3974
  100MPD2    C1 1555   1.701   0.738   1.176  0.4554  0.3007 -0.4092
  100MPD2    C2 1556   1.598   0.765   1.088  0.2391  0.3128  0.3788
  100MPD2    C3 1557   1.622   0.772   0.951 -0.5237 -0.7934 -0.2045
  100MPD2    C4 1558   1.748   0.765   0.903 -0.1368 -0.0493  0.1354
  100MPD2    C5 1559   1.849   0.744   0.995  0.5648 -0.4283 -0.1316
  100MPD2     H 1560   1.498   0.783   1.123  0.8623  0.6844  1.9720
  100MPD2    H1 1561   1.779   0.780   0.800  1.1045 -1.5713  0.2861
  100MPD2    H2 1562   1.908   0.706   1.196  0.7023  1.0032 -0.0091
  100MPD2    H3 1563   1.949   0.730   0.957  0.5138 -1.7359  0.1992
  100MPD2     N 1564   1.510   0.778   0.863 -0.1731 -0.1906  0.3743
  100MPD2    H5 1565   1.530   0.772   0.764 -0.6668  0.4576  0.2419
  100MPD2    N1 1566   1.658   0.718   1.309  0.3150  0.2195  0.0068
  100MPD2    H7 1567   1.561   0.698   1.333  0.2906 -1.1767 -1.2735
  101TMC2    C1 1568   2.555   2.478  13.371 -0.6998  0.1712 -0.1944
  101TMC2    C2 1569   2.624   2.425  13.476 -0.3455  0.8920  0.3360
  101TMC2    C3 1570   2.734   2.486  13.512 -0.3496  0.4674  0.6613
  101TMC2    C4 1571   2.612   2.573  13.284 -0.2327 -0.2316 -0.0833
  101TMC2    C5 1572   2.739   2.610  13.315 -0.6303  0.0393 -0.4113
  101TMC2    C6 1573   2.804   2.565  13.425 -0.5383  0.1595 -0.3538
  101TMC2     C 1574   2.444   2.398  13.330 -0.5617  0.0615 -0.1792
  101TMC2     O 1575   2.383   2.338  13.414 -0.3380  0.7216 -0.7788
  101TMC2     H 1576   2.579   2.347  13.537  0.4059 -0.5011 -0.8939
  101TMC2    H1 1577   2.572   2.603  13.187 -0.0704  1.0704  0.2486
  101TMC2    H2 1578   2.895   2.609  13.464 -1.0374  2.8437 -2.1796
  101TMC2    C7 1579   2.829   2.669  13.218 -0.2290 -0.1228  0.1574
  101TMC2    C8 1580   2.810   2.409  13.605  0.0145 -0.0733  0.3557
  101TMC2    O1 1581   2.944   2.627  13.217 -0.4656 -0.4518  0.1114
  101TMC2    O2 1582   2.928   2.391  13.579  0.2431 -0.0197 -0.1193
  101TMC2    O5 1583   2.775   2.450  13.728  0.3654 -0.0469 -0.3367
  101TMC2    H5 1584   2.688   2.493  13.735  0.6785  0.3509  1.1347
  102MPD2     C 1585   2.345   2.321  12.979  0.4120 -0.0129  0.6569
  102MPD2    C1 1586   2.351   2.295  13.114  0.0960  0.0370  0.2341
  102MPD2    C2 1587   2.290   2.183  13.168  0.5043 -0.2608  0.2937
  102MPD2    C3 1588   2.228   2.091  13.089 -0.1004 -0.4264 -0.0844
  102MPD2    C4 1589   2.214   2.125  12.960 -0.1761 -0.1265  0.2354
  102MPD2    C5 1590   2.263   2.242  12.908 -0.0120  0.5936  0.4112
  102MPD2     H 1591   2.290   2.178  13.276 -0.1713  1.1410  0.3538
  102MPD2    H1 1592   2.144   2.070  12.898  0.5615 -0.7526 -0.0302
  102MPD2    H2 1593   2.395   2.405  12.933 -0.7745 -0.0684 -0.7282
  102MPD2    H3 1594   2.259   2.260  12.802 -1.1029 -1.4596  0.1098
  102MPD2     N 1595   2.170   1.979  13.156 -0.3974  0.4106  0.2077
  102MPD2    H5 1596   2.179   1.982  13.257  2.1406  0.3724 -0.0155
  102MPD2    N1 1597   2.427   2.392  13.190 -0.4188  0.0005 -0.1368
  102MPD2    H7 1598   2.489   2.452  13.136  0.9689  0.4015  1.9229
  103TMC2    C1 1599   0.778   1.864  12.586  0.1865  0.4534 -0.7317
  103TMC2    C2 1600   0.896   1.920  12.542  0.5211  0.3227  0.2516
  103TMC2    C3 1601   0.996   1.947  12.637  0.0951  0.2673 -0.6933
  103TMC2    C4 1602   0.757   1.843  12.724  0.2146 -0.0880  0.2633
  103TMC2    C5 1603   0.857   1.878  12.810  0.3246 -0.0228  0.2321
  103TMC2    C6 1604   0.980   1.919  12.771  0.3637 -0.9242  0.1713
  103TMC2     C 1605   0.691   1.783  12.494  0.0036 -0.7837  0.6709
  103TMC2     O 1606   0.699   1.814  12.377 -0.0379 -0.2005  0.5594
  103TMC2     H 1607   0.902   1.954  12.439 -0.8561  1.9977  0.7165
  103TMC2    H1 1608   0.663   1.802  12.762 -0.9219  1.9482 -0.3559
  103TMC2    H2 1609   1.055   1.947  12.844  0.8984 -0.7107 -0.4653
  103TMC2    C7 1610   0.840   1.861  12.955  0.2061  0.3517  0.1455
  103TMC2    C8 1611   1.089   2.046  12.597 -0.1746 -0.4407 -0.2438
  103TMC2    O1 1612   0.945   1.839  13.012 -0.2215 -0.0089 -0.2094
  103TMC2    O2 1613   1.082   2.091  12.487  0.5433 -0.1491  0.1186
  103TMC2    O5 1614   1.209   2.014  12.659  0.4495  0.0851 -0.3701
  103TMC2    H5 1615   1.194   1.965  12.742 -0.8276 -0.8160 -1.1371
  104MPD2     C 1616   0.533   1.437  12.525 -0.1533  0.3946 -0.1657
  104MPD2    C1 1617   0.564   1.566  12.475  0.4088 -0.0166  0.6796
  104MPD2    C2 1618   0.500   1.599  12.356  0.2110  0.2735  0.6132
  104MPD2    C3 1619   0.406   1.512  12.293 -0.3100 -0.2788  0.2658
  104MPD2    C4 1620   0.388   1.384  12.344  0.7155 -0.2296  0.2454
  104MPD2    C5 1621   0.449   1.352  12.460  0.1698  0.7779  0.4433
  104MPD2     H 1622   0.514   1.696  12.311 -0.1071 -1.2839 -2.8226
  104MPD2    H1 1623   0.318   1.313  12.301 -0.0008 -0.0973  1.1704
  104MPD2    H2 1624   0.577   1.402  12.618 -0.8950  0.0846  0.0739
  104MPD2    H3 1625   0.455   1.247  12.488 -2.6111 -0.3125 -3.1442
  104MPD2     N 1626   0.325   1.570  12.183 -0.5406  0.4409  0.5985
  104MPD2    H5 1627   0.333   1.670  12.173 -1.7648  0.1361 -3.2088
  104MPD2    N1 1628   0.651   1.658  12.541  0.0356  0.4282  0.5802
  104MPD2    H7 1629   0.688   1.630  12.631 -0.1327 -1.2433  0.1404
  105TMC2    C1 1630   1.747   1.376   0.575 -0.2495  0.3531  0.3011
  105TMC2    C2 1631   1.620   1.358   0.524  0.4733  0.0294  0.2066
  105TMC2    C3 1632   1.510   1.385   0.597  0.3668 -0.2913 -0.0579
  105TMC2    C4 1633   1.767   1.412   0.701  0.4697 -0.2292 -0.1409
  105TMC2    C5 1634   1.661   1.433   0.778 -0.3412 -0.1791 -0.1957
  105TMC2    C6 1635   1.530   1.406   0.732 -0.0273 -0.0583 -0.7838
  105TMC2     C 1636   1.863   1.355   0.487  0.3863 -0.0396  0.3666
  105TMC2     O 1637   1.976   1.351   0.541 -0.3266  0.0411  0.3318
  105TMC2     H 1638   1.600   1.315   0.427  0.6668  2.1555 -0.7718
  105TMC2    H1 1639   1.869   1.415   0.739 -0.5583 -1.5763  2.7010
  105TMC2    H2 1640   1.440   1.425   0.790  0.5879 -0.8359  0.4312
  105TMC2    C7 1641   1.685   1.463   0.914 -0.0294  0.6466  0.4329
  105TMC2    C8 1642   1.384   1.344   0.554  0.9796 -0.2540 -0.2979
  105TMC2    O1 1643   1.798   1.507   0.943  0.0484  0.0412  0.2738
  105TMC2    O2 1644   1.356   1.225   0.540 -0.0732 -0.1534  0.3161
  105TMC2    O5 1645   1.306   1.436   0.603 -0.1471 -0.3164  0.7631
  105TMC2    H5 1646   1.357   1.517   0.623  0.2165 -0.4063  0.1719
  106MPD2     C 1647   2.037   1.195   0.030  0.5205 -0.4838 -0.7024
  106MPD2    C1 1648   1.933   1.288   0.008 -0.3697 -0.1936 -0.1161
  106MPD2    C2 1649   1.875   1.353   0.115 -0.0413 -0.7373  0.1259
  106MPD2    C3 1650   1.909   1.318   0.247 -0.8403 -0.0018 -0.3864
  106MPD2    C4 1651   2.003   1.213   0.265 -0.3540 -0.5522 -0.2845
  106MPD2    C5 1652   2.070   1.162   0.160 -0.0903 -0.4853 -0.2719
  106MPD2     H 1653   1.796   1.426   0.101  0.2689 -0.4269 -0.0163
  106MPD2    H1 1654   2.016   1.174   0.366 -0.2807  0.6510  0.1746
  106MPD2    H2 1655   2.079   1.135  17.709  0.3481 -0.5797 -0.7208
  106MPD2    H3 1656   2.131   1.075   0.183 -1.3028 -1.4513 -0.6928
  106MPD2     N 1657   1.833   1.359   0.355 -0.6259  0.6917  0.2089
  106MPD2    H5 1658   1.754   1.416   0.327  0.0968  0.3626 -2.4722
  106MPD2    N1 1659   1.894   1.323  17.639 -0.0407  0.2241  0.4646
  106MPD2    H7 1660   1.814   1.385  17.632 -0.1151  0.3115  2.0650
  107TMC2    C1 1661   2.556   1.437  12.318  0.3853 -0.2848  0.1414
  107TMC2    C2 1662   2.570   1.549  12.394  0.1881 -0.0189 -0.5017
  107TMC2    C3 1663   2.659   1.637  12.342 -0.1726 -0.7635 -0.4574
  107TMC2    C4 1664   2.618   1.419  12.192 -0.1933  0.1028 -0.3531
  107TMC2    C5 1665   2.712   1.513  12.152  0.7709 -0.4732  0.2745
  107TMC2    C6 1666   2.727   1.625  12.227 -0.9073 -0.5724  0.1848
  107TMC2     C 1667   2.453   1.346  12.368  0.1578  0.3941 -0.4748
  107TMC2     O 1668   2.426   1.358  12.486 -0.3306 -0.3677  0.2644
  107TMC2     H 1669   2.534   1.564  12.495 -0.0875  1.1021 -0.7661
  107TMC2    H1 1670   2.603   1.326  12.139  0.1407  1.0723 -2.1638
  107TMC2    H2 1671   2.786   1.706  12.185 -0.3159 -1.1092 -0.0153
  107TMC2    C7 1672   2.770   1.506  12.018  1.0571 -0.4692  0.2907
  107TMC2    C8 1673   2.683   1.761  12.414 -0.8423  0.1751  0.6964
  107TMC2    O1 1674   2.836   1.605  11.983 -0.6371 -0.4570  0.4978
  107TMC2    O2 1675   2.777   1.834  12.392  0.1678 -0.1813  0.5232
  107TMC2    O5 1676   2.563   1.801  12.442 -1.0108  0.8076  0.0925
  107TMC2    H5 1677   2.494   1.731  12.436  0.5869 -0.6886 -1.0050
  108MPD2     C 1678   2.218   1.110  12.213 -1.5129 -0.5351 -0.9017
  108MPD2    C1 1679   2.280   1.173  12.308  0.0435 -0.3549  0.1889
  108MPD2    C2 1680   2.239   1.141  12.436  0.0311 -0.1654  0.9389
  108MPD2    C3 1681   2.143   1.051  12.466  0.1195 -0.3143  0.0982
  108MPD2    C4 1682   2.091   0.974  12.359 -0.3779  0.0205 -0.0099
  108MPD2    C5 1683   2.125   1.010  12.232  0.4413 -0.0884  0.2203
  108MPD2     H 1684   2.279   1.203  12.515  1.5677  0.3882 -0.2516
  108MPD2    H1 1685   2.009   0.906  12.380  1.7091 -1.9752  1.6343
  108MPD2    H2 1686   2.242   1.121  12.107 -1.4198 -1.1822 -0.9432
  108MPD2    H3 1687   2.082   0.956  12.149  0.3054 -2.4024  1.7852
  108MPD2     N 1688   2.107   1.018  12.599 -0.4257 -0.3806 -0.5778
  108MPD2    H5 1689   2.059   0.930  12.610 -2.3737  0.7366 -0.0507
  108MPD2    N1 1690   2.378   1.273  12.273 -0.2980 -0.1194 -0.1074
  108MPD2    H7 1691   2.412   1.273  12.177 -0.2859  1.1716 -0.1139
  109TMC2    C1 1692   2.905   2.505   1.877 -0.2761 -0.1554 -0.6386
  109TMC2    C2 1693   2.999   2.444   1.953  0.1440  0.2173  0.3318
  109TMC2    C3 1694   3.125   2.446   1.903 -0.0174 -0.5058 -1.0996
  109TMC2    C4 1695   2.941   2.555   1.754  0.1033 -0.1812 -0.2390
  109TMC2    C5 1696   3.075   2.563   1.723 -0.0972  0.2961  0.7838
  109TMC2    C6 1697   3.169   2.500   1.791 -0.2900  0.2329  0.1568
  109TMC2     C 1698   2.767   2.493   1.914 -0.1093 -0.2729 -0.6680
  109TMC2     O 1699   2.748   2.479   2.035  0.0807 -0.0479 -0.1353
  109TMC2     H 1700   2.977   2.400   2.050 -1.4994 -1.5194 -0.8248
  109TMC2    H1 1701   2.866   2.604   1.693  0.6620  0.9171 -0.0511
  109TMC2    H2 1702   3.274   2.514   1.769  0.4699 -1.6329  2.5595
  109TMC2    C7 1703   3.110   2.593   1.589 -0.5746  0.2043 -0.7151
  109TMC2    C8 1704   3.210   2.362   1.979  0.1825 -0.4946 -0.2172
  109TMC2    O1 1705   3.196   2.526   1.534 -0.5419  0.1798  0.5506
  109TMC2    O2 1706   3.205   2.342   2.102  0.3613  0.1993  0.0001
  109TMC2    O5 1707   3.254   2.267   1.889 -0.4849  0.2101  0.3381
  109TMC2    H5 1708   3.241   2.289   1.794  0.3880 -2.3017 -0.3750
  110MPD2     C 1709   2.267   2.598   1.839  0.7386 -0.3632 -0.4703
  110MPD2    C1 1710   2.336   2.614   1.722 -0.7238  0.0345 -0.1977
  110MPD2    C2 1711   2.468   2.576   1.714 -0.2356 -0.1734  1.0360
  110MPD2    C3 1712   2.533   2.533   1.827 -0.6269 -0.0900 -0.8198
  110MPD2    C4 1713   2.465   2.536   1.944  0.1886 -0.0090  1.1067
  110MPD2    C5 1714   2.333   2.562   1.951  0.4688 -1.2885 -0.7589
  110MPD2     H 1715   2.517   2.577   1.618  2.7054 -0.1552  2.5428
  110MPD2    H1 1716   2.520   2.518   2.036  1.3684  1.4435  0.6877
  110MPD2    H2 1717   2.162   2.624   1.839  0.2013 -2.5562 -1.4231
  110MPD2    H3 1718   2.285   2.572   2.048 -1.0455  1.7140 -1.8365
  110MPD2     N 1719   2.672   2.515   1.814  0.3990  0.3065  0.2620
  110MPD2    H5 1720   2.711   2.524   1.721  0.6133 -0.4296  0.2845
  110MPD2    N1 1721   2.255   2.664   1.617 -0.1930 -0.1775  0.2220
  110MPD2    H7 1722   2.158   2.682   1.637  0.3613  2.7886  0.2395
  111TMC2    C1 1723   3.017   3.226  11.643 -0.1616  0.8826  0.5493
  111TMC2    C2 1724   3.043   3.360  11.664 -0.3454 -0.2634 -0.2741
  111TMC2    C3 1725   3.104   3.388  11.782  0.0240 -0.7385 -0.0034
  111TMC2    C4 1726   3.051   3.126  11.727 -0.3302  0.3455  0.4634
  111TMC2    C5 1727   3.117   3.165  11.840  0.1120 -0.5335  0.1712
  111TMC2    C6 1728   3.148   3.293  11.871  0.0167  0.0945  0.1263
  111TMC2     C 1729   2.923   3.188  11.538 -0.1498 -0.2108  0.4036
  111TMC2     O 1730   2.862   3.278  11.482  0.2737  0.2525  0.3951
  111TMC2     H 1731   3.004   3.439  11.600 -0.4722 -0.4137 -0.3806
  111TMC2    H1 1732   3.005   3.028  11.731 -2.3537  1.1609 -3.0652
  111TMC2    H2 1733   3.217   3.314  11.952  0.3620  1.3984 -0.5103
  111TMC2    C7 1734   3.190   3.059  11.910  0.4751  0.7354 -0.2678
  111TMC2    C8 1735   3.134   3.530  11.810 -0.0273  0.3671  0.0769
  111TMC2    O1 1736   3.248   3.096  12.013  0.0745  0.2026 -0.6348
  111TMC2    O2 1737   3.191   3.599  11.727  0.2273 -0.7353  0.7215
  111TMC2    O5 1738   3.157   3.545  11.940 -0.4757 -0.0942  0.0723
  111TMC2    H5 1739   3.105   3.480  11.991 -1.2826  1.8397  1.7260
  112MPD2     C 1740   2.757   2.834  11.206  0.1817  0.3213 -0.0990
  112MPD2    C1 1741   2.716   2.968  11.231 -0.0562  0.4481  0.1062
  112MPD2    C2 1742   2.783   3.047  11.321  0.1278 -0.1679 -0.0558
  112MPD2    C3 1743   2.890   2.994  11.388  0.1824  0.3272 -0.1119
  112MPD2    C4 1744   2.935   2.868  11.364 -0.1186 -0.1011  0.3380
  112MPD2    C5 1745   2.870   2.790  11.268  0.4244  0.5039  0.0449
  112MPD2     H 1746   2.748   3.148  11.339 -1.1048 -0.5628 -0.2200
  112MPD2    H1 1747   3.016   2.824  11.421  0.6093  0.3675 -0.3519
  112MPD2    H2 1748   2.699   2.763  11.148 -0.8952  1.2673 -0.1676
  112MPD2    H3 1749   2.904   2.690  11.247  0.4334  0.3177  0.9319
  112MPD2     N 1750   2.950   3.062  11.497  0.0080  0.4242  0.3173
  112MPD2    H5 1751   3.024   3.012  11.544  1.9774  0.9740 -2.1745
  112MPD2    N1 1752   2.613   3.029  11.156  0.2413 -0.0808 -0.4808
  112MPD2    H7 1753   2.611   3.130  11.170  3.4117 -0.1024  0.1414
  113TMC2    C1 1754   0.351   0.549   0.560  0.0939 -0.1890 -0.1413
  113TMC2    C2 1755   0.279   0.656   0.525  0.4972 -0.0732  0.1055
  113TMC2    C3 1756   0.154   0.636   0.468  0.4831 -0.1603 -0.1137
  113TMC2    C4 1757   0.318   0.427   0.521 -0.5467  0.6398 -0.2145
  113TMC2    C5 1758   0.199   0.408   0.450  0.9911  0.1147  0.5455
  113TMC2    C6 1759   0.116   0.518   0.422 -0.1928 -0.0696  0.3610
  113TMC2     C 1760   0.478   0.588   0.629  0.8397 -0.0190  0.1817
  113TMC2     O 1761   0.503   0.707   0.627 -0.0070  0.2433 -0.4604
  113TMC2     H 1762   0.316   0.757   0.536  0.2148 -0.0265  0.6132
  113TMC2    H1 1763   0.376   0.338   0.542 -1.1852  0.0743 -0.8098
  113TMC2    H2 1764   0.022   0.509   0.369  0.1781  0.5062 -0.4135
  113TMC2    C7 1765   0.158   0.279   0.405 -0.2003 -0.6154  0.4184
  113TMC2    C8 1766   0.064   0.749   0.441  0.0409  0.0039 -0.2554
  113TMC2    O1 1767   0.079   0.278   0.311 -0.1329  0.2800 -0.1134
  113TMC2    O2 1768   4.734   0.748   0.341  0.0736 -0.7225  0.0263
  113TMC2    O5 1769   0.050   0.823   0.546  0.9612  0.1549  0.5237
  113TMC2    H5 1770   0.108   0.789   0.618  0.4172 -0.2119  0.7875
  114MPD2     C 1771   0.912   0.485   0.866 -0.1554 -0.9344 -0.7196
  114MPD2    C1 1772   0.838   0.601   0.869 -0.5912 -0.2289 -0.6798
  114MPD2    C2 1773   0.720   0.605   0.802  0.4307  0.6986  0.2371
  114MPD2    C3 1774   0.676   0.494   0.737  0.2323 -0.1866 -0.1322
  114MPD2    C4 1775   0.750   0.381   0.724 -0.4650 -0.6256 -0.0034
  114MPD2    C5 1776   0.872   0.381   0.788  0.0214  0.5035  0.7562
  114MPD2     H 1777   0.661   0.695   0.814  0.6834  0.7575  1.0276
  114MPD2    H1 1778   0.707   0.288   0.689 -0.1501 -0.5802 -0.5116
  114MPD2    H2 1779   1.012   0.477   0.908 -0.0345 -1.4912 -1.1056
  114MPD2    H3 1780   0.933   0.292   0.775 -0.6558 -0.0012  1.0484
  114MPD2     N 1781   0.551   0.487   0.672 -0.1109 -0.0516 -0.1653
  114MPD2    H5 1782   0.531   0.394   0.636 -0.2492  0.7088 -2.0915
  114MPD2    N1 1783   0.864   0.704   0.962 -0.1631 -0.1305  0.3777
  114MPD2    H7 1784   0.795   0.778   0.966  1.2948  1.2321  0.3140
  115TMC2    C1 1785   1.363   2.726  17.582 -0.2918 -0.5300  1.1851
  115TMC2    C2 1786   1.498   2.712  17.577 -0.2306 -0.5589  0.2251
  115TMC2    C3 1787   1.574   2.804  17.639 -0.2288 -0.0770 -0.2696
  115TMC2    C4 1788   1.300   2.824  17.652  0.7676  0.5084  0.0163
  115TMC2    C5 1789   1.383   2.920  17.708 -0.5749 -0.0120  0.1954
  115TMC2    C6 1790   1.521   2.916  17.695 -0.1492 -0.0895 -0.1017
  115TMC2     C 1791   1.275   2.640  17.506  0.0291 -0.3266  0.3546
  115TMC2     O 1792   1.329   2.589  17.408  0.7641  0.3018 -0.8792
  115TMC2     H 1793   1.546   2.624  17.538  0.3714 -0.4623  0.7445
  115TMC2    H1 1794   1.192   2.836  17.649  0.9912  2.0541 -2.0814
  115TMC2    H2 1795   1.576   3.003  17.729  0.5609 -1.1743  1.5360
  115TMC2    C7 1796   1.324   3.022   0.025  0.0980  0.1184  0.2062
  115TMC2    C8 1797   1.714   2.789  17.620 -0.2252 -0.1506 -0.0641
  115TMC2    O1 1798   1.216   3.004   0.076 -0.1836  0.2786 -0.1530
  115TMC2    O2 1799   1.746   2.737  17.517  0.1674 -0.1473 -0.6768
  115TMC2    O5 1800   1.778   2.897  17.665  0.2659 -0.3597  0.5772
  115TMC2    H5 1801   1.760   2.900   0.001  1.8353 -2.0772  0.9270
  116MPD2     C 1802   0.820   2.476  17.310 -0.1788  0.3614  0.3621
  116MPD2    C1 1803   0.951   2.474  17.263  0.5087 -0.0189  0.4795
  116MPD2    C2 1804   1.053   2.509  17.346  0.3816 -0.6141  0.0145
  116MPD2    C3 1805   1.036   2.564  17.473  0.0941 -0.5165 -0.1887
  116MPD2    C4 1806   0.910   2.558  17.518 -0.4935 -0.3828 -1.3725
  116MPD2    C5 1807   0.801   2.521  17.439  0.3984 -0.8526 -0.6442
  116MPD2     H 1808   1.153   2.516  17.304  1.6259 -2.2707  2.6856
  116MPD2    H1 1809   0.881   2.602  17.613 -1.0561 -0.9246 -1.2927
  116MPD2    H2 1810   0.736   2.444  17.251  1.2980 -0.4640 -1.2735
  116MPD2    H3 1811   0.700   2.516  17.479  0.3664  1.1837 -0.4812
  116MPD2     N 1812   1.144   2.626  17.548 -0.2663 -0.5581 -0.6949
  116MPD2    H5 1813   1.124   2.672  17.636 -1.8724  1.1360 -1.9597
  116MPD2    N1 1814   0.975   2.455  17.125 -0.3686  0.5047 -0.2472
  116MPD2    H7 1815   1.072   2.449  17.097  0.1349  3.4160  0.8369
  117TMC2    C1 1816   0.194   4.698  14.200 -0.2360  0.0393 -0.0974
  117TMC2    C2 1817   0.283   4.596  14.222  0.2289 -0.5743  0.7172
  117TMC2    C3 1818   0.420   4.613  14.209  0.6252 -0.0318 -0.8634
  117TMC2    C4 1819   0.237   0.082  14.158 -0.5986 -0.2659 -0.2699
  117TMC2    C5 1820   0.373   0.092  14.141  0.2271  0.2075  0.0059
  117TMC2    C6 1821   0.467   4.735  14.169 -0.4170 -0.2150  0.2860
  117TMC2     C 1822   0.051   4.665  14.192  0.4955  0.7958 -0.5326
  117TMC2     O 1823   0.025   4.546  14.184  0.4280  0.3298  0.3064
  117TMC2     H 1824   0.245   4.502  14.261 -3.6674  1.1739  1.0856
  117TMC2    H1 1825   0.172   0.163  14.126 -1.0761 -1.6142 -2.7023
  117TMC2    H2 1826   0.570   0.008  14.138 -0.4504 -0.0972  0.2273
  117TMC2    C7 1827   0.419   0.204  14.065  0.3279  0.7391  0.2125
  117TMC2    C8 1828   0.508   4.497  14.173 -0.4605  0.5871 -0.0739
  117TMC2    O1 1829   0.351   0.308  14.054 -0.3918 -0.1669 -0.2918
  117TMC2    O2 1830   0.628   4.498  14.156  0.1036  0.3426  0.4958
  117TMC2    O5 1831   0.428   4.397  14.126 -0.1272 -0.3118 -0.2520
  117TMC2    H5 1832   0.333   4.418  14.137 -0.2217 -1.7617  1.8116
  118MPD2     C 1833   0.659   0.185  13.788  0.1472  0.3793  0.0597
  118MPD2    C1 1834   0.579   0.249  13.878  1.0751 -0.0739  0.2546
  118MPD2    C2 1835   0.570   0.384  13.874 -0.5520 -0.0216  0.4686
  118MPD2    C3 1836   0.659   0.445  13.786 -0.2287 -0.0333  0.4244
  118MPD2    C4 1837   0.728   0.379  13.682  0.0662  0.3766  1.1527
  118MPD2    C5 1838   0.729   0.241  13.683 -0.4074 -0.1415  0.4590
  118MPD2     H 1839   0.510   0.440  13.944 -0.9920  1.5241 -1.1624
  118MPD2    H1 1840   0.790   0.433  13.612 -0.1194 -0.2163  0.5272
  118MPD2    H2 1841   0.660   0.077  13.788  3.4115  0.4178  1.4269
  118MPD2    H3 1842   0.780   0.181  13.609  1.5323  1.7599  0.2654
  118MPD2     N 1843   0.671   0.588  13.785  0.0707  0.0807 -0.1699
  118MPD2    H5 1844   0.718   0.634  13.707 -0.5948  2.6062  0.9242
  118MPD2    N1 1845   0.514   0.166  13.977  0.0248 -0.0774  0.2750
  118MPD2    H7 1846   0.535   0.068  13.966  2.3951  0.4135  0.4076
  119TMC2    C1 1847   2.563   1.621  13.046 -0.2445 -0.5138 -0.3350
  119TMC2    C2 1848   2.535   1.733  12.974 -0.0583 -0.0147 -0.2807
  119TMC2    C3 1849   2.405   1.735  12.923  0.2705 -0.1598  0.4745
  119TMC2    C4 1850   2.476   1.522  13.075 -0.1992 -0.1113  0.9549
  119TMC2    C5 1851   2.353   1.529  13.017  0.2434 -0.7400  0.0392
  119TMC2    C6 1852   2.314   1.638  12.947 -0.2407  0.3581 -0.1832
  119TMC2     C 1853   2.662   1.638  13.145  0.0639 -0.2826  0.1220
  119TMC2     O 1854   2.642   1.569  13.245  0.1782  0.4335  0.1995
  119TMC2     H 1855   2.603   1.814  12.952 -0.4793  0.6378  0.8712
  119TMC2    H1 1856   2.512   1.433  13.125  1.6986  0.4796  0.6618
  119TMC2    H2 1857   2.213   1.635  12.907 -0.7273  3.9855  0.8016
  119TMC2    C7 1858   2.247   1.450  13.073 -0.0559 -0.3838 -0.2597
  119TMC2    C8 1859   2.393   1.828  12.804 -0.4760  0.4265 -0.1163
  119TMC2    O1 1860   2.149   1.436  12.998 -0.5144  0.2111  0.5403
  119TMC2    O2 1861   2.480   1.808  12.723 -0.3578 -0.3559  0.2466
  119TMC2    O5 1862   2.264   1.828  12.776 -0.5210 -0.2146  0.4862
  119TMC2    H5 1863   2.216   1.870  12.850 -0.9775 -0.0760  0.1060
  120MPD2     C 1864   3.135   1.764  13.324 -0.0594 -0.2044 -1.0197
  120MPD2    C1 1865   3.018   1.701  13.380 -0.2169  0.0656  0.3330
  120MPD2    C2 1866   2.903   1.684  13.307  0.2982 -0.0193  0.0876
  120MPD2    C3 1867   2.882   1.749  13.185 -0.5677 -0.2247 -0.1062
  120MPD2    C4 1868   2.989   1.819  13.135 -1.0815 -0.2004 -0.1473
  120MPD2    C5 1869   3.113   1.818  13.197 -0.2059  0.6122 -0.1394
  120MPD2     H 1870   2.828   1.621  13.354  1.2318 -1.2696 -0.0696
  120MPD2    H1 1871   2.982   1.873  13.041 -1.5573 -0.3375 -0.1925
  120MPD2    H2 1872   3.225   1.785  13.381 -0.0731 -0.5160 -0.8822
  120MPD2    H3 1873   3.184   1.887  13.155 -0.4641 -0.1796 -1.8558
  120MPD2     N 1874   2.762   1.732  13.113  0.3076  0.0193  0.9235
  120MPD2    H5 1875   2.764   1.790  13.030  1.3595 -0.2051  0.8022
  120MPD2    N1 1876   3.032   1.649  13.511  0.0185 -0.4114  0.2462
  120MPD2    H7 1877   3.122   1.657  13.556  0.0934  0.9370 -0.1407
  121TMC2    C1 1878   0.166   3.123  14.128 -0.1668  0.2072 -0.0478
  121TMC2    C2 1879   0.193   3.255  14.131  0.2312  0.4355 -0.1227
  121TMC2    C3 1880   0.183   3.322  14.248  0.3840  0.4079 -0.6915
  121TMC2    C4 1881   0.138   3.058  14.243 -0.5854  0.9012 -0.4223
  121TMC2    C5 1882   0.149   3.126  14.358  0.0152  0.1657 -0.1252
  121TMC2    C6 1883   0.171   3.255  14.367  0.9087  0.4747  0.0200
  121TMC2     C 1884   0.144   3.062  13.999 -0.0391 -0.0670 -0.1119
  121TMC2     O 1885   0.149   3.123  13.892  0.3944 -0.1519 -0.3847
  121TMC2     H 1886   0.192   3.310  14.038  0.1028 -1.9128 -1.4989
  121TMC2    H1 1887   0.108   2.954  14.245 -0.1709  0.7667 -1.0889
  121TMC2    H2 1888   0.176   3.294  14.467  1.1083 -0.0394  0.2130
  121TMC2    C7 1889   0.102   3.061  14.477  0.3851  0.6612  0.0289
  121TMC2    C8 1890   0.243   3.458  14.259 -0.0741 -0.4229  0.2452
  121TMC2    O1 1891   0.159   3.085  14.582 -0.3667 -0.1197  0.3081
  121TMC2    O2 1892   0.282   3.504  14.364 -0.0475  0.2490  0.5015
  121TMC2    O5 1893   0.309   3.483  14.144  0.5336  0.8873  0.0705
  121TMC2    H5 1894   0.253   3.451  14.070  0.9968 -0.0772  0.1260
  122MPD2     C 1895   0.203   2.709  13.943 -0.3372  0.6445 -0.1278
  122MPD2    C1 1896   0.151   2.833  13.903 -0.0263 -0.3372 -0.3506
  122MPD2    C2 1897   0.127   2.862  13.771  0.3370 -0.3605  0.0612
  122MPD2    C3 1898   0.154   2.770  13.676  0.8329  0.2697  0.6087
  122MPD2    C4 1899   0.209   2.649  13.715 -0.4558 -0.1050 -0.1220
  122MPD2    C5 1900   0.219   2.612  13.846 -0.0565 -0.5975  1.1601
  122MPD2     H 1901   0.088   2.959  13.743  0.7002  0.0796  1.0958
  122MPD2    H1 1902   0.224   2.576  13.637 -1.3066 -1.9758  1.4785
  122MPD2    H2 1903   0.224   2.684  14.046 -0.7583  3.4924  0.6345
  122MPD2    H3 1904   0.241   2.509  13.871  0.7506 -0.7806 -0.2959
  122MPD2     N 1905   0.129   2.782  13.538  0.5741  0.9897  0.3178
  122MPD2    H5 1906   0.147   2.707  13.472 -1.3466  0.6462  0.1805
  122MPD2    N1 1907   0.151   2.928  14.011 -0.0034 -0.0748  0.3199
  122MPD2    H7 1908   0.155   2.883  14.102 -0.2562  1.0814  0.9151
  123TMC2    C1 1909   3.057   2.308  10.192 -0.5266  0.3508  0.2763
  123TMC2    C2 1910   3.140   2.417  10.162 -0.0278 -0.2017  0.3404
  123TMC2    C3 1911   3.178   2.437  10.031  0.0206  0.3923 -0.7107
  123TMC2    C4 1912   3.003   2.233  10.092  0.3784 -0.3436  0.8343
  123TMC2    C5 1913   3.026   2.274   9.960 -0.3775  0.0746 -0.0186
  123TMC2    C6 1914   3.118   2.371   9.928 -0.1480  0.3163 -0.0411
  123TMC2     C 1915   3.094   2.243  10.308  1.0116 -0.6784  0.1994
  123TMC2     O 1916   3.131   2.301  10.409 -0.0174 -0.2204  0.5694
  123TMC2     H 1917   3.197   2.469  10.238 -0.8992 -0.9681  1.5111
  123TMC2    H1 1918   2.924   2.161  10.110 -0.8838  0.3425 -2.0256
  123TMC2    H2 1919   3.145   2.402   9.827  1.5949 -1.2902 -0.0682
  123TMC2    C7 1920   2.999   2.167   9.864 -0.6382 -0.1320 -0.1698
  123TMC2    C8 1921   3.301   2.505  10.007  0.1220 -0.6929  0.2155
  123TMC2    O1 1922   2.966   2.056   9.908 -0.4154  0.5905 -1.0246
  123TMC2    O2 1923   3.310   2.620  10.043  0.3983  0.9090  0.1743
  123TMC2    O5 1924   3.391   2.415   9.962  0.5066  0.6329  0.3248
  123TMC2    H5 1925   3.361   2.322   9.961  1.3026  0.3661  1.2926
  124MPD2     C 1926   3.226   1.770  10.502 -0.0194 -0.1199  0.1811
  124MPD2    C1 1927   3.150   1.759  10.392  0.9798 -0.7113 -0.5228
  124MPD2    C2 1928   3.106   1.871  10.331 -0.5055 -0.2284  0.6755
  124MPD2    C3 1929   3.138   1.994  10.367 -0.1447  0.0784 -0.7127
  124MPD2    C4 1930   3.206   2.015  10.484 -0.0649 -0.7627 -0.1373
  124MPD2    C5 1931   3.258   1.899  10.547 -0.0297  0.3863  0.1374
  124MPD2     H 1932   3.060   1.856  10.234  0.8311 -0.6720  0.1045
  124MPD2    H1 1933   3.236   2.114  10.516  1.3227 -1.9070  2.1546
  124MPD2    H2 1934   3.263   1.679  10.547 -1.1940 -1.1086 -0.8771
  124MPD2    H3 1935   3.328   1.913  10.628 -0.0494 -1.3991  0.4744
  124MPD2     N 1936   3.089   2.102  10.285 -0.3193  0.1260 -0.4371
  124MPD2    H5 1937   3.068   2.073  10.190 -1.5046 -0.9709  0.1566
  124MPD2    N1 1938   3.129   1.634  10.343  0.9028 -0.0452 -0.4959
  124MPD2    H7 1939   3.141   1.556  10.408 -1.7197  0.2250  0.3131
  125TMC2    C1 1940   4.225   3.757   9.684  1.2092  0.2408 -0.2222
  125TMC2    C2 1941   4.324   3.847   9.713 -0.6394 -0.0905 -0.2436
  125TMC2    C3 1942   4.432   3.858   9.630  0.6854 -0.6335  0.2495
  125TMC2    C4 1943   4.249   3.661   9.589 -0.0121 -0.5276  0.7287
  125TMC2    C5 1944   4.364   3.667   9.514  0.1519  0.3034 -0.4814
  125TMC2    C6 1945   4.461   3.758   9.537  0.1815 -0.1461 -0.0958
  125TMC2     C 1946   4.108   3.747   9.772  0.0510 -0.4646 -0.2209
  125TMC2     O 1947   4.087   3.853   9.835  0.9116  0.0182  0.0472
  125TMC2     H 1948   4.312   3.927   9.785  3.1291  0.0652  0.2485
  125TMC2    H1 1949   4.176   3.583   9.567 -0.8898  0.5766 -0.2786
  125TMC2    H2 1950   4.555   3.767   9.484 -0.5569 -2.8673 -1.8271
  125TMC2    C7 1951   4.368   3.598   9.384  0.3049  0.2246  0.0526
  125TMC2    C8 1952   4.536   3.954   9.656 -0.2443  0.4742  0.4153
  125TMC2    O1 1953   4.265   3.551   9.345  0.2357  0.3925 -0.0596
  125TMC2    O2 1954   4.654   3.918   9.637  0.5115 -0.0272  0.2971
  125TMC2    O5 1955   4.477   4.063   9.605 -0.2794 -0.2294 -0.0618
  125TMC2    H5 1956   4.382   4.073   9.628 -0.5118 -0.9565 -0.6907
  126MPD1     C 1957   3.663   3.539   9.901  0.4732 -0.2086  1.0270
  126MPD1    C1 1958   3.738   3.444   9.827 -0.1408 -0.1535  0.2468
  126MPD1    C2 1959   3.869   3.468   9.791  0.2626  0.5566  0.1396
  126MPD1    C3 1960   3.928   3.589   9.830  0.1722  0.3440  0.2956
  126MPD1    C4 1961   3.855   3.685   9.902 -0.8294  0.5490  0.0837
  126MPD1    C5 1962   3.727   3.658   9.948  0.2054  0.5291 -0.4008
  126MPD1     H 1963   3.929   3.401   9.730  2.2228  2.0272  0.4459
  126MPD1    H1 1964   3.892   3.785   9.923 -0.1067  0.1232  0.8299
  126MPD1    H2 1965   3.558   3.523   9.920  0.0145  0.0993 -1.3032
  126MPD1    H3 1966   3.681   3.737  10.007  0.8767  1.6129 -1.3062
  126MPD1     N 1967   4.045   3.623   9.762 -0.0827 -0.7346  0.3531
  126MPD1    H5 1968   4.086   3.547   9.709  1.4273 -0.1099  0.6274
  126MPD1    N1 1969   3.678   3.329   9.776  0.2273 -1.0717  0.1759
  126MPD1    H6 1970   3.744   3.252   9.762  1.4159  0.3046 -1.8832
  126MPD1    H7 1971   3.607   3.282   9.831 -2.2911 -0.9215 -2.8958
  127TMC2    C1 1972   0.114   2.611   9.767  0.7476  0.1712  0.9411
  127TMC2    C2 1973   0.135   2.554   9.886 -0.0936 -0.0753 -0.2777
  127TMC2    C3 1974   0.028   2.521   9.965 -0.3709 -0.2035  0.2113
  127TMC2    C4 1975   4.736   2.670   9.738  0.5085  0.0556  0.6056
  127TMC2    C5 1976   4.634   2.632   9.826 -0.1908 -0.3341  0.4965
  127TMC2    C6 1977   4.643   2.553   9.938  0.1036 -0.9039 -0.0087
  127TMC2     C 1978   0.226   2.635   9.687  0.4914  0.0891 -0.0387
  127TMC2     O 1979   0.331   2.680   9.736  0.1191  0.1714  0.7474
  127TMC2     H 1980   0.238   2.537   9.916  0.5002  4.9398  0.5300
  127TMC2    H1 1981   4.715   2.733   9.652 -2.5306 -4.1657 -1.7047
  127TMC2    H2 1982   4.558   2.541  10.004  0.1315 -0.2677  0.1440
  127TMC2    C7 1983   4.499   2.675   9.786 -0.8314  0.0354 -0.4670
  127TMC2    C8 1984   0.039   2.434  10.076 -0.2520  0.6692 -0.2805
  127TMC2    O1 1985   4.489   2.792   9.751 -0.3972  0.1249  0.5329
  127TMC2    O2 1986   4.676   2.409  10.142 -0.1157 -0.0605  0.4413
  127TMC2    O5 1987   0.134   2.346  10.041  0.2949 -0.1146  0.2018
  127TMC2    H5 1988   0.220   2.365   9.997 -0.6500  0.9657 -1.1603
  128MPD2     C 1989   0.216   2.599   9.330 -0.0389  0.8646 -0.1113
  128MPD2    C1 1990   0.273   2.614   9.452  0.3141 -0.1768  0.1915
  128MPD2    C2 1991   0.407   2.643   9.461 -0.2217 -0.4036 -0.1010
  128MPD2    C3 1992   0.486   2.653   9.348 -0.3382  0.3442  0.2749
  128MPD2    C4 1993   0.422   2.633   9.222 -0.0803 -0.3727 -0.2147
  128MPD2    C5 1994   0.284   2.600   9.214  1.0664 -0.1608  0.4115
  128MPD2     H 1995   0.452   2.645   9.560  0.7713  0.3976 -0.5728
  128MPD2    H1 1996   0.482   2.658   9.135 -3.0989 -1.5118 -2.6030
  128MPD2    H2 1997   0.108   2.585   9.322  0.3253 -1.4618 -0.8515
  128MPD2    H3 1998   0.222   2.584   9.126  1.7657  0.4302 -0.1892
  128MPD2     N 1999   0.615   2.690   9.372  0.7447 -0.2625 -0.1900
  128MPD2    H5 2000   0.632   2.697   9.472  0.4017  0.1792 -0.1622
  128MPD2    N1 2001   0.186   2.615   9.561 -0.5857 -0.3714  0.7375
  128MPD2    H7 2002   0.088   2.601   9.542 -0.9760  1.3230  1.5842
  129TMC2    C1 2003   3.545   2.019   1.653 -0.1368 -0.4202  1.0548
  129TMC2    C2 2004   3.590   1.890   1.672  0.1145 -0.0995  0.2488
  129TMC2    C3 2005   3.525   1.796   1.586  0.0340  0.2773 -0.2638
  129TMC2    C4 2006   3.471   2.062   1.539  0.2707  0.0533  0.0139
  129TMC2    C5 2007   3.435   1.961   1.452  0.6459 -0.6433 -0.2076
  129TMC2    C6 2008   3.456   1.832   1.470 -1.2049 -0.6437 -0.1341
  129TMC2     C 2009   3.587   2.125   1.750 -0.8544  0.6492  0.1043
  129TMC2     O 2010   3.631   2.083   1.859  0.8323  0.1570  0.7382
  129TMC2     H 2011   3.651   1.859   1.757  1.4894 -0.7604 -0.9790
  129TMC2    H1 2012   3.429   2.161   1.534 -3.5378 -1.5212  1.0177
  129TMC2    H2 2013   3.461   1.770   1.381 -0.9921  2.8552 -2.5435
  129TMC2    C7 2014   3.368   2.000   1.331  0.3494  0.0346  1.5659
  129TMC2    C8 2015   3.551   1.656   1.616  0.2760  0.6809  0.2086
  129TMC2    O1 2016   3.327   1.917   1.257 -0.2876  0.7089  0.4838
  129TMC2    O2 2017   3.573   1.571   1.530 -0.7053  0.1556 -0.0358
  129TMC2    O5 2018   3.557   1.645   1.753  0.1460 -0.0355 -0.3581
  129TMC2    H5 2019   3.502   1.712   1.799  0.1169 -0.7681  0.6676
  130MPD2     C 2020   3.555   2.374   1.921  0.2480  0.2933  1.1236
  130MPD2    C1 2021   3.558   2.372   1.779 -0.2422 -1.1217 -0.7346
  130MPD2    C2 2022   3.541   2.492   1.712 -0.4853 -0.9624  0.3484
  130MPD2    C3 2023   3.503   2.608   1.773 -0.7093 -0.5703  0.1033
  130MPD2    C4 2024   3.490   2.600   1.909  0.6465 -0.0996 -0.0145
  130MPD2    C5 2025   3.531   2.487   1.986  0.1272 -0.7796  0.7535
  130MPD2     H 2026   3.539   2.491   1.604 -0.8069 -1.4109  0.3570
  130MPD2    H1 2027   3.458   2.686   1.967 -3.6146 -1.9357  0.3711
  130MPD2    H2 2028   3.584   2.291   1.985  1.4914  0.4390  0.7488
  130MPD2    H3 2029   3.518   2.482   2.094 -1.2254 -0.5219  0.6071
  130MPD2     N 2030   3.462   2.712   1.686 -0.7596  0.1574  0.0262
  130MPD2    H5 2031   3.496   2.707   1.591  0.4415  0.6232  0.4363
  130MPD2    N1 2032   3.580   2.256   1.702  0.5433  0.3704 -0.2011
  130MPD2    H7 2033   3.579   2.266   1.601  2.9382  0.0031 -0.2674
  131TMC2    C1 2034   2.498   1.997   9.534  0.8526  0.2326 -0.3579
  131TMC2    C2 2035   2.365   1.982   9.512 -0.3267  0.3770 -0.5823
  131TMC2    C3 2036   2.292   2.098   9.489 -0.3175  0.3341  0.2069
  131TMC2    C4 2037   2.565   2.117   9.541 -0.6925 -0.1301 -0.6182
  131TMC2    C5 2038   2.480   2.230   9.531  0.1937 -0.5359 -0.5214
  131TMC2    C6 2039   2.350   2.221   9.508  0.4192  0.3338 -0.2852
  131TMC2     C 2040   2.566   1.894   9.612 -0.5819 -0.5648  0.3761
  131TMC2     O 2041   2.660   1.926   9.688  0.0449 -0.1275 -0.0644
  131TMC2     H 2042   2.308   1.890   9.504  0.1805 -0.0894  1.1926
  131TMC2    H1 2043   2.671   2.137   9.555 -0.9981  1.7933 -1.1379
  131TMC2    H2 2044   2.284   2.307   9.499 -2.0442 -1.4248  0.8965
  131TMC2    C7 2045   2.530   2.363   9.541 -0.1279 -0.2587  0.0023
  131TMC2    C8 2046   2.151   2.085   9.452  0.0301 -0.1399 -0.0886
  131TMC2    O1 2047   2.443   2.450   9.551 -0.3947  0.6444  0.2906
  131TMC2    O2 2048   2.078   1.994   9.488  0.4832  0.2709  0.5554
  131TMC2    O5 2049   2.136   2.163   9.336 -0.2833 -0.0165  0.2325
  131TMC2    H5 2050   2.215   2.216   9.309  0.4884 -1.5754 -0.5568
  132MPD2     C 2051   2.432   1.553   9.635  0.3643  0.0657  0.1887
  132MPD2    C1 2052   2.522   1.656   9.665  0.5597 -0.3460  0.6378
  132MPD2    C2 2053   2.613   1.630   9.763 -0.4177  0.0537  0.2518
  132MPD2    C3 2054   2.624   1.501   9.819 -0.0354 -0.4186  0.5064
  132MPD2    C4 2055   2.541   1.401   9.786  0.2792  0.0281 -0.5939
  132MPD2    C5 2056   2.438   1.434   9.704  0.1780  0.3490 -0.1918
  132MPD2     H 2057   2.683   1.706   9.798 -0.3732 -0.7732  1.9478
  132MPD2    H1 2058   2.529   1.305   9.833  1.6511  0.4557  0.6164
  132MPD2    H2 2059   2.344   1.579   9.577  0.1160 -0.8867  0.1382
  132MPD2    H3 2060   2.358   1.363   9.684  0.5555  0.5149 -2.3294
  132MPD2     N 2061   2.719   1.495   9.919 -0.0027 -0.3208 -0.1180
  132MPD2    H5 2062   2.762   1.580   9.953  1.2569 -0.3379 -1.7207
  132MPD2    N1 2063   2.497   1.779   9.606  0.5778  0.3322 -1.0174
  132MPD2    H7 2064   2.436   1.770   9.526  0.3722 -0.5894 -0.7544
  133TMC2    C1 2065   0.620   2.331   9.543 -0.6670  0.4382 -0.2750
  133TMC2    C2 2066   0.609   2.365   9.674 -0.1710  0.0512  0.0570
  133TMC2    C3 2067   0.493   2.337   9.743 -0.2773 -0.3326  0.7227
  133TMC2    C4 2068   0.506   2.297   9.469  0.3110 -0.0389 -0.4682
  133TMC2    C5 2069   0.394   2.278   9.543 -0.3496 -0.8351  0.1951
  133TMC2    C6 2070   0.389   2.290   9.676 -0.6545 -0.5680  0.3089
  133TMC2     C 2071   0.757   2.363   9.486  0.9857 -0.3716  0.0584
  133TMC2     O 2072   0.820   2.431   9.567  0.3323 -0.5980 -0.4732
  133TMC2     H 2073   0.698   2.383   9.734 -0.2208  0.9788 -0.1445
  133TMC2    H1 2074   0.513   2.298   9.361  0.2051  3.1974 -0.4613
  133TMC2    H2 2075   0.296   2.281   9.731 -0.1486 -0.8982  1.1087
  133TMC2    C7 2076   0.267   2.252   9.477  0.7283  0.3635  0.2027
  133TMC2    C8 2077   0.478   2.378   9.888 -0.0641 -0.8054  0.6749
  133TMC2    O1 2078   0.163   2.234   9.539 -0.1942 -0.0887  0.7154
  133TMC2    O2 2079   0.379   2.337   9.943  0.6609  0.0974 -0.1070
  133TMC2    O5 2080   0.558   2.483   9.925  0.1461 -0.2365 -0.2901
  133TMC2    H5 2081   0.626   2.514   9.862  0.1196  1.7282  0.6418
  134MPD2     C 2082   0.849   2.453   9.149  0.1757 -0.5244  0.3635
  134MPD2    C1 2083   0.873   2.430   9.280  0.1731  0.1681 -0.2533
  134MPD2    C2 2084   1.002   2.451   9.330 -0.0784 -0.6158 -0.5562
  134MPD2    C3 2085   1.090   2.524   9.251  0.3743 -0.3008 -0.0665
  134MPD2    C4 2086   1.055   2.558   9.125 -0.4776  0.0631  0.0206
  134MPD2    C5 2087   0.934   2.521   9.072  0.0543 -0.4292 -0.2653
  134MPD2     H 2088   1.008   2.434   9.437  1.3748 -0.4616 -0.6140
  134MPD2    H1 2089   1.128   2.603   9.059 -0.9564  1.4672  0.4405
  134MPD2    H2 2090   0.755   2.427   9.103  0.9854  1.6514 -2.5560
  134MPD2    H3 2091   0.909   2.543   8.969  0.2071 -0.8222 -0.3850
  134MPD2     N 2092   1.220   2.564   9.306  0.3178  0.3668 -0.2000
  134MPD2    H5 2093   1.277   2.622   9.245  2.0998 -2.0594 -0.8359
  134MPD2    N1 2094   0.766   2.365   9.351 -0.0378 -0.0665 -0.0574
  134MPD2    H7 2095   0.696   2.326   9.288 -0.1665 -1.3915  0.9045
  135TMC2    C1 2096   4.351   4.378  10.195 -0.2656 -0.1756 -0.0580
  135TMC2    C2 2097   4.356   4.515  10.189 -0.3663  0.2303  0.0811
  135TMC2    C3 2098   4.278   4.586  10.280  0.4144  0.2495 -0.7018
  135TMC2    C4 2099   4.280   4.315  10.294  0.2512  0.0798 -0.2208
  135TMC2    C5 2100   4.197   4.387  10.375 -0.2783 -0.1050 -0.2950
  135TMC2    C6 2101   4.200   4.522  10.378  0.5513 -0.2672  1.0419
  135TMC2     C 2102   4.430   4.300  10.108 -0.7344  0.2089  0.0705
  135TMC2     O 2103   4.434   4.180  10.119 -0.2393 -0.0099  0.3028
  135TMC2     H 2104   4.435   4.569  10.138  0.7672 -0.6435  0.9086
  135TMC2    H1 2105   4.294   4.208  10.305  0.2849  0.2034  0.9464
  135TMC2    H2 2106   4.133   4.577  10.443  0.5057  0.8972  0.0081
  135TMC2    C7 2107   4.111   4.321  10.462 -0.0399  0.1233 -0.2170
  135TMC2    C8 2108   4.234   4.726  10.259  1.2142  1.2226 -0.2237
  135TMC2    O1 2109   4.060   4.394  10.550 -0.9485  0.4829 -0.1991
  135TMC2    O2 2110   4.146   0.045  10.325  0.1573 -0.5427 -0.8324
  135TMC2    O5 2111   4.343   0.052  10.206 -1.2318  0.2559  0.4076
  135TMC2    H5 2112   4.418   4.734  10.184 -0.9814  0.2710  1.2197
  136MPD2     C 2113   4.654   4.207   9.919 -0.5523 -0.1984 -0.3722
  136MPD2    C1 2114   4.612   4.339   9.942  0.5613 -0.3449  0.4247
  136MPD2    C2 2115   4.683   4.437   9.880 -0.0233  0.3334  0.5843
  136MPD2    C3 2116   0.042   4.408   9.784 -0.5734 -0.7141 -0.2394
  136MPD2    C4 2117   0.090   4.281   9.769 -0.6071  0.8119 -0.6536
  136MPD2    C5 2118   0.021   4.185   9.837 -0.1922 -0.4399  0.4008
  136MPD2     H 2119   4.651   4.538   9.901 -1.3514 -0.0208  0.3037
  136MPD2    H1 2120   0.161   4.252   9.693 -1.0495  1.5286 -1.3402
  136MPD2    H2 2121   4.602   4.119   9.953 -1.2258 -0.4157 -1.9726
  136MPD2    H3 2122   0.050   4.082   9.825  0.1933 -0.4718  1.6075
  136MPD2     N 2123   0.115   4.509   9.718 -0.4958  0.0240  0.2353
  136MPD2    H5 2124   0.196   4.478   9.664  0.0731  0.2699  0.9516
  136MPD2    N1 2125   4.512   4.379  10.030  0.8549 -0.6521  0.1701
  136MPD2    H7 2126   4.491   4.478  10.019  1.3851 -0.2517  2.9308
  137TMC2    C1 2127   4.503   2.383   9.448 -1.3895 -0.4245 -0.0627
  137TMC2    C2 2128   4.598   2.316   9.521  0.0531 -0.0548 -0.2716
  137TMC2    C3 2129   4.558   2.221   9.614  0.0200  0.1671  0.0366
  137TMC2    C4 2130   4.367   2.356   9.458 -0.5305  0.2191 -0.5159
  137TMC2    C5 2131   4.341   2.252   9.535 -0.1308  0.6537  0.3361
  137TMC2    C6 2132   4.429   2.183   9.611 -0.2901  0.1578 -0.4639
  137TMC2     C 2133   4.531   2.522   9.416  1.0131 -0.3633 -0.1170
  137TMC2     O 2134   4.626   2.574   9.473  0.5102 -0.5532  0.0415
  137TMC2     H 2135   4.699   2.355   9.517  0.5843 -1.5805 -1.7953
  137TMC2    H1 2136   4.293   2.403   9.395  0.6037  1.0623 -1.2287
  137TMC2    H2 2137   4.412   2.098   9.676 -1.8074  1.1067  0.3560
  137TMC2    C7 2138   4.216   2.178   9.523  0.3230  0.4796  0.9764
  137TMC2    C8 2139   4.608   2.241   9.746 -0.5686  0.5616  0.8928
  137TMC2    O1 2140   4.209   2.068   9.568  0.1210  0.3193  0.4623
  137TMC2    O2 2141   4.539   2.279   9.833 -1.1282  0.2149 -0.4379
  137TMC2    O5 2142   0.001   2.256   9.743 -0.4509 -0.4420 -0.4478
  137TMC2    H5 2143   0.046   2.217   9.665  0.8939 -0.0623  0.1350
  138MPD2     C 2144   4.341   2.734   9.189 -0.2989 -0.2148  0.1315
  138MPD2    C1 2145   4.436   2.708   9.286 -0.0473  0.2949  0.1472
  138MPD2    C2 2146   4.516   2.811   9.336  0.3402  0.2849  0.1414
  138MPD2    C3 2147   4.488   2.943   9.301  0.1112  0.4244  0.1009
  138MPD2    C4 2148   4.383   2.971   9.209 -0.0504 -0.5266 -0.7252
  138MPD2    C5 2149   4.319   2.864   9.146 -0.5346  0.3985  0.4314
  138MPD2     H 2150   4.584   2.798   9.419 -0.0380 -0.9553  0.2555
  138MPD2    H1 2151   4.347   3.071   9.192 -0.5935 -0.7911 -1.1104
  138MPD2    H2 2152   4.273   2.659   9.150 -1.2819  0.9533 -0.4139
  138MPD2    H3 2153   4.225   2.877   9.094 -1.0189 -1.9661  0.7040
  138MPD2     N 2154   4.559   3.046   9.369 -0.5127  0.3680  0.4205
  138MPD2    H5 2155   4.635   3.022   9.431 -0.8575  0.8527  1.0309
  138MPD2    N1 2156   4.447   2.578   9.329  0.6719  0.3937 -0.0548
  138MPD2    H7 2157   4.373   2.514   9.300  1.3425 -0.4697  0.1220
  139TMC2    C1 2158   0.139   0.704  13.792  0.2371  0.2093  0.7021
  139TMC2    C2 2159   0.219   0.811  13.819  0.0724 -0.8939  0.4614
  139TMC2    C3 2160   0.158   0.929  13.843 -0.3486 -0.2160  0.0368
  139TMC2    C4 2161   4.739   0.711  13.795 -0.0420  0.4509 -0.3724
  139TMC2    C5 2162   4.686   0.834  13.802  0.1776 -0.2653 -0.0906
  139TMC2    C6 2163   0.021   0.944  13.845  0.2398  0.1130  0.1815
  139TMC2     C 2164   0.202   0.579  13.762  0.1310 -0.4822  0.3146
  139TMC2     O 2165   0.306   0.586  13.696  0.3940  0.3738  0.3345
  139TMC2     H 2166   0.326   0.794  13.822  0.9332  4.2562 -0.5077
  139TMC2    H1 2167   4.670   0.632  13.767  1.4819 -0.4323 -1.6613
  139TMC2    H2 2168   4.721   1.044  13.854  0.0316 -0.0133  0.6329
  139TMC2    C7 2169   4.542   0.844  13.797  0.6137 -0.4674 -0.6291
  139TMC2    C8 2170   0.238   1.043  13.833 -0.6116 -0.0749 -0.3163
  139TMC2    O1 2171   4.487   0.931  13.865 -0.2155 -0.0355 -0.2317
  139TMC2    O2 2172   0.351   1.054  13.873  0.3275 -0.4173 -0.8225
  139TMC2    O5 2173   0.216   1.073  13.705 -0.4970 -0.1989  0.0213
  139TMC2    H5 2174   0.131   1.040  13.670 -2.4186  1.2834  3.3305
  140MPD2     C 2175   0.062   0.253  13.855  0.0353  0.0469 -1.0604
  140MPD2    C1 2176   0.155   0.340  13.799 -0.1696 -0.3349 -0.0511
  140MPD2    C2 2177   0.254   0.286  13.720 -0.0562  0.4205  0.5866
  140MPD2    C3 2178   0.276   0.152  13.714  0.9229  0.3864 -0.4137
  140MPD2    C4 2179   0.190   0.067  13.783 -0.5488 -0.4659  0.2658
  140MPD2    C5 2180   0.080   0.119  13.856 -0.3549 -0.1384 -0.2526
  140MPD2     H 2181   0.321   0.349  13.663 -0.4759  0.0649 -0.3056
  140MPD2    H1 2182   0.201   4.700  13.773 -3.0418 -0.9881  3.0507
  140MPD2    H2 2183   4.712   0.285  13.907  1.7522  2.1859  0.6048
  140MPD2    H3 2184   0.006   0.049  13.892  0.7785 -1.7976 -1.1452
  140MPD2     N 2185   0.375   0.099  13.629 -0.7269 -0.1227  0.6174
  140MPD2    H5 2186   0.429   0.167  13.576  1.5819 -0.5514  2.3941
  140MPD2    N1 2187   0.125   0.477  13.805 -0.1129  0.1431 -0.9188
  140MPD2    H7 2188   0.048   0.500  13.867 -0.2375 -1.1760 -0.5683
  141TMC2    C1 2189   0.112   2.383  14.335  0.4125  0.3255 -0.0470
  141TMC2    C2 2190   0.007   2.417  14.420 -0.3370 -0.3347  0.3323
  141TMC2    C3 2191   0.033   2.536  14.490 -0.3175 -0.3069  0.4497
  141TMC2    C4 2192   0.219   2.462  14.303 -0.0239 -0.9586 -0.1837
  141TMC2    C5 2193   0.228   2.581  14.361 -0.6021  0.3016 -0.5261
  141TMC2    C6 2194   0.130   2.617  14.452  0.2043  0.2016 -0.9590
  141TMC2     C 2195   0.079   2.295  14.220  0.0648  0.0844 -0.4034
  141TMC2     O 2196   0.162   2.301  14.128 -0.3269  0.3495  0.5098
  141TMC2     H 2197   4.657   2.359  14.437 -0.0839  0.1755  3.5557
  141TMC2    H1 2198   0.298   2.422  14.242  0.6821 -0.5582  0.4762
  141TMC2    H2 2199   0.128   2.717  14.494  1.9329 -0.1434 -0.0376
  141TMC2    C7 2200   0.307   2.680  14.297  0.2516 -0.5777  0.0003
  141TMC2    C8 2201   4.694   2.576  14.602  0.7579 -0.2189 -0.2746
  141TMC2    O1 2202   0.251   2.784  14.265  0.7013 -0.3210 -0.5554
  141TMC2    O2 2203   0.004   2.600  14.712  0.5476  0.3720 -0.0245
  141TMC2    O5 2204   4.577   2.509  14.589  0.2023  0.0863  0.2124
  141TMC2    H5 2205   4.553   2.492  14.496  2.7372  1.6307 -0.7205
  142TMC2    C1 2206   2.918   1.316   9.687  0.0080 -0.0636  0.4184
  142TMC2    C2 2207   2.816   1.282   9.597 -0.2722 -0.2514 -0.3224
  142TMC2    C3 2208   2.778   1.372   9.505 -0.3967 -1.2783  0.5682
  142TMC2    C4 2209   2.963   1.443   9.702  0.9389  0.1139  0.1385
  142TMC2    C5 2210   2.918   1.540   9.614 -0.5774 -0.4826 -0.2987
  142TMC2    C6 2211   2.826   1.501   9.514  0.2841  0.4883  0.2488
  142TMC2     C 2212   2.950   1.203   9.770 -0.0834 -0.5061 -0.3989
  142TMC2     O 2213   2.884   1.099   9.759 -0.4779 -0.6662  0.1534
  142TMC2     H 2214   2.769   1.185   9.603 -0.7016 -0.0706 -0.7727
  142TMC2    H1 2215   3.025   1.480   9.783  0.8958 -0.4274  0.4159
  142TMC2    H2 2216   2.776   1.573   9.451 -1.3257  0.8904  2.0247
  142TMC2    C7 2217   2.959   1.676   9.632 -0.6983 -0.0222  0.5316
  142TMC2    C8 2218   2.655   1.352   9.431 -0.1445  0.2288 -0.0314
  142TMC2    O1 2219   3.000   1.704   9.743  0.3920 -0.4827 -0.4474
  142TMC2    O2 2220   2.589   1.441   9.377  0.0479 -0.2195  0.0514
  142TMC2    O5 2221   2.667   1.228   9.376 -0.1785  0.2005  0.2753
  142TMC2    H5 2222   2.733   1.166   9.416 -0.8339 -0.6780 -0.0029
  143MPD2     C 2223   3.240   1.011  10.140  0.6539  0.0480  0.2104
  143MPD2    C1 2224   3.112   0.979  10.108 -0.4275 -1.1861  0.2652
  143MPD2    C2 2225   3.059   1.045   9.999  0.0964  0.2873 -0.2510
  143MPD2    C3 2226   3.124   1.157   9.943  0.2979 -0.1429  0.5362
  143MPD2    C4 2227   3.246   1.193   9.983  0.4463 -0.1598 -0.3275
  143MPD2    C5 2228   3.307   1.112  10.076 -0.3820 -0.0770  0.2845
  143MPD2     H 2229   2.959   1.015   9.966  0.0226 -2.0573  2.0923
  143MPD2    H1 2230   3.300   1.274   9.936  0.0457 -0.4235 -1.2441
  143MPD2    H2 2231   3.284   0.945  10.215 -0.7159 -2.0477 -0.8138
  143MPD2    H3 2232   3.407   1.130  10.115 -0.3834  0.9675 -0.2150
  143MPD2     N 2233   3.063   1.234   9.837  0.6974  0.1893  0.2091
  143MPD2    H5 2234   3.115   1.319   9.814  0.8019 -0.0812 -0.5527
  143MPD2    N1 2235   3.047   0.872  10.176  0.2861  0.1730 -0.0794
  143MPD2    H7 2236   3.100   0.820  10.245  1.8917  4.1497  1.6346
  144TMC2    C1 2237   0.903   4.018   0.688  0.2670  0.1155 -0.1317
  144TMC2    C2 2238   0.999   3.922   0.676 -0.0663  0.0811  0.4456
  144TMC2    C3 2239   1.090   3.897   0.775  0.1127  0.0326  0.8203
  144TMC2    C4 2240   0.880   4.079   0.815  0.0503  0.3052 -0.9019
  144TMC2    C5 2241   0.965   4.040   0.917  0.4078 -0.2752 -0.4864
  144TMC2    C6 2242   1.069   3.950   0.899 -0.1055 -0.2532  0.0661
  144TMC2     C 2243   0.803   4.018   0.583  1.1196 -0.2326  0.4581
  144TMC2     O 2244   0.812   3.927   0.500  0.2428 -0.3433  0.1601
  144TMC2     H 2245   0.997   3.861   0.586 -0.4154 -0.5104  0.8522
  144TMC2    H1 2246   0.791   4.138   0.833  0.6689 -0.0957  3.4440
  144TMC2    H2 2247   1.132   3.928   0.985  1.3766 -0.3229 -1.0419
  144TMC2    C7 2248   0.977   4.112   1.034  0.1453 -0.4162  0.5692
  144TMC2    C8 2249   1.187   3.795   0.773  0.2707 -0.0645  0.2179
  144TMC2    O1 2250   1.026   4.046   1.125 -0.4979 -0.0747 -0.3340
  144TMC2    O2 2251   1.241   3.749   0.871  0.2973  0.4701  0.1748
  144TMC2    O5 2252   1.235   3.772   0.651 -0.0738 -0.1266  0.1098
  144TMC2    H5 2253   1.204   3.828   0.577  0.2546  1.3467  1.0856
  145MPD2     C 2254   0.381   4.245   0.369  0.8074 -1.0167 -0.3446
  145MPD2    C1 2255   0.430   4.119   0.357  0.6454 -0.5493 -0.1591
  145MPD2    C2 2256   0.545   4.084   0.425  0.3020 -0.7508  0.5067
  145MPD2    C3 2257   0.606   4.163   0.520  1.0317 -0.3135 -0.5091
  145MPD2    C4 2258   0.546   4.283   0.552 -1.0302  0.2466 -0.9814
  145MPD2    C5 2259   0.435   4.329   0.475  0.1802 -0.2103 -0.2560
  145MPD2     H 2260   0.575   3.980   0.414  0.1934 -0.8130  0.8112
  145MPD2    H1 2261   0.595   4.348   0.625 -0.3899  0.9521 -2.0463
  145MPD2    H2 2262   0.296   4.275   0.309  0.9310 -0.5530 -0.2880
  145MPD2    H3 2263   0.386   4.424   0.491 -1.8893 -1.3304  0.0964
  145MPD2     N 2264   0.722   4.124   0.592 -0.6401  0.1768  0.2793
  145MPD2    H5 2265   0.754   4.188   0.664 -1.1288  0.4065  0.2942
  145MPD2    N1 2266   0.373   4.027   0.262  0.0534 -0.6479  0.4811
  145MPD2    H7 2267   0.414   3.934   0.269 -1.0645 -1.1883 -0.0948
  146TMC2    C1 2268   2.615   3.622  12.623  0.1594  0.3596 -0.0223
  146TMC2    C2 2269   2.558   3.677  12.512  0.1120 -0.0425 -0.3188
  146TMC2    C3 2270   2.602   3.646  12.384 -0.5715  0.2434 -0.5187
  146TMC2    C4 2271   2.721   3.530  12.610  0.8008  0.1527  0.4905
  146TMC2    C5 2272   2.765   3.503  12.482 -0.2501 -0.1143 -0.7144
  146TMC2    C6 2273   2.709   3.562  12.368 -0.3128 -0.8014 -0.2897
  146TMC2     C 2274   2.576   3.689  12.748  0.4500 -0.2657 -0.1415
  146TMC2     O 2275   2.509   3.789  12.748  0.5861 -0.2832  0.6053
  146TMC2     H 2276   2.464   3.731  12.520  0.0248 -0.1200 -0.8660
  146TMC2    H1 2277   2.743   3.463  12.693  1.2087 -0.0036  0.2582
  146TMC2    H2 2278   2.735   3.529  12.268 -1.4225  0.4027 -0.9753
  146TMC2    C7 2279   2.863   3.393  12.456  0.3851 -0.1179  0.3389
  146TMC2    C8 2280   2.521   3.671  12.268 -0.5335 -0.2487 -0.2719
  146TMC2    O1 2281   2.866   3.357  12.340  0.0058  0.2561 -0.0508
  146TMC2    O2 2282   2.514   3.597  12.172 -0.4294  1.2354 -0.8515
  146TMC2    O5 2283   2.496   3.803  12.265  0.1153 -0.3108  0.3934
  146TMC2    H5 2284   2.499   3.860  12.344 -3.3144  0.6621 -0.1598
  147MPD2     C 2285   3.227   3.050  12.596 -0.3331 -0.1597 -0.8124
  147MPD2    C1 2286   3.157   3.089  12.709 -0.1584  0.3248  0.1130
  147MPD2    C2 2287   3.049   3.178  12.701  0.3949  0.4190 -0.6323
  147MPD2    C3 2288   3.018   3.242  12.577  0.7097 -0.5736 -0.7657
  147MPD2    C4 2289   3.090   3.201  12.467 -0.5223 -0.4058 -0.1021
  147MPD2    C5 2290   3.189   3.108  12.477 -0.0225 -0.1684 -0.2272
  147MPD2     H 2291   2.997   3.208  12.792 -0.4511  3.2097 -2.0332
  147MPD2    H1 2292   3.066   3.236  12.367  0.2261 -1.3360 -0.6001
  147MPD2    H2 2293   3.308   2.979  12.608 -3.0980 -3.4635 -1.6401
  147MPD2    H3 2294   3.241   3.084  12.385  0.1640  0.8424 -0.3910
  147MPD2     N 2295   2.927   3.349  12.572 -0.0696 -0.8879 -0.8451
  147MPD2    H5 2296   2.895   3.395  12.657 -1.6702 -0.5172 -1.6405
  147MPD2    N1 2297   3.207   3.038  12.835  0.5108 -0.0251  0.8288
  147MPD2    H7 2298   3.289   2.978  12.826 -0.8606 -1.5235 -1.9092
  148TMC2    C1 2299   2.521   2.605  10.275  0.1982 -0.5046  0.8803
  148TMC2    C2 2300   2.493   2.708  10.368  0.3676  0.5216  0.2188
  148TMC2    C3 2301   2.558   2.697  10.485  0.2448 -0.1340 -0.3561
  148TMC2    C4 2302   2.615   2.509  10.290  0.2993  0.3097  0.2786
  148TMC2    C5 2303   2.678   2.509  10.413  0.1586  0.7587 -0.4820
  148TMC2    C6 2304   2.651   2.601  10.513  0.1986 -0.1694 -0.0489
  148TMC2     C 2305   2.407   2.569  10.196  0.4029 -0.3383 -0.1591
  148TMC2     O 2306   2.338   2.651  10.140 -0.1309 -0.1455  0.1640
  148TMC2     H 2307   2.403   2.768  10.361  0.1697  0.3382  1.1839
  148TMC2    H1 2308   2.633   2.435  10.213 -2.4476 -0.4747  0.3724
  148TMC2    H2 2309   2.689   2.591  10.614  1.8447  0.9979 -0.5531
  148TMC2    C7 2310   2.714   2.380  10.463  0.5777  0.2980 -0.4666
  148TMC2    C8 2311   2.498   2.772  10.592 -0.8689 -0.2808 -0.7519
  148TMC2    O1 2312   2.668   2.290  10.398  0.0299 -0.4714 -0.0892
  148TMC2    O2 2313   2.377   2.767  10.614 -0.0222  0.5944 -0.3103
  148TMC2    O5 2314   2.593   2.792  10.684  0.1807  0.4717 -0.4089
  148TMC2    H5 2315   2.683   2.806  10.648  0.3842 -2.6558 -1.1296
  149MPD2     C 2316   2.163   2.414  10.127  1.2100 -0.4555 -0.3900
  149MPD2    C1 2317   2.273   2.355  10.185  0.3637 -0.0602 -0.2656
  149MPD2    C2 2318   2.279   2.221  10.229 -0.6789  0.4916  0.0362
  149MPD2    C3 2319   2.170   2.145  10.210  0.0432  0.1166 -0.0072
  149MPD2    C4 2320   2.054   2.198  10.153 -0.6150 -0.3753  0.6294
  149MPD2    C5 2321   2.051   2.332  10.112  0.4601  0.5211 -0.3125
  149MPD2     H 2322   2.370   2.177  10.269 -0.0909  2.0893  0.4479
  149MPD2    H1 2323   1.967   2.138  10.127 -0.1897 -0.4806 -0.5290
  149MPD2    H2 2324   2.153   2.520  10.106 -1.4400 -0.8998 -1.3449
  149MPD2    H3 2325   1.960   2.365  10.063  0.3490  2.0861  0.9615
  149MPD2     N 2326   2.169   2.004  10.245  0.3130  0.6719 -0.6685
  149MPD2    H5 2327   2.084   1.954  10.220 -0.0151  1.4104 -1.0318
  149MPD2    N1 2328   2.384   2.434  10.213 -0.1804 -0.1610 -0.2156
  149MPD2    H7 2329   2.452   2.384  10.269  0.4637  0.0914 -0.7765
  150TMC2    C1 2330   4.549   0.979  12.339  0.4273  0.0047 -0.3019
  150TMC2    C2 2331   4.528   1.103  12.289 -0.1709 -1.6520  0.2731
  150TMC2    C3 2332   4.630   1.188  12.272 -0.1401 -0.4842  0.7486
  150TMC2    C4 2333   4.675   0.944  12.377 -0.4448  0.0759 -0.4769
  150TMC2    C5 2334   0.045   1.028  12.357 -0.5651  0.4966  0.5637
  150TMC2    C6 2335   0.016   1.155  12.312  0.4680  0.0458  0.4866
  150TMC2     C 2336   4.436   0.902  12.360 -0.4487 -0.7919  0.5910
  150TMC2     O 2337   4.454   0.809  12.442  0.6971  0.7126  0.3010
  150TMC2     H 2338   4.427   1.140  12.271  0.1626 -1.2709 -0.8169
  150TMC2    H1 2339   4.695   0.844  12.413 -0.3706  0.6451  1.0785
  150TMC2    H2 2340   0.091   1.233  12.323 -1.2346  1.5676  1.3056
  150TMC2    C7 2341   0.164   1.013  12.437 -0.6376  1.1163  0.0050
  150TMC2    C8 2342   4.587   1.327  12.281 -0.7021  0.1907  0.0657
  150TMC2    O1 2343   0.244   1.105  12.440 -0.1641  0.0777  0.2703
  150TMC2    O2 2344   4.642   1.412  12.354 -0.2456  0.3706  0.1430
  150TMC2    O5 2345   4.548   1.347  12.156  0.4930  0.2057  0.1138
  150TMC2    H5 2346   4.510   1.278  12.098 -2.3241  1.1630  0.8208
  151MPD2     C 2347   3.929   0.790  12.320 -0.6040  0.0912  0.4654
  151MPD2    C1 2348   3.964   0.896  12.234  0.1016 -0.3758 -0.3064
  151MPD2    C2 2349   4.095   0.937  12.217 -0.4199  0.1577 -0.1828
  151MPD2    C3 2350   4.195   0.877  12.296 -0.0370 -0.1909  0.2718
  151MPD2    C4 2351   4.159   0.779  12.389 -0.2684 -0.8780  0.7616
  151MPD2    C5 2352   4.024   0.735  12.401 -0.3456 -0.0932 -0.1182
  151MPD2     H 2353   4.121   1.007  12.138 -0.9733  0.7591  0.1666
  151MPD2    H1 2354   4.236   0.735  12.452 -3.1206 -4.5050  1.7346
  151MPD2    H2 2355   3.825   0.757  12.319 -0.1331 -1.4148  0.7350
  151MPD2    H3 2356   3.998   0.658  12.473  2.1748  0.8451  1.8134
  151MPD2     N 2357   4.326   0.926  12.280 -0.1226 -0.0986 -0.3818
  151MPD2    H5 2358   4.342   0.993  12.205 -0.5893 -0.2553 -0.6167
  151MPD2    N1 2359   3.863   0.943  12.150  0.7038 -0.0160 -0.2772
  151MPD2    H7 2360   3.781   0.884  12.138  0.5311 -0.1956  1.7807
  152TMC2    C1 2361   4.376   0.738  12.778  0.9148 -0.3018  0.4704
  152TMC2    C2 2362   4.466   0.633  12.777 -0.6770  0.4655 -0.1249
  152TMC2    C3 2363   4.602   0.658  12.789  0.6431  0.9528 -0.5264
  152TMC2    C4 2364   4.425   0.870  12.785  0.2306  0.4710  0.0448
  152TMC2    C5 2365   4.560   0.883  12.789  0.2357 -0.1086 -0.2828
  152TMC2    C6 2366   4.650   0.782  12.780 -0.0296 -0.8104 -0.1694
  152TMC2     C 2367   4.232   0.719  12.770  0.5296 -0.0668  0.5518
  152TMC2     O 2368   4.159   0.816  12.764  0.0326 -0.3358  0.5093
  152TMC2     H 2369   4.429   0.531  12.789 -2.0143  0.8533 -0.9122
  152TMC2    H1 2370   4.358   0.956  12.790 -2.2577 -1.4823  0.3071
  152TMC2    H2 2371   0.013   0.806  12.763 -0.2068 -1.0352 -1.5346
  152TMC2    C7 2372   4.612   1.015  12.787 -0.4358  0.2830  0.0056
  152TMC2    C8 2373   4.685   0.546  12.780  0.3235  0.5023 -0.2468
  152TMC2    O1 2374   4.537   1.107  12.761  0.1088  0.0780  0.3170
  152TMC2    O2 2375   4.641   0.432  12.758  0.2716 -0.1352  0.9343
  152TMC2    O5 2376   0.035   0.565  12.882 -0.1898  0.4151  0.5522
  152TMC2    H5 2377   0.064   0.659  12.877  1.4478 -0.1886 -1.5377
  153MPD2     C 2378   4.029   0.406  12.806  0.5392 -0.8849  0.1434
  153MPD2    C1 2379   4.055   0.534  12.768  0.0943 -0.6015  0.4586
  153MPD2    C2 2380   3.950   0.618  12.750  0.6463  0.4656 -0.1464
  153MPD2    C3 2381   3.818   0.572  12.748  0.1464 -0.3236 -0.2473
  153MPD2    C4 2382   3.795   0.433  12.778  0.1522 -0.3657 -0.4629
  153MPD2    C5 2383   3.903   0.351  12.801 -0.2897 -0.3550 -0.9733
  153MPD2     H 2384   3.963   0.722  12.724 -0.3725  0.3649 -1.0810
  153MPD2    H1 2385   3.693   0.397  12.776  0.1349 -0.4921  2.3854
  153MPD2    H2 2386   4.110   0.339  12.831  2.8142  1.6638 -0.3828
  153MPD2    H3 2387   3.892   0.248  12.832  0.5755 -0.0535  0.3056
  153MPD2     N 2388   3.720   0.667  12.715  0.0474 -0.0204  0.1821
  153MPD2    H5 2389   3.751   0.761  12.694 -1.8055  0.1882 -1.6606
  153MPD2    N1 2390   4.189   0.582  12.785  0.1993 -0.4517 -0.1835
  153MPD2    H7 2391   4.255   0.510  12.812  3.8403  2.3948 -1.5500
  154TMC2    C1 2392   0.918   1.010   0.296 -0.2612 -0.4929  0.6626
  154TMC2    C2 2393   0.971   0.887   0.294 -0.3339  0.5862  0.4638
  154TMC2    C3 2394   1.100   0.877   0.246  0.0470 -0.2147 -0.2968
  154TMC2    C4 2395   0.992   1.126   0.280 -0.2400  0.6395 -0.0539
  154TMC2    C5 2396   1.120   1.113   0.236 -0.4914 -0.0369  0.2597
  154TMC2    C6 2397   1.169   0.986   0.209 -0.3513  0.1558  0.2110
  154TMC2     C 2398   0.776   1.023   0.331  0.2344 -0.1003 -0.3941
  154TMC2     O 2399   0.754   1.128   0.392 -0.1615  1.2273 -0.1340
  154TMC2     H 2400   0.923   0.794   0.322 -2.0101  0.7735 -1.7982
  154TMC2    H1 2401   0.942   1.222   0.287  0.4931  0.8709  2.1632
  154TMC2    H2 2402   1.269   0.969   0.172 -0.0171 -1.1780  1.7679
  154TMC2    C7 2403   1.199   1.229   0.198  0.9103  0.1652 -0.1661
  154TMC2    C8 2404   1.163   0.751   0.249 -0.3944 -0.6499  0.5023
  154TMC2    O1 2405   1.271   1.197   0.101  0.3459 -0.1430 -0.6026
  154TMC2    O2 2406   1.091   0.652   0.239  0.0350 -0.7208 -0.1858
  154TMC2    O5 2407   1.268   0.754   0.333 -0.2667 -0.1978 -0.2525
  154TMC2    H5 2408   1.294   0.845   0.360 -1.4295 -0.6274  2.3031
  155MPD2     C 2409   0.491   0.859   0.175  0.3387 -0.1494  0.6920
  155MPD2    C1 2410   0.558   0.930   0.270 -0.3764 -0.0723  0.4628
  155MPD2    C2 2411   0.483   1.004   0.362  0.1797  0.2350 -0.7115
  155MPD2    C3 2412   0.343   1.009   0.361 -0.5280  0.4281 -0.7688
  155MPD2    C4 2413   0.280   0.949   0.255  0.0869  0.5539 -0.2146
  155MPD2    C5 2414   0.354   0.863   0.171  0.4069  0.3222 -0.0184
  155MPD2     H 2415   0.534   1.060   0.440 -0.6248  2.3716 -1.7153
  155MPD2    H1 2416   0.172   0.948   0.253  0.1510 -2.9970 -1.4942
  155MPD2    H2 2417   0.542   0.797   0.102  0.9842 -1.3163  2.1403
  155MPD2    H3 2418   0.302   0.804   0.097  0.3552  1.6573 -1.0490
  155MPD2     N 2419   0.273   1.087   0.454 -0.2957 -0.1777  0.9182
  155MPD2    H5 2420   0.318   1.106   0.543  0.1141  0.3445  0.6019
  155MPD2    N1 2421   0.699   0.928   0.270  0.1136  0.3718 -0.1377
  155MPD2    H7 2422   0.743   0.868   0.201  1.3688 -0.3039  1.2483
  156TMC2    C1 2423   3.833   3.366  11.804  0.4315 -0.5908 -0.1516
  156TMC2    C2 2424   3.704   3.321  11.787  0.8308 -0.7049  0.1908
  156TMC2    C3 2425   3.626   3.376  11.689 -0.2242  0.2506 -0.5989
  156TMC2    C4 2426   3.880   3.479  11.738 -1.0719  0.0095  0.4723
  156TMC2    C5 2427   3.802   3.530  11.640  0.2986 -0.6519  0.8372
  156TMC2    C6 2428   3.675   3.481  11.606 -0.3989 -0.3182 -0.3349
  156TMC2     C 2429   3.923   3.285  11.882 -0.3238  0.2133 -0.2178
  156TMC2     O 2430   4.010   3.352  11.927 -0.0238  0.5137 -0.1397
  156TMC2     H 2431   3.668   3.235  11.842 -0.3869 -0.6894 -0.5864
  156TMC2    H1 2432   3.978   3.522  11.757 -1.3901  0.2635  1.5452
  156TMC2    H2 2433   3.607   3.534  11.539 -0.0806  2.5746  1.6084
  156TMC2    C7 2434   3.866   3.637  11.566 -0.3412 -0.0648 -0.9479
  156TMC2    C8 2435   3.486   3.351  11.678 -0.0008 -0.4273  0.1687
  156TMC2    O1 2436   3.987   3.639  11.556 -0.3984  0.0109  0.1145
  156TMC2    O2 2437   3.435   3.291  11.585 -0.0577  0.9369  0.2310
  156TMC2    O5 2438   3.453   3.351  11.809 -1.2949  0.4773  0.2580
  156TMC2    H5 2439   3.504   3.418  11.860  3.1022 -1.9370 -0.9120
  157MPD2     C 2440   3.928   2.914  11.923 -0.0626 -0.7190  0.0815
  157MPD2    C1 2441   3.967   3.048  11.940  0.2522  0.7861 -0.6649
  157MPD2    C2 2442   4.074   3.081  12.024  0.4110 -0.2557  0.9050
  157MPD2    C3 2443   4.137   2.974  12.093  0.1727 -0.3971 -0.2425
  157MPD2    C4 2444   4.090   2.843  12.079  0.4989 -0.8069 -0.5167
  157MPD2    C5 2445   3.984   2.810  11.994  0.1823  0.3684 -0.0485
  157MPD2     H 2446   4.113   3.182  12.021 -0.2536 -0.0389 -0.3312
  157MPD2    H1 2447   4.138   2.760  12.128  0.0100 -0.1697  1.0263
  157MPD2    H2 2448   3.849   2.892  11.853 -0.3847 -0.0330  0.2373
  157MPD2    H3 2449   3.959   2.706  11.976 -2.9737  1.2099 -0.6314
  157MPD2     N 2450   4.255   2.997  12.178  0.3188 -0.1037 -0.8733
  157MPD2    H5 2451   4.289   3.092  12.180 -0.6759  0.2296  0.4597
  157MPD2    N1 2452   3.904   3.150  11.871  0.2152  0.1240 -0.3631
  157MPD2    H7 2453   3.832   3.120  11.806  1.6355 -0.0867 -1.8212
  158TMC2    C1 2454   4.557   1.696  13.293  0.2336  0.0538  0.1031
  158TMC2    C2 2455   4.586   1.755  13.173  0.4929  0.0064  0.1092
  158TMC2    C3 2456   4.492   1.758  13.077  0.0151 -0.0195  0.4857
  158TMC2    C4 2457   4.434   1.648  13.322 -0.2177  0.1811  0.7037
  158TMC2    C5 2458   4.333   1.675  13.235 -0.0391  1.0468 -0.1233
  158TMC2    C6 2459   4.363   1.720  13.108 -0.0318  0.2429 -0.2005
  158TMC2     C 2460   4.655   1.713  13.392  0.4747  0.4281  0.6311
  158TMC2     O 2461   0.030   1.715  13.355  0.0145 -0.3162  0.3712
  158TMC2     H 2462   4.689   1.780  13.149  0.2620  1.1024  0.2819
  158TMC2    H1 2463   4.410   1.596  13.414  0.7141 -0.0043  0.8389
  158TMC2    H2 2464   4.281   1.744  13.041 -0.1244 -0.8081 -0.4583
  158TMC2    C7 2465   4.183   1.647  13.256  0.5604 -0.4079 -0.2325
  158TMC2    C8 2466   4.515   1.805  12.940  0.2781  0.0250  0.9380
  158TMC2    O1 2467   4.114   1.688  13.166 -1.1066 -0.2584 -0.3308
  158TMC2    O2 2468   4.605   1.877  12.905 -0.0205 -0.3862 -0.5796
  158TMC2    O5 2469   4.402   1.794  12.873 -0.2969 -0.0127  0.4718
  158TMC2    H5 2470   4.353   1.711  12.893 -0.5266  0.0502  0.1602
  159MPD2     C 2471   0.055   1.770  13.891  0.2853 -0.4790  0.1747
  159MPD2    C1 2472   4.658   1.763  13.883 -0.0389 -0.0558 -0.5599
  159MPD2    C2 2473   4.595   1.741  13.758  0.0913 -0.5515 -0.1454
  159MPD2    C3 2474   4.670   1.731  13.644 -0.9780 -0.3930  0.0777
  159MPD2    C4 2475   0.068   1.738  13.660  0.1662  0.2273 -0.1239
  159MPD2    C5 2476   0.124   1.762  13.781 -0.1688  1.2313 -0.0258
  159MPD2     H 2477   4.488   1.760  13.752  0.4795  2.2812  1.9558
  159MPD2    H1 2478   0.129   1.718  13.573  0.1510 -0.3072 -0.0153
  159MPD2    H2 2479   0.109   1.781  13.985  0.2633 -0.0804  0.1388
  159MPD2    H3 2480   0.232   1.762  13.794 -0.1350  1.7183 -0.3212
  159MPD2     N 2481   4.601   1.720  13.520  0.3707 -0.2496 -0.1461
  159MPD2    H5 2482   4.501   1.716  13.531  0.2718  1.1558 -0.6041
  159MPD2    N1 2483   4.589   1.768  14.006 -0.2928  0.2163  1.2167
  159MPD2    H7 2484   4.644   1.787  14.088  1.6042  0.3742 -0.0987
  160TMC2    C1 2485   4.483   0.956   1.785  0.3609  0.0956  0.0647
  160TMC2    C2 2486   4.600   0.959   1.857 -0.6525  0.0584  0.1418
  160TMC2    C3 2487   4.621   0.857   1.933  0.8598  0.4464  0.4744
  160TMC2    C4 2488   4.418   0.835   1.770 -0.0595 -0.0373  0.4534
  160TMC2    C5 2489   4.450   0.729   1.848 -0.4083 -0.0981 -0.4375
  160TMC2    C6 2490   4.544   0.745   1.943 -0.3194 -0.3312 -0.0442
  160TMC2     C 2491   4.449   1.078   1.705  0.1310 -0.1278  0.7237
  160TMC2     O 2492   4.508   1.184   1.737  0.3198  0.1341 -0.4536
  160TMC2     H 2493   4.670   1.040   1.845 -0.6727 -0.0980 -1.0107
  160TMC2    H1 2494   4.325   0.833   1.715 -0.5076 -3.4867  1.3342
  160TMC2    H2 2495   4.577   0.661   2.004 -0.0484  0.1617  0.4975
  160TMC2    C7 2496   4.432   0.592   1.800  0.4748 -0.1957  0.6095
  160TMC2    C8 2497   4.737   0.861   2.016 -0.7886 -0.0056 -0.0847
  160TMC2    O1 2498   4.446   0.500   1.877 -0.2106 -0.6791  0.5326
  160TMC2    O2 2499   4.728   0.819   2.132 -0.1279 -0.2133  0.0647
  160TMC2    O5 2500   0.105   0.859   1.934 -0.1067 -0.4115  0.3298
  160TMC2    H5 2501   0.084   0.886   1.842 -1.7682  1.1782  1.1642
  161MPD2     C 2502   4.409   1.256   1.476  0.8279  0.5844  0.1815
  161MPD2    C1 2503   4.334   1.146   1.497 -0.5376 -0.0464 -0.2436
  161MPD2    C2 2504   4.249   1.112   1.395 -0.4135 -0.2549 -0.0137
  161MPD2    C3 2505   4.232   1.182   1.276  0.0962 -0.0287  0.2441
  161MPD2    C4 2506   4.321   1.287   1.256  0.2742 -0.2123 -0.1173
  161MPD2    C5 2507   4.407   1.325   1.355 -0.0865  0.2973  0.2901
  161MPD2     H 2508   4.191   1.022   1.406 -0.5703 -0.1953 -0.3340
  161MPD2    H1 2509   4.306   1.355   1.173 -0.7939 -2.1523 -1.5319
  161MPD2    H2 2510   4.478   1.294   1.550  1.0655 -0.7837  0.6566
  161MPD2    H3 2511   4.479   1.405   1.349  0.7482 -0.3204  2.1114
  161MPD2     N 2512   4.134   1.149   1.178  0.0575  0.0934  0.5488
  161MPD2    H5 2513   4.142   1.196   1.089 -1.4257  1.8857  1.3577
  161MPD2    N1 2514   4.364   1.052   1.596  0.0639 -0.4530  0.7868
  161MPD2    H7 2515   4.315   0.963   1.592 -0.9679  0.2046 -1.6647
  162TMC2    C1 2516   1.659   2.283   1.114 -0.0966  0.1258 -0.1582
  162TMC2    C2 2517   1.544   2.339   1.143  0.1323 -0.2792  0.1562
  162TMC2    C3 2518   1.518   2.468   1.119 -0.0912 -0.7392 -0.2140
  162TMC2    C4 2519   1.761   2.366   1.079 -0.3942 -0.2899  0.4920
  162TMC2    C5 2520   1.735   2.501   1.068  0.1726  0.3730  0.1707
  162TMC2    C6 2521   1.612   2.547   1.062  0.3689 -0.0917  0.2813
  162TMC2     C 2522   1.683   2.148   1.148  1.0491  0.1483 -0.1906
  162TMC2     O 2523   1.621   2.103   1.245  0.9841  0.2277  0.1823
  162TMC2     H 2524   1.459   2.281   1.175 -0.0840 -0.4144 -0.6788
  162TMC2    H1 2525   1.857   2.316   1.064 -0.2970 -0.0555  0.3405
  162TMC2    H2 2526   1.591   2.650   1.036 -0.3097 -0.4131 -0.4024
  162TMC2    C7 2527   1.842   2.584   1.011 -0.3117  0.2898  0.0115
  162TMC2    C8 2528   1.382   2.517   1.123  0.5429  0.6198  0.5250
  162TMC2    O1 2529   1.818   2.669   0.924  0.2364  0.6654  0.1268
  162TMC2    O2 2530   1.297   2.461   1.190 -0.1919  0.7023 -0.1350
  162TMC2    O5 2531   1.364   2.542   0.995 -0.3582  0.0221 -0.1901
  162TMC2    H5 2532   1.450   2.543   0.947 -1.1236  1.2312 -1.4912
  163MPD2     C 2533   1.957   1.729   1.074 -0.1587 -0.0007  0.0869
  163MPD2    C1 2534   1.947   1.793   0.951 -0.1903  0.2899  0.4636
  163MPD2    C2 2535   1.872   1.907   0.950 -0.8812  0.8259 -0.0178
  163MPD2    C3 2536   1.821   1.962   1.065  0.6618 -0.7650  0.3015
  163MPD2    C4 2537   1.844   1.899   1.178  0.0737 -0.2842  0.3310
  163MPD2    C5 2538   1.908   1.774   1.191 -0.3955 -0.7031 -0.1884
  163MPD2     H 2539   1.856   1.954   0.854  0.8974  0.7613 -0.3546
  163MPD2    H1 2540   1.805   1.939   1.271 -0.9653  1.5993 -0.9076
  163MPD2    H2 2541   1.999   1.631   1.089 -1.9317 -0.5448  1.4117
  163MPD2    H3 2542   1.911   1.709   1.278  0.2751 -0.0770  0.2562
  163MPD2     N 2543   1.759   2.081   1.052 -0.2275  0.4844  0.3573
  163MPD2    H5 2544   1.777   2.126   0.962  1.9133  2.3022  1.6813
  163MPD2    N1 2545   2.006   1.723   0.837  0.1430  0.0464  0.1673
  163MPD2    H7 2546   2.067   1.646   0.863  0.3146 -0.7586 -2.6434
  164TMC2    C1 2547   3.395   2.164  11.007  0.0147  0.0349  0.3820
  164TMC2    C2 2548   3.371   2.052  11.081 -0.2510  0.2143  0.0948
  164TMC2    C3 2549   3.274   2.054  11.176 -0.7152  0.1662  0.0491
  164TMC2    C4 2550   3.321   2.278  11.033  1.1019 -0.1618  0.7070
  164TMC2    C5 2551   3.214   2.265  11.120  0.0243  1.2963 -0.6116
  164TMC2    C6 2552   3.189   2.153  11.192 -0.3151  0.7453 -0.4059
  164TMC2     C 2553   3.488   2.138  10.901 -0.6075  0.8188  0.0904
  164TMC2     O 2554   3.501   2.021  10.859  0.3098  0.0353  0.5142
  164TMC2     H 2555   3.433   1.963  11.078  0.9668  1.0832 -0.4541
  164TMC2    H1 2556   3.338   2.355  10.959  1.0448 -0.4602  0.3844
  164TMC2    H2 2557   3.107   2.143  11.262 -1.0956  0.0953 -1.4211
  164TMC2    C7 2558   3.102   2.355  11.123 -0.6866  0.0398  1.0053
  164TMC2    C8 2559   3.255   1.934  11.253 -0.1331 -0.4835 -0.2079
  164TMC2    O1 2560   3.000   2.318  11.188 -0.1065  0.2056 -0.4471
  164TMC2    O2 2561   3.204   1.936  11.361 -0.4730  0.2596 -0.1701
  164TMC2    O5 2562   3.280   1.826  11.188 -0.1797  0.1098 -0.5230
  164TMC2    H5 2563   3.292   1.824  11.091 -1.3881  1.5095 -0.6908
  165TMC2    C1 2564   3.640   3.780   0.999  0.0351  0.6322  0.2262
  165TMC2    C2 2565   3.670   3.648   1.009  0.3968 -0.0487  0.3275
  165TMC2    C3 2566   3.795   3.604   1.018 -0.2433 -0.3385  0.2168
  165TMC2    C4 2567   3.737   3.877   0.994  0.9907 -0.3689 -0.3830
  165TMC2    C5 2568   3.863   3.831   1.002  0.4196  0.7459 -0.2090
  165TMC2    C6 2569   3.895   3.693   1.005  0.8049 -0.3208  0.8104
  165TMC2     C 2570   3.503   3.819   0.964  0.3530 -0.8385 -0.4674
  165TMC2     O 2571   3.423   3.748   1.015 -0.3660  0.0757 -0.0624
  165TMC2     H 2572   3.592   3.572   1.019  1.8071 -1.5102  0.2635
  165TMC2    H1 2573   3.711   3.981   1.004  1.0263 -0.4691  0.8676
  165TMC2    H2 2574   3.998   3.661   0.988  0.7847  0.2949 -0.4871
  165TMC2    C7 2575   3.971   3.923   1.000 -0.0190 -0.5049  0.3162
  165TMC2    C8 2576   3.819   3.458   1.014 -0.3866  0.1286  0.6797
  165TMC2    O1 2577   4.081   3.883   1.036 -0.3826  0.3130  0.0538
  165TMC2    O2 2578   3.742   3.378   0.963 -0.0804  0.7416 -0.1321
  165TMC2    O5 2579   3.934   3.438   1.084 -0.3101 -0.2111 -0.0013
  165TMC2    H5 2580   3.944   3.512   1.147  0.8297 -1.0680  0.8289
  166MPD2     C 2581   3.117   4.026   0.685  0.9300 -0.4517 -0.1104
  166MPD2    C1 2582   3.119   3.934   0.789  0.2329 -0.0030 -0.2597
  166MPD2    C2 2583   3.234   3.893   0.850  0.7912 -0.0320 -0.2056
  166MPD2    C3 2584   3.351   3.951   0.809  0.3970 -0.0396  0.1159
  166MPD2    C4 2585   3.357   4.049   0.707  0.8881 -0.5756 -0.7481
  166MPD2    C5 2586   3.240   4.084   0.649  0.6046 -0.6394  0.4613
  166MPD2     H 2587   3.235   3.832   0.940  1.4285  1.6177  0.9104
  166MPD2    H1 2588   3.449   4.103   0.687  0.9649 -0.4854 -0.1519
  166MPD2    H2 2589   3.043   4.068   0.618 -0.4120 -1.8443  0.5004
  166MPD2    H3 2590   3.248   4.162   0.575 -0.0212 -0.9804  0.0358
  166MPD2     N 2591   3.485   3.919   0.869  0.4456  0.2640  0.5076
  166MPD2    H5 2592   3.569   3.951   0.822 -0.6084  0.0496 -1.4974
  166MPD2    N1 2593   3.002   3.875   0.846  0.6374 -0.0634 -0.3996
  166MPD2    H7 2594   3.014   3.803   0.917 -1.1959 -0.0048 -0.0305
  167TMC2    C1 2595   2.620   2.170  12.619 -0.6795 -0.6544  0.2901
  167TMC2    C2 2596   2.615   2.257  12.724  0.2359 -0.5096 -0.1608
  167TMC2    C3 2597   2.687   2.234  12.835 -0.2072  0.6708 -0.1509
  167TMC2    C4 2598   2.696   2.061  12.627 -0.8839  0.6953 -0.0276
  167TMC2    C5 2599   2.753   2.032  12.752 -0.1754  0.5951 -0.3813
  167TMC2    C6 2600   2.763   2.121  12.855  0.0413 -0.8973  0.2999
  167TMC2     C 2601   2.578   2.219  12.485 -0.1652 -0.3943  0.3870
  167TMC2     O 2602   2.558   2.338  12.466 -0.0588  0.1901 -0.0416
  167TMC2     H 2603   2.570   2.353  12.703  1.7345  0.8484  2.7663
  167TMC2    H1 2604   2.700   1.987  12.548  0.9783  1.3367 -0.5302
  167TMC2    H2 2605   2.837   2.109  12.933  1.3430  1.6012 -0.5623
  167TMC2    C7 2606   2.834   1.910  12.770 -0.1087 -0.1827 -0.0164
  167TMC2    C8 2607   2.736   2.345  12.918  0.1184 -0.0352 -0.1798
  167TMC2    O1 2608   2.818   1.849  12.876 -0.1178 -0.5788 -0.0131
  167TMC2    O2 2609   2.722   2.463  12.881 -0.7564  0.4661 -0.1793
  167TMC2    O5 2610   2.695   2.307  13.037  0.8305  0.3723 -0.6714
  167TMC2    H5 2611   2.678   2.210  13.046 -0.8333  1.0006  2.8838
  168MPD2     C 2612   2.542   2.264  12.192  0.8220 -0.1806 -0.0426
  168MPD2    C1 2613   2.536   2.137  12.253  0.3970  0.5456  0.2268
  168MPD2    C2 2614   2.512   2.021  12.183 -0.1166  0.3330 -0.3242
  168MPD2    C3 2615   2.478   2.031  12.048 -0.7140  0.4734  0.3336
  168MPD2    C4 2616   2.469   2.159  11.989 -0.5075 -0.3783 -0.1121
  168MPD2    C5 2617   2.503   2.269  12.060  0.8425 -0.5404 -0.7455
  168MPD2     H 2618   2.528   1.927  12.236 -3.2016  0.6463  1.1712
  168MPD2    H1 2619   2.434   2.180  11.888 -0.2239 -2.7408 -0.6956
  168MPD2    H2 2620   2.581   2.355  12.237 -1.4695 -0.4155  2.4025
  168MPD2    H3 2621   2.490   2.365  12.009 -1.8512 -0.5734 -0.1491
  168MPD2     N 2622   2.428   1.918  11.972  0.1935 -0.3617 -0.8007
  168MPD2    H5 2623   2.378   1.946  11.888 -2.6502  0.2605  1.0911
  168MPD2    N1 2624   2.563   2.121  12.394  0.1228  0.3780 -0.2402
  168MPD2    H7 2625   2.570   2.022  12.418 -0.6257  0.1599 -0.9305
  169MPD1     C 2626   4.374   1.832   9.418  0.5656 -0.5649  0.1456
  169MPD1    C1 2627   4.349   1.758   9.529 -0.1795  0.2762 -1.3259
  169MPD1    C2 2628   4.444   1.755   9.628  0.1599 -0.3098  0.9040
  169MPD1    C3 2629   4.569   1.814   9.607 -0.9618  0.3501  0.1148
  169MPD1    C4 2630   4.586   1.888   9.490 -0.9041 -0.4097  0.4367
  169MPD1    C5 2631   4.493   1.896   9.394  0.2395  0.4178 -0.6848
  169MPD1     H 2632   4.420   1.709   9.723 -0.4042 -1.5229  0.1715
  169MPD1    H1 2633   4.678   1.939   9.468 -1.4792 -0.3398 -1.8256
  169MPD1    H2 2634   4.297   1.847   9.343  1.1292  0.0393 -0.3164
  169MPD1    H3 2635   4.508   1.956   9.305 -0.8358  1.0243 -0.4542
  169MPD1     N 2636   4.665   1.808   9.712 -0.1114 -0.1743  0.5533
  169MPD1    H5 2637   4.642   1.756   9.797 -0.5382  0.1977  0.6646
  169MPD1    N1 2638   4.213   1.711   9.549  0.0718  0.2692  0.4491
  169MPD1    H6 2639   4.172   1.682   9.461  2.8776 -2.7342  0.1289
  169MPD1    H7 2640   4.208   1.627   9.606  0.3303  0.3276  0.5599
  170MPD1     C 2641   3.281   3.630  12.757  0.0024 -0.0419  0.6226
  170MPD1    C1 2642   3.278   3.549  12.870 -0.0743  0.1448 -0.5027
  170MPD1    C2 2643   3.245   3.614  12.993  0.7044  0.1927 -0.4806
  170MPD1    C3 2644   3.245   3.754  13.012  0.5254  1.2189  0.3700
  170MPD1    C4 2645   3.258   3.834  12.895 -0.6459  0.9038 -0.8656
  170MPD1    C5 2646   3.275   3.768  12.775  0.0395  0.2006  0.1294
  170MPD1     H 2647   3.244   3.563  13.090  1.8757 -0.0987 -0.6152
  170MPD1    H1 2648   3.238   3.940  12.887  0.6171  1.1930 -0.0377
  170MPD1    H2 2649   3.308   3.598  12.657 -2.0739 -0.1316  0.0894
  170MPD1    H3 2650   3.279   3.826  12.683 -1.9981  1.8719  1.0853
  170MPD1     N 2651   3.231   3.811  13.147  0.2623 -0.0730  0.2580
  170MPD1    H5 2652   3.229   3.749  13.227  3.2635  0.3214  0.6378
  170MPD1    N1 2653   3.264   3.406  12.863  0.6167  0.1288 -0.2665
  170MPD1    H6 2654   3.296   3.365  12.775  0.8439  2.2577 -1.1704
  170MPD1    H7 2655   3.303   3.359  12.944 -0.0780 -1.2008 -0.6915
  171MPD1     C 2656   2.152   0.890  15.595 -0.1993 -0.7300  0.0101
  171MPD1    C1 2657   2.089   0.839  15.705 -0.3698  0.0575 -0.1146
  171MPD1    C2 2658   2.016   0.722  15.695  0.2197 -0.9380 -0.2391
  171MPD1    C3 2659   2.014   0.648  15.575  0.4225 -0.8536 -0.0201
  171MPD1    C4 2660   2.079   0.698  15.465 -0.4302 -1.3817  0.0099
  171MPD1    C5 2661   2.150   0.812  15.481 -0.4320  0.1740  0.2386
  171MPD1     H 2662   1.968   0.680  15.783  1.2305 -0.2989  0.6167
  171MPD1    H1 2663   2.094   0.649  15.369  0.5793 -0.1266 -0.4783
  171MPD1    H2 2664   2.216   0.977  15.597 -2.2610  0.7735  1.1648
  171MPD1    H3 2665   2.197   0.848  15.390  0.0200 -0.8124  0.0771
  171MPD1     N 2666   1.967   0.515  15.577  0.2083 -0.6035 -0.1192
  171MPD1    H5 2667   1.944   0.482  15.670  0.2476 -2.5946 -0.8187
  171MPD1    N1 2668   2.086   0.910  15.824 -1.1187  0.1498 -0.2758
  171MPD1    H6 2669   2.146   0.992  15.829 -0.9460 -0.0567  1.1885
  171MPD1    H7 2670   2.096   0.848  15.905  0.3776 -1.3587 -1.6164
  172MPD1     C 2671   1.221   3.977  17.208  0.0172 -0.2199 -0.0572
  172MPD1    C1 2672   1.145   4.082  17.251 -0.0356  0.0888  0.5037
  172MPD1    C2 2673   1.127   4.096  17.387  0.4193 -0.2870 -0.2474
  172MPD1    C3 2674   1.173   4.001  17.486  0.2789  0.7561  1.0154
  172MPD1    C4 2675   1.248   3.897  17.440  0.3588 -0.2145  0.3248
  172MPD1    C5 2676   1.274   3.887  17.304  0.7386  0.6216  0.4191
  172MPD1     H 2677   1.057   4.174  17.416  3.0670  2.5214 -1.3876
  172MPD1    H1 2678   1.290   3.828  17.512 -0.9640  0.1321  1.4315
  172MPD1    H2 2679   1.255   3.963  17.106 -0.2210  1.5861 -0.3892
  172MPD1    H3 2680   1.344   3.811  17.274 -1.6527 -1.7426  0.8769
  172MPD1     N 2681   1.137   4.003  17.626  0.6158  0.3263 -0.0241
  172MPD1    H5 2682   1.169   3.926  17.684 -2.9267  0.0909  1.5933
  172MPD1    N1 2683   1.091   4.176  17.163 -0.3068  0.5664  0.2171
  172MPD1    H6 2684   1.075   4.151  17.066 -2.9101 -0.2877  0.8674
  172MPD1    H7 2685   1.015   4.233  17.200  0.9921  1.8491  0.9056
  173MPD1     C 2686   2.377   3.542  13.980 -0.4075  0.4254  0.0327
  173MPD1    C1 2687   2.470   3.546  14.082  0.5477 -0.0243  0.2061
  173MPD1    C2 2688   2.461   3.651  14.172 -0.2710  0.9329 -0.0713
  173MPD1    C3 2689   2.364   3.746  14.155 -0.7038  0.5529 -0.1660
  173MPD1    C4 2690   2.262   3.735  14.063  0.4786 -0.0488 -0.7265
  173MPD1    C5 2691   2.270   3.633  13.979  0.4583 -0.0058 -0.2292
  173MPD1     H 2692   2.540   3.656  14.247  1.3881  0.2358 -1.7562
  173MPD1    H1 2693   2.170   3.793  14.064  0.4336 -0.1285  0.7266
  173MPD1    H2 2694   2.381   3.473  13.897 -2.8459  2.0178 -1.4275
  173MPD1    H3 2695   2.201   3.620  13.896  1.4100  0.0440 -1.0357
  173MPD1     N 2696   2.370   3.859  14.240 -0.2444 -0.4241 -1.0559
  173MPD1    H5 2697   2.452   3.867  14.300  1.1391  1.4852 -3.1445
  173MPD1    N1 2698   2.556   3.434  14.100  0.9229 -0.1679 -0.3497
  173MPD1    H6 2699   2.605   3.414  14.013  0.5045  1.1675 -0.8993
  173MPD1    H7 2700   2.623   3.456  14.174 -0.4106  0.3286  0.7187
  174MPD1     C 2701   2.907   4.710  14.289 -0.5572 -0.9825  0.5562
  174MPD1    C1 2702   2.924   4.581  14.254  1.1593 -0.2448  0.6665
  174MPD1    C2 2703   2.826   4.493  14.294 -0.3333 -0.0205  0.9200
  174MPD1    C3 2704   2.708   4.529  14.361  0.9059 -0.2744  0.6093
  174MPD1    C4 2705   2.695   4.660  14.400 -0.3635 -0.8759  0.3669
  174MPD1    C5 2706   2.795   0.009  14.365  0.6722 -0.1607  0.3806
  174MPD1     H 2707   2.849   4.389  14.273 -1.3258  0.1671 -1.1689
  174MPD1    H1 2708   2.607   4.686  14.458 -1.9674  0.9226 -2.9564
  174MPD1    H2 2709   2.978   0.040  14.248 -0.5625 -1.3291 -0.0472
  174MPD1    H3 2710   2.790   0.114  14.390 -2.7018 -0.2643  0.0443
  174MPD1     N 2711   2.601   4.441  14.369  0.3341 -0.1011  0.3476
  174MPD1    H5 2712   2.517   4.479  14.413 -1.4911 -0.6938 -2.6173
  174MPD1    N1 2713   3.045   4.534  14.202  0.1960 -0.3232  0.2193
  174MPD1    H6 2714   3.091   4.600  14.139 -1.3500  0.8957  0.3656
  174MPD1    H7 2715   3.019   4.458  14.140 -0.1213 -0.0638  0.0395
  175MPD1     C 2716   0.810   0.321  15.360 -0.4758  0.2567 -0.6079
  175MPD1    C1 2717   0.679   0.297  15.378 -0.3112  0.6419 -0.3196
  175MPD1    C2 2718   0.646   0.243  15.501 -0.0745  0.3750 -0.4648
  175MPD1    C3 2719   0.739   0.228  15.607 -0.4376  0.0198 -0.0835
  175MPD1    C4 2720   0.866   0.251  15.577 -0.6370  0.0570  0.0184
  175MPD1    C5 2721   0.906   0.309  15.458  0.8736 -0.1880 -0.0197
  175MPD1     H 2722   0.547   0.202  15.520  0.6148 -1.2562 -0.4302
  175MPD1    H1 2723   0.933   0.237  15.661 -0.0571  0.2716 -0.4044
  175MPD1    H2 2724   0.838   0.360  15.262  0.2332 -0.1268 -0.5585
  175MPD1    H3 2725   1.010   0.325  15.433  0.1424  0.8700 -2.3804
  175MPD1     N 2726   0.712   0.189  15.740  0.2338  0.5291  0.0353
  175MPD1    H5 2727   0.800   0.183  15.791  1.0873 -0.2974 -1.5582
  175MPD1    N1 2728   0.599   0.300  15.265  0.1126 -0.0339 -0.1620
  175MPD1    H6 2729   0.627   0.381  15.209  0.6756 -0.1540 -0.0613
  175MPD1    H7 2730   0.502   0.319  15.286 -0.4441 -0.7418 -2.1198
  176MPD1     C 2731   1.891   2.503   0.093 -0.4602  0.1690 -0.0114
  176MPD1    C1 2732   1.959   2.530  17.731  0.8305 -0.6477  0.3643
  176MPD1    C2 2733   2.057   2.631  17.747  0.6102 -0.6247  0.1992
  176MPD1    C3 2734   2.061   2.721   0.095  0.4390 -0.5132 -0.2934
  176MPD1    C4 2735   1.990   2.689   0.205  1.0149 -0.3971  0.1527
  176MPD1    C5 2736   1.918   2.575   0.204  0.5195  0.1221 -0.2664
  176MPD1     H 2737   2.126   2.654  17.666  1.0456 -1.5819  0.3032
  176MPD1    H1 2738   1.990   2.741   0.301 -3.9239 -0.9929  0.4810
  176MPD1    H2 2739   1.823   2.420   0.107  1.9435 -1.6447  1.0151
  176MPD1    H3 2740   1.863   2.554   0.295  1.5937  2.2268  0.8519
  176MPD1     N 2741   2.143   2.838   0.084  0.0822 -0.1129  0.2491
  176MPD1    H5 2742   2.197   2.848  17.759 -0.8115  0.8362 -0.2188
  176MPD1    N1 2743   1.955   2.435  17.625 -0.1523 -0.0171 -0.4301
  176MPD1    H6 2744   1.961   2.487  17.537  0.5049 -0.3101 -0.5580
  176MPD1    H7 2745   1.861   2.397  17.632 -0.2972  0.2152 -1.0786
  177MPD1     C 2746   1.391   2.741  10.013  0.5927 -0.0658 -0.4978
  177MPD1    C1 2747   1.412   2.853   9.932 -1.0154 -0.5720  0.2293
  177MPD1    C2 2748   1.338   2.877   9.818  0.0160  0.0774 -0.4086
  177MPD1    C3 2749   1.248   2.782   9.773  0.7329  0.2266  0.5846
  177MPD1    C4 2750   1.232   2.664   9.851 -0.1928  0.0988  0.6152
  177MPD1    C5 2751   1.308   2.648   9.964  0.3213 -0.2757  0.0399
  177MPD1     H 2752   1.358   2.971   9.767 -1.4176  0.2942 -0.5491
  177MPD1    H1 2753   1.160   2.586   9.828  0.1517  0.6660 -2.3515
  177MPD1    H2 2754   1.432   2.712  10.109  0.8087  1.1787 -0.2226
  177MPD1    H3 2755   1.283   2.562  10.025 -2.1298  0.8412  0.6128
  177MPD1     N 2756   1.168   2.806   9.663  0.0262 -0.0719 -0.5095
  177MPD1    H5 2757   1.188   2.889   9.610  2.0781 -0.6594 -0.6625
  177MPD1    N1 2758   1.490   2.950   9.988 -0.5183  0.0307  0.0426
  177MPD1    H6 2759   1.529   3.022   9.927  0.1231  0.1521  0.6014
  177MPD1    H7 2760   1.572   2.910  10.033 -1.2507 -0.3684  1.0028
  178MPD1     C 2761   2.959   3.297   0.425 -0.7399 -0.5595 -0.1924
  178MPD1    C1 2762   2.849   3.220   0.440  0.2736  0.7230  0.3582
  178MPD1    C2 2763   2.820   3.118   0.345 -0.0243 -0.6261  0.1624
  178MPD1    C3 2764   2.878   3.113   0.218  0.2837  0.5709  0.2850
  178MPD1    C4 2765   2.988   3.201   0.199 -0.0630 -0.0905 -1.4014
  178MPD1    C5 2766   3.031   3.282   0.304 -0.6830  0.0830 -0.3552
  178MPD1     H 2767   2.739   3.046   0.354 -0.5498  0.0919  1.2002
  178MPD1    H1 2768   3.051   3.199   0.110  0.3669 -2.2940 -1.0636
  178MPD1    H2 2769   3.001   3.364   0.499  1.6760 -2.3310  0.0363
  178MPD1    H3 2770   3.125   3.337   0.298 -0.8098  0.4450  0.8455
  178MPD1     N 2771   2.835   3.036   0.105 -0.1298 -0.1557 -0.5815
  178MPD1    H5 2772   2.883   3.047   0.016 -0.7193  2.4809 -0.5910
  178MPD1    N1 2773   2.778   3.221   0.563 -0.8053 -0.2580  0.3695
  178MPD1    H6 2774   2.684   3.184   0.561 -1.7016  1.9765  1.1687
  178MPD1    H7 2775   2.780   3.308   0.615  1.1875  1.1586 -2.0926
  179MPD1     C 2776   3.117   1.756  15.851  0.7066 -0.3849  0.1533
  179MPD1    C1 2777   3.178   1.648  15.796 -0.1816 -0.4064  0.2378
  179MPD1    C2 2778   3.148   1.525  15.846  0.2396  0.2960  0.6224
  179MPD1    C3 2779   3.073   1.509  15.959 -0.6012 -0.1966 -0.9257
  179MPD1    C4 2780   3.019   1.619  16.023  0.2031 -0.3159  1.4363
  179MPD1    C5 2781   3.043   1.743  15.971 -0.3383 -0.5779  0.2288
  179MPD1     H 2782   3.184   1.437  15.794  0.3610  0.2790  0.7358
  179MPD1    H1 2783   2.955   1.623  16.110 -0.6343  1.3626  0.7367
  179MPD1    H2 2784   3.121   1.854  15.803  1.4650  0.6026  2.2068
  179MPD1    H3 2785   2.992   1.832  16.006 -0.0551  0.1120 -1.1049
  179MPD1     N 2786   3.029   1.383  16.005 -0.4024  0.3951 -0.1220
  179MPD1    H5 2787   2.956   1.371  16.075 -1.2819  1.4778 -0.8523
  179MPD1    N1 2788   3.259   1.664  15.682  0.0752 -0.0063 -0.3769
  179MPD1    H6 2789   3.309   1.579  15.657 -0.9687 -1.1331  1.3591
  179MPD1    H7 2790   3.334   1.733  15.687 -0.4141  0.4640  0.4481
  180MPD1     C 2791   3.405   2.837  15.506  0.4205 -0.3919  0.1151
  180MPD1    C1 2792   3.448   2.825  15.376 -0.1691  0.1292  0.2378
  180MPD1    C2 2793   3.372   2.884  15.280  0.3700 -0.0205  0.4503
  180MPD1    C3 2794   3.252   2.943  15.305  0.5822 -0.1177  0.3508
  180MPD1    C4 2795   3.207   2.947  15.432  0.4246  0.0406  0.2607
  180MPD1    C5 2796   3.284   2.892  15.530  0.0038 -0.3913 -0.4491
  180MPD1     H 2797   3.400   2.874  15.176 -1.0451 -2.6211  0.3188
  180MPD1    H1 2798   3.105   2.964  15.467  0.2670  0.0174 -0.1832
  180MPD1    H2 2799   3.469   2.798  15.585  0.4850 -0.8285 -0.1548
  180MPD1    H3 2800   3.252   2.888  15.634 -0.6485 -1.7906 -0.7057
  180MPD1     N 2801   3.177   2.992  15.194 -0.3205 -0.2190  0.5198
  180MPD1    H5 2802   3.220   2.979  15.103  0.2003  0.1298  0.7182
  180MPD1    N1 2803   3.584   2.781  15.351 -0.3183 -0.3979  0.0676
  180MPD1    H6 2804   3.591   2.758  15.252 -0.6902 -0.2602  0.0091
  180MPD1    H7 2805   3.620   2.706  15.410  0.6445 -1.2929 -1.6265
  181MPD1     C 2806   0.468   3.929   9.651  0.2331 -0.2699  0.4475
  181MPD1    C1 2807   0.369   4.019   9.685 -0.1250 -0.0110 -1.1011
  181MPD1    C2 2808   0.389   4.105   9.792 -0.3972  0.1413  0.4167
  181MPD1    C3 2809   0.521   4.109   9.845  0.0581  0.0138 -0.5460
  181MPD1    C4 2810   0.621   4.030   9.797  0.6161  0.2342  0.6403
  181MPD1    C5 2811   0.593   3.943   9.698  0.2631 -0.6215  0.3192
  181MPD1     H 2812   0.312   4.172   9.829 -2.0123 -2.4329  1.7001
  181MPD1    H1 2813   0.720   4.027   9.840  0.5388  1.0822  0.8901
  181MPD1    H2 2814   0.459   3.846   9.583  0.9718 -0.6147  0.7721
  181MPD1    H3 2815   0.672   3.890   9.646  0.5186  0.6029 -0.5417
  181MPD1     N 2816   0.554   4.168   9.964  0.0834  0.7212 -0.1847
  181MPD1    H5 2817   0.653   4.175   9.988  1.0036 -0.9132 -3.6085
  181MPD1    N1 2818   0.240   3.996   9.627 -0.0588  0.0822 -0.0844
  181MPD1    H6 2819   0.185   4.081   9.631 -2.1817 -1.4140  2.5176
  181MPD1    H7 2820   0.246   3.958   9.533  0.1415  0.9362 -0.4100
  182MPD1     C 2821   4.612   3.433   1.420  0.0412  0.2246  0.0649
  182MPD1    C1 2822   4.720   3.375   1.348  0.2038  0.0247 -0.1759
  182MPD1    C2 2823   4.722   3.380   1.211  0.3954  0.3132  0.0178
  182MPD1    C3 2824   4.612   3.434   1.148 -0.6852  0.0727  0.5137
  182MPD1    C4 2825   4.509   3.491   1.216  0.3076  0.4263  0.4074
  182MPD1    C5 2826   4.502   3.479   1.353  0.0170  0.6574  0.1574
  182MPD1     H 2827   0.068   3.349   1.153  0.1541 -2.7325  1.2856
  182MPD1    H1 2828   4.420   3.523   1.162 -0.4062 -0.8973  0.7848
  182MPD1    H2 2829   4.611   3.446   1.527  1.7091 -1.1668  0.2605
  182MPD1    H3 2830   4.413   3.511   1.405  0.2039  0.8992  0.3319
  182MPD1     N 2831   4.610   3.435   1.009  0.4266  0.2935  0.6444
  182MPD1    H5 2832   4.539   3.491   0.962  0.0595  0.3926  1.3108
  182MPD1    N1 2833   0.098   3.338   1.415 -0.6070  0.0085 -0.2575
  182MPD1    H6 2834   0.069   3.307   1.507 -1.4662  0.7648 -0.2679
  182MPD1    H7 2835   0.126   3.250   1.373  0.2596  0.0805  0.1671
  183MPD1     C 2836   2.498   0.726   9.656 -0.9823  0.2252  0.4291
  183MPD1    C1 2837   2.463   0.676   9.780  0.1750 -0.4213  0.7270
  183MPD1    C2 2838   2.331   0.654   9.803 -0.2067  0.1326  0.1426
  183MPD1    C3 2839   2.230   0.688   9.719  0.5076  0.3733  0.3256
  183MPD1    C4 2840   2.263   0.741   9.597  0.3264 -0.5063  0.4889
  183MPD1    C5 2841   2.397   0.764   9.569  0.4117  0.0193  0.2625
  183MPD1     H 2842   2.307   0.614   9.901 -0.2853  0.0649  0.0953
  183MPD1    H1 2843   2.189   0.758   9.520 -0.2834 -0.3227  1.1112
  183MPD1    H2 2844   2.601   0.754   9.636 -0.5572 -1.9777 -0.4814
  183MPD1    H3 2845   2.423   0.808   9.473 -0.5048  0.8814  0.4123
  183MPD1     N 2846   2.096   0.671   9.761  0.4671 -0.8604  0.2493
  183MPD1    H5 2847   2.064   0.627   9.847 -0.9821  2.6420  1.4940
  183MPD1    N1 2848   2.559   0.620   9.863 -0.1501  0.6216  0.1092
  183MPD1    H6 2849   2.651   0.660   9.846  0.1161  0.7094  1.7816
  183MPD1    H7 2850   2.543   0.609   9.963  1.3895  0.2488  0.3265
  184MPD1     C 2851   4.687   3.199  10.007  0.7464 -0.1482  0.8730
  184MPD1    C1 2852   4.648   3.094   9.927  0.3671  0.4608 -0.2808
  184MPD1    C2 2853   4.727   3.057   9.818 -0.0499 -1.2630 -0.2716
  184MPD1    C3 2854   0.103   3.126   9.787  0.6958 -0.2232 -0.3364
  184MPD1    C4 2855   0.143   3.225   9.875  0.4050 -0.0999  0.3379
  184MPD1    C5 2856   0.066   3.260   9.982 -0.0576  0.0263 -0.1192
  184MPD1     H 2857   4.680   2.984   9.753 -2.4675  0.6572 -0.6764
  184MPD1    H1 2858   0.242   3.269   9.874  0.4434 -0.1949  0.0016
  184MPD1    H2 2859   4.629   3.230  10.094  1.1485  1.9404  0.3961
  184MPD1    H3 2860   0.099   3.341  10.045 -2.6075  0.1863  0.9984
  184MPD1     N 2861   0.177   3.099   9.673  0.1201  0.2674 -0.4464
  184MPD1    H5 2862   0.267   3.147   9.674  1.3259 -1.9776 -1.0389
  184MPD1    N1 2863   4.547   3.007   9.962 -0.1589  0.5124  0.1302
  184MPD1    H6 2864   4.495   2.960   9.887  0.1676  0.7276 -0.2320
  184MPD1    H7 2865   4.472   3.047  10.018 -0.4815  0.4349 -0.2443
  185MPD1     C 2866   0.255   3.200   8.660 -0.0458  0.1007 -0.1287
  185MPD1    C1 2867   0.140   3.160   8.726 -0.4376 -0.0341 -0.1868
  185MPD1    C2 2868   0.163   3.110   8.851  0.6380  0.1855 -0.5101
  185MPD1    C3 2869   0.291   3.097   8.903  0.0080  0.3114 -0.4095
  185MPD1    C4 2870   0.399   3.151   8.837 -0.4482 -0.7760  0.4551
  185MPD1    C5 2871   0.380   3.194   8.709  0.0462 -0.0185  0.7044
  185MPD1     H 2872   0.073   3.075   8.901  1.1134 -0.8507 -0.3884
  185MPD1    H1 2873   0.499   3.144   8.879  0.2988 -0.2923 -1.2378
  185MPD1    H2 2874   0.243   3.248   8.564 -0.8937 -0.2868 -0.2169
  185MPD1    H3 2875   0.464   3.214   8.643 -0.8047  1.6825  0.1319
  185MPD1     N 2876   0.317   3.047   9.033 -0.2446 -0.2475  0.5082
  185MPD1    H5 2877   0.407   3.080   9.067  1.0979 -1.9838 -1.4442
  185MPD1    N1 2878   0.017   3.203   8.677 -0.2934 -0.0402  0.0090
  185MPD1    H6 2879   0.013   3.207   8.576 -1.6748  2.6599  0.1631
  185MPD1    H7 2880   4.669   3.162   8.707  0.6082 -1.2883  0.9598
  186MPD1     C 2881   2.278   1.568  15.796 -0.6056 -0.0584  0.3606
  186MPD1    C1 2882   2.406   1.600  15.761 -0.1885 -0.3803 -0.4683
  186MPD1    C2 2883   2.480   1.681  15.841  0.5656  0.5457 -0.1042
  186MPD1    C3 2884   2.434   1.706  15.971  0.0601 -0.8637 -1.0318
  186MPD1    C4 2885   2.313   1.657  16.016  0.0171  0.5096  0.3778
  186MPD1    C5 2886   2.235   1.586  15.923  0.3652  0.0323 -0.2531
  186MPD1     H 2887   2.584   1.703  15.819  0.1914 -0.1454 -2.5229
  186MPD1    H1 2888   2.281   1.680  16.117  0.3730 -0.8952  0.8081
  186MPD1    H2 2889   2.200   1.518  15.740 -1.5412  1.0434  0.6962
  186MPD1    H3 2890   2.136   1.557  15.956 -0.6073  0.7523 -2.5343
  186MPD1     N 2891   2.505   1.780  16.069 -0.1503  0.0002  0.1867
  186MPD1    H5 2892   2.462   1.784  16.161 -1.9884  0.8278 -0.6955
  186MPD1    N1 2893   2.449   1.568  15.630 -0.3656 -0.1989  0.2373
  186MPD1    H6 2894   2.548   1.545  15.637 -0.2887 -0.1154 -0.5810
  186MPD1    H7 2895   2.409   1.483  15.590  1.0893 -1.7581  2.1067
  187MPD1     C 2896   1.819   3.834   0.395  1.3394 -0.4628 -0.6128
  187MPD1    C1 2897   1.828   3.713   0.326 -0.6673 -0.5677  0.7006
  187MPD1    C2 2898   1.892   3.705   0.201 -0.0909  0.2192  0.7649
  187MPD1    C3 2899   1.930   3.816   0.130 -0.1554 -0.2846 -0.6748
  187MPD1    C4 2900   1.929   3.937   0.202 -0.7810  0.4609  0.0790
  187MPD1    C5 2901   1.880   3.942   0.332 -0.5902 -0.0806  0.1398
  187MPD1     H 2902   1.889   3.609   0.150  1.6489  1.0249 -0.8539
  187MPD1    H1 2903   1.969   4.027   0.156 -0.3440 -1.1597 -2.7039
  187MPD1    H2 2904   1.783   3.851   0.496 -1.7211 -1.0056 -1.6305
  187MPD1    H3 2905   1.875   4.036   0.385 -0.6714  0.3190 -0.5777
  187MPD1     N 2906   1.982   3.806  17.757  0.4644 -0.5314 -0.6674
  187MPD1    H5 2907   2.020   3.890  17.714  1.1303 -2.4506 -3.8202
  187MPD1    N1 2908   1.753   3.604   0.376 -0.0077 -0.1848  0.0428
  187MPD1    H6 2909   1.767   3.602   0.477  2.4602  0.9572 -0.2914
  187MPD1    H7 2910   1.799   3.521   0.341 -0.1895  0.2436 -1.2221
  188MPD1     C 2911   2.187   3.834  10.365 -0.5974  0.3469 -0.2598
  188MPD1    C1 2912   2.227   3.711  10.407 -0.0119  0.1228  0.7909
  188MPD1    C2 2913   2.329   3.649  10.340  0.0983  0.4991  0.7344
  188MPD1    C3 2914   2.363   3.687  10.206  0.4578  0.2289  0.5006
  188MPD1    C4 2915   2.310   3.806  10.163 -0.1213 -0.3057  0.1216
  188MPD1    C5 2916   2.235   3.889  10.250 -0.5880 -0.3659 -0.2074
  188MPD1     H 2917   2.381   3.561  10.377 -0.7656  1.1593  3.4707
  188MPD1    H1 2918   2.351   3.856  10.076 -1.6727  1.7073  0.5546
  188MPD1    H2 2919   2.126   3.893  10.433  0.0947  0.4256  0.2892
  188MPD1    H3 2920   2.207   3.990  10.226 -0.4920  0.0579  1.4915
  188MPD1     N 2921   2.433   3.605  10.115 -0.6051  0.2605  0.3831
  188MPD1    H5 2922   2.447   3.638  10.020  0.3883  1.1615  0.8310
  188MPD1    N1 2923   2.173   3.663  10.531  0.0662  0.3772 -0.4331
  188MPD1    H6 2924   2.082   3.700  10.555 -0.7935 -1.3828 -0.9486
  188MPD1    H7 2925   2.165   3.561  10.532  1.9249  0.2176 -1.2017
  189MPD1     C 2926   4.145   4.333   0.171 -0.4347 -0.3273  0.0445
  189MPD1    C1 2927   4.030   4.269   0.130  0.6744 -0.2549  0.2683
  189MPD1    C2 2928   3.912   4.336   0.144  0.6807  0.5087  0.2775
  189MPD1    C3 2929   3.907   4.466   0.206 -1.1132 -0.3866  0.2984
  189MPD1    C4 2930   4.023   4.527   0.239 -0.0013 -0.0497 -0.3912
  189MPD1    C5 2931   4.141   4.461   0.229  0.3157 -0.1895  0.1147
  189MPD1     H 2932   3.825   4.286   0.103  0.2009  2.4493 -1.0728
  189MPD1    H1 2933   4.013   4.613   0.304 -0.3398  0.1675 -0.7304
  189MPD1    H2 2934   4.236   4.276   0.180 -0.0626 -0.3045 -3.6771
  189MPD1    H3 2935   4.231   4.505   0.272 -0.5237  0.2752  1.4103
  189MPD1     N 2936   3.778   4.524   0.226  0.2583  0.2748  0.2688
  189MPD1    H5 2937   3.696   4.465   0.217 -0.5243  1.2544  1.0059
  189MPD1    N1 2938   4.043   4.139   0.077 -0.0528  0.5331  0.0801
  189MPD1    H6 2939   4.110   4.144   0.000  0.9467 -0.6888  0.8754
  189MPD1    H7 2940   3.953   4.104   0.044  0.7262 -0.2047 -1.2891
  190MPD1     C 2941   2.191   3.028  15.467 -0.7867 -0.2735 -0.6579
  190MPD1    C1 2942   2.152   2.912  15.529 -0.3131 -0.6293 -0.1408
  190MPD1    C2 2943   2.251   2.812  15.535 -0.7432  0.4769  0.6948
  190MPD1    C3 2944   2.376   2.837  15.486 -0.1516  0.1810  0.7066
  190MPD1    C4 2945   2.406   2.950  15.414  0.4550  0.2143 -0.5746
  190MPD1    C5 2946   2.313   3.047  15.407  0.8782  0.2961  0.0569
  190MPD1     H 2947   2.240   2.720  15.592  1.8608 -1.7098 -2.3269
  190MPD1    H1 2948   2.508   2.966  15.382  0.2656 -0.5094 -1.5363
  190MPD1    H2 2949   2.128   3.116  15.456  0.5284  0.5366 -1.6900
  190MPD1    H3 2950   2.328   3.139  15.352  0.1240  0.1328 -0.4263
  190MPD1     N 2951   2.466   2.737  15.500 -0.0183 -0.2952 -0.2960
  190MPD1    H5 2952   2.441   2.676  15.577  0.4609 -0.1447 -0.0193
  190MPD1    N1 2953   2.022   2.892  15.581 -0.7426 -0.1658  0.4034
  190MPD1    H6 2954   1.940   2.934  15.539 -1.0498 -1.5494 -0.3980
  190MPD1    H7 2955   2.013   2.795  15.609  0.9255 -0.3900  0.1957
  191MPD1     C 2956   3.008   0.064  13.457  1.1114  0.3832 -0.6067
  191MPD1    C1 2957   2.897   0.087  13.537 -0.2471  0.3324  0.5865
  191MPD1    C2 2958   2.819   0.197  13.513 -0.8171  0.0166 -0.5185
  191MPD1    C3 2959   2.859   0.301  13.441  0.0112 -0.5631 -0.5646
  191MPD1    C4 2960   2.974   0.285  13.367 -0.0824  0.5815  0.6143
  191MPD1    C5 2961   3.041   0.160  13.369  0.3237  0.0283  0.1767
  191MPD1     H 2962   2.725   0.208  13.567 -0.0812 -1.0103  0.9924
  191MPD1    H1 2963   3.006   0.350  13.287 -0.9976  0.0708 -0.1610
  191MPD1    H2 2964   3.062   4.711  13.462  3.6894  1.8420 -1.4878
  191MPD1    H3 2965   3.128   0.139  13.309  0.1198 -0.2284 -0.0269
  191MPD1     N 2966   2.772   0.408  13.441  0.0457  0.0494 -0.6622
  191MPD1    H5 2967   2.686   0.414  13.495  0.4918  1.8331 -0.1502
  191MPD1    N1 2968   2.851   4.728  13.630 -0.8173  0.1061  0.0616
  191MPD1    H6 2969   2.913   4.650  13.654  0.4388  0.5112 -1.8750
  191MPD1    H7 2970   2.801   0.011  13.715 -1.7336 -0.4414 -0.3135
  192MPD1     C 2971   1.939   0.308  13.348  0.0474  0.4169 -0.2015
  192MPD1    C1 2972   1.960   0.394  13.242  0.6420  0.2907 -0.7619
  192MPD1    C2 2973   2.092   0.430  13.224  0.3614  0.8109  0.5746
  192MPD1    C3 2974   2.191   0.414  13.321 -0.8530  0.3970  0.3796
  192MPD1    C4 2975   2.159   0.346  13.431 -0.9324 -0.5586  0.7694
  192MPD1    C5 2976   2.034   0.285  13.437  0.2867 -0.6387  0.1479
  192MPD1     H 2977   2.102   0.492  13.136 -1.4600 -0.0104 -0.2154
  192MPD1    H1 2978   2.229   0.333  13.512 -0.1324  1.9615  0.4866
  192MPD1    H2 2979   1.848   0.252  13.369 -0.7791  2.1285  0.7824
  192MPD1    H3 2980   2.010   0.219  13.520 -2.5199 -2.2501 -1.9749
  192MPD1     N 2981   2.328   0.464  13.306  0.2332 -0.1341  0.5039
  192MPD1    H5 2982   2.391   0.443  13.382  0.7604 -2.7832 -0.6613
  192MPD1    N1 2983   1.859   0.407  13.144 -0.4972  0.2788  0.9058
  192MPD1    H6 2984   1.766   0.411  13.185 -0.8592 -0.3542  0.1593
  192MPD1    H7 2985   1.881   0.493  13.094  1.6499 -1.5235 -1.2558
  193MPD1     C 2986   1.729   4.181  17.070  0.1784  0.0570 -0.2271
  193MPD1    C1 2987   1.690   4.288  17.141 -0.7253  0.1869  0.0143
  193MPD1    C2 2988   1.649   4.401  17.075 -0.0380 -0.4358  0.3001
  193MPD1    C3 2989   1.635   4.413  16.934  0.8162  0.3848 -0.1366
  193MPD1    C4 2990   1.667   4.293  16.869  0.7158  0.4326  0.2683
  193MPD1    C5 2991   1.723   4.189  16.934  0.1106  0.4852 -0.3066
  193MPD1     H 2992   1.616   4.480  17.142 -0.8074 -1.1423  0.7485
  193MPD1    H1 2993   1.658   4.287  16.761 -1.1736  0.9102  0.3882
  193MPD1    H2 2994   1.781   4.095  17.109  0.0201 -0.9717 -2.2923
  193MPD1    H3 2995   1.747   4.098  16.881 -2.2287  0.0613 -0.6735
  193MPD1     N 2996   1.605   4.526  16.855 -0.3822  0.1993  0.3597
  193MPD1    H5 2997   1.593   4.505  16.757 -0.6537 -1.4238  0.7448
  193MPD1    N1 2998   1.722   4.292  17.270  0.2210  0.8120 -0.1819
  193MPD1    H6 2999   1.673   4.364  17.323 -0.7786  0.4933 -0.6781
  193MPD1    H7 3000   1.709   4.198  17.308  2.5881 -0.0884 -1.5939
  194MPD1     C 3001   4.101   2.262  16.953  0.0147 -0.3807 -0.2036
  194MPD1    C1 3002   4.093   2.147  16.878 -0.4135  1.1678  0.0706
  194MPD1    C2 3003   4.138   2.025  16.933  0.7331 -0.5529 -0.1059
  194MPD1    C3 3004   4.200   2.023  17.055  0.5250 -0.7634  0.2268
  194MPD1    C4 3005   4.210   2.137  17.130 -0.0860 -1.0287 -0.9269
  194MPD1    C5 3006   4.155   2.255  17.081 -0.4331 -0.0982 -0.2275
  194MPD1     H 3007   4.138   1.931  16.879 -3.1067 -1.4260  1.4625
  194MPD1    H1 3008   4.255   2.129  17.229 -3.4726  1.7972  0.8663
  194MPD1    H2 3009   4.067   2.355  16.910 -2.7637  0.1792  3.1516
  194MPD1    H3 3010   4.158   2.345  17.141 -1.0626  1.1237 -2.0291
  194MPD1     N 3011   4.249   1.907  17.120 -0.3370 -0.1335 -0.4108
  194MPD1    H5 3012   4.283   1.926  17.214 -1.2086  1.2554 -0.3767
  194MPD1    N1 3013   4.012   2.145  16.758  0.1244 -0.1826 -0.2200
  194MPD1    H6 3014   4.034   2.225  16.699  0.7020  0.0791  0.3513
  194MPD1    H7 3015   4.004   2.067  16.694  1.3955  0.8180 -1.6120
  195MPD1     C 3016   1.757   3.474   1.776 -1.0117 -0.4515  0.3444
  195MPD1    C1 3017   1.636   3.497   1.705  0.1975  0.1558  0.6577
  195MPD1    C2 3018   1.623   3.475   1.570 -0.1303  0.6349  0.4008
  195MPD1    C3 3019   1.743   3.458   1.496 -0.7789 -0.3756  0.1236
  195MPD1    C4 3020   1.861   3.446   1.570 -0.3730  0.2305 -0.3946
  195MPD1    C5 3021   1.866   3.448   1.704  1.0385  0.4096 -0.2665
  195MPD1     H 3022   1.525   3.481   1.522  0.0964  0.1783 -0.1203
  195MPD1    H1 3023   1.954   3.420   1.520 -1.3528 -0.1820 -2.0199
  195MPD1    H2 3024   1.784   3.490   1.880 -0.0982 -0.9996  0.1912
  195MPD1    H3 3025   1.954   3.441   1.767  1.6976  2.0379 -1.0022
  195MPD1     N 3026   1.743   3.449   1.355 -0.4379  0.5009  0.4789
  195MPD1    H5 3027   1.833   3.438   1.308 -0.8055  0.8922 -0.3225
  195MPD1    N1 3028   1.518   3.516   1.779 -0.7718 -0.1674 -0.3619
  195MPD1    H6 3029   1.531   3.565   1.867  0.1638  0.3438 -0.7876
  195MPD1    H7 3030   1.443   3.567   1.734 -0.8242  1.4573  1.5948
  196MPD1     C 3031   0.648   2.620   0.180 -0.2548  0.3709  0.6242
  196MPD1    C1 3032   0.719   2.736   0.174  0.7054 -0.2298  0.0160
  196MPD1    C2 3033   0.705   2.821   0.278 -0.4853 -0.3097 -0.7617
  196MPD1    C3 3034   0.614   2.795   0.378 -0.1484  0.0183  0.0379
  196MPD1    C4 3035   0.543   2.677   0.374 -0.4067 -0.1388 -0.8997
  196MPD1    C5 3036   0.558   2.585   0.278 -0.1423  0.1318 -0.4327
  196MPD1     H 3037   0.769   2.908   0.286  0.1221 -0.7439 -0.9134
  196MPD1    H1 3038   0.476   2.653   0.455 -0.4098  0.8459 -0.6165
  196MPD1    H2 3039   0.658   2.535   0.113  0.8335 -0.4043  1.7686
  196MPD1    H3 3040   0.515   2.486   0.293  1.7348 -0.2339  2.5078
  196MPD1     N 3041   0.602   2.873   0.492 -0.5682 -0.8381  0.6526
  196MPD1    H5 3042   0.547   2.836   0.569  0.9477  0.4061  2.3389
  196MPD1    N1 3043   0.818   2.762   0.083 -0.5646  0.3077 -0.2436
  196MPD1    H6 3044   0.842   2.861   0.088 -2.1341  0.6538  0.5700
  196MPD1    H7 3045   0.777   2.732  17.755  2.7907 -0.4671 -1.5645
  197MPD1     C 3046   0.442   0.305  17.520 -0.6901  0.2835  0.0356
  197MPD1    C1 3047   0.517   0.390  17.589 -0.6035  0.1096  0.0085
  197MPD1    C2 3048   0.601   0.470  17.513  0.2174 -0.7953 -0.3267
  197MPD1    C3 3049   0.610   0.448  17.377  0.5723  0.2040  1.1056
  197MPD1    C4 3050   0.537   0.352  17.309  1.1859  0.5000  0.1387
  197MPD1    C5 3051   0.444   0.287  17.381  0.1632  0.2340  0.1819
  197MPD1     H 3052   0.658   0.543  17.568 -1.5596 -0.7294  1.4192
  197MPD1    H1 3053   0.545   0.327  17.204 -1.7305  1.9420 -0.4110
  197MPD1    H2 3054   0.373   0.237  17.568 -0.2965  1.3429  2.1115
  197MPD1    H3 3055   0.392   0.207  17.330 -0.6746  1.8200 -1.3944
  197MPD1     N 3056   0.700   0.526  17.300 -0.3725 -0.1958  0.2234
  197MPD1    H5 3057   0.739   0.484  17.216 -1.2267  0.1911 -0.3551
  197MPD1    N1 3058   0.478   0.431  17.719  0.3873  0.1745 -0.3297
  197MPD1    H6 3059   0.442   0.350   0.010 -0.3847  0.7618  0.0492
  197MPD1    H7 3060   0.555   0.464   0.017 -0.5054  3.9520 -1.2836
  198MPD1     C 3061   1.985   4.247  15.416  0.0159 -0.7290 -0.7672
  198MPD1    C1 3062   1.968   4.156  15.516 -0.8623  0.1022  0.1158
  198MPD1    C2 3063   2.080   4.127  15.597  0.4027  0.5502 -0.3989
  198MPD1    C3 3064   2.206   4.177  15.566  0.8564 -0.0035 -0.8356
  198MPD1    C4 3065   2.217   4.265  15.456  0.6564  0.4820  0.0359
  198MPD1    C5 3066   2.112   4.285  15.377  1.1543  0.4153 -0.4185
  198MPD1     H 3067   2.071   4.054  15.676 -1.6609  1.4794  0.2319
  198MPD1    H1 3068   2.304   4.329  15.444  1.1726  0.3259  2.7911
  198MPD1    H2 3069   1.902   4.264  15.349 -0.6029  0.5990  0.3338
  198MPD1    H3 3070   2.120   4.357  15.296  0.2560 -0.2378 -1.0933
  198MPD1     N 3071   2.317   4.137  15.641  0.4673  0.2050  0.1074
  198MPD1    H5 3072   2.298   4.086  15.727 -0.6233 -2.1707 -1.5649
  198MPD1    N1 3073   1.844   4.105  15.540  0.6275  0.4872  0.2702
  198MPD1    H6 3074   1.837   4.016  15.589 -1.8393  0.7515  0.4053
  198MPD1    H7 3075   1.790   4.097  15.454  0.2769 -2.0961  0.7326
  199MPD1     C 3076   3.943   1.051   9.469  0.9928  0.6192  0.4683
  199MPD1    C1 3077   3.868   1.026   9.584 -0.3962  0.2736 -0.1819
  199MPD1    C2 3078   3.928   1.015   9.707  0.2382  0.5116 -0.3267
  199MPD1    C3 3079   4.066   1.006   9.707 -0.8413  0.5431 -0.6664
  199MPD1    C4 3080   4.143   1.021   9.589  0.0412 -0.7011  0.5151
  199MPD1    C5 3081   4.077   1.055   9.472 -0.3771 -0.6389 -0.3624
  199MPD1     H 3082   3.872   0.999   9.799 -1.3692  1.3745 -1.1620
  199MPD1    H1 3083   4.250   1.002   9.585  0.2815  0.1335  3.1702
  199MPD1    H2 3084   3.890   1.074   9.377 -0.7566  0.0556  1.3243
  199MPD1    H3 3085   4.138   1.070   9.383  0.6263  2.4900  0.8699
  199MPD1     N 3086   4.138   0.992   9.824 -0.2436  0.0386 -0.5727
  199MPD1    H5 3087   4.238   1.009   9.818  0.0185 -1.6702 -1.1447
  199MPD1    N1 3088   3.727   1.045   9.572  0.3572 -0.2007  0.4050
  199MPD1    H6 3089   3.671   1.000   9.644  1.2234  0.5793  1.5780
  199MPD1    H7 3090   3.693   1.030   9.478  3.1284  2.2091 -0.9719
  200MPD1     C 3091   3.573   0.374  15.868  0.3994  0.4967  0.1828
  200MPD1    C1 3092   3.620   0.503  15.844  0.3358 -0.6538  0.2798
  200MPD1    C2 3093   3.755   0.524  15.821 -0.4089 -0.1086  0.0178
  200MPD1    C3 3094   3.845   0.421  15.807 -0.1963  0.2945 -0.0709
  200MPD1    C4 3095   3.804   0.293  15.836 -0.8997  0.7122  0.9023
  200MPD1    C5 3096   3.666   0.266  15.856  0.7149 -0.2462 -0.8143
  200MPD1     H 3097   3.775   0.626  15.790 -1.8838 -0.1571 -1.1274
  200MPD1    H1 3098   3.875   0.213  15.849 -1.0808  0.2528 -0.9427
  200MPD1    H2 3099   3.470   0.362  15.899  0.4572 -1.0779 -0.2159
  200MPD1    H3 3100   3.627   0.165  15.864  0.9678 -0.4633 -2.3290
  200MPD1     N 3101   3.979   0.450  15.774  0.1065 -0.3694  0.6262
  200MPD1    H5 3102   3.999   0.549  15.785 -2.0673  0.5006 -2.9714
  200MPD1    N1 3103   3.534   0.612  15.876 -0.5748 -0.0077  0.3964
  200MPD1    H6 3104   3.566   0.691  15.821 -0.4408  0.7426  1.5694
  200MPD1    H7 3105   3.432   0.604  15.875 -0.5189 -0.4881 -2.4183
  201MPD1     C 3106   1.607   4.371  12.919  0.1643 -0.1443 -0.3476
  201MPD1    C1 3107   1.708   4.363  13.019  0.3799 -0.1785  0.0053
  201MPD1    C2 3108   1.791   4.255  13.015  0.4211  0.3348 -0.2344
  201MPD1    C3 3109   1.792   4.174  12.911 -0.1545  0.0062 -0.8137
  201MPD1    C4 3110   1.703   4.189  12.811  0.5502  0.1031  0.3406
  201MPD1    C5 3111   1.609   4.282  12.810  0.3581  1.0298 -0.4266
  201MPD1     H 3112   1.866   4.229  13.089  1.0667  1.2913 -0.5624
  201MPD1    H1 3113   1.711   4.127  12.722 -1.9016 -0.2513  0.3569
  201MPD1    H2 3114   1.531   4.447  12.918 -0.0237 -0.3197  0.7014
  201MPD1    H3 3115   1.538   4.290  12.729 -1.1612  2.6961  1.0632
  201MPD1     N 3116   1.900   4.085  12.902  0.8697 -0.1610 -0.1433
  201MPD1    H5 3117   1.975   4.082  12.970 -1.3717 -1.2664  2.2851
  201MPD1    N1 3118   1.697   4.441  13.136 -0.6637 -0.0318  0.1045
  201MPD1    H6 3119   1.653   4.531  13.118  2.6037  1.4379 -0.4925
  201MPD1    H7 3120   1.787   4.464  13.178  0.4277 -1.5391 -1.4002
  202MPD1     C 3121   2.800   4.517   9.518  0.1567 -0.1780 -0.2492
  202MPD1    C1 3122   2.771   4.564   9.638 -0.2203  0.0393 -0.1019
  202MPD1    C2 3123   2.641   4.546   9.684 -0.4440 -0.2130  0.3240
  202MPD1    C3 3124   2.564   4.443   9.631 -0.2631  0.1721  0.8011
  202MPD1    C4 3125   2.600   4.392   9.510 -0.1307  0.5387 -0.0622
  202MPD1    C5 3126   2.721   4.429   9.455  0.3429 -0.2725 -0.1601
  202MPD1     H 3127   2.614   4.592   9.778 -2.7698  0.3201 -0.5960
  202MPD1    H1 3128   2.545   4.307   9.471  1.4884 -0.8616  0.6543
  202MPD1    H2 3129   2.900   4.531   9.477 -0.0490  0.6088 -0.4813
  202MPD1    H3 3130   2.760   4.379   9.367  2.3425  1.1846 -0.1048
  202MPD1     N 3131   2.439   4.395   9.683 -0.0341  0.5780 -0.0057
  202MPD1    H5 3132   2.399   4.309   9.646  1.0348 -1.1611  2.9331
  202MPD1    N1 3133   2.835   4.675   9.686  0.2946  0.0444  0.4112
  202MPD1    H6 3134   2.819   4.686   9.786 -0.3383 -0.9237  0.4144
  202MPD1    H7 3135   2.930   4.695   9.654 -0.0956 -1.3659 -1.6701
  203MPD1     C 3136   4.450   4.269  12.264  0.4341  0.5499  0.0264
  203MPD1    C1 3137   4.575   4.236  12.206 -0.2542 -0.5349 -0.1393
  203MPD1    C2 3138   4.656   4.144  12.274  0.5489  0.1496  0.0566
  203MPD1    C3 3139   4.611   4.076  12.382  0.6036  0.0434 -0.2805
  203MPD1    C4 3140   4.485   4.103  12.433 -0.2884 -0.1478  0.1495
  203MPD1    C5 3141   4.409   4.202  12.375 -0.5415 -0.5685  0.3453
  203MPD1     H 3142   0.009   4.105  12.235 -0.1992 -0.4424 -1.1646
  203MPD1    H1 3143   4.442   4.046  12.514  1.2362 -0.2058  0.9117
  203MPD1    H2 3144   4.382   4.341  12.221  0.1618 -0.2075 -0.8151
  203MPD1    H3 3145   4.310   4.238  12.401 -1.4161 -1.1406 -2.1567
  203MPD1     N 3146   4.693   3.968  12.416 -0.2329 -0.1276  0.3095
  203MPD1    H5 3147   0.037   3.958  12.361  0.7285 -0.9889  1.9395
  203MPD1    N1 3148   4.632   4.307  12.100 -0.0664 -0.1455  0.0824
  203MPD1    H6 3149   4.564   4.323  12.026  1.4381  0.1658 -1.2381
  203MPD1    H7 3150   4.716   4.263  12.062 -0.5959  0.4909 -1.8137
  204MPD1     C 3151   3.711   1.179  17.544  0.4215 -0.4861  0.0650
  204MPD1    C1 3152   3.793   1.214  17.448  0.6838  0.3833  0.8604
  204MPD1    C2 3153   3.896   1.127  17.414  0.7308  0.0414  0.2695
  204MPD1    C3 3154   3.912   1.009  17.481 -0.3451 -0.1909 -0.5975
  204MPD1    C4 3155   3.828   0.978  17.589  0.5441 -0.2052 -0.0632
  204MPD1    C5 3156   3.730   1.065  17.615  0.1231 -0.1816 -0.6647
  204MPD1     H 3157   3.975   1.145  17.342 -1.5949  0.4661 -2.1898
  204MPD1    H1 3158   3.832   0.880  17.636 -1.2173 -0.6558 -0.8276
  204MPD1    H2 3159   3.631   1.247  17.573 -0.1312 -0.5954 -1.2297
  204MPD1    H3 3160   3.649   1.051  17.687  1.2284  0.7548  0.7598
  204MPD1     N 3161   4.027   0.936  17.450 -0.0262  0.2209 -0.7927
  204MPD1    H5 3162   4.066   0.965  17.361  1.5403 -0.3240 -0.2800
  204MPD1    N1 3163   3.763   1.323  17.363  0.3228  0.4105 -0.3855
  204MPD1    H6 3164   3.725   1.403  17.413  2.3459  0.1893  1.5007
  204MPD1    H7 3165   3.846   1.353  17.313 -0.0914  1.6961 -0.3013
  205MPD1     C 3166   0.063   4.179  16.802 -0.5449  0.0214 -0.8381
  205MPD1    C1 3167   0.003   4.307  16.828 -0.2341  0.2917 -0.5533
  205MPD1    C2 3168   4.636   4.302  16.914  0.0468 -0.6371 -0.4117
  205MPD1    C3 3169   4.592   4.196  16.989  0.3319  0.6640  0.3140
  205MPD1    C4 3170   4.660   4.079  16.970  0.4613  0.7782 -0.0467
  205MPD1    C5 3171   0.014   4.069  16.866  0.2619  0.0690  0.3617
  205MPD1     H 3172   4.575   4.392  16.917 -0.6024 -1.1118  1.0389
  205MPD1    H1 3173   4.618   3.996  17.026  1.2472  0.7046  0.4466
  205MPD1    H2 3174   0.151   4.163  16.740  0.1340  0.2028  0.0846
  205MPD1    H3 3175   0.054   3.969  16.851  3.7698  1.7046 -1.2134
  205MPD1     N 3176   4.503   4.203  17.102 -0.1207 -0.0951  0.1099
  205MPD1    H5 3177   4.498   4.117  17.157  0.8628 -0.4087 -0.2782
  205MPD1    N1 3178   0.018   4.416  16.740 -0.2996  0.6887 -0.0956
  205MPD1    H6 3179   0.012   4.505  16.789 -1.4820  1.7644 -2.1688
  205MPD1    H7 3180   0.109   4.425  16.695  0.6595 -1.5082  1.4006
  206MPD1     C 3181   0.304   2.572  17.150  0.1654  0.6339  0.4128
  206MPD1    C1 3182   0.277   2.610  17.020  0.1728  0.1575  0.2208
  206MPD1    C2 3183   0.159   2.572  16.954 -0.0366 -0.0992 -0.2497
  206MPD1    C3 3184   0.071   2.495  17.032  0.1006 -0.5371  0.2557
  206MPD1    C4 3185   0.100   2.463  17.162  0.3786 -0.2542  0.4002
  206MPD1    C5 3186   0.218   2.488  17.217  0.1172  0.5021  0.6053
  206MPD1     H 3187   0.144   2.605  16.852  0.1318  2.3074  0.5230
  206MPD1    H1 3188   0.027   2.411  17.224  0.8030  0.0301  1.1336
  206MPD1    H2 3189   0.387   2.622  17.199 -0.3129 -0.1714  2.0440
  206MPD1    H3 3190   0.244   2.447  17.314  0.7740  0.5656  0.4612
  206MPD1     N 3191   4.698   2.443  16.975  0.0569 -0.4963  0.0421
  206MPD1    H5 3192   4.649   2.378  17.035 -1.7083  0.9942  0.2264
  206MPD1    N1 3193   0.374   2.688  16.946  0.2911  0.3077  0.2637
  206MPD1    H6 3194   0.468   2.687  16.985 -0.6461  0.0541  2.5105
  206MPD1    H7 3195   0.371   2.666  16.847 -0.1192  0.1345  0.3156
  207MPD1     C 3196   2.221   0.127  10.240 -0.8051  0.3938 -0.0061
  207MPD1    C1 3197   2.237   0.226  10.139 -0.1075 -0.8774  0.5413
  207MPD1    C2 3198   2.336   0.323  10.157  0.3422  0.1327  0.2827
  207MPD1    C3 3199   2.426   0.315  10.269  0.0073  0.0100  0.0994
  207MPD1    C4 3200   2.418   0.211  10.358  0.2043  0.3115  0.2591
  207MPD1    C5 3201   2.320   0.117  10.341 -0.0036 -0.5591  0.1882
  207MPD1     H 3202   2.348   0.410  10.094  1.7780  0.2629  0.7266
  207MPD1    H1 3203   2.480   0.199  10.447  0.2077 -1.4535  0.0148
  207MPD1    H2 3204   2.148   0.048  10.226  0.1462 -0.6497  0.9172
  207MPD1    H3 3205   2.321   0.025  10.399  0.5374 -0.0066  1.0696
  207MPD1     N 3206   2.531   0.406  10.294 -0.1696 -0.5290  0.1904
  207MPD1    H5 3207   2.604   0.379  10.359 -0.9615  0.2312  1.3964
  207MPD1    N1 3208   2.144   0.233  10.034  0.0713 -0.2370 -0.0153
  207MPD1    H6 3209   2.096   0.145  10.016  0.6498  0.0230 -2.8365
  207MPD1    H7 3210   2.199   0.254   9.951  0.2182  0.6023  0.2907
  208MPD1     C 3211   0.609   3.529   0.097  0.1481  0.4969 -0.2196
  208MPD1    C1 3212   0.519   3.435   0.136 -1.1314  0.2012 -0.3807
  208MPD1    C2 3213   0.433   3.387   0.043 -0.0092 -0.0141  0.3019
  208MPD1    C3 3214   0.419   3.448  17.680  0.2661  0.1405 -0.2330
  208MPD1    C4 3215   0.503   3.553  17.648 -0.3821 -0.6043 -0.2006
  208MPD1    C5 3216   0.605   3.572  17.729  0.2684 -0.6731 -0.7621
  208MPD1     H 3217   0.358   3.313   0.068  1.2344 -0.8793  1.4841
  208MPD1    H1 3218   0.514   3.586  17.546  0.6818  0.2426  0.1894
  208MPD1    H2 3219   0.688   3.559   0.165  2.1909 -1.3791 -1.7587
  208MPD1    H3 3220   0.684   3.641  17.702  0.1386  0.5288  1.8372
  208MPD1     N 3221   0.318   3.385  17.597 -0.2354 -0.1851  0.1820
  208MPD1    H5 3222   0.270   3.309  17.643  0.2748 -1.9747 -2.2726
  208MPD1    N1 3223   0.509   3.404   0.272  0.1911  0.0978  0.1767
  208MPD1    H6 3224   0.590   3.415   0.334  1.0070 -0.9768 -0.7181
  208MPD1    H7 3225   0.446   3.326   0.284 -1.3352  1.3733  0.3873
  209MPD1     C 3226   3.403   4.539  11.572 -0.8759 -0.5008 -0.5409
  209MPD1    C1 3227   3.294   4.576  11.494  0.0054  0.2575  0.5206
  209MPD1    C2 3228   3.317   4.673  11.399  0.4274 -0.6120 -0.2466
  209MPD1    C3 3229   3.430   0.019  11.400 -0.1477 -0.0056 -0.0605
  209MPD1    C4 3230   3.534   4.723  11.486 -0.1643  0.7088  0.6406
  209MPD1    C5 3231   3.521   4.615  11.569  0.0404 -0.0325  0.6330
  209MPD1     H 3232   3.240   4.689  11.324 -1.7601  0.8918  2.3032
  209MPD1    H1 3233   3.624   0.042  11.501  0.1984 -0.7134  4.0329
  209MPD1    H2 3234   3.386   4.461  11.646  0.8437  0.2344  0.6369
  209MPD1    H3 3235   3.587   4.599  11.653 -0.2220  0.8028  0.9969
  209MPD1     N 3236   3.435   0.127  11.309  0.3948  0.8776 -0.6920
  209MPD1    H5 3237   3.350   0.149  11.257  0.0127  0.0255 -0.4193
  209MPD1    N1 3238   3.157   4.531  11.514  0.4539  0.6670 -0.2469
  209MPD1    H6 3239   3.094   4.534  11.434  3.3828  1.5619 -2.5260
  209MPD1    H7 3240   3.147   4.444  11.566  2.2017  0.4383 -0.3265
  210MPD1     C 3241   3.920   1.014  11.337 -0.4077 -0.1004  0.6993
  210MPD1    C1 3242   3.915   0.986  11.204  0.2898 -1.1736  0.6503
  210MPD1    C2 3243   3.871   0.863  11.164  0.1471 -0.3115  0.0418
  210MPD1    C3 3244   3.801   0.776  11.254  0.1753  0.4963 -0.2866
  210MPD1    C4 3245   3.801   0.809  11.389  0.0309  0.5388  0.0960
  210MPD1    C5 3246   3.859   0.926  11.429  0.2541  0.3119 -0.1972
  210MPD1     H 3247   3.875   0.829  11.061  0.9678  1.1424 -0.4159
  210MPD1    H1 3248   3.757   0.742  11.462 -0.5412  0.0786 -0.6795
  210MPD1    H2 3249   3.970   1.105  11.367  0.6714 -0.2851 -0.5301
  210MPD1    H3 3250   3.850   0.960  11.532  0.2271 -1.7434  0.4742
  210MPD1     N 3251   3.735   0.657  11.221 -0.6091 -0.3874  0.5149
  210MPD1    H5 3252   3.687   0.609  11.297 -1.8119  2.4027  1.5421
  210MPD1    N1 3253   4.003   1.064  11.127 -0.2190  0.0060  0.3821
  210MPD1    H6 3254   3.967   1.088  11.035 -2.1027  0.7748  1.3330
  210MPD1    H7 3255   4.033   1.150  11.173 -0.8805 -0.5736  1.8931
  211MPD1     C 3256   0.040   3.606  17.007 -0.1648  0.0664 -0.0710
  211MPD1    C1 3257   4.700   3.638  16.895  0.9474  0.1721  0.3673
  211MPD1    C2 3258   4.577   3.700  16.919  0.1351  0.6832 -0.3159
  211MPD1    C3 3259   4.549   3.741  17.047  0.2692 -0.4590 -0.2687
  211MPD1    C4 3260   4.635   3.726  17.154 -0.8247  0.3063  0.6521
  211MPD1    C5 3261   0.006   3.650  17.129 -0.2165 -0.2520  0.4119
  211MPD1     H 3262   4.516   3.714  16.830 -0.2896  1.1274  0.0448
  211MPD1    H1 3263   4.612   3.739  17.259  0.1142  0.4671  0.8385
  211MPD1    H2 3264   0.132   3.551  16.991 -0.1960 -0.0746  0.2587
  211MPD1    H3 3265   0.079   3.619  17.203 -0.9229  1.8042  1.9716
  211MPD1     N 3266   4.423   3.802  17.064  0.4135  0.8046 -0.1661
  211MPD1    H5 3267   4.352   3.797  16.992  0.1414 -1.6397  0.2827
  211MPD1    N1 3268   0.013   3.614  16.767  0.2781  0.6441  0.1642
  211MPD1    H6 3269   0.089   3.547  16.762  0.7553  1.2282 -0.3349
  211MPD1    H7 3270   4.689   3.580  16.696  3.2356 -1.0093 -1.7483
  212MPD1     C 3271   3.464   2.633  16.674 -0.1093  0.3362 -0.4733
  212MPD1    C1 3272   3.557   2.535  16.669  0.1731 -0.6156 -0.0227
  212MPD1    C2 3273   3.539   2.424  16.745  0.7011 -0.2401 -0.2353
  212MPD1    C3 3274   3.417   2.394  16.796  0.2760 -0.0724 -1.0720
  212MPD1    C4 3275   3.319   2.493  16.795  0.0719  0.1678 -0.0414
  212MPD1    C5 3276   3.342   2.610  16.734  0.1010  0.1605 -0.1055
  212MPD1     H 3277   3.616   2.347  16.743  1.3577  0.4366 -1.1050
  212MPD1    H1 3278   3.215   2.471  16.817  0.2930 -0.8177  0.0276
  212MPD1    H2 3279   3.469   2.729  16.624 -2.0227 -0.2320 -1.7258
  212MPD1    H3 3280   3.261   2.681  16.719 -0.7966 -0.8580 -0.0700
  212MPD1     N 3281   3.382   2.266  16.842  0.4252  0.4874 -0.2689
  212MPD1    H5 3282   3.296   2.262  16.896  0.6058  3.1802  0.2268
  212MPD1    N1 3283   3.681   2.571  16.604 -0.2429 -0.1232 -0.3163
  212MPD1    H6 3284   3.666   2.630  16.522  2.2899 -0.0481 -0.7140
  212MPD1    H7 3285   3.712   2.483  16.563 -3.6208 -1.5457  0.1849
  213MPD1     C 3286   2.830   3.691  15.410 -0.3337 -0.3156 -0.6775
  213MPD1    C1 3287   2.751   3.795  15.358 -0.3881 -0.1896 -0.3492
  213MPD1    C2 3288   2.629   3.752  15.305 -0.1261 -0.0347  0.3772
  213MPD1    C3 3289   2.568   3.637  15.351  0.0516 -0.1742 -0.6486
  213MPD1    C4 3290   2.633   3.552  15.440  0.3585  0.3796 -0.1230
  213MPD1    C5 3291   2.765   3.577  15.464 -0.5061 -0.1993 -0.2094
  213MPD1     H 3292   2.580   3.825  15.242 -1.0589 -2.3108 -1.5257
  213MPD1    H1 3293   2.583   3.467  15.483  0.7426  0.6748  0.9115
  213MPD1    H2 3294   2.929   3.709  15.450 -1.0697  1.3878  0.3696
  213MPD1    H3 3295   2.816   3.503  15.524 -0.2258  1.0899  1.1417
  213MPD1     N 3296   2.433   3.621  15.316  0.4749  0.7077  0.1012
  213MPD1    H5 3297   2.393   3.686  15.249 -1.6085  1.4842  2.0997
  213MPD1    N1 3298   2.812   3.906  15.308 -0.0900 -0.1814  0.1485
  213MPD1    H6 3299   2.753   3.988  15.290  1.4745  0.5838 -1.4727
  213MPD1    H7 3300   2.888   3.940  15.366 -0.7372 -0.0541  0.9255
  214MPD1     C 3301   1.665   2.950  15.413 -0.1126 -0.0037 -0.0519
  214MPD1    C1 3302   1.668   2.996  15.282 -0.1423  0.1568  0.3268
  214MPD1    C2 3303   1.765   3.088  15.245  0.0501 -0.0697 -0.4181
  214MPD1    C3 3304   1.849   3.151  15.336 -0.1458 -0.2364 -0.2844
  214MPD1    C4 3305   1.843   3.105  15.466  1.0450 -0.0731  0.4853
  214MPD1    C5 3306   1.750   3.008  15.495 -0.0138  0.0273 -0.9034
  214MPD1     H 3307   1.781   3.115  15.141  0.0456  0.1903 -0.3534
  214MPD1    H1 3308   1.900   3.155  15.544  0.2571  0.3585  0.7833
  214MPD1    H2 3309   1.605   2.867  15.449 -1.0020  0.3238 -0.7922
  214MPD1    H3 3310   1.738   2.990  15.601 -0.5946  0.7274 -0.8501
  214MPD1     N 3311   1.941   3.249  15.295  0.4503  0.5789  0.0873
  214MPD1    H5 3312   2.005   3.275  15.369  0.2995 -0.5243  0.6025
  214MPD1    N1 3313   1.584   2.943  15.180 -0.1818  0.4707  0.1624
  214MPD1    H6 3314   1.585   2.996  15.093  2.5650  1.4734  0.7934
  214MPD1    H7 3315   1.494   2.916  15.217 -1.1960  0.7113 -2.1742
  215MPD1     C 3316   2.167   4.304  10.406 -1.0495 -0.5662  0.2688
  215MPD1    C1 3317   2.105   4.422  10.450 -0.7005 -0.3690  0.4265
  215MPD1    C2 3318   2.146   4.477  10.568 -0.3201  0.1688 -0.4800
  215MPD1    C3 3319   2.238   4.404  10.650 -0.3413  0.7568  0.3338
  215MPD1    C4 3320   2.285   4.278  10.619  0.2944  0.1461  0.5883
  215MPD1    C5 3321   2.251   4.233  10.494 -0.0775  0.0066  0.4506
  215MPD1     H 3322   2.116   4.575  10.604 -0.3223 -0.0928  0.2383
  215MPD1    H1 3323   2.352   4.213  10.674  0.5264  0.8908  1.1865
  215MPD1    H2 3324   2.151   4.259  10.309 -0.9643  2.2417 -1.0447
  215MPD1    H3 3325   2.292   4.137  10.463 -0.3320  0.1520 -0.3251
  215MPD1     N 3326   2.274   4.473  10.773 -0.9511  0.2315  0.3833
  215MPD1    H5 3327   2.246   4.570  10.784 -1.8279 -0.0534  0.6341
  215MPD1    N1 3328   2.049   4.495  10.347 -0.4599  1.0788  0.2842
  215MPD1    H6 3329   1.991   4.570  10.383 -0.8291 -0.1915  2.3089
  215MPD1    H7 3330   1.982   4.440  10.295  2.1068 -0.7567 -1.1171
  216MPD1     C 3331   3.892   1.753  16.746  0.2064 -0.2544  0.2561
  216MPD1    C1 3332   3.836   1.632  16.730  0.0641  0.1549 -0.6074
  216MPD1    C2 3333   3.748   1.578  16.825  0.4163 -0.1340  0.4782
  216MPD1    C3 3334   3.725   1.642  16.943 -0.5551  1.0857 -0.2762
  216MPD1    C4 3335   3.775   1.770  16.956  0.4198 -0.2703  0.0129
  216MPD1    C5 3336   3.858   1.825  16.859  0.5914  0.6825  0.2957
  216MPD1     H 3337   3.712   1.476  16.811  2.2520 -0.8888  1.3853
  216MPD1    H1 3338   3.770   1.835  17.043 -0.9021 -0.2674 -0.0669
  216MPD1    H2 3339   3.978   1.783  16.686 -0.4203  3.0313  0.9696
  216MPD1    H3 3340   3.902   1.924  16.869 -1.3452  1.1540  4.0730
  216MPD1     N 3341   3.638   1.580  17.041  0.2179  0.0852  0.2840
  216MPD1    H5 3342   3.629   1.480  17.028 -1.6861  0.0590  1.8087
  216MPD1    N1 3343   3.881   1.547  16.628 -0.7060 -0.1922  0.2581
  216MPD1    H6 3344   3.913   1.601  16.548 -1.2787 -0.6642 -0.2958
  216MPD1    H7 3345   3.807   1.487  16.591  0.5999 -1.4958 -0.2733
  217MPD1     C 3346   0.290   0.705  10.029  0.3689 -0.5805  0.0875
  217MPD1    C1 3347   0.415   0.661   9.979 -0.3883  0.0535 -0.9043
  217MPD1    C2 3348   0.421   0.541   9.907  0.3296 -0.7704 -0.2835
  217MPD1    C3 3349   0.303   0.465   9.894  0.8323 -0.7826  0.0511
  217MPD1    C4 3350   0.192   0.501   9.967  0.3113  0.3809  0.5056
  217MPD1    C5 3351   0.183   0.622  10.027  0.0139  0.5826  0.6727
  217MPD1     H 3352   0.510   0.501   9.860  1.3075  0.8984  0.1277
  217MPD1    H1 3353   0.107   0.435   9.960  0.7828 -0.0906 -0.8517
  217MPD1    H2 3354   0.272   0.792  10.090 -0.4710  1.2314 -2.7437
  217MPD1    H3 3355   0.092   0.642  10.083 -0.6900 -0.5754 -0.0711
  217MPD1     N 3356   0.295   0.347   9.814  0.8853 -0.3585 -0.0393
  217MPD1    H5 3357   0.205   0.301   9.829 -0.6633  3.0101  0.9754
  217MPD1    N1 3358   0.521   0.760   9.962 -0.3640 -0.6509 -0.0202
  217MPD1    H6 3359   0.503   0.814  10.047 -1.6354  0.9314 -1.2927
  217MPD1    H7 3360   0.613   0.717   9.968 -0.8242 -1.7766 -1.0359
  218MPD1     C 3361   1.294   3.828  12.622  0.0110  1.0462  0.2155
  218MPD1    C1 3362   1.414   3.808  12.692  0.1002  0.3517  0.0148
  218MPD1    C2 3363   1.525   3.873  12.638 -0.3651  0.5374  0.3803
  218MPD1    C3 3364   1.521   3.966  12.532  0.2454  0.3191  0.2437
  218MPD1    C4 3365   1.400   3.996  12.484  0.6590 -0.1415 -0.7120
  218MPD1    C5 3366   1.286   3.924  12.528  0.3100  0.4603 -0.1635
  218MPD1     H 3367   1.620   3.851  12.686 -0.9962 -0.6268  1.0945
  218MPD1    H1 3368   1.379   4.084  12.425 -0.6039 -0.3404 -0.5710
  218MPD1    H2 3369   1.208   3.776  12.663 -0.1092  1.1101  0.0420
  218MPD1    H3 3370   1.186   3.940  12.489  0.9856  0.1464 -2.0222
  218MPD1     N 3371   1.644   4.028  12.501  0.1858 -0.0296 -0.3722
  218MPD1    H5 3372   1.728   3.997  12.549 -0.8796 -2.0447  0.2051
  218MPD1    N1 3373   1.423   3.698  12.775  0.2036  0.4388  0.5587
  218MPD1    H6 3374   1.504   3.716  12.834 -1.6369  0.7942  2.9426
  218MPD1    H7 3375   1.336   3.695  12.828  0.1243  0.0533  0.4118
  219MPD1     C 3376   1.869   4.187  11.571 -0.0247  0.8960  0.4453
  219MPD1    C1 3377   1.957   4.264  11.628  0.1208 -0.6474 -0.3504
  219MPD1    C2 3378   1.963   4.250  11.765 -0.0416  0.1931  0.1402
  219MPD1    C3 3379   1.877   4.169  11.845 -0.3445 -0.0558 -0.4242
  219MPD1    C4 3380   1.786   4.094  11.778 -0.1397  0.3638  0.7520
  219MPD1    C5 3381   1.785   4.104  11.637  0.2521 -0.0955 -0.1972
  219MPD1     H 3382   2.043   4.307  11.810  1.4924 -0.9848 -1.0945
  219MPD1    H1 3383   1.714   4.029  11.825 -0.1317 -1.7081 -2.0739
  219MPD1    H2 3384   1.842   4.187  11.466 -1.0810  1.8734  0.7215
  219MPD1    H3 3385   1.712   4.042  11.587  0.3058 -0.8492  0.6521
  219MPD1     N 3386   1.901   4.141  11.984  0.2788 -0.3323 -0.7797
  219MPD1    H5 3387   1.842   4.070  12.027  1.9541 -0.0915  1.9474
  219MPD1    N1 3388   2.067   4.320  11.563 -0.2233  0.4591  0.0887
  219MPD1    H6 3389   2.051   4.342  11.465 -0.1447 -1.3942 -0.3304
  219MPD1    H7 3390   2.103   4.401  11.613  0.8093  0.5855 -0.8548
  220MPD1     C 3391   1.922   1.133   9.883  0.9318 -0.4694 -0.6855
  220MPD1    C1 3392   2.041   1.063   9.878 -0.6874  0.2837 -0.1686
  220MPD1    C2 3393   2.045   0.965   9.970  0.0354  0.0324 -0.0374
  220MPD1    C3 3394   1.935   0.918  10.048 -0.6322  0.3269 -0.0774
  220MPD1    C4 3395   1.820   0.986  10.043 -0.0298  0.0888  0.2672
  220MPD1    C5 3396   1.816   1.092   9.956 -0.0243 -0.3124  0.4340
  220MPD1     H 3397   2.134   0.906   9.986 -0.5115 -0.8322 -0.1955
  220MPD1    H1 3398   1.736   0.957  10.104  0.8494 -1.1384  0.8989
  220MPD1    H2 3399   1.915   1.224   9.824  1.7703 -0.3844 -0.6420
  220MPD1    H3 3400   1.723   1.143   9.932 -0.2556 -1.3814 -0.9297
  220MPD1     N 3401   1.957   0.803  10.129 -0.1591  0.0272 -0.0301
  220MPD1    H5 3402   2.052   0.767  10.135  0.4378  1.5713 -0.4201
  220MPD1    N1 3403   2.158   1.122   9.829  0.4712  0.0890 -0.0417
  220MPD1    H6 3404   2.245   1.069   9.827  0.4672  0.0460  1.2033
  220MPD1    H7 3405   2.152   1.167   9.737 -0.6715 -1.4381 -0.7205
  221MPD1     C 3406   4.039   3.678  17.287  0.9206  0.2949 -0.1911
  221MPD1    C1 3407   4.144   3.647  17.374  0.6345 -0.5252 -0.4549
  221MPD1    C2 3408   4.241   3.567  17.312  0.1493 -0.0028  0.4869
  221MPD1    C3 3409   4.242   3.533  17.170 -1.2930 -0.3294 -0.0086
  221MPD1    C4 3410   4.136   3.572  17.094 -0.1952 -0.9157 -0.1811
  221MPD1    C5 3411   4.036   3.645  17.154 -0.4358 -0.1933  0.1622
  221MPD1     H 3412   4.315   3.524  17.378  1.3004  0.2317 -0.6421
  221MPD1    H1 3413   4.131   3.548  16.989 -0.2897  1.1931 -0.6570
  221MPD1    H2 3414   3.942   3.716  17.318  1.4283 -0.2956  2.1014
  221MPD1    H3 3415   3.952   3.685  17.100  0.3666  0.2800 -0.7350
  221MPD1     N 3416   4.338   3.450  17.106 -0.0784 -0.0235  0.0743
  221MPD1    H5 3417   4.307   3.401  17.023  0.5351 -1.0414  0.4338
  221MPD1    N1 3418   4.140   3.658  17.512 -0.4943 -0.1272  0.1512
  221MPD1    H6 3419   4.235   3.665  17.547 -0.6982 -2.3262  1.1245
  221MPD1    H7 3420   4.089   3.740  17.545 -1.9340 -0.6493 -0.7695
  222MPD1     C 3421   1.846   2.098   0.296 -0.2968 -0.4616  0.3247
  222MPD1    C1 3422   1.888   2.124   0.423  0.0235 -0.0959 -1.2647
  222MPD1    C2 3423   1.977   2.225   0.440 -0.2726 -0.5890  0.9944
  222MPD1    C3 3424   2.049   2.276   0.335 -0.3985  0.1268 -0.2492
  222MPD1    C4 3425   2.029   2.226   0.208  0.2480 -0.1535 -0.8004
  222MPD1    C5 3426   1.929   2.136   0.184  0.3232 -0.3231 -0.4267
  222MPD1     H 3427   2.004   2.254   0.542  2.6557 -0.6498  0.2408
  222MPD1    H1 3428   2.087   2.254   0.121 -1.3287  2.3177 -1.0407
  222MPD1    H2 3429   1.760   2.034   0.280 -1.2204  1.2073 -1.4073
  222MPD1    H3 3430   1.910   2.112   0.080  0.5916 -0.0353 -0.5390
  222MPD1     N 3431   2.156   2.365   0.341 -0.1689  0.4308 -0.2155
  222MPD1    H5 3432   2.208   2.384   0.256  0.2315 -0.6534 -0.2059
  222MPD1    N1 3433   1.818   2.086   0.544 -0.1409  0.0081 -0.2213
  222MPD1    H6 3434   1.885   2.087   0.621  0.7392  0.8092 -0.9943
  222MPD1    H7 3435   1.787   1.989   0.531  1.6894 -1.1026  3.6225
  223MPD1     C 3436   2.453   3.408   0.524  0.0699  0.0568  0.1984
  223MPD1    C1 3437   2.370   3.325   0.595 -0.5280  0.3038 -0.1565
  223MPD1    C2 3438   2.363   3.191   0.564 -0.5330 -0.0666 -0.9567
  223MPD1    C3 3439   2.421   3.142   0.449 -0.1384  0.5743 -0.5303
  223MPD1    C4 3440   2.492   3.230   0.366 -0.3011 -1.0777  0.1936
  223MPD1    C5 3441   2.520   3.356   0.413  0.2015 -0.5952  0.6240
  223MPD1     H 3442   2.315   3.130   0.639  1.1902  2.9609  2.5892
  223MPD1    H1 3443   2.539   3.211   0.270  0.1416 -2.1459  0.6296
  223MPD1    H2 3444   2.479   3.504   0.566 -0.8171  0.3551  0.0637
  223MPD1    H3 3445   2.588   3.420   0.359 -0.8785 -0.7814 -0.9412
  223MPD1     N 3446   2.430   3.000   0.416  0.4667  0.0129  0.5679
  223MPD1    H5 3447   2.476   2.970   0.330 -1.7359 -0.2498 -0.5165
  223MPD1    N1 3448   2.319   3.364   0.721  0.0065 -0.2149  0.0921
  223MPD1    H6 3449   2.314   3.465   0.732  0.1497  0.0329 -2.0812
  223MPD1    H7 3450   2.234   3.319   0.754 -0.9679  2.1877  0.8220
  224MPD1     C 3451   1.299   0.783   9.632  0.3170 -0.2238 -0.0096
  224MPD1    C1 3452   1.403   0.703   9.588  0.0998 -0.0269  0.4897
  224MPD1    C2 3453   1.427   0.580   9.649 -0.4610 -0.0245 -0.1205
  224MPD1    C3 3454   1.334   0.522   9.741 -0.2125  0.1001  0.1025
  224MPD1    C4 3455   1.228   0.603   9.779  0.3522 -0.2448 -0.5154
  224MPD1    C5 3456   1.208   0.728   9.723  0.4007  0.4324  0.2077
  224MPD1     H 3457   1.510   0.520   9.612 -0.1038  0.1714  0.3590
  224MPD1    H1 3458   1.158   0.571   9.856  0.7004 -0.2838 -0.2162
  224MPD1    H2 3459   1.279   0.882   9.592 -0.7044 -0.2434  0.4287
  224MPD1    H3 3460   1.124   0.795   9.742 -0.6666 -0.4674 -1.3179
  224MPD1     N 3461   1.334   0.392   9.791 -0.0847  0.5705  0.2652
  224MPD1    H5 3462   1.248   0.370   9.840 -0.9314  0.0267 -1.4454
  224MPD1    N1 3463   1.451   0.737   9.457  0.3300  0.1820  0.3916
  224MPD1    H6 3464   1.446   0.837   9.441  0.2811 -0.1642 -1.7041
  224MPD1    H7 3465   1.547   0.706   9.444 -0.1563 -1.0391 -0.3680
  225MPD1     C 3466   2.140   0.293  12.583  0.2665 -0.2036 -0.7418
  225MPD1    C1 3467   2.101   0.223  12.472  0.0627  0.0797  0.5038
  225MPD1    C2 3468   1.982   0.155  12.483  0.2949  0.5710 -0.1754
  225MPD1    C3 3469   1.909   0.149  12.595 -0.1704  0.6401  0.3401
  225MPD1    C4 3470   1.951   0.218  12.703 -0.4307 -0.7771 -0.3768
  225MPD1    C5 3471   2.065   0.289  12.702  0.1422 -0.3322  0.3220
  225MPD1     H 3472   1.949   0.108  12.392 -1.6495  1.4666  0.0755
  225MPD1    H1 3473   1.907   0.208  12.802 -1.3393 -1.2084 -0.8335
  225MPD1    H2 3474   2.227   0.358  12.574 -0.8608  1.4362  0.1311
  225MPD1    H3 3475   2.103   0.354  12.780  1.3255 -0.3005 -0.2851
  225MPD1     N 3476   1.788   0.074  12.612 -0.0287 -0.0728 -0.0033
  225MPD1    H5 3477   1.761   0.076  12.710 -1.0037 -1.6824 -0.2415
  225MPD1    N1 3478   2.154   0.249  12.342  0.4076 -0.7222 -0.2183
  225MPD1    H6 3479   2.122   0.192  12.264  0.8947 -0.0408 -0.9239
  225MPD1    H7 3480   2.254   0.267  12.341  0.4132 -0.8534 -1.5305
  226MPD1     C 3481   0.508   1.518  10.803 -0.0691  0.1077 -0.7370
  226MPD1    C1 3482   0.554   1.392  10.830  0.1189  0.0048  0.7993
  226MPD1    C2 3483   0.621   1.328  10.725  0.3242 -0.2121 -0.1160
  226MPD1    C3 3484   0.643   1.385  10.600 -0.2727  0.1678 -0.1239
  226MPD1    C4 3485   0.572   1.502  10.577  0.0273 -0.2749  0.2778
  226MPD1    C5 3486   0.515   1.575  10.679  0.4906  0.8083  0.0478
  226MPD1     H 3487   0.651   1.226  10.747  0.9742 -0.4587 -2.1640
  226MPD1    H1 3488   0.560   1.560  10.486 -2.2763 -0.4735  0.4390
  226MPD1    H2 3489   0.453   1.566  10.883 -0.9776 -2.1918  0.0253
  226MPD1    H3 3490   0.463   1.669  10.668  1.0765  0.8806 -2.0017
  226MPD1     N 3491   0.724   1.322  10.499 -0.0959 -0.2864 -0.2349
  226MPD1    H5 3492   0.766   1.236  10.533 -0.4297 -0.7747 -1.0630
  226MPD1    N1 3493   0.557   1.338  10.960 -0.0435 -0.1433 -0.3146
  226MPD1    H6 3494   0.469   1.358  11.007  0.2788 -2.3798  1.2291
  226MPD1    H7 3495   0.554   1.236  10.957 -1.8037 -0.1186  1.1179
  227MPD1     C 3496   0.787   0.478  10.016  0.1792  0.1720 -0.2953
  227MPD1    C1 3497   0.821   0.555   9.912  0.0356 -1.0198  0.0730
  227MPD1    C2 3498   0.845   0.687   9.942 -0.5261  0.0596 -0.2374
  227MPD1    C3 3499   0.815   0.738  10.065 -0.1250  0.6637 -0.4874
  227MPD1    C4 3500   0.765   0.657  10.165  0.6470 -0.2347  0.2667
  227MPD1    C5 3501   0.751   0.521  10.140  0.0462 -0.6699  0.5148
  227MPD1     H 3502   0.895   0.745   9.865  1.7488 -1.8349 -0.2059
  227MPD1    H1 3503   0.729   0.698  10.258 -0.0980 -0.7265  0.1951
  227MPD1    H2 3504   0.785   0.374   9.987 -0.4250  0.6232 -1.8377
  227MPD1    H3 3505   0.714   0.447  10.210 -0.8043  0.2538  1.0418
  227MPD1     N 3506   0.842   0.874  10.092 -0.1048  0.2579 -0.0815
  227MPD1    H5 3507   0.886   0.931  10.021  2.5184  1.4189  2.4665
  227MPD1    N1 3508   0.875   0.495   9.800  0.7487  0.6886 -0.3193
  227MPD1    H6 3509   0.868   0.559   9.721 -0.3149  1.3158  0.2903
  227MPD1    H7 3510   0.833   0.409   9.766 -0.5363  1.2014 -0.0434
  228MPD1     C 3511   4.040   2.914  13.110  0.5883  0.3357 -0.5202
  228MPD1    C1 3512   3.969   2.902  12.997  0.4820 -0.4153 -0.9876
  228MPD1    C2 3513   3.833   2.905  13.002 -0.3555 -0.3549  0.1260
  228MPD1    C3 3514   3.761   2.936  13.120 -0.3018  0.2236 -0.0398
  228MPD1    C4 3515   3.837   2.960  13.229  0.3505  0.3732 -0.2783
  228MPD1    C5 3516   3.976   2.945  13.225  0.3788 -0.4664  0.5948
  228MPD1     H 3517   3.783   2.894  12.906  0.9995  4.1756 -1.1253
  228MPD1    H1 3518   3.797   2.985  13.326 -1.9023 -1.5680 -0.7101
  228MPD1    H2 3519   4.144   2.887  13.122  0.5328  0.5206  0.3671
  228MPD1    H3 3520   4.030   2.966  13.317 -0.1658 -0.1098  0.8276
  228MPD1     N 3521   3.622   2.950  13.122  0.1757 -0.5771  0.0120
  228MPD1    H5 3522   3.571   2.939  13.035 -2.1631  0.3140  1.2843
  228MPD1    N1 3523   4.031   2.859  12.879 -0.2503  0.4825  0.5361
  228MPD1    H6 3524   3.975   2.894  12.801  0.6926  1.7679  0.4314
  228MPD1    H7 3525   4.127   2.894  12.876  0.0616 -0.3943  0.1624
  229MPD1     C 3526   2.818   1.635  14.828 -0.0170 -0.1415 -0.1171
  229MPD1    C1 3527   2.861   1.537  14.735  0.0799  0.7805  0.2878
  229MPD1    C2 3528   2.901   1.411  14.782  0.2237  0.5276  0.7260
  229MPD1    C3 3529   2.882   1.378  14.917 -0.3783  0.1877  0.4571
  229MPD1    C4 3530   2.836   1.473  15.008 -0.3276  0.8882 -0.1258
  229MPD1    C5 3531   2.810   1.602  14.964  0.2577  0.0324  0.1436
  229MPD1     H 3532   2.939   1.342  14.708 -0.8600  3.9153 -3.0071
  229MPD1    H1 3533   2.825   1.447  15.112 -2.7140 -1.3075 -0.9285
  229MPD1    H2 3534   2.792   1.736  14.801  2.6763 -0.1208 -2.6449
  229MPD1    H3 3535   2.775   1.677  15.034  0.6349 -1.2320  1.6873
  229MPD1     N 3536   2.909   1.251  14.973  0.3340  0.4011  0.6242
  229MPD1    H5 3537   2.878   1.239  15.069 -1.2618 -1.4213 -0.1201
  229MPD1    N1 3538   2.889   1.580  14.604 -0.0984  0.5524 -1.0802
  229MPD1    H6 3539   2.823   1.654  14.580 -0.4248  0.4842 -0.3825
  229MPD1    H7 3540   2.860   1.502  14.546 -2.3295  0.3246  0.3636
  230MPD1     C 3541   3.462   0.929  15.716 -0.0449  0.0156 -0.8853
  230MPD1    C1 3542   3.510   0.857  15.609  0.4262 -0.1007 -0.4092
  230MPD1    C2 3543   3.424   0.841  15.497 -0.0085  0.0093 -0.1963
  230MPD1    C3 3544   3.306   0.914  15.492  0.0465 -0.0940 -0.0497
  230MPD1    C4 3545   3.258   0.986  15.602  0.2929  0.7897  0.5651
  230MPD1    C5 3546   3.336   0.987  15.714  0.2126 -0.5190  0.3344
  230MPD1     H 3547   3.442   0.773  15.414 -0.2541  0.1162 -0.3381
  230MPD1    H1 3548   3.153   1.014  15.606 -0.5110 -2.1097 -0.1375
  230MPD1    H2 3549   3.523   0.933  15.806  0.7159 -1.0189 -1.3480
  230MPD1    H3 3550   3.294   1.010  15.812 -0.8902 -1.5902  0.1146
  230MPD1     N 3551   3.229   0.904  15.366 -0.2969  0.6094  0.0995
  230MPD1    H5 3552   3.269   0.848  15.292 -0.5297 -0.7475  1.0019
  230MPD1    N1 3553   3.630   0.787  15.626 -0.1798 -0.5075 -0.2526
  230MPD1    H6 3554   3.685   0.847  15.687 -1.8745  1.5055 -0.6681
  230MPD1    H7 3555   3.675   0.788  15.535  1.0349  1.8625  0.3622
  231MPD1     C 3556   1.135   3.163  15.389  0.2008 -0.5339  0.3674
  231MPD1    C1 3557   1.150   3.137  15.257 -0.4009 -0.1963  0.0755
  231MPD1    C2 3558   1.239   3.215  15.186  0.5626  0.1588  0.1319
  231MPD1    C3 3559   1.309   3.317  15.242 -0.2973  0.0225 -0.2176
  231MPD1    C4 3560   1.297   3.340  15.382 -0.4734 -0.0865 -0.8072
  231MPD1    C5 3561   1.214   3.262  15.450 -0.4584  0.3376  0.3614
  231MPD1     H 3562   1.262   3.186  15.084 -1.9932 -1.3971 -0.0351
  231MPD1    H1 3563   1.345   3.414  15.444 -0.1298 -0.9516 -0.0390
  231MPD1    H2 3564   1.064   3.111  15.452 -0.6195 -0.7583 -0.7358
  231MPD1    H3 3565   1.188   3.284  15.553 -2.0820  1.4733 -0.2778
  231MPD1     N 3566   1.398   3.387  15.157  0.0095 -0.2396  0.1114
  231MPD1    H5 3567   1.414   3.350  15.064 -1.8617  0.5794 -0.5341
  231MPD1    N1 3568   1.101   3.016  15.198 -0.1262  0.5984 -0.3694
  231MPD1    H6 3569   1.016   2.978  15.239  0.1348 -0.3758 -0.7455
  231MPD1    H7 3570   1.084   3.027  15.099 -0.6094  1.0702 -0.2391
  232MPD1     C 3571   3.598   4.533   1.585  0.3900 -0.5231 -0.2778
  232MPD1    C1 3572   3.562   4.418   1.525  0.4254 -0.1517 -0.3676
  232MPD1    C2 3573   3.453   4.419   1.444 -0.1246  0.0455  0.5957
  232MPD1    C3 3574   3.393   4.538   1.396  0.1958 -0.1155  0.2747
  232MPD1    C4 3575   3.439   4.655   1.456 -0.2322 -0.5886 -0.2200
  232MPD1    C5 3576   3.548   4.654   1.543 -0.5644  0.1361 -0.2640
  232MPD1     H 3577   3.422   4.326   1.396  1.4788  0.7254 -1.7244
  232MPD1    H1 3578   3.383   0.004   1.434  0.9034  0.0236 -0.6151
  232MPD1    H2 3579   3.682   4.530   1.653 -0.0501 -1.4236  0.2173
  232MPD1    H3 3580   3.587   0.005   1.585  3.4191 -1.1261 -1.1314
  232MPD1     N 3581   3.278   4.532   1.313 -0.1693  0.3473  0.8618
  232MPD1    H5 3582   3.231   4.444   1.293 -0.9043  0.9534 -0.0681
  232MPD1    N1 3583   3.616   4.296   1.558 -0.0239  0.2899 -0.5181
  232MPD1    H6 3584   3.718   4.302   1.567 -0.0757  1.1651 -0.4834
  232MPD1    H7 3585   3.599   4.215   1.500 -1.4057  0.1386  0.1165
  233MPD1     C 3586   3.419   4.063  17.400 -0.0952 -0.6056 -0.5095
  233MPD1    C1 3587   3.558   4.067  17.414 -0.4314 -0.2238 -0.2385
  233MPD1    C2 3588   3.613   3.997  17.526  0.7113 -0.0288  0.1417
  233MPD1    C3 3589   3.533   3.932  17.620 -1.1525 -0.4876  0.2873
  233MPD1    C4 3590   3.398   3.919  17.592  0.3339  0.3373  0.3111
  233MPD1    C5 3591   3.348   3.986  17.487  0.5090  0.2064 -0.6200
  233MPD1     H 3592   3.721   3.999  17.529  0.8290 -1.8381 -1.9770
  233MPD1    H1 3593   3.335   3.846  17.642 -0.6808  1.8564  1.2352
  233MPD1    H2 3594   3.371   4.115  17.318  2.3470  1.0861 -0.8603
  233MPD1    H3 3595   3.245   3.976  17.452  0.8478  0.6514 -1.7371
  233MPD1     N 3596   3.585   3.874  17.731 -0.3847 -0.4573 -0.5567
  233MPD1    H5 3597   3.527   3.802   0.013 -0.1408 -1.4535 -1.9255
  233MPD1    N1 3598   3.641   4.132  17.322  0.3428 -0.0014 -0.1997
  233MPD1    H6 3599   3.592   4.209  17.277  1.3134 -0.2042 -1.5961
  233MPD1    H7 3600   3.723   4.172  17.367 -0.4594  2.1724 -0.6643
  234MPD1     C 3601   0.917   4.070   8.353 -0.1233  0.5104 -0.3302
  234MPD1    C1 3602   0.809   4.105   8.430  0.3103  0.3018  0.6572
  234MPD1    C2 3603   0.829   4.146   8.562  0.0728 -0.5696  0.4113
  234MPD1    C3 3604   0.960   4.152   8.612  0.1628 -0.1619  0.4115
  234MPD1    C4 3605   1.063   4.115   8.543  0.4227 -0.3430  0.2316
  234MPD1    C5 3606   1.041   4.063   8.414  0.0345 -0.4242 -0.0585
  234MPD1     H 3607   0.743   4.190   8.612 -1.6960 -2.8996 -0.5324
  234MPD1    H1 3608   1.163   4.110   8.587  0.4025  0.9154  0.4065
  234MPD1    H2 3609   0.910   4.036   8.251  0.5005 -1.6487  0.3456
  234MPD1    H3 3610   1.121   4.039   8.345 -0.0383  1.1153 -0.6842
  234MPD1     N 3611   0.975   4.185   8.751  0.0427 -0.2143 -0.0020
  234MPD1    H5 3612   0.886   4.205   8.797  0.3167  0.6395  0.1585
  234MPD1    N1 3613   0.684   4.131   8.362  0.0287 -0.0588 -0.4493
  234MPD1    H6 3614   0.657   4.060   8.295 -2.8112  1.1461 -0.5729
  234MPD1    H7 3615   0.604   4.133   8.425  0.5457  3.7442  0.1309
  235MPD1     C 3616   2.627   0.820  10.544  0.7270 -0.0528 -0.7221
  235MPD1    C1 3617   2.565   0.889  10.443  0.3718  0.7172 -0.9136
  235MPD1    C2 3618   2.635   0.984  10.372 -0.2600 -0.1029  0.6685
  235MPD1    C3 3619   2.759   1.013  10.414  0.3598  0.4101  0.1769
  235MPD1    C4 3620   2.825   0.950  10.517 -0.2795  0.5462 -0.9756
  235MPD1    C5 3621   2.760   0.846  10.570  0.6617  0.7422 -0.0936
  235MPD1     H 3622   2.582   1.049  10.304 -0.8971 -2.2502 -0.8910
  235MPD1    H1 3623   2.927   0.977  10.542 -0.2771  0.7060 -1.1502
  235MPD1    H2 3624   2.572   0.747  10.603  0.0469 -1.6675 -3.3519
  235MPD1    H3 3625   2.796   0.827  10.671  2.0102 -1.0864 -0.9202
  235MPD1     N 3626   2.818   1.117  10.335  0.0774 -0.6813  0.3418
  235MPD1    H5 3627   2.752   1.161  10.272  1.2946 -0.2417 -0.6337
  235MPD1    N1 3628   2.423   0.881  10.434 -0.1293 -0.3711 -0.2987
  235MPD1    H6 3629   2.387   0.791  10.465 -1.0609 -0.2986 -1.1818
  235MPD1    H7 3630   2.383   0.891  10.341  0.0229  2.0793 -0.1089
  236MPD1     C 3631   1.711   1.447   9.848  0.4529  0.5333 -0.1175
  236MPD1    C1 3632   1.689   1.410   9.980  0.1302  0.1334 -0.9291
  236MPD1    C2 3633   1.776   1.468  10.067  0.7178  0.2177  0.3558
  236MPD1    C3 3634   1.899   1.526  10.024 -0.6746 -0.1481  0.1766
  236MPD1    C4 3635   1.920   1.554   9.888 -0.4078 -0.1172 -0.4446
  236MPD1    C5 3636   1.821   1.515   9.799  0.3907  0.0437 -0.0231
  236MPD1     H 3637   1.761   1.463  10.174 -0.0150  0.1725  0.2528
  236MPD1    H1 3638   2.006   1.610   9.851  0.1531 -0.3697  0.4837
  236MPD1    H2 3639   1.650   1.404   9.770 -0.5529 -0.7944  1.3913
  236MPD1    H3 3640   1.834   1.538   9.694  0.6163 -0.7376 -0.1667
  236MPD1     N 3641   2.002   1.576  10.110 -0.7063  0.2113  0.0086
  236MPD1    H5 3642   2.084   1.624  10.075  0.2896 -0.7011  1.1070
  236MPD1    N1 3643   1.571   1.349  10.019  0.1776 -0.9392 -0.1726
  236MPD1    H6 3644   1.574   1.307  10.111  1.5752  1.1863  0.7556
  236MPD1    H7 3645   1.526   1.290   9.949 -0.3793 -0.6507 -0.0605
  237MPD1     C 3646   1.552   0.718  15.806 -0.0559  0.1084 -0.1562
  237MPD1    C1 3647   1.636   0.692  15.701  0.9481  0.3377 -0.8226
  237MPD1    C2 3648   1.624   0.582  15.633  0.4341 -0.2356  0.0607
  237MPD1    C3 3649   1.546   0.468  15.668 -0.0543  0.5553  0.2019
  237MPD1    C4 3650   1.468   0.495  15.778 -0.6405 -0.7716  0.6108
  237MPD1    C5 3651   1.471   0.614  15.848  0.0567  0.2897  0.0941
  237MPD1     H 3652   1.680   0.583  15.540  1.6668 -0.4039  0.7966
  237MPD1    H1 3653   1.413   0.406  15.807 -0.5060 -0.7043  1.0784
  237MPD1    H2 3654   1.551   0.821  15.842 -2.0671 -0.4352  1.3061
  237MPD1    H3 3655   1.401   0.631  15.930  0.8015 -1.2773  1.0317
  237MPD1     N 3656   1.530   0.348  15.602 -0.0877  0.2941 -0.5604
  237MPD1    H5 3657   1.466   0.277  15.637 -0.0633  0.9914  0.8834
  237MPD1    N1 3658   1.695   0.802  15.632  0.3835  0.0758  0.2216
  237MPD1    H6 3659   1.719   0.877  15.696  3.3299  0.4453 -1.3397
  237MPD1    H7 3660   1.780   0.773  15.584 -1.0847  0.8601 -2.8237
  238MPD1     C 3661   3.619   3.348  15.334  0.4169  0.0710 -0.2588
  238MPD1    C1 3662   3.508   3.286  15.382 -0.1708 -0.4896 -0.6167
  238MPD1    C2 3663   3.386   3.324  15.338  0.3815 -0.2423  0.1081
  238MPD1    C3 3664   3.383   3.417  15.235  1.0320 -0.0659 -0.7420
  238MPD1    C4 3665   3.494   3.489  15.197 -0.3281  0.3552  0.5843
  238MPD1    C5 3666   3.613   3.446  15.240  0.2756 -0.3410 -0.1060
  238MPD1     H 3667   3.292   3.273  15.358  0.1546 -0.6297 -2.0386
  238MPD1    H1 3668   3.482   3.572  15.128  2.4890 -0.0181 -0.3348
  238MPD1    H2 3669   3.719   3.323  15.367  1.2761  1.1322 -2.0397
  238MPD1    H3 3670   3.700   3.498  15.203 -0.3308 -0.2098 -1.3490
  238MPD1     N 3671   3.260   3.457  15.173 -0.0642 -0.1813  0.2101
  238MPD1    H5 3672   3.274   3.489  15.078  0.6627 -2.6505 -0.5333
  238MPD1    N1 3673   3.515   3.190  15.483 -0.0271  0.4385  0.9751
  238MPD1    H6 3674   3.597   3.131  15.474 -0.4916  0.0541 -0.6291
  238MPD1    H7 3675   3.436   3.127  15.488  0.0605  0.3551  1.3517
  239MPD1     C 3676   3.350   4.247  15.303  0.3679 -0.3233  0.2519
  239MPD1    C1 3677   3.450   4.342  15.300  0.4260  0.1195  0.2122
  239MPD1    C2 3678   3.477   4.410  15.188  0.5524 -0.4063 -0.2416
  239MPD1    C3 3679   3.421   4.374  15.069  0.3371  0.4617 -0.0825
  239MPD1    C4 3680   3.331   4.263  15.066 -0.4838 -0.0409  0.9700
  239MPD1    C5 3681   3.303   4.199  15.186  0.2126 -0.3250 -0.7178
  239MPD1     H 3682   3.547   4.493  15.189 -0.4352  0.3928  1.4472
  239MPD1    H1 3683   3.274   4.216  14.987  0.6938  0.3986 -0.1403
  239MPD1    H2 3684   3.325   4.201  15.398 -0.4343  0.6856  0.5218
  239MPD1    H3 3685   3.228   4.122  15.172 -1.4718  0.6913  2.5726
  239MPD1     N 3686   3.434   4.429  14.939  0.0273 -0.3447 -0.0255
  239MPD1    H5 3687   3.405   4.371  14.862 -0.8265  0.9432 -0.6683
  239MPD1    N1 3688   3.518   4.371  15.422  0.4086  0.5759  0.3563
  239MPD1    H6 3689   3.500   4.468  15.446 -1.0526  0.6467 -1.0891
  239MPD1    H7 3690   3.493   4.304  15.495 -0.2967  1.6254  1.0756
  240MPD1     C 3691   3.453   4.081  14.169 -0.6930  0.0108 -0.3140
  240MPD1    C1 3692   3.439   4.067  14.304 -0.2972  0.5173  0.8566
  240MPD1    C2 3693   3.315   4.070  14.361  0.1912 -0.3397 -0.0848
  240MPD1    C3 3694   3.200   4.085  14.277  0.6581  0.1649 -0.1512
  240MPD1    C4 3695   3.211   4.109  14.139  0.0612  0.5629 -0.6012
  240MPD1    C5 3696   3.340   4.101  14.094 -0.6900 -1.0241  0.2232
  240MPD1     H 3697   3.309   4.062  14.469 -1.1849  2.9451  0.1045
  240MPD1    H1 3698   3.136   4.106  14.061  0.8363  1.0088 -1.3657
  240MPD1    H2 3699   3.555   4.086  14.133 -0.6819  0.8883 -0.1522
  240MPD1    H3 3700   3.356   4.098  13.986  0.7724  0.1655  0.4132
  240MPD1     N 3701   3.076   4.073  14.343  0.0961 -0.3632  0.0818
  240MPD1    H5 3702   3.069   4.073  14.444  0.0735 -0.3165  0.0798
  240MPD1    N1 3703   3.553   4.048  14.383  0.2194  0.3848 -0.0743
  240MPD1    H6 3704   3.631   4.109  14.359  1.3060 -1.2261 -0.6897
  240MPD1    H7 3705   3.544   4.054  14.484 -0.6778  1.9634 -0.2511
  241MPD1     C 3706   3.291   3.847  15.080  0.0875  0.1949  0.3929
  241MPD1    C1 3707   3.321   3.902  14.958  0.1592 -0.2464 -0.2969
  241MPD1    C2 3708   3.215   3.948  14.872 -0.6125  0.0811  0.4597
  241MPD1    C3 3709   3.087   3.946  14.922 -0.1686 -0.8783  0.1164
  241MPD1    C4 3710   3.061   3.912  15.053 -0.2498  0.1247  0.0182
  241MPD1    C5 3711   3.164   3.861  15.131  0.1191  0.2632 -0.7442
  241MPD1     H 3712   3.243   3.983  14.774 -2.9905  0.8152  0.0466
  241MPD1    H1 3713   2.959   3.914  15.090 -0.6732  0.7057 -1.1823
  241MPD1    H2 3714   3.369   3.802  15.141 -0.7270 -1.9562 -0.1270
  241MPD1    H3 3715   3.148   3.842  15.236  1.5806 -3.5611 -1.1862
  241MPD1     N 3716   2.979   3.982  14.837  0.5362  0.5105 -0.0804
  241MPD1    H5 3717   2.884   3.952  14.857  0.7290 -0.4895 -0.6776
  241MPD1    N1 3718   3.459   3.892  14.909  0.8732  0.5638 -0.1746
  241MPD1    H6 3719   3.469   3.959  14.833 -0.8819  0.3783 -0.5739
  241MPD1    H7 3720   3.532   3.908  14.978  0.8882 -1.1985  0.2208
  242MPD1     C 3721   3.787   2.557  15.137  0.3377  0.2185  0.1411
  242MPD1    C1 3722   3.671   2.607  15.079  0.2970 -0.0361 -0.0196
  242MPD1    C2 3723   3.564   2.517  15.060 -1.2176 -0.1421  0.0918
  242MPD1    C3 3724   3.591   2.378  15.066 -0.0969 -0.0188 -0.1306
  242MPD1    C4 3725   3.714   2.331  15.104  0.7408 -0.1720 -0.8663
  242MPD1    C5 3726   3.805   2.422  15.147 -0.6309  0.2002  0.3927
  242MPD1     H 3727   3.466   2.550  15.028 -0.1397  0.8920 -2.1049
  242MPD1    H1 3728   3.742   2.226  15.111 -0.9192 -0.5333  0.4342
  242MPD1    H2 3729   3.861   2.631  15.164 -0.2038  0.7824  0.0839
  242MPD1    H3 3730   3.896   2.383  15.191  0.7683 -1.2626 -3.8206
  242MPD1     N 3731   3.487   2.277  15.041 -0.0121 -0.0101  0.2869
  242MPD1    H5 3732   3.513   2.182  15.064  0.2363 -0.2468 -0.9880
  242MPD1    N1 3733   3.650   2.742  15.066  0.1714 -0.1157 -0.0308
  242MPD1    H6 3734   3.583   2.758  14.991  0.1188  0.6177  0.1778
  242MPD1    H7 3735   3.731   2.799  15.041  0.5968 -0.6421  0.1427
  243MPD1     C 3736   2.932   0.943   0.033  0.6693  0.0037  0.7175
  243MPD1    C1 3737   2.992   0.833   0.098  0.1717  0.2377 -0.2938
  243MPD1    C2 3738   3.115   0.797   0.049  0.4320 -0.4746  0.6427
  243MPD1    C3 3739   3.179   0.869  17.716 -0.2394  0.0771 -0.0675
  243MPD1    C4 3740   3.117   0.982  17.665  0.3808 -0.0752  0.2544
  243MPD1    C5 3741   2.995   1.018  17.704  0.2298 -0.4502  0.1063
  243MPD1     H 3742   3.154   0.702   0.085  2.8923  0.6448  0.8877
  243MPD1    H1 3743   3.160   1.043  17.587 -0.3219 -0.2346 -0.2640
  243MPD1    H2 3744   2.828   0.957   0.061  0.6349 -2.5092  1.8463
  243MPD1    H3 3745   2.963   1.100  17.640 -0.7706 -1.6430 -0.9161
  243MPD1     N 3746   3.301   0.819  17.666 -0.1863 -0.3747  0.0651
  243MPD1    H5 3747   3.312   0.723  17.696  2.6807 -0.0907 -0.1045
  243MPD1    N1 3748   2.926   0.758   0.188  0.1762 -0.1170 -0.1411
  243MPD1    H6 3749   3.000   0.696   0.221 -0.7878 -2.3890 -2.2641
  243MPD1    H7 3750   2.880   0.816   0.257 -3.1287 -1.5061 -1.1832
  244MPD1     C 3751   3.560   0.011  17.714  0.6069  0.4350  0.6142
  244MPD1    C1 3752   3.440   0.085  17.712  0.7519  0.8153 -0.1974
  244MPD1    C2 3753   3.451   0.226  17.699  0.1225  1.5888 -0.0734
  244MPD1    C3 3754   3.574   0.298  17.694  0.5110 -0.4329  0.3163
  244MPD1    C4 3755   3.693   0.225  17.705 -0.1168 -0.1831  0.3813
  244MPD1    C5 3756   3.680   0.085  17.720 -0.3351  0.0451  0.0262
  244MPD1     H 3757   3.366   0.292  17.686 -0.8927  0.6480  1.8243
  244MPD1    H1 3758   3.793   0.266  17.707  0.3407 -1.3156  0.4262
  244MPD1    H2 3759   3.565   4.645  17.733  2.2259  0.4415  0.2256
  244MPD1    H3 3760   3.769   0.025  17.732 -0.9159 -1.2886 -2.2408
  244MPD1     N 3761   3.575   0.435  17.670 -0.4054  0.0696 -0.7812
  244MPD1    H5 3762   3.480   0.472  17.670 -1.2708 -2.1339 -0.5637
  244MPD1    N1 3763   3.319   0.019  17.703  0.0274 -0.0953 -0.0931
  244MPD1    H6 3764   3.237   0.076  17.722 -0.2381 -0.1797 -0.9822
  244MPD1    H7 3765   3.309   4.711  17.615  2.2351  0.3427 -0.5654
  245MPD1     C 3766   1.290   0.975  13.738  0.0440  0.0377 -0.3766
  245MPD1    C1 3767   1.217   1.087  13.766 -0.2780  0.2199  0.6864
  245MPD1    C2 3768   1.287   1.206  13.788 -0.0105 -0.4615  0.3616
  245MPD1    C3 3769   1.423   1.210  13.773  0.6505  0.0565 -0.3818
  245MPD1    C4 3770   1.493   1.094  13.725 -0.2379  0.2569  0.3921
  245MPD1    C5 3771   1.428   0.979  13.716  0.2272 -0.3931 -0.8940
  245MPD1     H 3772   1.233   1.296  13.817 -0.4729 -0.1609 -1.3842
  245MPD1    H1 3773   1.600   1.095  13.705  0.0238 -1.0129  1.7167
  245MPD1    H2 3774   1.239   0.883  13.713  1.0758 -0.8607  0.7888
  245MPD1    H3 3775   1.478   0.889  13.684 -1.7192 -2.1690  1.0833
  245MPD1     N 3776   1.488   1.330  13.814  0.1685  0.3467 -0.2944
  245MPD1    H5 3777   1.426   1.409  13.827 -0.8102 -0.6488  1.0254
  245MPD1    N1 3778   1.082   1.071  13.798 -0.0429 -0.2455  0.6297
  245MPD1    H6 3779   1.044   0.999  13.737  0.1512 -1.7465  2.2512
  245MPD1    H7 3780   1.024   1.151  13.774 -0.8521 -1.1783 -0.5272
  246MPD1     C 3781   4.719   2.197   9.052  1.1211  0.1781  0.3798
  246MPD1    C1 3782   0.093   2.270   9.017 -0.0006  0.0931 -0.1058
  246MPD1    C2 3783   0.193   2.285   9.117 -0.0594  0.0200  0.8254
  246MPD1    C3 3784   0.173   2.255   9.249  0.2192  0.4574  0.5344
  246MPD1    C4 3785   0.047   2.197   9.279 -0.1830 -0.1409  0.6812
  246MPD1    C5 3786   4.701   2.163   9.180 -0.6904  0.1429  0.1133
  246MPD1     H 3787   0.289   2.325   9.087 -0.4728 -0.0592 -0.6152
  246MPD1    H1 3788   0.032   2.141   9.371 -1.7963  2.3925  1.9572
  246MPD1    H2 3789   4.651   2.171   8.972 -0.2341  0.5796  1.4064
  246MPD1    H3 3790   4.617   2.100   9.205 -0.5681 -0.5685 -1.2919
  246MPD1     N 3791   0.276   2.273   9.342  0.8097  0.4331  0.0550
  246MPD1    H5 3792   0.362   2.308   9.300  0.1808  3.0808  0.9835
  246MPD1    N1 3793   0.109   2.298   8.885 -0.2343  0.3728 -0.5294
  246MPD1    H6 3794   0.179   2.373   8.880 -0.0780  0.2425 -0.2977
  246MPD1    H7 3795   0.024   2.341   8.848 -2.0117 -3.1836 -0.5178
  247MPD1     C 3796   0.563   0.804  17.094  0.3140 -0.0419  0.3014
  247MPD1    C1 3797   0.636   0.887  17.006  0.1716  0.0728 -0.5281
  247MPD1    C2 3798   0.626   0.874  16.872 -0.8498  0.0162  0.3931
  247MPD1    C3 3799   0.591   0.750  16.819  0.5222 -1.1086  0.2641
  247MPD1    C4 3800   0.548   0.658  16.910  0.6058 -0.2778 -0.2374
  247MPD1    C5 3801   0.525   0.687  17.038 -0.6929 -0.4125 -0.0588
  247MPD1     H 3802   0.670   0.957  16.818  1.9477 -0.8623  1.3586
  247MPD1    H1 3803   0.509   0.562  16.877 -1.3615  0.7440 -0.8415
  247MPD1    H2 3804   0.550   0.827  17.199  0.5750 -1.5539  0.6573
  247MPD1    H3 3805   0.471   0.615  17.098  0.8438  2.5063  4.7719
  247MPD1     N 3806   0.602   0.717  16.679 -0.1031  0.0671  0.0096
  247MPD1    H5 3807   0.605   0.616  16.663 -2.1910  0.1620 -1.0617
  247MPD1    N1 3808   0.677   1.014  17.055 -0.5453 -0.1710  0.3239
  247MPD1    H6 3809   0.745   1.063  16.996 -0.9522 -0.0124 -0.0146
  247MPD1    H7 3810   0.710   1.006  17.151 -0.2393 -2.7962 -0.0200
  248MPD1     C 3811   1.362   1.712   0.172  0.3456  0.4490  0.3177
  248MPD1    C1 3812   1.269   1.708   0.273  0.6433 -0.0211  0.1171
  248MPD1    C2 3813   1.211   1.585   0.297 -0.3911  0.1357  0.0928
  248MPD1    C3 3814   1.241   1.470   0.228 -0.9906 -0.2148  0.1066
  248MPD1    C4 3815   1.325   1.488   0.123  0.5656  0.6123 -0.5135
  248MPD1    C5 3816   1.387   1.603   0.097 -0.3203  0.5426 -0.4014
  248MPD1     H 3817   1.149   1.566   0.384  1.1264  1.5271  1.4733
  248MPD1    H1 3818   1.357   1.403   0.064 -1.2579  0.2789 -1.0245
  248MPD1    H2 3819   1.409   1.807   0.153  2.5282 -0.5143  0.8734
  248MPD1    H3 3820   1.458   1.603   0.016 -2.1987  1.6908 -2.0457
  248MPD1     N 3821   1.174   1.349   0.256  0.2139  0.7331  0.6371
  248MPD1    H5 3822   1.102   1.355   0.327  1.0275  0.4256  1.4865
  248MPD1    N1 3823   1.257   1.814   0.362 -0.2827 -0.4544  0.4722
  248MPD1    H6 3824   1.167   1.812   0.410 -0.6462  3.6394 -0.0180
  248MPD1    H7 3825   1.259   1.909   0.327  1.3302 -0.6126  0.1334
  249MPD1     C 3826   3.149   0.196  10.345 -0.0639 -0.2134 -0.3467
  249MPD1    C1 3827   3.200   0.207  10.475  0.3345  0.7095  0.3559
  249MPD1    C2 3828   3.262   0.327  10.510 -0.0629  0.2060 -1.2199
  249MPD1    C3 3829   3.265   0.435  10.426  0.3812 -0.1736  0.3334
  249MPD1    C4 3830   3.224   0.415  10.299 -0.2511 -0.3028 -0.5375
  249MPD1    C5 3831   3.174   0.296  10.259  0.2803 -0.6626  0.6752
  249MPD1     H 3832   3.300   0.339  10.611 -1.2924  0.4257 -0.7854
  249MPD1    H1 3833   3.241   0.484  10.217 -2.2910 -0.2504 -0.9393
  249MPD1    H2 3834   3.112   0.107  10.295  2.1239 -0.5675 -1.3033
  249MPD1    H3 3835   3.138   0.286  10.157  3.0391 -1.5925 -0.2073
  249MPD1     N 3836   3.308   0.559  10.477 -0.4177 -0.5381  0.3547
  249MPD1    H5 3837   3.327   0.569  10.577  1.0274 -0.6566  0.0946
  249MPD1    N1 3838   3.177   0.101  10.570  0.5547 -0.3095 -0.7245
  249MPD1    H6 3839   3.144   0.133  10.661 -0.5753 -2.5807 -0.3464
  249MPD1    H7 3840   3.145   0.011  10.534  1.9745 -0.8344 -0.6935
  250MPD2     C 3841   4.709   4.327  12.958 -0.4559 -0.0463  0.2614
  250MPD2    C1 3842   4.598   4.410  12.930  0.0483  0.2524  0.6224
  250MPD2    C2 3843   4.490   4.351  12.871 -0.4918 -0.2919  0.2009
  250MPD2    C3 3844   4.493   4.215  12.840  0.5828 -0.0962  0.9413
  250MPD2    C4 3845   4.600   4.144  12.863 -0.4695 -0.2032 -0.4637
  250MPD2    C5 3846   4.712   4.197  12.925  0.4388 -0.0193  0.3119
  250MPD2     H 3847   4.402   4.410  12.847 -0.9538 -0.9545  0.2745
  250MPD2    H1 3848   4.597   4.040  12.835 -2.4743 -0.2921  0.0919
  250MPD2    H2 3849   0.053   4.359  13.016 -1.6400  1.1022  1.3471
  250MPD2    H3 3850   0.060   4.135  12.935  0.4070  0.0518  1.0237
  250MPD2     N 3851   4.393   4.141  12.763 -0.0655 -0.3541 -0.1256
  250MPD2    H5 3852   4.423   4.051  12.725 -1.2286 -0.6675 -0.2879
  250MPD2    N1 3853   4.613   4.553  12.955  0.3000 -0.0728 -0.3814
  250MPD2    H7 3854   4.707   4.578  12.986 -0.0758  0.3955  0.3746
  251TMC3    C1 3855   4.560   0.042  12.962 -0.1272 -0.1115  0.0218
  251TMC3    C2 3856   4.466   0.146  12.983 -0.1373 -0.7849  0.5257
  251TMC3    C3 3857   4.508   0.267  13.024  0.3371 -0.3262  0.5393
  251TMC3    C4 3858   4.694   0.065  12.967  0.6865 -0.7056 -0.1865
  251TMC3    C5 3859   4.726   0.189  13.017  0.1484  0.3705  0.8207
  251TMC3    C6 3860   4.637   0.284  13.051  0.1124  0.0494  0.0998
  251TMC3     C 3861   4.517   4.651  12.925 -0.2603 -0.1401  0.1057
  251TMC3     O 3862   4.396   4.643  12.900 -0.2128  0.2325 -0.5431
  251TMC3     H 3863   4.361   0.123  12.975 -0.4779  0.5263  1.2956
  251TMC3    H1 3864   0.030   0.002  12.925  0.3761 -2.8882  2.4512
  251TMC3    H2 3865   4.666   0.367  13.115  0.4660  0.4375 -0.5659
  251TMC3    C7 3866   0.128   0.198  13.047 -0.5654 -0.0001 -0.6672
  251TMC3    C8 3867   4.405   0.376  13.044  0.7247  0.3417  0.6426
  251TMC3    O1 3868   0.190   0.092  13.070 -0.1529  0.1685 -0.0694
  251TMC3    O2 3869   4.296   0.356  12.992  0.1957 -0.1726  0.6194
  252TMC3    C1 3870   0.127   1.860   9.834  0.8485 -0.1369 -0.0355
  252TMC3    C2 3871   0.215   1.963   9.863  0.1891 -0.4470  0.3101
  252TMC3    C3 3872   0.304   1.953   9.964  0.2981 -0.1377  0.4537
  252TMC3    C4 3873   0.116   1.751   9.913  0.0698  0.2996 -0.4158
  252TMC3    C5 3874   0.201   1.745  10.017  0.1579 -0.2368  0.0841
  252TMC3    C6 3875   0.296   1.839  10.042 -0.2487  0.1583  0.5949
  252TMC3     C 3876   0.042   1.884   9.714 -0.7315  0.0658  0.2439
  252TMC3     O 3877   0.071   1.980   9.644  0.6356 -0.0795 -0.1756
  252TMC3     H 3878   0.226   2.046   9.795 -1.2084 -0.5043  0.0291
  252TMC3    H1 3879   0.056   1.667   9.880 -1.8164  1.8648 -0.9563
  252TMC3    H2 3880   0.377   1.816  10.111  2.6724  2.7258 -2.0107
  252TMC3    C7 3881   0.181   1.650  10.128  0.0441 -1.4064 -0.2117
  252TMC3    C8 3882   0.438   2.011   9.946  0.4726 -0.0033 -0.1953
  252TMC3    O1 3883   0.250   1.662  10.230 -0.1724  0.3502  0.1038
  252TMC3    O2 3884   0.478   2.032   9.830  0.2312  0.3395 -0.0917
  253MPD2     C 3885   1.076   4.632  15.854 -0.3388  0.0397 -0.0021
  253MPD2    C1 3886   0.969   4.625  15.766 -0.3438  0.1851  0.2998
  253MPD2    C2 3887   0.838   4.593  15.812  0.5392  0.2100 -0.5738
  253MPD2    C3 3888   0.820   4.570  15.948 -0.1402  0.1968  0.0404
  253MPD2    C4 3889   0.923   4.582  16.041 -0.5050  0.9997  0.3237
  253MPD2    C5 3890   1.048   4.617  15.987 -1.0426  1.0754  0.6818
  253MPD2     H 3891   0.755   4.588  15.742  0.2676  1.1075 -0.3152
  253MPD2    H1 3892   0.913   4.563  16.147 -0.7921  0.9623  0.2887
  253MPD2    H2 3893   1.177   4.650  15.819  0.0263  4.0940  3.1933
  253MPD2    H3 3894   1.132   4.624  16.056 -0.1418 -0.8223 -0.2353
  253MPD2     N 3895   0.690   4.525  16.002  0.0299  0.1603 -0.1953
  253MPD2    H5 3896   0.683   4.504  16.101 -1.9182  1.2486 -0.1096
  253MPD2    N1 3897   0.970   4.636  15.626  0.4177 -0.0193  0.2059
  253MPD2    H7 3898   0.892   4.595  15.575  0.6116  1.0729 -0.9738
  254TMC3    C1 3899   0.454   4.472  15.993 -0.2623 -0.2820 -0.2371
  254TMC3    C2 3900   0.339   4.495  15.928 -0.4944 -0.7409  0.0168
  254TMC3    C3 3901   0.221   4.431  15.968  0.0848 -0.1762  0.3275
  254TMC3    C4 3902   0.457   4.385  16.099 -0.4654  0.1596  0.1258
  254TMC3    C5 3903   0.340   4.328  16.133  0.2100  0.1556 -0.3432
  254TMC3    C6 3904   0.216   4.351  16.081  0.2213 -0.1312 -0.5673
  254TMC3     C 3905   0.571   4.536  15.930 -0.4147  0.0791 -0.3686
  254TMC3     O 3906   0.553   4.595  15.827 -0.0676  0.3854 -0.6363
  254TMC3     H 3907   0.329   4.549  15.834  1.8135 -1.3640 -0.5911
  254TMC3    H1 3908   0.545   4.369  16.159 -0.6371  1.2391  0.6578
  254TMC3    H2 3909   0.127   4.298  16.113  0.2158  0.1648 -0.1040
  254TMC3    C7 3910   0.350   4.256  16.255 -0.1833 -0.3897  0.1709
  254TMC3    C8 3911   0.107   4.520  15.953  0.4041  0.1519  0.4659
  254TMC3    O1 3912   0.448   4.287  16.333 -0.0170  0.5410 -0.2223
  254TMC3    O2 3913   0.139   4.633  15.917 -0.5887 -0.5019 -0.1524
  255MPD2     C 3914   4.358   3.712  10.075  0.0915 -0.0500  0.1423
  255MPD2    C1 3915   4.293   3.593  10.043  0.1268 -0.0823  0.3192
  255MPD2    C2 3916   4.360   3.514   9.947 -0.1030  0.4133 -0.2749
  255MPD2    C3 3917   4.472   3.560   9.882 -0.0056  0.1457 -0.3644
  255MPD2    C4 3918   4.539   3.671   9.928 -0.5799  0.1989 -0.1581
  255MPD2    C5 3919   4.480   3.744  10.026 -0.2881 -0.7932 -0.4006
  255MPD2     H 3920   4.305   3.427   9.913  0.3968 -0.4737  1.1872
  255MPD2    H1 3921   4.634   3.705   9.888 -0.9779 -0.5424 -1.7376
  255MPD2    H2 3922   4.301   3.773  10.145 -0.4178 -1.0410  0.5928
  255MPD2    H3 3923   4.533   3.827  10.072  0.0796 -0.6235 -1.1364
  255MPD2     N 3924   4.526   3.483   9.774 -0.3540 -0.0455 -0.0990
  255MPD2    H5 3925   4.471   3.403   9.747 -0.7396 -0.6489  2.4025
  255MPD2    N1 3926   4.166   3.560  10.108 -0.0636 -0.3271 -0.1839
  255MPD2    H7 3927   4.126   3.642  10.151  3.0669  0.4040  1.3606
  256TMC3    C1 3928   3.971   3.443  10.170 -0.2497  0.4982 -0.1513
  256TMC3    C2 3929   3.938   3.554  10.242 -1.2160 -0.4954  0.2248
  256TMC3    C3 3930   3.809   3.558  10.294 -0.3767 -0.7469 -0.7681
  256TMC3    C4 3931   3.892   3.330  10.155 -0.8749 -0.2491 -1.4477
  256TMC3    C5 3932   3.767   3.341  10.207 -0.2114  0.1520 -0.7957
  256TMC3    C6 3933   3.720   3.449  10.273 -0.0287  0.2015  0.1049
  256TMC3     C 3934   4.092   3.439  10.090  0.1067  0.6366  1.0052
  256TMC3     O 3935   4.134   3.332  10.049  0.1701  0.0431 -0.8865
  256TMC3     H 3936   4.014   3.620  10.283  0.0129 -1.7258 -0.0896
  256TMC3    H1 3937   3.929   3.247  10.097 -1.9738  0.0208 -2.5229
  256TMC3    H2 3938   3.618   3.449  10.310  0.1952  0.5174  0.7306
  256TMC3    C7 3939   3.669   3.245  10.155  0.5235  0.4649  0.2375
  256TMC3    C8 3940   3.761   3.676  10.358 -1.2351  0.2405  0.7260
  256TMC3    O1 3941   3.709   3.132  10.127  0.2251  0.0014 -0.6515
  256TMC3    O2 3942   3.644   3.675  10.396  0.0908  0.6937 -0.1359
  257MPD2     C 3943   3.367   0.037  13.472 -0.6573  0.7254 -0.4980
  257MPD2    C1 3944   3.355   4.714  13.346  0.0478 -0.1955  0.6091
  257MPD2    C2 3945   3.344   4.579  13.344 -0.0826  0.1782  0.2618
  257MPD2    C3 3946   3.316   4.505  13.455 -1.1165  0.3921 -0.5907
  257MPD2    C4 3947   3.312   4.563  13.574 -0.5135  0.7607  0.3896
  257MPD2    C5 3948   3.334   4.700  13.584  0.1509 -0.2207  0.6413
  257MPD2     H 3949   3.349   4.519  13.254  0.1654  1.1363 -0.3659
  257MPD2    H1 3950   3.284   4.511  13.665  2.9912 -0.2634  0.8809
  257MPD2    H2 3951   3.388   0.143  13.476  1.8197  0.1748  1.4717
  257MPD2    H3 3952   3.327   0.007  13.681 -0.5581  1.2069 -0.1158
  257MPD2     N 3953   3.294   4.366  13.441  0.0316 -1.0272 -0.1549
  257MPD2    H5 3954   3.301   4.329  13.347  0.6496  0.7606 -0.7973
  257MPD2    N1 3955   3.388   0.051  13.231  0.5888  0.2126  0.2403
  257MPD2    H7 3956   3.401   0.152  13.242  0.9009 -0.0130  1.9311
  258TMC3    C1 3957   3.258   4.146  13.483  0.6827 -0.9549  0.2644
  258TMC3    C2 3958   3.227   4.122  13.345 -0.1521 -0.3313  0.7188
  258TMC3    C3 3959   3.217   3.988  13.312 -0.5245 -0.2082 -0.2721
  258TMC3    C4 3960   3.296   4.045  13.570  0.0443  0.3762 -0.1529
  258TMC3    C5 3961   3.284   3.916  13.531 -0.9095 -0.2611  0.1326
  258TMC3    C6 3962   3.237   3.886  13.399  0.2820 -0.3118 -0.0093
  258TMC3     C 3963   3.272   4.278  13.538 -0.6063 -0.4862  0.7610
  258TMC3     O 3964   3.263   4.289  13.661 -0.2094  0.3958 -0.2167
  258TMC3     H 3965   3.197   4.200  13.276  2.9372 -0.1969 -0.4603
  258TMC3    H1 3966   3.316   4.064  13.675  1.1459 -3.7535  0.3747
  258TMC3    H2 3967   3.244   3.783  13.365  2.6336 -0.1287 -0.0569
  258TMC3    C7 3968   3.303   3.816  13.622 -0.6279  0.9748 -0.3485
  258TMC3    C8 3969   3.228   3.945  13.174  0.2706  0.0502 -0.1817
  258TMC3    O1 3970   3.218   3.727  13.626 -0.7507  0.1297  0.6804
  258TMC3    O2 3971   3.233   4.046  13.103 -0.5664  0.6427  0.3959
  259MPD2     C 3972   2.283   1.155   0.403  0.4844 -0.5842 -0.6749
  259MPD2    C1 3973   2.245   1.069   0.507  0.0673  0.5498  0.0094
  259MPD2    C2 3974   2.316   0.949   0.523 -0.1130 -0.5491  0.3499
  259MPD2    C3 3975   2.403   0.920   0.429  0.5301 -0.0777 -0.0308
  259MPD2    C4 3976   2.425   0.999   0.318 -0.7965  0.3720  0.0551
  259MPD2    C5 3977   2.369   1.118   0.307  0.6303  0.0089 -0.4974
  259MPD2     H 3978   2.283   0.881   0.600  0.7939 -1.0113  0.3333
  259MPD2    H1 3979   2.485   0.976   0.230 -1.0850 -1.2615  0.2871
  259MPD2    H2 3980   2.239   1.253   0.393 -0.6394 -1.1676 -1.3545
  259MPD2    H3 3981   2.381   1.170   0.213  0.7750 -2.2979 -1.7588
  259MPD2     N 3982   2.462   0.790   0.433  0.2491 -0.1116  0.3070
  259MPD2    H5 3983   2.432   0.727   0.507  1.2008  1.5735  2.1231
  259MPD2    N1 3984   2.150   1.121   0.588 -0.4665  0.0752 -0.4951
  259MPD2    H7 3985   2.110   1.214   0.578  0.4593  0.3495 -1.5005
  260TMC3    C1 3986   2.570   0.591   0.377 -0.2755 -0.3882  0.0418
  260TMC3    C2 3987   2.689   0.534   0.345  0.0309  0.2399 -0.2144
  260TMC3    C3 3988   2.683   0.393   0.357  0.5520  0.7116 -0.4796
  260TMC3    C4 3989   2.457   0.526   0.410 -0.0554  0.1721  0.0844
  260TMC3    C5 3990   2.460   0.391   0.413  0.2683 -0.7034  0.2982
  260TMC3    C6 3991   2.568   0.313   0.375 -0.3261 -0.2824  0.5578
  260TMC3     C 3992   2.559   0.737   0.353  0.2482  0.2478 -0.2086
  260TMC3     O 3993   2.631   0.791   0.269  0.2197  0.3090 -0.1657
  260TMC3     H 3994   2.777   0.594   0.327  2.0107 -2.9377 -1.1831
  260TMC3    H1 3995   2.365   0.574   0.442  0.3768  1.1110 -0.0782
  260TMC3    H2 3996   2.566   0.205   0.376 -1.6726 -0.2694 -0.2348
  260TMC3    C7 3997   2.327   0.334   0.401 -0.5704  0.3739 -0.2357
  260TMC3    C8 3998   2.809   0.327   0.365 -0.0616  1.2075 -0.2949
  260TMC3    O1 3999   2.313   0.221   0.440  0.8409 -0.5957  0.3233
  260TMC3    O2 4000   2.909   0.394   0.331 -0.3192 -0.6142 -0.1130
  261MPD2     C 4001   4.075   4.173  12.101 -0.5094 -0.4167  0.2840
  261MPD2    C1 4002   4.063   4.271  12.204  0.0123  0.6240  0.2837
  261MPD2    C2 4003   4.092   4.404  12.184 -0.1518 -0.1102 -0.7227
  261MPD2    C3 4004   4.132   4.451  12.061 -0.3911  0.3322  0.1983
  261MPD2    C4 4005   4.142   4.358  11.957 -0.3766  0.1220  0.4438
  261MPD2    C5 4006   4.114   4.229  11.975 -0.0050  0.3885 -0.1845
  261MPD2     H 4007   4.064   4.477  12.260  0.2736  1.7079 -2.3085
  261MPD2    H1 4008   4.161   4.386  11.854  0.0527 -1.1554  0.1737
  261MPD2    H2 4009   4.079   4.066  12.112 -0.0444 -0.3270  0.9772
  261MPD2    H3 4010   4.116   4.171  11.884  0.3165  1.8039 -1.0759
  261MPD2     N 4011   4.151   4.583  12.033 -0.4605 -0.5761  0.0606
  261MPD2    H5 4012   4.135   4.645  12.112  2.5108  1.5403 -1.0153
  261MPD2    N1 4013   4.046   4.228  12.335  0.2755 -0.3324 -0.5646
  261MPD2    H7 4014   4.063   4.299  12.406 -2.3279  1.5636 -1.8635
  262TMC3    C1 4015   4.172   0.042  11.917 -0.3171 -0.1669 -0.3925
  262TMC3    C2 4016   4.095   0.117  12.003 -0.3326  0.4050 -0.4541
  262TMC3    C3 4017   4.120   0.248  12.012  0.0299  0.0386 -0.5067
  262TMC3    C4 4018   4.263   0.102  11.832  0.0739  0.1164 -0.1141
  262TMC3    C5 4019   4.281   0.235  11.841  0.3271 -0.1565 -0.3280
  262TMC3    C6 4020   4.218   0.307  11.940  0.7480  0.3460  0.0657
  262TMC3     C 4021   4.185   4.639  11.915 -0.2182  0.7172  0.1360
  262TMC3     O 4022   4.248   4.596  11.817  0.7056  0.0700 -0.6055
  262TMC3     H 4023   4.019   0.070  12.064 -0.8428  1.3056 -0.4055
  262TMC3    H1 4024   4.322   0.052  11.757 -1.1857 -0.7060 -0.5588
  262TMC3    H2 4025   4.236   0.413  11.955 -0.4736  0.6824 -0.8028
  262TMC3    C7 4026   4.323   0.306  11.722 -0.0371  0.6566 -0.6799
  262TMC3    C8 4027   4.009   0.334  12.032 -0.1550  0.2372 -0.0561
  262TMC3    O1 4028   4.380   0.243  11.633  0.0497  0.6604 -0.0570
  262TMC3    O2 4029   4.021   0.440  12.096 -0.0250  0.0300 -0.0342
  263MPD2     C 4030   0.194   4.041  11.372 -0.0172  0.1500 -0.6939
  263MPD2    C1 4031   0.340   4.042  11.379 -0.6877 -0.0520 -0.1135
  263MPD2    C2 4032   0.405   4.144  11.315 -0.5648 -0.2229  0.3153
  263MPD2    C3 4033   0.327   4.235  11.238 -0.2769  0.3074  0.3968
  263MPD2    C4 4034   0.188   4.221  11.230  0.4179 -0.3035  0.4844
  263MPD2    C5 4035   0.118   4.127  11.297 -0.3593 -0.2935 -0.5346
  263MPD2     H 4036   0.511   4.162  11.323 -0.6777  0.3566  0.5832
  263MPD2    H1 4037   0.129   4.292  11.173  0.8640 -0.8660 -0.6808
  263MPD2    H2 4038   0.140   3.968  11.430 -0.5586  1.0507 -0.0681
  263MPD2    H3 4039   0.010   4.135  11.295 -0.3282  0.0063 -0.9705
  263MPD2     N 4040   0.392   4.339  11.169  0.3777 -0.2142  0.4828
  263MPD2    H5 4041   0.493   4.334  11.168  0.4497  1.4526 -0.4483
  263MPD2    N1 4042   0.402   3.945  11.459  0.4151  0.1880  0.0079
  263MPD2    H7 4043   0.341   3.877  11.503  0.7193 -0.2665 -0.2697
  264TMC3    C1 4044   0.420   4.535  11.033  0.8335 -0.4315  0.1178
  264TMC3    C2 4045   0.383   4.665  11.019 -0.1160 -0.8225  0.0271
  264TMC3    C3 4046   0.430   0.001  10.912 -0.4228 -0.1987 -0.3272
  264TMC3    C4 4047   0.515   4.474  10.953  0.3354 -0.3820 -0.5804
  264TMC3    C5 4048   0.559   4.554  10.850 -0.4742 -0.5318 -0.2220
  264TMC3    C6 4049   0.520   4.687  10.834 -0.1442 -0.0096 -0.1788
  264TMC3     C 4050   0.330   4.452  11.122  0.8486 -0.2055 -1.1212
  264TMC3     O 4051   0.223   4.503  11.148 -0.3722 -0.8405 -0.2738
  264TMC3     H 4052   0.314   4.710  11.090  1.1435  0.7790  0.2393
  264TMC3    H1 4053   0.518   4.365  10.948 -3.2288 -0.5169 -0.0843
  264TMC3    H2 4054   0.553   4.738  10.744 -2.4192  0.9925 -0.4480
  264TMC3    C7 4055   0.644   4.506  10.743  0.5434  0.2678  0.4173
  264TMC3    C8 4056   0.439   0.147  10.927 -0.4078 -0.6101 -0.8112
  264TMC3    O1 4057   0.712   4.591  10.685  0.0507 -0.0529 -0.1883
  264TMC3    O2 4058   0.525   0.195  10.852  0.4771 -0.7524  0.4903
  265MPD2     C 4059   1.889   4.591  15.083  0.1204 -0.3522 -0.1740
  265MPD2    C1 4060   2.007   4.637  15.147  0.0758 -0.0249  0.0360
  265MPD2    C2 4061   2.130   4.625  15.089  0.4190 -0.2219 -0.0673
  265MPD2    C3 4062   2.141   4.559  14.969  0.0397 -0.4665 -0.2703
  265MPD2    C4 4063   2.032   4.511  14.910  0.9916 -0.1402 -0.8345
  265MPD2    C5 4064   1.909   4.529  14.961 -0.3259 -0.2393  0.7127
  265MPD2     H 4065   2.219   4.656  15.143  0.3159 -0.6187  0.3364
  265MPD2    H1 4066   2.035   4.454  14.818 -0.7883  0.8857 -1.5306
  265MPD2    H2 4067   1.787   4.603  15.117 -0.2475  0.8192 -1.7111
  265MPD2    H3 4068   1.829   4.484  14.903 -0.1225  1.8056 -1.1401
  265MPD2     N 4069   2.271   4.533  14.907  0.1487 -0.2749 -0.6694
  265MPD2    H5 4070   2.281   4.458  14.838 -0.0310  0.6156 -1.6671
  265MPD2    N1 4071   2.000   4.716  15.263  0.1174  0.1910 -0.1738
  265MPD2    H7 4072   2.086   0.015  15.299  0.8342 -0.5911 -1.0166
  266TMC3    C1 4073   1.925   0.063  15.457  0.3709  0.0984 -0.8622
  266TMC3    C2 4074   1.840   0.039  15.562 -1.1034 -0.0527 -0.5272
  266TMC3    C3 4075   1.825   0.142  15.661  0.4661  0.2362  0.2612
  266TMC3    C4 4076   1.966   0.189  15.439  0.3119  0.1893 -1.1005
  266TMC3    C5 4077   1.929   0.289  15.521  0.5640  0.0262 -0.6063
  266TMC3    C6 4078   1.867   0.273  15.642 -0.3050  0.5733  0.3664
  266TMC3     C 4079   1.895   4.718  15.348 -0.1315  1.0692  0.3910
  266TMC3     O 4080   1.800   4.638  15.353  0.2665  0.6865 -0.3538
  266TMC3     H 4081   1.794   4.684  15.583  0.6949 -1.3258 -2.4734
  266TMC3    H1 4082   2.017   0.219  15.349  1.5464  1.1624 -0.0837
  266TMC3    H2 4083   1.811   0.356  15.684  0.7830  1.9201 -0.8508
  266TMC3    C7 4084   1.960   0.426  15.473 -0.2630 -0.3514  0.1957
  266TMC3    C8 4085   1.718   0.121  15.758  0.1860  0.2543  0.2453
  266TMC3    O1 4086   1.975   0.445  15.354 -0.2303 -0.4035 -0.0949
  266TMC3    O2 4087   1.644   0.021  15.745 -0.3775  0.4053 -0.4196
  267MPD2     C 4088   3.503   1.134   0.212  0.6674 -0.2689 -0.7800
  267MPD2    C1 4089   3.584   1.243   0.187  0.5732 -0.5697  0.0867
  267MPD2    C2 4090   3.549   1.325   0.085 -0.1238  0.1726  0.0976
  267MPD2    C3 4091   3.427   1.320   0.015 -0.2109 -0.1777  0.0586
  267MPD2    C4 4092   3.348   1.216   0.044  0.4549 -0.0321 -0.1280
  267MPD2    C5 4093   3.386   1.126   0.142 -0.1143 -0.7578 -0.2408
  267MPD2     H 4094   3.614   1.408   0.060 -2.7168  1.6768 -1.6685
  267MPD2    H1 4095   3.250   1.208  17.759 -1.4956 -0.5156  4.1180
  267MPD2    H2 4096   3.523   1.057   0.286  0.7295  1.4556  1.0161
  267MPD2    H3 4097   3.322   1.048   0.182 -1.0034  1.0076  1.7697
  267MPD2     N 4098   3.390   1.396  17.664 -0.0535 -0.2166  0.0788
  267MPD2    H5 4099   3.302   1.369  17.623 -0.4988  2.2059 -0.5752
  267MPD2    N1 4100   3.697   1.246   0.262  0.3095  0.2197 -0.1330
  267MPD2    H7 4101   3.704   1.174   0.333  4.1905  0.5209 -0.1594
  268TMC3    C1 4102   3.925   1.288   0.317 -0.3112 -0.5953  0.4251
  268TMC3    C2 4103   4.032   1.368   0.291 -0.5393  0.5228 -1.4352
  268TMC3    C3 4104   4.135   1.344   0.375  0.9557 -0.3260 -0.2391
  268TMC3    C4 4105   3.907   1.203   0.421  0.2169  0.3416 -0.3480
  268TMC3    C5 4106   4.019   1.179   0.499  0.1806 -0.2574 -0.4237
  268TMC3    C6 4107   4.133   1.248   0.470 -0.3860  0.5406  0.8919
  268TMC3     C 4108   3.813   1.312   0.223 -0.8940  0.7588 -0.1429
  268TMC3     O 4109   3.825   1.399   0.140 -0.2589  0.0204  0.1982
  268TMC3     H 4110   4.030   1.443   0.212 -1.1893 -1.0744 -2.9381
  268TMC3    H1 4111   3.827   1.129   0.420 -1.6422  2.3065  2.2390
  268TMC3    H2 4112   4.222   1.257   0.532 -0.5809  2.5096  0.8740
  268TMC3    C7 4113   4.050   1.046   0.537  0.0976  0.6288  0.1501
  268TMC3    C8 4114   4.266   1.396   0.336  0.4765 -0.8864 -0.6769
  268TMC3    O1 4115   4.151   1.034   0.606 -0.2269 -0.3489  0.1522
  268TMC3    O2 4116   4.355   1.400   0.420  0.7017  0.5065  0.0097
  269MPD2     C 4117   4.629   0.326  15.854 -0.1686  0.0557 -0.8872
  269MPD2    C1 4118   4.520   0.241  15.858 -0.1990  0.4037 -0.5168
  269MPD2    C2 4119   4.413   0.289  15.939  0.3531 -0.3491  0.2948
  269MPD2    C3 4120   4.416   0.411  16.002 -0.1494  0.5534 -0.1092
  269MPD2    C4 4121   4.524   0.493  15.991 -0.0506 -0.3160 -0.4285
  269MPD2    C5 4122   4.633   0.447  15.918  0.9800  0.6054  0.4466
  269MPD2     H 4123   4.318   0.241  15.955 -0.1248  0.9311  1.2697
  269MPD2    H1 4124   4.525   0.593  16.034  1.0936 -0.3725 -0.3025
  269MPD2    H2 4125   4.726   0.300  15.815 -0.4225  0.1091 -1.5446
  269MPD2    H3 4126   4.717   0.510  15.893 -0.1289  1.2565 -1.6528
  269MPD2     N 4127   4.303   0.454  16.079 -0.0289 -0.0029 -0.5571
  269MPD2    H5 4128   4.217   0.400  16.072  1.6423 -2.3910 -2.7042
  269MPD2    N1 4129   4.514   0.123  15.778  0.6171  0.4112  0.5356
  269MPD2    H7 4130   4.600   0.108  15.726  0.3057 -1.5785  0.6158
  270TMC3    C1 4131   4.437   4.652  15.701  0.9117 -0.4591 -0.6911
  270TMC3    C2 4132   4.340   4.591  15.627  0.0858 -0.3160 -0.5997
  270TMC3    C3 4133   4.380   4.493  15.546  0.7312  0.3088  0.7813
  270TMC3    C4 4134   4.565   4.617  15.689  0.2538  0.3628 -0.3890
  270TMC3    C5 4135   4.598   4.501  15.630  0.0719  0.4727  0.0636
  270TMC3    C6 4136   4.507   4.440  15.555 -0.0807 -0.7564 -0.1661
  270TMC3     C 4137   4.409   0.030  15.776 -0.6164 -0.1695  0.1323
  270TMC3     O 4138   4.297   0.030  15.827  0.3767  0.0080 -0.0229
  270TMC3     H 4139   4.241   4.634  15.634  0.6145  1.0957 -1.7160
  270TMC3    H1 4140   4.639   4.662  15.755 -0.7706  0.1779  0.8770
  270TMC3    H2 4141   4.541   4.352  15.501 -1.7387 -0.1403 -2.2248
  270TMC3    C7 4142   4.735   4.474  15.606  0.0168 -0.4375  0.2238
  270TMC3    C8 4143   4.284   4.451  15.445 -0.4793  0.0978  0.2348
  270TMC3    O1 4144   0.023   4.352  15.590 -0.4960 -0.1287 -0.1199
  270TMC3    O2 4145   4.166   4.493  15.458  0.2493  0.1066 -0.1350
  271MPD2     C 4146   3.641   0.207  13.947  0.3943 -0.9805 -0.2795
  271MPD2    C1 4147   3.593   0.100  14.008  0.6801 -0.6289  0.1909
  271MPD2    C2 4148   3.460   0.081  13.999 -0.3334  0.2613 -0.2874
  271MPD2    C3 4149   3.379   0.160  13.913 -0.2168  0.2638 -0.4011
  271MPD2    C4 4150   3.436   0.259  13.840  0.0770  0.7180 -0.0108
  271MPD2    C5 4151   3.562   0.287  13.867 -0.2892  0.0673  0.2024
  271MPD2     H 4152   3.413   4.737  14.047  1.1075 -0.4950 -0.2198
  271MPD2    H1 4153   3.378   0.318  13.771 -2.1861 -0.2890  1.0362
  271MPD2    H2 4154   3.744   0.239  13.952 -0.3503  1.2857  0.8614
  271MPD2    H3 4155   3.614   0.370  13.820  1.8177 -0.4665  1.6080
  271MPD2     N 4156   3.245   0.147  13.897 -0.1518 -0.6787  0.1406
  271MPD2    H5 4157   3.204   0.216  13.835  1.3407  0.9406  0.9605
  271MPD2    N1 4158   3.670   0.023  14.106  0.1010 -0.2738  0.1859
  271MPD2    H7 4159   3.625   4.680  14.141 -2.1286  1.6123  1.8233
  272TMC3    C1 4160   3.839   4.701  14.246 -0.0357  0.1261 -0.6801
  272TMC3    C2 4161   3.916   4.599  14.196 -0.0661  0.0505  0.1876
  272TMC3    C3 4162   3.985   4.523  14.299  0.1984 -0.0550  0.4483
  272TMC3    C4 4163   3.838   4.736  14.373  0.0515  0.5437 -0.3593
  272TMC3    C5 4164   3.905   4.658  14.464 -0.0881  0.5222  0.5149
  272TMC3    C6 4165   3.984   4.555  14.427 -0.2249  0.1138 -0.4659
  272TMC3     C 4166   3.797   0.050  14.144  0.1971 -0.3564  0.4706
  272TMC3     O 4167   3.854   0.157  14.131 -0.0630  0.0290 -0.1445
  272TMC3     H 4168   3.913   4.589  14.088  1.7465  0.7641  0.0604
  272TMC3    H1 4169   3.777   0.077  14.409  1.2576 -0.2607  3.5505
  272TMC3    H2 4170   4.027   4.491  14.504 -0.6413  0.0339 -0.3018
  272TMC3    C7 4171   3.892   4.697  14.602  0.4941  0.1227 -1.0328
  272TMC3    C8 4172   4.100   4.452  14.247 -0.3925 -0.2371 -0.7029
  272TMC3    O1 4173   3.789   0.010  14.628 -0.4460 -0.1506 -0.1629
  272TMC3    O2 4174   4.104   4.453  14.125 -0.2285  0.2196  0.7035
  273MPD2     C 4175   0.546   2.692  11.676  0.2985  0.5453 -0.4458
  273MPD2    C1 4176   0.675   2.735  11.654 -0.7473  0.1454 -0.8864
  273MPD2    C2 4177   0.704   2.772  11.526  0.0972 -0.6016 -0.5357
  273MPD2    C3 4178   0.616   2.755  11.416  0.5848 -0.1452  0.3233
  273MPD2    C4 4179   0.494   2.697  11.439 -0.4547 -0.2751  0.1174
  273MPD2    C5 4180   0.462   2.664  11.572 -0.0882  0.7825 -0.1526
  273MPD2     H 4181   0.804   2.802  11.497  0.7766 -1.1837  1.1750
  273MPD2    H1 4182   0.424   2.676  11.359 -0.6106  2.5231 -0.4573
  273MPD2    H2 4183   0.520   2.661  11.776 -1.5028  2.0681 -0.4437
  273MPD2    H3 4184   0.368   2.620  11.602  1.6873 -1.1622  2.5121
  273MPD2     N 4185   0.639   2.790  11.281 -0.2710 -0.2623 -0.3023
  273MPD2    H5 4186   0.571   2.766  11.210 -0.5954 -0.3252  0.0318
  273MPD2    N1 4187   0.768   2.747  11.766  0.9757 -0.1102 -0.1576
  273MPD2    H7 4188   0.739   2.729  11.861 -1.2221  0.0688 -0.8001
  274TMC3    C1 4189   0.755   2.885  11.091 -0.0237  0.4644  0.1048
  274TMC3    C2 4190   0.635   2.886  11.021 -0.3890  0.0355  0.0371
  274TMC3    C3 4191   0.625   2.972  10.912 -0.4361 -0.0399  0.6092
  274TMC3    C4 4192   0.859   2.971  11.055  0.2591 -0.3661  0.7083
  274TMC3    C5 4193   0.835   3.071  10.964  0.0767  0.1287  0.0005
  274TMC3    C6 4194   0.715   3.068  10.894 -0.2523 -0.1058 -0.6526
  274TMC3     C 4195   0.746   2.865  11.239 -0.3008 -0.9811 -0.5679
  274TMC3     O 4196   0.820   2.936  11.305 -0.3566  1.1344  0.0448
  274TMC3     H 4197   0.547   2.826  11.042 -1.2410  1.0565 -0.5857
  274TMC3    H1 4198   0.938   2.994  11.126 -0.6885 -0.0357  1.6641
  274TMC3    H2 4199   0.706   3.139  10.813 -0.0396  2.0755  1.2305
  274TMC3    C7 4200   0.844   3.196  11.036 -0.6253  0.3623 -0.4677
  274TMC3    C8 4201   0.498   2.998  10.848  0.2610 -0.2555 -0.7938
  274TMC3    O1 4202   0.741   3.248  11.079 -0.0347 -0.4894  0.0804
  274TMC3    O2 4203   0.392   2.993  10.909  0.3799  0.6599  0.1892
  275MPD2     C 4204   0.489   0.835  14.224 -0.8076 -0.7937 -0.0860
  275MPD2    C1 4205   0.478   0.863  14.360  0.4539 -0.0997 -0.0170
  275MPD2    C2 4206   0.345   0.873  14.409  0.2931 -0.3406  0.4150
  275MPD2    C3 4207   0.233   0.858  14.328 -0.1042  0.1662 -0.1020
  275MPD2    C4 4208   0.249   0.823  14.194  0.1420 -0.0075 -0.0746
  275MPD2    C5 4209   0.380   0.811  14.143  0.1069  0.1544 -0.1076
  275MPD2     H 4210   0.339   0.905  14.513  1.1836 -1.5643  0.8461
  275MPD2    H1 4211   0.159   0.796  14.139  0.9954 -2.5709 -0.2018
  275MPD2    H2 4212   0.584   0.824  14.173  0.2480  2.8351  1.0892
  275MPD2    H3 4213   0.390   0.785  14.039  0.8226  0.3500 -0.0878
  275MPD2     N 4214   0.101   0.848  14.381 -0.0714 -0.0688 -0.0064
  275MPD2    H5 4215   0.025   0.835  14.315 -0.9576 -0.1382  1.0374
  275MPD2    N1 4216   0.584   0.867  14.446 -0.3013  0.4430  0.4418
  275MPD2    H7 4217   0.565   0.881  14.545 -1.6524  2.0390 -0.0417
  276TMC3    C1 4218   0.792   0.797  14.519  0.8974  0.2474 -0.8348
  276TMC3    C2 4219   0.876   0.691  14.502  0.9756  0.7193 -0.2045
  276TMC3    C3 4220   0.935   0.645  14.616 -0.0778  0.3830  1.0962
  276TMC3    C4 4221   0.791   0.869  14.631 -0.1070  0.3892  0.2409
  276TMC3    C5 4222   0.863   0.825  14.741  0.1413 -0.0782 -0.4504
  276TMC3    C6 4223   0.933   0.712  14.731 -0.6751  0.0193 -0.3339
  276TMC3     C 4224   0.718   0.841  14.407 -0.3103  0.2309 -0.0780
  276TMC3     O 4225   0.774   0.838  14.298  0.2368 -0.0825 -0.4279
  276TMC3     H 4226   0.889   0.638  14.408 -0.2835  1.1951 -0.6330
  276TMC3    H1 4227   0.721   0.952  14.624  1.0109  1.4072  1.0723
  276TMC3    H2 4228   0.983   0.676  14.819 -0.9817 -1.3601 -0.7228
  276TMC3    C7 4229   0.862   0.896  14.870  0.3767  0.2991 -0.1973
  276TMC3    C8 4230   1.012   0.520  14.610  0.9502  0.3055 -0.3921
  276TMC3    O1 4231   0.944   0.850  14.955 -0.4188 -0.0917 -0.1041
  276TMC3    O2 4232   1.022   0.474  14.494  0.5635 -0.2589 -0.2321
  277MPD2     C 4233   2.498   4.657  13.675 -0.1246 -0.1259  0.2622
  277MPD2    C1 4234   2.394   4.656  13.760 -0.2168  0.8194  0.5673
  277MPD2    C2 4235   2.359   4.531  13.812 -0.4130 -0.5656 -0.1766
  277MPD2    C3 4236   2.420   4.416  13.781  0.5625 -0.2142  0.0614
  277MPD2    C4 4237   2.523   4.417  13.688  0.2436  0.1641  0.5765
  277MPD2    C5 4238   2.557   4.537  13.636  0.6837 -0.0155 -0.9067
  277MPD2     H 4239   2.280   4.525  13.887 -1.1366  1.7372 -0.7407
  277MPD2    H1 4240   2.585   4.334  13.656  3.0447  1.6732  2.0762
  277MPD2    H2 4241   2.540   0.004  13.627 -2.8934  0.6418 -0.7821
  277MPD2    H3 4242   2.652   4.543  13.583  0.0268  0.5656 -2.0244
  277MPD2     N 4243   2.378   4.302  13.852 -0.2559 -0.3059 -0.5138
  277MPD2    H5 4244   2.306   4.312  13.923 -0.5304  0.7810 -0.9585
  277MPD2    N1 4245   2.320   0.030  13.805  0.2889 -0.3371 -0.5732
  277MPD2    H7 4246   2.239   0.004  13.861  0.0908 -1.1005 -1.2094
  278TMC3    C1 4247   2.305   4.101  13.904 -0.3651  0.3226  0.0819
  278TMC3    C2 4248   2.259   3.985  13.844  1.2443 -0.3595  0.0290
  278TMC3    C3 4249   2.127   3.957  13.861 -0.5824 -0.2294 -0.1775
  278TMC3    C4 4250   2.231   4.167  14.001  0.6986  0.1654  1.0168
  278TMC3    C5 4251   2.096   4.140  14.006 -0.3894 -0.6400 -0.3187
  278TMC3    C6 4252   2.046   4.039  13.930 -0.5626 -0.0854  0.1895
  278TMC3     C 4253   2.411   4.171  13.834 -0.2615 -0.2106 -0.5186
  278TMC3     O 4254   2.467   4.118  13.739 -0.5524  0.0723 -0.2266
  278TMC3     H 4255   2.320   3.930  13.774  1.9824  1.6760 -0.9393
  278TMC3    H1 4256   2.279   4.240  14.065  1.9390 -1.7808  2.2988
  278TMC3    H2 4257   1.941   4.019  13.916 -0.6760  0.9132 -0.3235
  278TMC3    C7 4258   2.020   4.268  14.028 -0.2612  0.4962 -0.3258
  278TMC3    C8 4259   2.057   3.873  13.766  0.1086  0.7863  0.1067
  278TMC3    O1 4260   2.082   4.369  14.029 -0.4233 -0.0825  0.3593
  278TMC3    O2 4261   1.963   3.806  13.811  0.1909  0.5517  0.5839
  279MPD2     C 4262   1.568   4.085   0.216 -0.8221  1.0232 -0.4668
  279MPD2    C1 4263   1.433   4.101   0.251  0.1122 -0.0602 -0.5018
  279MPD2    C2 4264   1.372   4.223   0.212  0.3246  0.1752  0.2499
  279MPD2    C3 4265   1.436   4.316   0.136  0.3496 -0.2823  0.6064
  279MPD2    C4 4266   1.570   4.301   0.106  0.5431  0.6248  0.4915
  279MPD2    C5 4267   1.635   4.187   0.160  0.1138  0.2530 -0.4980
  279MPD2     H 4268   1.273   4.245   0.252  0.2515  1.4542 -0.6382
  279MPD2    H1 4269   1.617   4.370   0.037 -0.2809 -0.2250 -0.9184
  279MPD2    H2 4270   1.618   3.995   0.251 -1.9013  0.1147 -1.2631
  279MPD2    H3 4271   1.740   4.177   0.134  0.1656  0.0768 -0.2252
  279MPD2     N 4272   1.375   4.428   0.080  0.1283  0.4510 -0.7661
  279MPD2    H5 4273   1.435   4.492   0.030 -1.5134  2.5536 -0.0293
  279MPD2    N1 4274   1.369   3.993   0.314 -1.0541 -0.7395 -0.2898
  279MPD2    H7 4275   1.426   3.914   0.343  1.6145  1.6349  0.9331
  280TMC3    C1 4276   1.136   4.053   0.274 -0.7393 -0.1624  0.5503
  280TMC3    C2 4277   1.128   4.028   0.144 -0.1644 -0.0610  0.1169
  280TMC3    C3 4278   1.020   4.079   0.065 -0.8765 -0.2361 -0.7681
  280TMC3    C4 4279   1.035   4.123   0.337  0.1740 -0.1442  0.1689
  280TMC3    C5 4280   0.930   4.174   0.257 -0.3558 -0.5317 -0.1858
  280TMC3    C6 4281   0.914   4.144   0.125 -0.0861  0.3012 -0.0687
  280TMC3     C 4282   1.240   3.983   0.351 -0.0262  0.3623  0.5270
  280TMC3     O 4283   1.201   3.910   0.440 -0.1951  0.5768  0.0450
  280TMC3     H 4284   1.211   3.979   0.094 -2.0091 -1.6826 -1.3548
  280TMC3    H1 4285   1.039   4.136   0.445 -1.7521 -1.6320  0.4092
  280TMC3    H2 4286   0.851   4.201   0.059 -1.5258  0.3382  1.3309
  280TMC3    C7 4287   0.870   4.288   0.315  0.2709  0.1673 -0.0144
  280TMC3    C8 4288   1.048   4.090  17.677 -0.8064  0.5784  0.0106
  280TMC3    O1 4289   0.916   4.320   0.420  0.2737  0.0037  0.0137
  280TMC3    O2 4290   0.993   4.186  17.631  0.3303 -0.2669 -0.3816
  281TMC3    C1 4291   0.531   4.699  13.519 -0.1287  0.0924  0.1889
  281TMC3    C2 4292   0.563   0.058  13.426 -0.0260  0.2838  0.1134
  281TMC3    C3 4293   0.651   0.032  13.322  0.4128  0.3119  1.1171
  281TMC3    C4 4294   0.573   4.571  13.500 -0.4170 -0.8282 -0.0675
  281TMC3    C5 4295   0.641   4.549  13.383 -0.4199 -1.1891 -0.3184
  281TMC3    C6 4296   0.687   4.648  13.297 -0.4899  0.0317  0.3206
  281TMC3     C 4297   0.412   4.712  13.604 -0.2859  0.0507 -0.3260
  281TMC3     O 4298   0.387   4.613  13.670 -0.2858 -0.3791  0.4585
  281TMC3     H 4299   0.505   0.150  13.427 -1.4036 -0.5629 -1.0762
  281TMC3    H1 4300   0.549   4.490  13.568 -2.9651  1.0924  1.3219
  281TMC3    H2 4301   0.739   4.623  13.205 -0.0400 -0.4440  0.7060
  281TMC3    C7 4302   0.577   4.446  13.309  0.4775  0.3803  0.1335
  281TMC3    C8 4303   0.610   0.099  13.202 -0.1794 -0.0103  0.0607
  281TMC3    O1 4304   0.612   4.426  13.196  0.5958 -0.3811 -0.0633
  281TMC3    O2 4305   0.585   0.026  13.110  0.2308 -0.4628  0.1679
  282MPD2     C 4306   2.322   1.685  15.241 -0.1868 -0.1546 -1.0040
  282MPD2    C1 4307   2.191   1.714  15.254  0.5246 -0.3574  0.1545
  282MPD2    C2 4308   2.104   1.694  15.143  0.9633  0.3208 -0.6593
  282MPD2    C3 4309   2.156   1.667  15.018  0.0789  1.2566 -0.6227
  282MPD2    C4 4310   2.291   1.634  15.018  0.7344 -0.3007 -0.5036
  282MPD2    C5 4311   2.373   1.630  15.130 -0.3997  0.2295 -0.7961
  282MPD2     H 4312   1.999   1.721  15.147  0.7904 -0.6616  0.9640
  282MPD2    H1 4313   2.338   1.593  14.929 -0.1934  1.4031 -1.7908
  282MPD2    H2 4314   2.377   1.684  15.334 -0.0420  1.7067 -1.0810
  282MPD2    H3 4315   2.478   1.604  15.122 -0.9000 -2.7057  1.9741
  282MPD2     N 4316   2.066   1.661  14.910 -0.0893  0.0688  0.0249
  282MPD2    H5 4317   1.970   1.685  14.933 -1.3902 -2.9263 -2.2798
  282MPD2    N1 4318   2.140   1.747  15.378  0.4168  0.1236 -0.5548
  282MPD2    H7 4319   2.199   1.779  15.454 -2.2429  2.5026  0.4894
  283TMC3    C1 4320   1.986   1.737  15.547 -0.1434  0.3465 -0.0221
  283TMC3    C2 4321   1.980   1.866  15.574 -0.6836  0.1361 -0.4289
  283TMC3    C3 4322   1.886   1.901  15.666 -0.2952  0.5005 -0.9073
  283TMC3    C4 4323   1.911   1.632  15.604 -0.3092  0.4446  0.7493
  283TMC3    C5 4324   1.828   1.675  15.704  1.3341  0.1465  0.1808
  283TMC3    C6 4325   1.811   1.810  15.735 -0.1982 -0.4638  0.5741
  283TMC3     C 4326   2.010   1.718  15.409  0.1893 -0.3887  0.5379
  283TMC3     O 4327   1.934   1.638  15.354 -0.1818  0.1604 -0.4898
  283TMC3     H 4328   2.030   1.945  15.519 -1.6175  0.5106 -0.7381
  283TMC3    H1 4329   1.931   1.526  15.591 -1.8660  0.2400 -0.0609
  283TMC3    H2 4330   1.742   1.844  15.811 -1.4311  0.7926 -1.1168
  283TMC3    C7 4331   1.722   1.585  15.755 -0.1021 -0.3166  0.9101
  283TMC3    C8 4332   1.819   2.027  15.645 -0.5218  0.6425 -0.4752
  283TMC3    O1 4333   1.691   1.601  15.871  0.5443  0.5219  0.1407
  283TMC3    O2 4334   1.695   2.029  15.664  0.2495  0.8280 -0.7839
  284MPD2     C 4335   0.189   0.817  12.059 -0.5359 -0.0475  0.7643
  284MPD2    C1 4336   0.314   0.856  12.107  0.5308 -0.1859  0.3454
  284MPD2    C2 4337   0.384   0.768  12.187  0.2320  0.0080  0.1212
  284MPD2    C3 4338   0.328   0.649  12.224 -0.5084 -0.2806 -0.5440
  284MPD2    C4 4339   0.206   0.615  12.172 -0.2909  0.3697 -0.3754
  284MPD2    C5 4340   0.141   0.699  12.092 -0.0969  0.0904 -0.0972
  284MPD2     H 4341   0.482   0.792  12.227 -0.5785  0.4660  1.8411
  284MPD2    H1 4342   0.149   0.522  12.179 -0.0085  0.1868 -0.5097
  284MPD2    H2 4343   0.125   0.886  12.004 -0.5615 -0.8550 -0.2213
  284MPD2    H3 4344   0.040   0.673  12.062 -0.2383  1.5813 -0.9069
  284MPD2     N 4345   0.389   0.555  12.309 -0.5587  0.0792  0.3694
  284MPD2    H5 4346   0.336   0.471  12.332 -0.8518 -0.7747 -3.2771
  284MPD2    N1 4347   0.388   0.964  12.061 -0.0926  0.4813 -0.2094
  284MPD2    H7 4348   0.480   0.980  12.101 -0.0894 -1.3390  0.4993
  285TMC3    C1 4349   0.428   1.160  11.946  0.1694  1.0781  0.4362
  285TMC3    C2 4350   0.564   1.129  11.942 -0.4532 -0.4886 -0.1151
  285TMC3    C3 4351   0.657   1.226  11.889  0.4466  0.2961  0.4366
  285TMC3    C4 4352   0.381   1.285  11.905  0.4537  0.8830 -0.1497
  285TMC3    C5 4353   0.482   1.374  11.861  0.2086  0.9017  0.5118
  285TMC3    C6 4354   0.614   1.346  11.843 -0.2587  0.3889 -0.1237
  285TMC3     C 4355   0.333   1.066  11.985  0.0830  0.1161 -0.3594
  285TMC3     O 4356   0.220   1.073  11.932  0.4236 -0.5694 -0.1030
  285TMC3     H 4357   0.600   1.029  11.965  2.1484  0.5653  0.3101
  285TMC3    H1 4358   0.277   1.317  11.908  0.9860  2.5336  0.4179
  285TMC3    H2 4359   0.681   1.421  11.802 -0.3116  0.3074 -0.3609
  285TMC3    C7 4360   0.437   1.491  11.788  0.2308  0.2378 -0.4835
  285TMC3    C8 4361   0.751   1.149  11.805 -0.1003 -0.2445  0.2141
  285TMC3    O1 4362   0.510   1.587  11.811  0.3616 -0.3671 -0.0031
  285TMC3    O2 4363   0.705   1.046  11.762  0.3347 -0.2699  0.0769
  286MPD2     C 4364   0.294   4.167   1.410  0.4403  0.3448  0.1098
  286MPD2    C1 4365   0.259   4.105   1.291 -0.2840 -0.4593 -0.4234
  286MPD2    C2 4366   0.309   3.982   1.268  0.4693 -0.8014  0.2064
  286MPD2    C3 4367   0.389   3.913   1.359  0.3929 -0.3848  0.3511
  286MPD2    C4 4368   0.435   3.979   1.470  0.2867 -0.1091  0.3122
  286MPD2    C5 4369   0.383   4.104   1.502 -0.9321  0.5210 -0.7169
  286MPD2     H 4370   0.272   3.939   1.176 -1.6496 -1.1168  1.1922
  286MPD2    H1 4371   0.507   3.930   1.535  0.4207  0.4098  0.5530
  286MPD2    H2 4372   0.247   4.261   1.434  0.6269  0.0896  1.4555
  286MPD2    H3 4373   0.408   4.155   1.594 -1.1831  1.3408 -1.0963
  286MPD2     N 4374   0.432   3.784   1.333  0.4188 -0.1144 -0.6053
  286MPD2    H5 4375   0.494   3.744   1.403  0.5830 -1.3579 -1.4601
  286MPD2    N1 4376   0.165   4.157   1.201  0.3701 -0.6642 -0.5119
  286MPD2    H7 4377   0.139   4.107   1.117 -0.8661 -0.8211 -0.0434
  287TMC3    C1 4378   0.409   3.554   1.241  0.1840 -0.1948  0.2321
  287TMC3    C2 4379   0.319   3.463   1.192 -0.2820  0.2687  0.4707
  287TMC3    C3 4380   0.373   3.345   1.157  0.3637  0.0737 -0.2378
  287TMC3    C4 4381   0.541   3.531   1.269 -0.0366 -0.1604  0.0658
  287TMC3    C5 4382   0.582   3.398   1.257 -0.4579 -0.0787 -0.5099
  287TMC3    C6 4383   0.495   3.306   1.205  0.0290 -0.2007  0.4794
  287TMC3     C 4384   0.375   3.701   1.232  0.2362 -0.3908  0.3423
  287TMC3     O 4385   0.279   3.712   1.155  0.3357  0.2581  0.0800
  287TMC3     H 4386   0.216   3.491   1.175 -0.8418 -1.3344  1.2550
  287TMC3    H1 4387   0.605   3.605   1.315 -0.1072 -1.3685  2.1300
  287TMC3    H2 4388   0.539   3.213   1.171 -2.2032 -0.4317 -1.8032
  287TMC3    C7 4389   0.724   3.374   1.245  0.3593 -0.0141 -0.1383
  287TMC3    C8 4390   0.345   3.295   1.022  0.1735 -0.3639 -0.1406
  287TMC3    O1 4391   0.768   3.259   1.248  0.1549 -0.4846  0.1634
  287TMC3    O2 4392   0.360   3.177   0.997 -0.3775  0.1040  0.2789
  288TMC3    C1 4393   2.477   4.246  14.367  0.4915 -0.9379 -0.3833
  288TMC3    C2 4394   2.405   4.290  14.479  0.7165  0.2702 -0.0746
  288TMC3    C3 4395   2.293   4.218  14.513 -0.0526 -0.5116 -0.3627
  288TMC3    C4 4396   2.450   4.125  14.302  0.0889 -0.0440 -0.3760
  288TMC3    C5 4397   2.334   4.066  14.335  0.0219  0.8286 -0.5142
  288TMC3    C6 4398   2.260   4.104  14.441 -0.1136  0.3293 -0.1571
  288TMC3     C 4399   2.594   4.314  14.312  0.2580 -0.0152  0.2813
  288TMC3     O 4400   2.669   4.254  14.237  0.1008 -0.4703 -0.0962
  288TMC3     H 4401   2.439   4.367  14.548  1.6400 -2.3939  2.4348
  288TMC3    H1 4402   2.506   4.085  14.218  0.5431  0.1571 -0.1656
  288TMC3    H2 4403   2.160   4.062  14.441  0.1312 -0.2652  0.4526
  288TMC3    C7 4404   2.275   3.954  14.256  0.0269 -0.2211 -0.4645
  288TMC3    C8 4405   2.247   4.232  14.646  0.9033  0.4004 -0.4552
  288TMC3    O1 4406   2.156   3.956  14.229 -0.1740  0.3507 -0.0860
  288TMC3    O2 4407   2.282   4.329  14.716  0.3424 -0.6460 -0.4959
  289MPD2     C 4408   2.625   3.458  14.590 -0.3388 -1.0577  0.4016
  289MPD2    C1 4409   2.581   3.575  14.540 -0.1526 -0.3668  0.1717
  289MPD2    C2 4410   2.455   3.583  14.485  0.2642 -0.0237 -0.1742
  289MPD2    C3 4411   2.375   3.469  14.477  0.1069  0.5860  0.0641
  289MPD2    C4 4412   2.422   3.348  14.525 -0.7239  0.1263 -0.8027
  289MPD2    C5 4413   2.544   3.346  14.581 -0.2981 -0.3266 -0.2675
  289MPD2     H 4414   2.414   3.679  14.456 -0.7522 -0.1149  0.9657
  289MPD2    H1 4415   2.371   3.253  14.517 -0.2976 -0.4244  2.8428
  289MPD2    H2 4416   2.722   3.457  14.639  0.1522  0.0600 -0.5596
  289MPD2    H3 4417   2.586   3.258  14.629  0.1533 -0.4185 -0.8332
  289MPD2     N 4418   2.260   3.467  14.403 -0.0251  0.4233  0.8503
  289MPD2    H5 4419   2.213   3.379  14.384 -0.6435  0.8351  0.4736
  289MPD2    N1 4420   2.671   3.687  14.559 -0.5033 -0.6918 -0.5515
  289MPD2    H7 4421   2.764   3.668  14.593 -0.0104 -0.0539 -1.5234
  290TMC3    C1 4422   2.067   3.559  14.285  0.0108  0.2363  0.6793
  290TMC3    C2 4423   1.996   3.670  14.262  0.4029 -0.0993  0.3204
  290TMC3    C3 4424   1.928   3.683  14.142 -0.0555  0.3868  0.4148
  290TMC3    C4 4425   2.057   3.453  14.203 -0.3073 -0.1468  0.2650
  290TMC3    C5 4426   1.980   3.464  14.087  0.4277  0.2606  0.2166
  290TMC3    C6 4427   1.917   3.576  14.054 -0.6432  0.3958 -0.1444
  290TMC3     C 4428   2.179   3.573  14.382  0.8011 -0.3494  0.2314
  290TMC3     O 4429   2.196   3.691  14.421 -0.2959  0.6213 -0.2005
  290TMC3     H 4430   1.982   3.750  14.334  0.3206  0.9645 -0.8866
  290TMC3    H1 4431   2.114   3.363  14.224  0.5514 -0.1938 -2.3549
  290TMC3    H2 4432   1.849   3.582  13.970 -0.9058  1.3035  0.1313
  290TMC3    C7 4433   1.946   3.355  14.006  0.7275 -0.2256  0.3263
  290TMC3    C8 4434   1.836   3.791  14.133  0.4027  0.5525 -0.2467
  290TMC3    O1 4435   1.865   3.376  13.914 -0.2904 -0.6278  0.2947
  290TMC3    O2 4436   1.726   3.755  14.097  0.1485 -0.5489  0.2159
  291MPD2     C 4437   1.304   3.092   0.402  0.0950  0.0514 -0.4533
  291MPD2    C1 4438   1.268   3.053   0.532 -0.2053  0.5045  0.2811
  291MPD2    C2 4439   1.332   3.103   0.642 -0.0249  0.0693  0.9567
  291MPD2    C3 4440   1.434   3.186   0.627  0.2883 -0.0175 -0.6118
  291MPD2    C4 4441   1.471   3.231   0.499  0.0073 -0.5381 -0.0847
  291MPD2    C5 4442   1.402   3.189   0.390  1.1656 -0.4474 -0.4090
  291MPD2     H 4443   1.298   3.076   0.741 -1.1220 -3.6429 -0.4446
  291MPD2    H1 4444   1.548   3.307   0.497 -0.6684  0.1731  0.3981
  291MPD2    H2 4445   1.261   3.060   0.308  1.4218  1.8210 -1.6673
  291MPD2    H3 4446   1.434   3.220   0.291 -1.5878 -2.3785 -1.9208
  291MPD2     N 4447   1.503   3.243   0.734 -0.3617 -0.2755  0.1058
  291MPD2    H5 4448   1.587   3.290   0.704  0.1440 -1.9793 -1.1769
  291MPD2    N1 4449   1.155   2.967   0.557  0.0881  0.1084 -0.8120
  291MPD2    H7 4450   1.135   2.956   0.656  0.7676 -1.4715 -0.8431
  292TMC3    C1 4451   0.991   2.805   0.521  0.2212 -0.1745  0.4840
  292TMC3    C2 4452   0.978   2.797   0.654  0.4345  0.2418 -0.4253
  292TMC3    C3 4453   0.931   2.680   0.714 -0.1677  0.4407  0.2548
  292TMC3    C4 4454   0.951   2.698   0.442  0.6004  0.5720  0.5706
  292TMC3    C5 4455   0.901   2.588   0.506  0.4825 -0.3634 -0.2674
  292TMC3    C6 4456   0.898   2.572   0.643  0.2424  0.0982 -0.3640
  292TMC3     C 4457   1.091   2.893   0.465 -0.2854  0.8066  0.6068
  292TMC3     O 4458   1.112   2.888   0.345 -0.0852  0.1441  0.7391
  292TMC3     H 4459   0.990   2.880   0.723 -1.0246 -1.3789  1.7738
  292TMC3    H1 4460   0.953   2.709   0.334  1.0958 -1.8917  0.3398
  292TMC3    H2 4461   0.893   2.470   0.679  1.6472 -0.2710 -1.1996
  292TMC3    C7 4462   0.877   2.465   0.430  0.0059  0.3277 -0.4828
  292TMC3    C8 4463   0.963   2.671   0.857 -0.3888  0.1976 -0.4295
  292TMC3    O1 4464   0.943   2.450   0.330  0.2630  0.0364 -0.6090
  292TMC3    O2 4465   1.042   2.742   0.907  0.0899  0.5653  0.3976
  293MPD2     C 4466   3.807   4.317  12.792 -0.0859  0.3421  0.6220
  293MPD2    C1 4467   3.696   4.400  12.795  0.0136  0.4872  0.0310
  293MPD2    C2 4468   3.648   4.451  12.916  0.1129 -0.2395 -0.2648
  293MPD2    C3 4469   3.706   4.409  13.032 -0.8831 -0.1768 -0.2924
  293MPD2    C4 4470   3.810   4.322  13.027  0.1347  0.3515 -0.7181
  293MPD2    C5 4471   3.860   4.286  12.909 -0.7066 -0.2342 -0.2901
  293MPD2     H 4472   3.574   4.530  12.913 -0.7038 -1.0804 -2.1709
  293MPD2    H1 4473   3.870   4.311  13.117 -1.1295 -0.3381  0.0256
  293MPD2    H2 4474   3.854   4.289  12.698 -0.5382 -0.4574  0.6289
  293MPD2    H3 4475   3.953   4.231  12.922 -1.9753 -2.4927 -0.7911
  293MPD2     N 4476   3.658   4.455  13.157 -0.0573  0.0243 -0.4531
  293MPD2    H5 4477   3.586   4.527  13.162 -0.5841 -0.6822  1.7346
  293MPD2    N1 4478   3.640   4.441  12.673  0.3511  0.5629 -0.0141
  293MPD2    H7 4479   3.681   4.402  12.588 -0.2252 -2.6759  1.1933
  294TMC3    C1 4480   3.511   4.551  12.508 -0.1896 -0.2802  0.4795
  294TMC3    C2 4481   3.388   4.591  12.477 -0.4639 -0.1686  0.3336
  294TMC3    C3 4482   3.367   4.636  12.354 -0.4043 -0.1863 -0.1421
  294TMC3    C4 4483   3.616   4.546  12.417  0.2589  0.3996 -0.4330
  294TMC3    C5 4484   3.591   4.598  12.297 -0.0578 -0.4051  0.5413
  294TMC3    C6 4485   3.467   4.640  12.260  0.4959 -0.4877  0.2672
  294TMC3     C 4486   3.531   4.516  12.654 -1.1057  0.6050 -0.0618
  294TMC3     O 4487   3.436   4.536  12.726 -0.3613 -0.7401  0.4019
  294TMC3     H 4488   3.314   4.606  12.554 -2.4383  2.3084 -2.0093
  294TMC3    H1 4489   3.715   4.510  12.440  1.1261  3.0119 -0.0564
  294TMC3    H2 4490   3.447   4.669  12.157  3.2936 -3.4052 -1.0802
  294TMC3    C7 4491   3.654   4.522  12.187  0.1158 -0.5839 -0.5986
  294TMC3    C8 4492   3.238   4.617  12.298 -0.4671 -0.2844 -0.0000
  294TMC3    O1 4493   3.681   4.408  12.217  0.0496 -0.3993  0.0259
  294TMC3    O2 4494   3.233   4.578  12.182  0.2560  0.0665 -0.1459
  295MPD2     C 4495   3.575   2.642   0.873  0.0114 -0.0893 -0.8726
  295MPD2    C1 4496   3.510   2.764   0.868  0.2080  0.4399  0.2742
  295MPD2    C2 4497   3.459   2.820   0.986  0.4860 -0.1482 -0.0017
  295MPD2    C3 4498   3.476   2.749   1.106 -0.2772  1.2419 -0.1557
  295MPD2    C4 4499   3.545   2.636   1.105  0.1214 -0.1403  0.1090
  295MPD2    C5 4500   3.584   2.581   0.986 -0.1923 -0.4025  0.4847
  295MPD2     H 4501   3.401   2.911   0.982  0.3330 -0.2487 -0.0730
  295MPD2    H1 4502   3.553   2.586   1.201 -0.2630  0.7825  0.6220
  295MPD2    H2 4503   3.616   2.591   0.787  0.7144 -0.9899 -0.0019
  295MPD2    H3 4504   3.623   2.480   0.981  1.7158  0.3680 -0.0679
  295MPD2     N 4505   3.426   2.805   1.231 -0.2704 -0.3415  0.4690
  295MPD2    H5 4506   3.448   2.739   1.306 -0.3671 -0.2241  0.5999
  295MPD2    N1 4507   3.502   2.841   0.749  0.2364  0.5215  0.4789
  295MPD2    H7 4508   3.449   2.927   0.761 -2.3659 -1.3117  2.1451
  296TMC3    C1 4509   3.331   2.947   1.398 -0.4402  0.2347 -0.4873
  296TMC3    C2 4510   3.246   3.055   1.419 -0.3581  0.1952  0.2481
  296TMC3    C3 4511   3.197   3.066   1.545  0.6492  0.2804 -0.9797
  296TMC3    C4 4512   3.372   2.865   1.495  0.5553  0.3403 -0.3372
  296TMC3    C5 4513   3.326   2.887   1.626  0.0813 -0.3317 -0.5224
  296TMC3    C6 4514   3.233   2.985   1.649  0.1855 -0.3469  0.1381
  296TMC3     C 4515   3.370   2.925   1.257 -0.3420  0.1190 -0.2065
  296TMC3     O 4516   3.354   3.021   1.180 -0.0049  0.3314 -0.6967
  296TMC3     H 4517   3.211   3.121   1.340  0.5503 -0.8764 -1.0337
  296TMC3    H1 4518   3.441   2.786   1.468 -0.2384  0.2606 -2.1373
  296TMC3    H2 4519   3.194   2.999   1.749 -0.4183 -0.3248 -0.0995
  296TMC3    C7 4520   3.373   2.811   1.736 -0.5827  0.3721 -0.5628
  296TMC3    C8 4521   3.065   3.123   1.551 -0.5022 -0.2429  0.0548
  296TMC3    O1 4522   3.331   2.826   1.852  0.4773 -0.3729 -0.3738
  296TMC3    O2 4523   2.991   3.057   1.620  0.1107 -0.5078 -0.3839
  297MPD2     C 4524   1.091   0.200  16.382  0.3571 -0.0736 -0.0588
  297MPD2    C1 4525   1.051   0.256  16.265  0.4249 -0.1251  0.1582
  297MPD2    C2 4526   1.116   0.364  16.215  0.3638 -0.2458 -0.1201
  297MPD2    C3 4527   1.226   0.416  16.290  0.1891 -0.1845 -0.4790
  297MPD2    C4 4528   1.252   0.362  16.416 -0.2366 -0.3595  0.2994
  297MPD2    C5 4529   1.185   0.255  16.459 -0.0575  0.1560 -0.5350
  297MPD2     H 4530   1.097   0.409  16.118  0.6169 -0.1154 -0.1088
  297MPD2    H1 4531   1.314   0.406  16.493 -1.1667  1.7790 -0.1566
  297MPD2    H2 4532   1.040   0.114  16.424 -2.9032  0.8202 -2.1430
  297MPD2    H3 4533   1.214   0.219  16.557  1.0674 -0.4357 -1.0822
  297MPD2     N 4534   1.302   0.526  16.239 -0.0803 -0.2111  0.0512
  297MPD2    H5 4535   1.266   0.568  16.154 -0.2199 -0.7289 -0.1486
  297MPD2    N1 4536   0.938   0.210  16.191 -0.3094  0.4765 -0.2274
  297MPD2    H7 4537   0.901   0.262  16.112 -1.2620  0.5227  0.2410
  298TMC3    C1 4538   0.741   0.097  16.135 -0.0438 -0.1459 -0.3360
  298TMC3    C2 4539   0.736   0.119  16.002 -0.1709 -0.2372  0.0696
  298TMC3    C3 4540   0.609   0.151  15.948  0.1796 -0.0928  0.1533
  298TMC3    C4 4541   0.625   0.106  16.213 -0.0393 -0.1593 -0.0641
  298TMC3    C5 4542   0.506   0.136  16.160 -0.5411  0.6574  0.0062
  298TMC3    C6 4543   0.493   0.152  16.020 -0.0258  0.2689 -0.3173
  298TMC3     C 4544   0.859   0.100  16.221  0.3174 -0.0956 -0.0169
  298TMC3     O 4545   0.865   0.028  16.318 -0.2416 -0.2703 -0.2332
  298TMC3     H 4546   0.820   0.105  15.935 -1.0203  2.4301 -1.5400
  298TMC3    H1 4547   0.634   0.094  16.320  0.5211 -0.7691 -0.1830
  298TMC3    H2 4548   0.399   0.168  15.969 -0.9411 -1.0763  0.9525
  298TMC3    C7 4549   0.414   0.206  16.247 -0.4895 -0.0223 -0.2273
  298TMC3    C8 4550   0.594   0.181  15.806  0.0605  0.0406  0.9931
  298TMC3    O1 4551   0.432   0.208  16.368  0.1611  0.1046 -0.1116
  298TMC3    O2 4552   0.490   0.217  15.764  0.4284  0.0028  0.4432
  299MPD2     C 4553   1.740   0.624  10.697 -0.1707 -0.2157 -0.3198
  299MPD2    C1 4554   1.847   0.708  10.656  0.3188 -0.8955 -0.2283
  299MPD2    C2 4555   1.820   0.818  10.577  0.1199  0.6926 -0.4353
  299MPD2    C3 4556   1.688   0.832  10.522 -0.3198  0.7058 -0.2277
  299MPD2    C4 4557   1.588   0.750  10.569  0.1938  0.9324  0.0300
  299MPD2    C5 4558   1.612   0.643  10.649 -0.3154 -0.5681 -0.6458
  299MPD2     H 4559   1.900   0.881  10.539  2.1836 -1.9871 -0.5119
  299MPD2    H1 4560   1.484   0.762  10.540  0.4317 -0.2963 -1.3258
  299MPD2    H2 4561   1.753   0.541  10.766 -1.9295 -0.1336  0.1129
  299MPD2    H3 4562   1.536   0.585  10.701  1.1056 -0.4875  1.5182
  299MPD2     N 4563   1.644   0.931  10.432  0.1009 -0.1304 -0.1143
  299MPD2    H5 4564   1.550   0.913  10.400  0.1738 -0.3520 -0.2033
  299MPD2    N1 4565   1.971   0.678  10.718 -0.9777 -0.5245 -0.3512
  299MPD2    H7 4566   1.982   0.593  10.772  1.3270 -0.2014 -0.3189
  300TMC3    C1 4567   1.658   1.121  10.297 -0.3689  0.1839  0.4052
  300TMC3    C2 4568   1.683   1.243  10.360  0.7457 -0.3559  0.4052
  300TMC3    C3 4569   1.573   1.295  10.428  0.1362  1.0055  0.3618
  300TMC3    C4 4570   1.535   1.077  10.266 -0.1307 -0.3823  0.1425
  300TMC3    C5 4571   1.425   1.153  10.310 -0.2427  0.1726 -0.2966
  300TMC3    C6 4572   1.447   1.253  10.402 -0.7423  0.6075 -0.0840
  300TMC3     C 4573   1.730   1.031  10.381 -0.1556 -0.1037 -0.4531
  300TMC3     O 4574   1.836   1.072  10.426  0.5812 -0.0875 -0.1690
  300TMC3     H 4575   1.778   1.291  10.380 -1.2366  2.9076  1.8012
  300TMC3    H1 4576   1.521   0.985  10.210 -1.5968  0.6291 -1.1424
  300TMC3    H2 4577   1.357   1.299  10.441 -0.5593  1.0298 -0.1676
  300TMC3    C7 4578   1.308   1.073  10.326  0.2083 -0.9037 -0.0487
  300TMC3    C8 4579   1.618   1.317  10.565 -0.3442  0.8632  1.0901
  300TMC3    O1 4580   1.285   1.013  10.219  0.3640  0.3970 -0.3432
  300TMC3    O2 4581   1.739   1.339  10.583  0.0313 -0.3055 -0.0018
  301MPD2     C 4582   4.014   1.680   0.519  0.2256  0.5312 -0.4005
  301MPD2    C1 4583   3.890   1.622   0.522  0.1966  0.4118 -0.2925
  301MPD2    C2 4584   3.867   1.517   0.610  0.1261 -0.4237 -0.2506
  301MPD2    C3 4585   3.966   1.470   0.691 -0.5498  0.7938  1.0634
  301MPD2    C4 4586   4.091   1.519   0.680 -0.5621 -0.1956 -0.0782
  301MPD2    C5 4587   4.115   1.628   0.589  0.7110  0.3284  0.5546
  301MPD2     H 4588   3.767   1.478   0.625 -0.5595  0.6120 -2.0495
  301MPD2    H1 4589   4.177   1.477   0.732  0.7028 -0.3119 -2.2464
  301MPD2    H2 4590   4.040   1.770   0.466  0.7494  0.1393 -0.8059
  301MPD2    H3 4591   4.210   1.679   0.582  0.4134  0.9125  0.6895
  301MPD2     N 4592   3.956   1.364   0.785 -0.2322 -0.2217  0.0644
  301MPD2    H5 4593   4.041   1.344   0.836  1.4904  0.2298 -2.6357
  301MPD2    N1 4594   3.796   1.657   0.426 -0.2718 -0.7592 -0.1801
  301MPD2    H7 4595   3.720   1.590   0.425 -1.0488  0.1202  0.4166
  302TMC3    C1 4596   3.877   1.159   0.869 -0.1889  0.0256  0.6033
  302TMC3    C2 4597   3.941   1.171   0.986 -0.2923 -0.3574 -0.4451
  302TMC3    C3 4598   3.940   1.070   1.075  0.1261 -0.1495  0.1521
  302TMC3    C4 4599   3.792   1.054   0.844 -0.0490  0.3200 -0.2999
  302TMC3    C5 4600   3.806   0.948   0.929 -0.2298  0.6001 -0.6033
  302TMC3    C6 4601   3.878   0.951   1.047  0.6128  0.1289  0.3947
  302TMC3     C 4602   3.846   1.278   0.790 -0.1469 -0.2702  0.6668
  302TMC3     O 4603   3.753   1.272   0.709 -0.5919  0.4720 -0.7891
  302TMC3     H 4604   4.003   1.258   1.005  0.4500 -0.7486 -1.0609
  302TMC3    H1 4605   3.743   1.047   0.748  2.0470 -1.6461 -1.2387
  302TMC3    H2 4606   3.868   0.878   1.127  2.8647 -1.2332 -0.5682
  302TMC3    C7 4607   3.732   0.827   0.913 -0.6653 -0.4076  0.0629
  302TMC3    C8 4608   4.033   1.061   1.185  0.1420 -0.0605  0.1521
  302TMC3    O1 4609   3.769   0.722   0.966  0.0426  0.1169 -0.0296
  302TMC3    O2 4610   4.015   0.975   1.269  0.4980 -0.0209 -0.3708
  303MPD2     C 4611   3.520   4.196  10.941  0.4687 -0.0057 -0.7974
  303MPD2    C1 4612   3.488   4.178  10.810 -0.0183  0.0584 -0.4055
  303MPD2    C2 4613   3.550   4.265  10.722 -0.6497  0.2773  0.2839
  303MPD2    C3 4614   3.649   4.351  10.767 -0.2557  0.1059 -0.0691
  303MPD2    C4 4615   3.675   4.358  10.899  0.7789 -0.4788  0.0464
  303MPD2    C5 4616   3.617   4.278  10.984 -0.2195  0.1472  0.4182
  303MPD2     H 4617   3.543   4.240  10.617 -0.7498  0.5128  0.2352
  303MPD2    H1 4618   3.748   4.426  10.939 -1.1810  0.5783  1.8114
  303MPD2    H2 4619   3.471   4.123  11.005 -0.3643 -1.5927 -3.1971
  303MPD2    H3 4620   3.645   4.281  11.088  0.8820  2.0937  0.0617
  303MPD2     N 4621   3.712   4.450  10.691 -0.4419 -0.5036 -0.2944
  303MPD2    H5 4622   3.778   4.513  10.735 -2.8226 -0.6842  3.5233
  303MPD2    N1 4623   3.377   4.095  10.781  0.4002 -0.4421 -0.2711
  303MPD2    H7 4624   3.333   4.049  10.860  0.1337 -0.0903 -0.2139
  304TMC3    C1 4625   3.209   3.980  10.666  0.2224 -0.9693  0.2170
  304TMC3    C2 4626   3.107   4.027  10.751 -0.1752  0.3369  0.6287
  304TMC3    C3 4627   2.985   4.058  10.701  0.6709  0.1226  0.5956
  304TMC3    C4 4628   3.170   3.923  10.548  0.2815  0.0775 -0.3569
  304TMC3    C5 4629   3.035   3.923  10.517 -0.3627 -0.2909  0.0779
  304TMC3    C6 4630   2.952   3.998  10.586 -0.4303 -0.3412 -0.0716
  304TMC3     C 4631   3.322   4.066  10.657 -0.0097 -0.5173 -0.1897
  304TMC3     O 4632   3.369   4.086  10.546  0.4362  0.3278 -0.1226
  304TMC3     H 4633   3.134   4.081  10.841  0.4181  1.1499 -0.0357
  304TMC3    H1 4634   3.248   3.891  10.480  0.5362  0.6472 -0.3356
  304TMC3    H2 4635   2.845   3.990  10.571 -0.6339  0.5033  0.9170
  304TMC3    C7 4636   3.001   3.932  10.379 -0.4103 -0.5575  0.2684
  304TMC3    C8 4637   2.958   4.203  10.666 -0.0219  0.1681 -0.7350
  304TMC3    O1 4638   2.907   4.007  10.352 -0.4459 -0.6242  0.1705
  304TMC3    O2 4639   2.988   4.289  10.749 -0.0366  0.0089  0.4930
  305MPD2     C 4640   2.051   2.088  13.917  0.1700 -0.1506  0.0422
  305MPD2    C1 4641   2.122   1.969  13.882 -0.0139  0.3103 -0.2626
  305MPD2    C2 4642   2.072   1.900  13.771 -0.3145  0.2265 -0.0341
  305MPD2    C3 4643   1.968   1.952  13.694 -0.2217  0.3396  0.1011
  305MPD2    C4 4644   1.912   2.075  13.727 -0.4444  0.0274  0.0839
  305MPD2    C5 4645   1.952   2.146  13.840  0.0980 -0.7229 -0.2561
  305MPD2     H 4646   2.121   1.812  13.730 -1.3259 -0.8641  1.0843
  305MPD2    H1 4647   1.828   2.102  13.666 -2.1190 -0.2378  2.2576
  305MPD2    H2 4648   2.071   2.147  14.006 -2.6379 -0.2138  0.7528
  305MPD2    H3 4649   1.916   2.246  13.862  2.1636  0.0570 -0.4167
  305MPD2     N 4650   1.913   1.892  13.580  0.6601  0.4861  0.3078
  305MPD2    H5 4651   1.853   1.956  13.529  1.5634  0.1497 -1.1838
  305MPD2    N1 4652   2.224   1.929  13.972 -0.3500 -0.4114 -0.0602
  305MPD2    H7 4653   2.232   1.988  14.055  0.5773  0.8321 -1.0388
  306TMC3    C1 4654   2.395   1.810  14.086 -0.3298  0.3187  0.4878
  306TMC3    C2 4655   2.428   1.682  14.135 -0.4124 -0.0232 -0.0502
  306TMC3    C3 4656   2.486   1.680  14.261  0.3005 -0.5118  0.0406
  306TMC3    C4 4657   2.415   1.927  14.161  0.9847  0.1214 -0.0691
  306TMC3    C5 4658   2.472   1.920  14.282 -0.2166  0.2941 -0.5712
  306TMC3    C6 4659   2.508   1.797  14.336 -0.2106  0.5268  0.0197
  306TMC3     C 4660   2.306   1.816  13.968  0.3105  0.2703  0.5543
  306TMC3     O 4661   2.326   1.730  13.884 -0.2983 -0.5231  0.1549
  306TMC3     H 4662   2.421   1.600  14.065 -0.8796 -0.2064  0.2085
  306TMC3    H1 4663   2.392   2.023  14.116 -2.8996 -1.1482 -0.8748
  306TMC3    H2 4664   2.530   1.788  14.442 -0.1728  0.4284  0.0032
  306TMC3    C7 4665   2.513   2.041  14.341 -0.0786 -0.0815 -0.6579
  306TMC3    C8 4666   2.498   1.563  14.334  0.2248 -0.7166  0.0853
  306TMC3    O1 4667   2.443   2.137  14.308 -0.1517  0.5879 -0.6823
  306TMC3    O2 4668   2.452   1.567  14.448 -0.1468  0.2882  0.4364
  307MPD2     C 4669   4.552   4.703  17.448 -0.6999  0.4696  0.3941
  307MPD2    C1 4670   4.528   0.074  17.519  0.1579 -0.1485 -0.0798
  307MPD2    C2 4671   4.515   0.063  17.658  0.2592 -0.5721  0.2776
  307MPD2    C3 4672   4.518   4.681  17.719  0.4111  0.2602 -0.4259
  307MPD2    C4 4673   4.557   4.579  17.645 -0.7968  0.0889  0.0432
  307MPD2    C5 4674   4.577   4.593  17.514 -0.5048  1.0815  0.0300
  307MPD2     H 4675   4.488   0.150  17.718  1.2644  0.0074 -0.1119
  307MPD2    H1 4676   4.587   4.484  17.687  0.4225  0.1070 -0.7830
  307MPD2    H2 4677   4.569   4.695  17.341 -0.5185 -0.3506  0.4849
  307MPD2    H3 4678   4.602   4.509  17.450  2.7373  0.9262  1.5037
  307MPD2     N 4679   4.493   4.672   0.097 -0.7313  0.0997 -0.1567
  307MPD2    H5 4680   4.483   0.020   0.146 -2.2949 -0.2614  0.2022
  307MPD2    N1 4681   4.505   0.202  17.462  0.0130 -0.7015 -0.7639
  307MPD2    H7 4682   4.477   0.279  17.523  0.1867 -1.5189  0.3531
  308TMC3    C1 4683   4.441   4.491   0.532 -0.5838  0.4493  0.2886
  308TMC3    C2 4684   4.448   4.616   0.592 -0.1056 -0.7144 -0.7440
  308TMC3    C3 4685   4.489   4.716   0.511  0.0302 -0.1949  0.6127
  308TMC3    C4 4686   4.465   4.477   0.396  1.4701 -0.7260  0.8945
  308TMC3    C5 4687   4.498   4.582   0.320 -0.3039 -0.3688 -0.0742
  308TMC3    C6 4688   4.516   4.703   0.378 -0.0237 -0.7442 -0.3223
  308TMC3     C 4689   4.326   4.398   0.575 -0.1806 -0.2778  0.7593
  308TMC3     O 4690   4.365   4.282   0.566 -0.1209 -0.1557  0.2405
  308TMC3     H 4691   4.414   4.631   0.693 -0.4897  0.6347 -1.0694
  308TMC3    H1 4692   4.432   4.383   0.353  1.4858 -0.7981  1.0375
  308TMC3    H2 4693   4.553   0.052   0.329  0.4607 -0.9003 -0.2473
  308TMC3    C7 4694   4.479   4.561   0.169 -0.2940  0.1907  0.6830
  308TMC3    C8 4695   4.504   0.104   0.580 -0.2277 -0.0001 -0.3656
  308TMC3    O1 4696   4.468   4.448   0.122 -0.1252 -0.9560  0.1038
  308TMC3    O2 4697   4.564   0.107   0.687  0.5443  0.1666  0.1761
  309MPD2     C 4698   3.232   0.505  17.437  0.8716  0.6373 -0.0705
  309MPD2    C1 4699   3.249   0.373  17.452  0.5722 -0.7582 -0.8355
  309MPD2    C2 4700   3.164   0.311  17.536  0.0783 -0.0680 -0.6316
  309MPD2    C3 4701   3.074   0.384  17.614 -0.2343 -0.0895  0.1065
  309MPD2    C4 4702   3.060   0.521  17.595 -1.0047 -1.0847 -0.3127
  309MPD2    C5 4703   3.142   0.584  17.510  0.5549 -0.0281  0.4137
  309MPD2     H 4704   3.165   0.203  17.546 -0.6268  0.0747  1.0519
  309MPD2    H1 4705   2.989   0.588  17.642  0.9269  0.2889  0.6343
  309MPD2    H2 4706   3.299   0.558  17.370  0.6613 -0.5219 -1.1872
  309MPD2    H3 4707   3.139   0.692  17.507  0.7959 -0.0856 -2.1855
  309MPD2     N 4708   2.980   0.328  17.701 -0.5830  0.4138  0.1780
  309MPD2    H5 4709   2.899   0.384  17.723 -0.9207  0.2902 -0.7650
  309MPD2    N1 4710   3.340   0.300  17.380 -0.2957 -0.2889 -0.2236
  309MPD2    H7 4711   3.333   0.199  17.368  1.7857 -0.3523 -1.0084
  310TMC3    C1 4712   3.492   0.256  17.207  0.0276 -0.2458 -0.7004
  310TMC3    C2 4713   3.494   0.294  17.079  0.0822 -0.0845  0.4480
  310TMC3    C3 4714   3.523   0.193  16.989 -0.2316 -0.3993  0.8092
  310TMC3    C4 4715   3.515   0.125  17.249  0.3196 -0.1426 -0.0299
  310TMC3    C5 4716   3.556   0.034  17.155 -0.2271 -0.2289 -0.0876
  310TMC3    C6 4717   3.552   0.066  17.021  0.4012 -0.0293 -0.3754
  310TMC3     C 4718   3.445   0.357  17.302 -0.0753  0.3096  0.6365
  310TMC3     O 4719   3.484   0.468  17.273  0.4827  0.2396 -0.2182
  310TMC3     H 4720   3.468   0.395  17.050 -1.9009 -0.0963  2.1863
  310TMC3    H1 4721   3.515   0.112  17.356 -0.5529 -1.8855 -0.2414
  310TMC3    H2 4722   3.582   4.728  16.953  1.3642  0.6805 -0.7770
  310TMC3    C7 4723   3.631   4.657  17.194  0.4992  0.8409  0.1367
  310TMC3    C8 4724   3.520   0.227  16.849  1.2888 -0.5638 -0.6114
  310TMC3    O1 4725   3.630   4.560  17.118 -0.8097 -0.0443  0.2951
  310TMC3    O2 4726   3.513   0.143  16.764 -0.6525  0.0058 -0.7443
  311MPD2     C 4727   1.276   1.683  12.603 -0.0502  0.3557  0.2963
  311MPD2    C1 4728   1.311   1.642  12.735  0.5993 -0.9502  0.1418
  311MPD2    C2 4729   1.217   1.583  12.818 -0.2150 -0.0701 -0.5649
  311MPD2    C3 4730   1.085   1.559  12.781  0.0307  0.6637 -0.1399
  311MPD2    C4 4731   1.060   1.591  12.652  0.5888 -0.0559 -0.4369
  311MPD2    C5 4732   1.150   1.657  12.566 -0.0343  0.8808  0.8140
  311MPD2     H 4733   1.252   1.551  12.915 -1.1268 -0.2477 -0.2926
  311MPD2    H1 4734   0.967   1.566  12.601  0.5859 -1.0320  0.0460
  311MPD2    H2 4735   1.342   1.741  12.539  3.2340 -2.1030  1.4242
  311MPD2    H3 4736   1.119   1.698  12.470  0.1323 -0.9805 -0.0291
  311MPD2     N 4737   1.000   1.495  12.870  0.2182  0.6935  0.1774
  311MPD2    H5 4738   1.049   1.457  12.950  0.8779 -1.0295 -1.0442
  311MPD2    N1 4739   1.444   1.653  12.775 -0.2440  0.1768 -0.2201
  311MPD2    H7 4740   1.462   1.621  12.870  0.4648  0.4823 -0.2603
  312TMC3    C1 4741   0.786   1.422  12.953 -0.2485 -0.6281 -0.0777
  312TMC3    C2 4742   0.668   1.366  12.914 -0.7861 -0.2012  1.0860
  312TMC3    C3 4743   0.597   1.310  13.014  0.6871 -0.3687  0.3293
  312TMC3    C4 4744   0.825   1.426  13.084  0.0849  1.2813  0.3985
  312TMC3    C5 4745   0.752   1.370  13.184 -0.4544  0.0649 -0.0782
  312TMC3    C6 4746   0.639   1.310  13.144  0.0940  0.1023  0.4462
  312TMC3     C 4747   0.865   1.495  12.851  0.2866 -0.1346  0.6337
  312TMC3     O 4748   0.804   1.546  12.757  0.3187  0.4574  0.9908
  312TMC3     H 4749   0.653   1.358  12.807  0.8119  0.5767  0.7951
  312TMC3    H1 4750   0.917   1.473  13.117  1.9498 -4.1228  2.9111
  312TMC3    H2 4751   0.573   1.271  13.221  0.3430 -0.5603  0.3187
  312TMC3    C7 4752   0.753   1.442  13.308 -0.3895  0.2829 -0.1962
  312TMC3    C8 4753   0.470   1.247  12.976  0.0001  0.4584 -0.2012
  312TMC3    O1 4754   0.861   1.475  13.348  0.0283 -0.0726  0.1079
  312TMC3    O2 4755   0.425   1.163  13.052 -0.3538 -0.0915 -0.2389
  313MPD2     C 4756   0.702   0.981  10.968 -0.3765 -0.2222 -0.8513
  313MPD2    C1 4757   0.590   0.985  11.045  0.5033 -0.1881 -0.2542
  313MPD2    C2 4758   0.480   0.910  11.021 -0.6827 -0.0095  0.0793
  313MPD2    C3 4759   0.473   0.831  10.912 -0.3944 -0.3395 -0.3224
  313MPD2    C4 4760   0.588   0.818  10.839  0.3299 -0.1708  0.2895
  313MPD2    C5 4761   0.701   0.895  10.865 -0.8804 -0.2350  0.0356
  313MPD2     H 4762   0.393   0.917  11.086  1.6241 -0.0373  3.1925
  313MPD2    H1 4763   0.597   0.754  10.752  0.2792  0.5458 -0.2348
  313MPD2    H2 4764   0.784   1.052  10.968 -0.6170  0.0610  0.3615
  313MPD2    H3 4765   0.788   0.889  10.801 -0.3699 -2.1814  0.9030
  313MPD2     N 4766   0.357   0.745  10.887  0.2071 -0.2385 -0.4091
  313MPD2    H5 4767   0.279   0.767  10.947 -0.9449 -1.9446 -1.2940
  313MPD2    N1 4768   0.572   1.070  11.157  0.0066  0.3326 -0.9030
  313MPD2    H7 4769   0.496   1.051  11.222  0.2635  0.0946 -0.6712
  314TMC3    C1 4770   0.639   1.213  11.331  0.1148  0.2842 -0.3464
  314TMC3    C2 4771   0.754   1.267  11.392 -0.4980 -0.0058  0.2046
  314TMC3    C3 4772   0.742   1.388  11.446 -0.9579  0.6370  0.0096
  314TMC3    C4 4773   0.519   1.273  11.334 -0.6711  0.3644  0.4337
  314TMC3    C5 4774   0.513   1.401  11.385 -0.0747 -0.1395 -0.3016
  314TMC3    C6 4775   0.621   1.453  11.449  0.3699  0.0193 -0.0382
  314TMC3     C 4776   0.669   1.149  11.206 -0.4853 -0.6354  0.1622
  314TMC3     O 4777   0.774   1.178  11.156 -0.6847  0.3484  0.2121
  314TMC3     H 4778   0.850   1.220  11.370 -1.0830 -0.6369 -0.9795
  314TMC3    H1 4779   0.428   1.236  11.288  0.2956 -1.3731 -0.0573
  314TMC3    H2 4780   0.619   1.551  11.494  0.3354  1.1731 -2.5404
  314TMC3    C7 4781   0.439   1.492  11.300 -0.1798  0.6247  0.5384
  314TMC3    C8 4782   0.846   1.476  11.402 -1.0199 -1.0758  0.0548
  314TMC3    O1 4783   0.331   1.458  11.250 -0.1422 -0.0722 -0.5416
  314TMC3    O2 4784   0.802   1.553  11.317 -0.1082 -0.1732  0.9563
  315MPD2     C 4785   0.038   4.129  17.372 -0.3950 -0.4073  0.0979
  315MPD2    C1 4786   0.034   4.155  17.509  0.0180 -0.0084  0.4191
  315MPD2    C2 4787   0.065   4.282  17.556  0.4079 -0.3813  0.0363
  315MPD2    C3 4788   0.113   4.376  17.468 -0.4197  0.4426 -0.1182
  315MPD2    C4 4789   0.102   4.359  17.332  0.2923  0.1285 -0.5889
  315MPD2    C5 4790   0.063   4.235  17.287  0.1562 -0.0138  0.1578
  315MPD2     H 4791   0.061   4.307  17.661  2.0999  3.5742 -0.8338
  315MPD2    H1 4792   0.112   4.435  17.257  0.4094  0.4242 -0.2741
  315MPD2    H2 4793   0.020   4.032  17.326 -1.5156 -0.4991  0.7504
  315MPD2    H3 4794   0.050   4.220  17.180  2.9480 -2.2912  0.1370
  315MPD2     N 4795   0.156   4.495  17.524  0.7302  0.2864 -0.5178
  315MPD2    H5 4796   0.163   4.497  17.625 -1.4550  0.2847 -0.3729
  315MPD2    N1 4797   0.028   4.056  17.609 -0.0966 -0.0910  0.2153
  315MPD2    H7 4798   0.046   4.102  17.698  1.6208 -1.8979  0.7874
  316TMC3    C1 4799   0.198   4.714  17.566  0.2579  0.2341 -0.4010
  316TMC3    C2 4800   0.291   4.697  17.666  0.1266  0.1011 -0.2054
  316TMC3    C3 4801   0.300   0.049  17.759 -1.1285 -1.3736 -0.4211
  316TMC3    C4 4802   0.129   0.088  17.565 -0.1752  0.7397  0.6548
  316TMC3    C5 4803   0.135   0.180  17.671 -0.2374  0.3520 -0.0860
  316TMC3    C6 4804   0.223   0.158   0.008 -0.6061 -0.1545  0.2150
  316TMC3     C 4805   0.185   4.610  17.463 -0.8129 -0.0313  0.2012
  316TMC3     O 4806   0.168   4.636  17.343  0.0450  0.5926  0.0859
  316TMC3     H 4807   0.358   4.612  17.653  0.9920  0.8321 -0.5647
  316TMC3    H1 4808   0.046   0.101  17.496  0.3495  4.5993  0.7727
  316TMC3    H2 4809   0.228   0.224   0.094 -1.2383  2.0780 -1.4640
  316TMC3    C7 4810   0.080   0.307  17.656  0.0272  0.2904  0.8851
  316TMC3    C8 4811   0.405   0.047   0.103  0.8797 -0.2708  0.1852
  316TMC3    O1 4812   0.065   0.364   0.002 -0.6732  0.5046  0.5740
  316TMC3    O2 4813   0.427   0.153   0.164 -0.8237 -0.3505  0.3517
  317MPD2     C 4814   2.562   3.770  13.036 -0.4692  0.1205 -0.3870
  317MPD2    C1 4815   2.623   3.658  12.992  0.5144  0.4895  0.2060
  317MPD2    C2 4816   2.677   3.578  13.089  0.0997  0.6750 -0.3426
  317MPD2    C3 4817   2.666   3.609  13.222  0.6947 -0.4791 -0.3957
  317MPD2    C4 4818   2.601   3.719  13.265 -0.4922  0.0975  0.7292
  317MPD2    C5 4819   2.541   3.791  13.171 -0.1223  0.2128  0.0924
  317MPD2     H 4820   2.719   3.482  13.061  0.9785  0.9400  0.0826
  317MPD2    H1 4821   2.595   3.745  13.370  0.1841  0.9758  0.5498
  317MPD2    H2 4822   2.510   3.841  12.973 -0.4384 -0.0678 -0.6234
  317MPD2    H3 4823   2.487   3.880  13.200 -0.9225  0.2613 -1.5687
  317MPD2     N 4824   2.723   3.510  13.306  0.4805 -0.7043 -0.5610
  317MPD2    H5 4825   2.766   3.431  13.259 -0.9880 -1.0304 -1.3470
  317MPD2    N1 4826   2.638   3.624  12.856  0.6114  0.7003 -0.4851
  317MPD2    H7 4827   2.700   3.548  12.833  0.0464 -0.7630  2.8317
  318TMC3    C1 4828   2.819   3.395  13.478  0.1500 -0.9619 -0.2061
  318TMC3    C2 4829   2.734   3.286  13.462 -0.6545  0.0667 -0.7714
  318TMC3    C3 4830   2.759   3.179  13.531 -0.1786  0.5509  0.4541
  318TMC3    C4 4831   2.930   3.386  13.556  0.5252  0.7014 -0.5600
  318TMC3    C5 4832   2.951   3.268  13.617  0.7492  0.7498  0.1195
  318TMC3    C6 4833   2.871   3.162  13.608 -0.1199 -0.0957  0.4384
  318TMC3     C 4834   2.774   3.528  13.429 -0.2871  0.3259  0.5349
  318TMC3     O 4835   2.786   3.629  13.498 -0.3604  0.7852  0.0363
  318TMC3     H 4836   2.635   3.292  13.418 -0.7817  0.8792 -0.3764
  318TMC3    H1 4837   2.996   3.472  13.563  0.5722  0.7082 -1.0717
  318TMC3    H2 4838   2.885   3.079  13.676 -2.5917 -0.6880  0.2081
  318TMC3    C7 4839   3.042   3.268  13.726  0.0922  0.1905  0.0573
  318TMC3    C8 4840   2.687   3.055  13.511 -0.3341 -0.3684 -0.0787
  318TMC3    O1 4841   3.093   3.376  13.753  0.3495 -0.0541 -0.1978
  318TMC3    O2 4842   2.693   2.965  13.596 -0.7532  0.3753  0.0647
  319MPD2     C 4843   2.972   4.232  16.666  0.1710  0.0203 -0.1827
  319MPD2    C1 4844   2.854   4.201  16.742  0.5815 -0.5026 -0.0556
  319MPD2    C2 4845   2.733   4.184  16.675  0.0748  0.1469 -0.8747
  319MPD2    C3 4846   2.725   4.199  16.539 -0.1222 -0.1348  0.5272
  319MPD2    C4 4847   2.844   4.234  16.472 -0.2187 -0.3320 -0.5404
  319MPD2    C5 4848   2.965   4.252  16.532 -0.7415 -0.5100  0.3898
  319MPD2     H 4849   2.644   4.155  16.729  0.0814 -0.6871 -1.3165
  319MPD2    H1 4850   2.849   4.246  16.364  0.2460  0.8181 -0.3970
  319MPD2    H2 4851   3.065   4.234  16.721  0.1675  2.3819 -0.2682
  319MPD2    H3 4852   3.057   4.279  16.481 -0.6787 -1.6842 -0.1143
  319MPD2     N 4853   2.611   4.160  16.455  0.3696  0.3445 -0.4737
  319MPD2    H5 4854   2.610   4.190  16.358  0.9382  2.2373  0.1107
  319MPD2    N1 4855   2.846   4.188  16.884  0.4958 -0.3517 -0.4134
  319MPD2    H7 4856   2.755   4.162  16.921  0.3148 -2.5350 -2.3914
  320TMC3    C1 4857   2.390   4.102  16.415 -0.2220  0.3072 -0.5970
  320TMC3    C2 4858   2.383   4.192  16.311  0.3317 -0.4652 -0.2982
  320TMC3    C3 4859   2.278   4.184  16.223 -0.5883 -0.1711  0.0534
  320TMC3    C4 4860   2.294   4.003  16.422  0.4590 -0.6677  0.8927
  320TMC3    C5 4861   2.205   3.983  16.317 -0.3448  0.1193 -0.6138
  320TMC3    C6 4862   2.196   4.076  16.222 -0.1854  0.5225 -0.5963
  320TMC3     C 4863   2.497   4.094  16.505 -0.0525  0.4179  0.4125
  320TMC3     O 4864   2.478   4.025  16.608 -0.0379 -0.1822 -0.6652
  320TMC3     H 4865   2.471   4.253  16.294 -0.0895  0.7899  2.0838
  320TMC3    H1 4866   2.314   3.922  16.491 -0.4735  0.0592  2.0123
  320TMC3    H2 4867   2.120   4.064  16.145 -1.3980  0.0553  0.6768
  320TMC3    C7 4868   2.161   3.846  16.274 -0.0501  0.3026 -0.2568
  320TMC3    C8 4869   2.271   4.289  16.122  0.0107  0.3128  0.5663
  320TMC3    O1 4870   2.117   3.825  16.162 -0.2694 -0.4355  0.3931
  320TMC3    O2 4871   2.352   4.379  16.138 -0.2957 -0.4780  0.7532
  321TMC3    C1 4872   2.918   4.224  17.103 -0.1417  0.7189  0.2195
  321TMC3    C2 4873   2.812   4.160  17.154 -0.6540 -0.1494 -0.7530
  321TMC3    C3 4874   2.783   4.190  17.285  0.3136  0.0605  0.0554
  321TMC3    C4 4875   2.999   4.313  17.173 -0.5949 -0.3174  0.1135
  321TMC3    C5 4876   2.960   4.346  17.299  0.2655  0.9586 -0.0006
  321TMC3    C6 4877   2.849   4.287  17.353 -0.0065 -0.1147 -0.2276
  321TMC3     C 4878   2.957   4.212  16.964 -0.1130 -0.6549 -1.0546
  321TMC3     O 4879   3.073   4.229  16.939 -0.2140  0.0298 -0.1723
  321TMC3     H 4880   2.762   4.081  17.100  0.0303 -0.4255 -0.9831
  321TMC3    H1 4881   3.090   4.360  17.139 -1.2243  0.1338 -0.9560
  321TMC3    H2 4882   2.809   4.308  17.451  0.1298 -2.8580  0.4270
  321TMC3    C7 4883   3.067   4.335  17.398  0.5231  0.9084  0.8111
  321TMC3    C8 4884   2.753   4.077  17.364 -0.1680  0.5540 -0.3038
  321TMC3    O1 4885   3.038   4.260  17.489 -0.1036  0.0669 -0.1487
  321TMC3    O2 4886   2.668   3.996  17.338  0.4085 -0.4431 -0.1756
  322MPD2     C 4887   1.771   0.902  13.953  0.2291 -0.2130 -0.3116
  322MPD2    C1 4888   1.797   0.918  14.088 -0.6274  0.2035  0.0723
  322MPD2    C2 4889   1.796   0.794  14.159  0.5963 -0.4172  0.6479
  322MPD2    C3 4890   1.754   0.673  14.109 -0.1795  0.5303 -0.4068
  322MPD2    C4 4891   1.719   0.668  13.977  0.6750 -0.0380  0.0453
  322MPD2    C5 4892   1.733   0.781  13.893  0.0389 -0.3062 -0.6086
  322MPD2     H 4893   1.839   0.794  14.258  2.1146 -1.0541 -0.0170
  322MPD2    H1 4894   1.691   0.575  13.929 -2.1292  0.7987  0.0735
  322MPD2    H2 4895   1.779   0.992  13.893 -1.4957  0.9462  1.2039
  322MPD2    H3 4896   1.699   0.779  13.790  2.1597 -0.7671 -1.2943
  322MPD2     N 4897   1.773   0.562  14.193 -0.3088 -0.1697  0.6599
  322MPD2    H5 4898   1.814   0.572  14.285 -1.8997 -0.9974  1.4697
  322MPD2    N1 4899   1.860   1.035  14.138 -0.2414  0.3748  0.3615
  322MPD2    H7 4900   1.911   1.101  14.080 -0.6160  0.2111 -0.1486
  323TMC3    C1 4901   1.978   1.152  14.305  0.4487 -0.2923 -0.1475
  323TMC3    C2 4902   2.057   1.212  14.214  0.1741  0.9387  0.0835
  323TMC3    C3 4903   2.170   1.272  14.261 -0.1504 -0.5591  0.2658
  323TMC3    C4 4904   1.999   1.162  14.437 -0.1248  0.3997  0.0571
  323TMC3    C5 4905   2.119   1.209  14.480 -0.2729  0.2036  0.1394
  323TMC3    C6 4906   2.207   1.268  14.396  0.0616  0.3260  0.2728
  323TMC3     C 4907   1.870   1.062  14.268  0.0664  0.8478 -0.6020
  323TMC3     O 4908   1.798   1.029  14.358 -0.4072  0.2671 -0.0939
  323TMC3     H 4909   2.042   1.200  14.107 -0.6387 -0.6845  0.3961
  323TMC3    H1 4910   1.934   1.116  14.511  1.0406 -0.2736  0.6636
  323TMC3    H2 4911   2.304   1.312  14.414  0.3633  0.5940 -2.0291
  323TMC3    C7 4912   2.164   1.173  14.605 -0.0361 -0.5914  0.0885
  323TMC3    C8 4913   2.270   1.309  14.166 -0.9220 -0.1950  0.0763
  323TMC3    O1 4914   2.127   1.067  14.649  0.0364  0.1558 -0.0519
  323TMC3    O2 4915   2.387   1.294  14.196 -0.3739 -0.1801  0.4553
  324MPD2     C 4916   3.552   1.888  14.725  0.3547 -0.5111  0.5836
  324MPD2    C1 4917   3.599   2.016  14.710  0.7012  0.0908 -0.5986
  324MPD2    C2 4918   3.509   2.104  14.639  0.5921 -0.8645 -0.0185
  324MPD2    C3 4919   3.391   2.064  14.578 -0.1861 -0.4184 -0.3156
  324MPD2    C4 4920   3.368   1.931  14.578  0.4748 -0.6841 -0.5373
  324MPD2    C5 4921   3.446   1.842  14.647  0.6534  0.0146  0.2195
  324MPD2     H 4922   3.537   2.208  14.648  0.1355 -0.8396  1.1982
  324MPD2    H1 4923   3.282   1.893  14.523 -0.0508 -0.1303 -0.0903
  324MPD2    H2 4924   3.603   1.812  14.783  0.7470 -0.8758 -0.2416
  324MPD2    H3 4925   3.418   1.738  14.642 -0.1541  0.2971 -1.3212
  324MPD2     N 4926   3.305   2.157  14.512 -0.3142  0.1760  0.5518
  324MPD2    H5 4927   3.215   2.120  14.482 -0.7311  0.0271  1.9781
  324MPD2    N1 4928   3.723   2.068  14.766  0.9578  0.2049  0.4811
  324MPD2    H7 4929   3.757   2.160  14.737 -0.0278  0.3156 -0.3179
  325TMC3    C1 4930   3.220   2.364  14.411 -0.1897  0.1523  0.1931
  325TMC3    C2 4931   3.110   2.307  14.353  0.4596  0.8670 -0.0742
  325TMC3    C3 4932   3.036   2.384  14.270  0.1316  0.3078  0.3211
  325TMC3    C4 4933   3.246   2.495  14.381 -0.6443 -1.1376  0.1486
  325TMC3    C5 4934   3.169   2.568  14.290  0.3231  0.2377  0.4778
  325TMC3    C6 4935   3.067   2.509  14.234  0.2889 -0.0160  0.3805
  325TMC3     C 4936   3.330   2.288  14.481 -0.1965  0.2864  0.0808
  325TMC3     O 4937   3.417   2.362  14.520  0.0776  0.1359  0.5176
  325TMC3     H 4938   3.089   2.203  14.371  3.4893 -0.2027 -2.6976
  325TMC3    H1 4939   3.331   2.548  14.423 -1.9030  1.2622 -0.3478
  325TMC3    H2 4940   2.997   2.565  14.173  0.5554  0.0134  0.1027
  325TMC3    C7 4941   3.176   2.706  14.281  0.3524 -0.1266  0.4640
  325TMC3    C8 4942   2.915   2.321  14.212 -0.1560 -0.6533  0.1457
  325TMC3    O1 4943   3.129   2.761  14.181  0.0877 -0.1041 -0.1250
  325TMC3    O2 4944   2.913   2.198  14.197  0.1611 -0.2157  0.1959
  326MPD2     C 4945   0.146   3.798  10.992 -0.1602 -0.1259 -0.3046
  326MPD2    C1 4946   0.187   3.751  10.867 -0.1287  0.2889 -0.0758
  326MPD2    C2 4947   0.317   3.771  10.825  0.0162  0.4480 -0.1043
  326MPD2    C3 4948   0.398   3.858  10.895  0.2237 -0.1118 -0.0720
  326MPD2    C4 4949   0.351   3.913  11.010  0.3793  0.7425  0.7067
  326MPD2    C5 4950   0.236   3.871  11.062 -0.3558 -0.3107  0.0928
  326MPD2     H 4951   0.341   3.721  10.732 -2.3726 -0.9105 -0.0012
  326MPD2    H1 4952   0.403   3.992  11.064  1.2841 -0.1641  1.1635
  326MPD2    H2 4953   0.043   3.780  11.022  0.3943 -0.9464  1.1026
  326MPD2    H3 4954   0.214   3.913  11.159  2.5911 -0.9294  1.0190
  326MPD2     N 4955   0.530   3.893  10.849 -0.3734  0.0409  0.0767
  326MPD2    H5 4956   0.580   3.957  10.909 -0.3771 -0.0218  0.1473
  326MPD2    N1 4957   0.101   3.676  10.784  0.0521  0.3461 -0.0087
  326MPD2    H7 4958   0.132   3.646  10.692  0.0684  0.6747 -0.1095
  327TMC3    C1 4959   4.656   3.577  10.692 -0.6223 -0.1860  0.3066
  327TMC3    C2 4960   4.577   3.645  10.607  0.0338  0.7106 -0.7483
  327TMC3    C3 4961   4.557   3.589  10.481 -0.0798 -0.0835 -0.3531
  327TMC3    C4 4962   4.724   3.463  10.652 -0.4820  0.7917  0.6902
  327TMC3    C5 4963   4.700   3.406  10.527  0.3672  0.0093  0.3868
  327TMC3    C6 4964   4.609   3.462  10.442  0.1890  0.6014  0.2942
  327TMC3     C 4965   4.705   3.663  10.801  0.4527 -0.4520  0.4717
  327TMC3     O 4966   4.625   3.739  10.856  0.1164 -0.0293  0.0199
  327TMC3     H 4967   4.544   3.746  10.628  0.5164  0.2182  2.3532
  327TMC3    H1 4968   0.064   3.425  10.713  0.7817  1.8593 -0.3272
  327TMC3    H2 4969   4.605   3.436  10.337 -1.4031  0.0841  0.4891
  327TMC3    C7 4970   0.032   3.293  10.472 -0.1961 -0.3367 -0.2179
  327TMC3    C8 4971   4.569   3.696  10.383  0.3452 -0.3271 -0.5241
  327TMC3    O1 4972   0.017   3.271  10.352 -0.3308  0.1139  0.0169
  327TMC3    O2 4973   4.525   3.803  10.408 -1.0329  1.1096 -0.1599
  328MPD2     C 4974   2.438   3.499  17.389  0.1968  0.7831 -0.2110
  328MPD2    C1 4975   2.381   3.379  17.400 -0.1618 -0.5311 -0.5499
  328MPD2    C2 4976   2.322   3.315  17.295 -0.0467 -0.0897 -0.0361
  328MPD2    C3 4977   2.330   3.372  17.166 -0.5143 -0.1810  0.0138
  328MPD2    C4 4978   2.395   3.491  17.161  0.2580  1.1141 -0.3971
  328MPD2    C5 4979   2.438   3.567  17.265 -0.2045 -0.3205 -0.1999
  328MPD2     H 4980   2.267   3.222  17.296  3.3514 -2.1118 -0.2848
  328MPD2    H1 4981   2.395   3.546  17.067  0.2551  1.9581  0.0905
  328MPD2    H2 4982   2.495   3.543  17.471  1.9929 -0.9916 -0.5005
  328MPD2    H3 4983   2.479   3.667  17.259  1.1144 -0.6071  4.1592
  328MPD2     N 4984   2.262   3.323  17.052  0.0531  0.6135 -0.2370
  328MPD2    H5 4985   2.249   3.389  16.977 -1.3913  1.1763  0.5273
  328MPD2    N1 4986   2.385   3.326  17.534 -0.1790  0.6937  0.0446
  328MPD2    H7 4987   2.421   3.385  17.608 -3.2597  1.5151  0.9232
  329TMC3    C1 4988   2.305   3.187  17.703  0.3752  0.0821  0.1762
  329TMC3    C2 4989   2.306   3.298   0.028 -0.0349  0.4336  1.0474
  329TMC3    C3 4990   2.245   3.296   0.147 -0.1251  0.1199  0.3251
  329TMC3    C4 4991   2.235   3.072  17.736 -0.8109  0.7277 -0.2619
  329TMC3    C5 4992   2.179   3.068   0.107 -0.7216  0.6041  0.0762
  329TMC3    C6 4993   2.185   3.178   0.193 -0.2441 -0.3124 -0.8210
  329TMC3     C 4994   2.345   3.196  17.567 -0.0869  0.0448 -0.4359
  329TMC3     O 4995   2.327   3.100  17.491 -0.3056  0.0464  0.0258
  329TMC3     H 4996   2.345   3.392  17.752 -0.1368  0.8300  1.9623
  329TMC3    H1 4997   2.232   2.988  17.668 -1.9029 -0.5288  1.3381
  329TMC3    H2 4998   2.151   3.169   0.295 -0.9481  0.1653 -1.0163
  329TMC3    C7 4999   2.115   2.946   0.157  0.2047  0.8271  0.7023
  329TMC3    C8 5000   2.232   3.418   0.226 -0.2659 -1.2085 -0.2035
  329TMC3    O1 5001   2.044   2.958   0.254  0.0439 -0.3963 -0.1501
  329TMC3    O2 5002   2.314   3.510   0.218  0.0077 -0.5330  1.0114
  330TMC3    C1 5003   0.996   2.934   9.325  1.0896 -0.2806 -0.3384
  330TMC3    C2 5004   0.891   2.872   9.263  0.1040  0.5375 -0.1261
  330TMC3    C3 5005   0.832   2.782   9.339 -0.1768  0.2177  0.7998
  330TMC3    C4 5006   1.056   2.899   9.442  0.5247 -0.1246  0.1450
  330TMC3    C5 5007   0.993   2.801   9.509 -0.2140 -0.2332  0.9350
  330TMC3    C6 5008   0.875   2.744   9.463 -0.1053 -0.1861  0.5598
  330TMC3     C 5009   1.037   3.055   9.265 -0.2698  0.1076  0.1107
  330TMC3     O 5010   1.153   3.094   9.270 -0.1827  0.0159 -0.0356
  330TMC3     H 5011   0.854   2.893   9.163 -0.5135  2.1525  0.4322
  330TMC3    H1 5012   1.137   2.962   9.475 -2.0004  3.1508  0.0867
  330TMC3    H2 5013   0.822   2.661   9.507 -0.6219  0.5291  1.2758
  330TMC3    C7 5014   1.058   2.742   9.621  0.7046  0.2145  0.5055
  330TMC3    C8 5015   0.712   2.713   9.279  0.7347  0.8080 -0.5481
  330TMC3    O1 5016   1.001   2.653   9.680  0.1811  0.3433  0.3880
  330TMC3    O2 5017   0.700   2.720   9.158  0.2184  0.1726 -0.2921
  331MPD2     C 5018   3.203   1.473  13.057  0.2943 -0.7050 -0.0808
  331MPD2    C1 5019   3.277   1.513  12.947  0.0819  0.2064  0.9336
  331MPD2    C2 5020   3.338   1.412  12.869 -0.2842  0.2008  0.2408
  331MPD2    C3 5021   3.325   1.281  12.899  0.0620  0.5973 -0.5538
  331MPD2    C4 5022   3.258   1.250  13.014  0.5054 -0.3918 -0.6735
  331MPD2    C5 5023   3.194   1.340  13.098  0.8570  0.5479  0.0990
  331MPD2     H 5024   3.407   1.443  12.791 -0.6295  0.9882  0.2526
  331MPD2    H1 5025   3.239   1.148  13.045 -0.4008  0.3536  1.2219
  331MPD2    H2 5026   3.150   1.546  13.116 -0.2067 -1.8516  0.9061
  331MPD2    H3 5027   3.157   1.301  13.192  0.4675  0.5337 -0.0622
  331MPD2     N 5028   3.378   1.178  12.817 -0.6499  0.6628 -0.3811
  331MPD2    H5 5029   3.403   1.213  12.725  1.0391  1.5417  0.4155
  331MPD2    N1 5030   3.295   1.655  12.921 -0.4663  0.1975  0.4469
  331MPD2    H7 5031   3.251   1.715  12.990 -1.6932 -0.1524 -0.0274
  332TMC3    C1 5032   3.411   0.964  12.726  0.5594 -1.0606  0.1083
  332TMC3    C2 5033   3.449   1.026  12.608 -0.7546 -0.3956  0.0262
  332TMC3    C3 5034   3.541   0.959  12.534  0.3798  0.1613  0.4167
  332TMC3    C4 5035   3.450   0.836  12.764 -0.2553 -0.3076  0.1792
  332TMC3    C5 5036   3.526   0.767  12.680 -0.1854 -0.0753 -0.0779
  332TMC3    C6 5037   3.573   0.824  12.556  0.0839 -0.1449  0.6531
  332TMC3     C 5038   3.372   1.041  12.842  0.3345 -0.4122 -0.7732
  332TMC3     O 5039   3.365   0.982  12.949 -0.2128  0.4334  0.2815
  332TMC3     H 5040   3.395   1.115  12.580  0.8183  0.3624 -0.6102
  332TMC3    H1 5041   3.418   0.783  12.853 -1.0898 -0.3538 -0.1488
  332TMC3    H2 5042   3.647   0.776  12.493  0.4953  0.6654  0.5231
  332TMC3    C7 5043   3.584   0.652  12.735  0.2719 -0.0877 -0.2764
  332TMC3    C8 5044   3.502   0.963  12.394 -0.6242  0.0684 -0.6693
  332TMC3    O1 5045   3.522   0.587  12.817  0.2136  0.1985  0.3908
  332TMC3    O2 5046   3.477   0.856  12.351 -0.0983  0.0213  0.1539
  333MPD2     C 5047   3.796   2.062  11.156  0.0526 -0.1115  0.2266
  333MPD2    C1 5048   3.816   1.996  11.035  0.1387  0.0495  0.2388
  333MPD2    C2 5049   3.752   1.869  11.014 -0.5881  0.1803 -0.4478
  333MPD2    C3 5050   3.668   1.812  11.113 -0.4942 -0.9441 -0.4300
  333MPD2    C4 5051   3.654   1.878  11.230  0.0301 -0.0298  0.1973
  333MPD2    C5 5052   3.713   1.997  11.255  0.1687  0.5352 -0.1500
  333MPD2     H 5053   3.759   1.806  10.927  1.4219 -1.3470  0.8155
  333MPD2    H1 5054   3.600   1.838  11.316  0.5482 -3.5426 -1.1166
  333MPD2    H2 5055   3.839   2.157  11.187 -0.2780  0.9026 -2.3891
  333MPD2    H3 5056   3.696   2.057  11.343  0.6667 -0.7563  0.8287
  333MPD2     N 5057   3.609   1.686  11.082 -0.0412 -0.4784 -0.5393
  333MPD2    H5 5058   3.617   1.650  10.988  3.0334  1.5472 -1.0422
  333MPD2    N1 5059   3.904   2.061  10.946  0.6045  0.5273 -0.0846
  333MPD2    H7 5060   3.914   2.159  10.968  0.2454  0.1238  1.8268
  334TMC3    C1 5061   4.087   2.081  10.811  0.1313  0.1040  0.0126
  334TMC3    C2 5062   4.188   2.027  10.735 -0.5468  0.4046 -0.4880
  334TMC3    C3 5063   4.281   2.107  10.670 -0.2750 -0.7494  0.5685
  334TMC3    C4 5064   4.072   2.217  10.807  0.0656  0.2143 -0.1897
  334TMC3    C5 5065   4.148   2.292  10.722  0.2433 -0.8983  0.3865
  334TMC3    C6 5066   4.255   2.240  10.657 -0.5271  0.3403  0.7404
  334TMC3     C 5067   3.980   2.001  10.853 -1.1494 -0.4602  0.0601
  334TMC3     O 5068   3.982   1.886  10.806  0.0893 -0.1817 -0.1886
  334TMC3     H 5069   4.198   1.919  10.733 -0.7781  0.3731  0.2308
  334TMC3    H1 5070   3.988   2.269  10.852 -0.1861 -1.3002  1.0886
  334TMC3    H2 5071   4.328   2.304  10.608  1.4309 -0.7197  2.2631
  334TMC3    C7 5072   4.131   2.438  10.728  0.0820 -0.5361 -0.2886
  334TMC3    C8 5073   4.376   2.041  10.582  0.1948 -0.2259 -0.0152
  334TMC3    O1 5074   4.107   2.483  10.838  0.5852  0.1689  0.3354
  334TMC3    O2 5075   4.346   1.934  10.531  0.0341  0.1039 -0.0000
  335TMC3    C1 5076   2.716   2.869  17.744  0.3219 -0.6254  0.9664
  335TMC3    C2 5077   2.589   2.834  17.714  0.0191  0.0396 -0.1249
  335TMC3    C3 5078   2.565   2.727  17.632 -0.9973  0.1303  0.2496
  335TMC3    C4 5079   2.826   2.802  17.693 -0.5086 -0.3467  0.2748
  335TMC3    C5 5080   2.798   2.703  17.603 -0.0666  0.2926 -0.6893
  335TMC3    C6 5081   2.672   2.661  17.571 -1.2429 -0.5799  0.2730
  335TMC3     C 5082   2.723   2.950   0.107  0.7538  0.0273 -0.8767
  335TMC3     O 5083   2.628   2.947   0.190  0.2867  0.0660 -0.0198
  335TMC3     H 5084   2.507   2.893  17.753 -0.9437 -1.7791  0.6504
  335TMC3    H1 5085   2.924   2.846  17.710 -1.7468  1.7268  1.9826
  335TMC3    H2 5086   2.661   2.582  17.498 -2.2999 -1.7812  1.7057
  335TMC3    C7 5087   2.913   2.639  17.539  0.0412  0.2128 -0.3482
  335TMC3    C8 5088   2.429   2.699  17.602 -0.3619 -0.0933 -0.0409
  335TMC3    O1 5089   3.023   2.694  17.544  1.2806  0.8529 -0.7002
  335TMC3    O2 5090   2.339   2.773  17.638 -0.5029 -0.6692 -0.5816
  336MPD2     C 5091   3.146   0.644  16.386 -0.4139 -0.1782 -0.3409
  336MPD2    C1 5092   3.055   0.617  16.290  0.1445 -0.8770 -0.6485
  336MPD2    C2 5093   3.004   0.487  16.294  0.3345 -0.3145  0.4215
  336MPD2    C3 5094   3.050   0.390  16.381 -0.5943 -0.4547 -0.6886
  336MPD2    C4 5095   3.140   0.426  16.476 -0.6701  0.2815  0.1376
  336MPD2    C5 5096   3.188   0.553  16.476 -0.2307 -0.2634 -0.1555
  336MPD2     H 5097   2.923   0.471  16.224 -1.7413  0.8771  2.5525
  336MPD2    H1 5098   3.176   0.361  16.555 -1.4302 -0.5026 -0.1541
  336MPD2    H2 5099   3.187   0.744  16.401  1.8672 -1.0920 -0.4204
  336MPD2    H3 5100   3.256   0.592  16.551 -0.9615  1.7182 -0.5223
  336MPD2     N 5101   2.994   0.265  16.381 -0.2710 -0.1987 -0.7080
  336MPD2    H5 5102   3.035   0.202  16.449  1.1232  0.9313 -0.4927
  336MPD2    N1 5103   3.002   0.712  16.203  0.1279 -0.2890  0.4496
  336MPD2    H7 5104   2.931   0.685  16.136  0.6762  2.5399 -1.2600
  337TMC3    C1 5105   3.002   0.920  16.071  0.4569 -0.3460 -0.2033
  337TMC3    C2 5106   2.863   0.916  16.060  0.9673  0.6522  0.9290
  337TMC3    C3 5107   2.804   1.032  16.011  0.4667 -0.2520 -0.1870
  337TMC3    C4 5108   3.077   1.035  16.032  0.4748 -0.1479 -0.1185
  337TMC3    C5 5109   3.010   1.146  15.991  0.8684  0.3265  0.3536
  337TMC3    C6 5110   2.872   1.157  15.982  0.6069 -0.2125  0.4152
  337TMC3     C 5111   3.061   0.839  16.182 -0.6911 -0.1773 -0.0623
  337TMC3     O 5112   3.156   0.885  16.234 -0.0152  0.1374 -0.1963
  337TMC3     H 5113   2.796   0.855  16.120 -0.8042  0.9077 -0.7867
  337TMC3    H1 5114   3.184   1.028  16.044  0.7535  0.8639 -2.0791
  337TMC3    H2 5115   2.819   1.248  15.960 -0.9473 -1.3267 -0.4655
  337TMC3    C7 5116   3.089   1.268  15.968  0.2961 -0.8828  0.8815
  337TMC3    C8 5117   2.659   1.037  16.010  0.1522  0.2125  0.2838
  337TMC3    O1 5118   3.208   1.258  15.929 -0.3789 -0.1389 -0.1447
  337TMC3    O2 5119   2.589   0.957  16.063 -0.5000  0.5288  0.0085
  338MPD2     C 5120   3.697   4.208   1.231 -0.3239  0.1719 -0.5814
  338MPD2    C1 5121   3.581   4.180   1.169 -0.1914 -0.0742 -0.7279
  338MPD2    C2 5122   3.518   4.062   1.200 -0.6258  0.2008  0.1727
  338MPD2    C3 5123   3.569   3.984   1.301  0.4839  0.2688 -1.0910
  338MPD2    C4 5124   3.688   4.008   1.359 -0.5289 -0.1979 -0.3467
  338MPD2    C5 5125   3.751   4.123   1.321  0.0836 -1.0260 -0.2863
  338MPD2     H 5126   3.424   4.032   1.156  0.1143  1.0654 -1.9723
  338MPD2    H1 5127   3.733   3.961   1.446 -0.0647  0.0441 -0.4579
  338MPD2    H2 5128   3.758   4.298   1.227 -0.9171  0.5221 -1.7114
  338MPD2    H3 5129   3.845   4.147   1.370 -0.1016  0.1626 -0.5273
  338MPD2     N 5130   3.491   3.878   1.344 -0.5141  0.1995 -0.5117
  338MPD2    H5 5131   3.404   3.866   1.293 -0.9015 -0.1638  0.2339
  338MPD2    N1 5132   3.519   4.270   1.075 -0.0759  0.1319  0.2281
  338MPD2    H7 5133   3.435   4.248   1.023  0.9845 -2.0731 -0.5544
  339TMC3    C1 5134   3.419   3.690   1.454 -0.3031 -0.3634  0.6559
  339TMC3    C2 5135   3.392   3.662   1.587 -0.4148 -0.3085  0.6288
  339TMC3    C3 5136   3.256   3.633   1.615  0.0399  0.3085  0.3760
  339TMC3    C4 5137   3.324   3.687   1.355  0.1170  0.0145 -0.1437
  339TMC3    C5 5138   3.192   3.677   1.385 -0.2344 -0.8831  0.6074
  339TMC3    C6 5139   3.158   3.632   1.514  0.7540 -0.1849 -0.7887
  339TMC3     C 5140   3.523   3.785   1.442 -0.1792  0.0082 -0.2314
  339TMC3     O 5141   3.627   3.753   1.504 -0.1477 -0.2626 -0.0058
  339TMC3     H 5142   3.464   3.642   1.664 -0.2048  0.8223  0.7224
  339TMC3    H1 5143   3.350   3.701   1.251 -0.7249 -0.7711 -0.4570
  339TMC3    H2 5144   3.057   3.601   1.536  1.2909 -0.4612  1.2463
  339TMC3    C7 5145   3.115   3.784   1.336 -0.1114  0.4407  0.4328
  339TMC3    C8 5146   3.235   3.551   1.742 -0.0497  0.2209 -0.1344
  339TMC3    O1 5147   3.168   3.846   1.245  0.2434 -0.3337 -0.4111
  339TMC3    O2 5148   3.337   3.532   1.811  0.3936 -0.5099 -0.3959
  340MPD2     C 5149   3.293   3.187   9.814 -0.6370 -0.5684  0.1473
  340MPD2    C1 5150   3.379   3.094   9.857  0.8208 -0.8194  0.6070
  340MPD2    C2 5151   3.469   3.133   9.958 -0.3393  1.1425 -0.7016
  340MPD2    C3 5152   3.474   3.262  10.007  0.1456  0.3800 -0.8165
  340MPD2    C4 5153   3.378   3.349   9.961 -0.3899  0.7540 -0.5075
  340MPD2    C5 5154   3.294   3.314   9.864 -0.2793 -0.1974 -0.7247
  340MPD2     H 5155   3.527   3.057  10.010 -2.4518 -0.2275 -0.3369
  340MPD2    H1 5156   3.378   3.447  10.006 -2.1740  0.5857 -0.1350
  340MPD2    H2 5157   3.237   3.160   9.725 -0.9175 -2.0207  0.7702
  340MPD2    H3 5158   3.236   3.394   9.821 -1.7276  0.2949  2.1306
  340MPD2     N 5159   3.556   3.302  10.116  0.1113 -0.4348  1.1048
  340MPD2    H5 5160   3.537   3.393  10.155  1.1446  0.0663  0.4253
  340MPD2    N1 5161   3.379   2.967   9.801  0.1026  0.6910  0.0485
  340MPD2    H7 5162   3.298   2.930   9.753 -0.2084 -0.0397  1.1327
  341TMC3    C1 5163   3.447   2.749   9.753  0.6868 -0.6333  0.5717
  341TMC3    C2 5164   3.317   2.714   9.724 -0.0874  0.3488 -0.1964
  341TMC3    C3 5165   3.299   2.596   9.652 -0.0515  0.6618 -0.0981
  341TMC3    C4 5166   3.556   2.667   9.728 -0.2212  0.7444  0.9671
  341TMC3    C5 5167   3.530   2.545   9.664  0.5241  0.4461  0.1545
  341TMC3    C6 5168   3.400   2.515   9.622  0.0345  0.3721  1.0230
  341TMC3     C 5169   3.483   2.876   9.812 -0.2288  0.4631 -0.1753
  341TMC3     O 5170   3.596   2.895   9.862 -0.5116  0.3742 -0.1213
  341TMC3     H 5171   3.226   2.762   9.759 -0.0794  1.5536 -1.8951
  341TMC3    H1 5172   3.655   2.699   9.759  0.6931 -1.7260  0.5747
  341TMC3    H2 5173   3.382   2.421   9.571  0.9372  0.8021 -0.0751
  341TMC3    C7 5174   3.645   2.495   9.602 -0.1475 -0.3477  0.4526
  341TMC3    C8 5175   3.163   2.556   9.615 -0.4187 -0.4360  0.1288
  341TMC3    O1 5176   3.745   2.566   9.596  1.0502  0.1902  0.2172
  341TMC3    O2 5177   3.155   2.436   9.600 -0.0962 -0.3239 -0.9615
  342MPD2     C 5178   0.749   1.020  17.694  0.6485 -0.1708 -0.5399
  342MPD2    C1 5179   0.886   1.045  17.691  0.1892 -0.2038  0.0540
  342MPD2    C2 5180   0.922   1.179  17.689 -0.5853 -0.2439 -0.7709
  342MPD2    C3 5181   0.833   1.269  17.742  0.1316 -0.2825 -0.4355
  342MPD2    C4 5182   0.701   1.241  17.752 -0.9072  0.6714 -0.3476
  342MPD2    C5 5183   0.656   1.119  17.711 -0.0988 -1.0382 -0.6105
  342MPD2     H 5184   1.024   1.216  17.688 -0.4514 -0.6076 -0.5021
  342MPD2    H1 5185   0.642   1.330   0.009  0.5557  1.3280  1.3601
  342MPD2    H2 5186   0.703   0.922  17.690  0.0847  0.0051  1.6127
  342MPD2    H3 5187   0.550   1.093  17.710 -0.4672  0.4964 -1.3935
  342MPD2     N 5188   0.862   1.405   0.000 -0.2747 -0.5374 -0.2721
  342MPD2    H5 5189   0.788   1.462   0.039  0.9482  0.9607 -0.1751
  342MPD2    N1 5190   0.978   0.942  17.678  0.0358  0.7534 -0.3099
  342MPD2    H7 5191   1.072   0.972  17.652  0.3005 -0.0759 -0.3149
  343TMC3    C1 5192   1.059   0.724  17.635  0.4116  0.1688 -0.1535
  343TMC3    C2 5193   1.128   0.776  17.529  0.2234  0.2632 -0.5926
  343TMC3    C3 5194   1.195   0.683  17.446  0.1273 -0.0329 -0.0193
  343TMC3    C4 5195   1.040   0.590  17.645 -0.0797 -0.7192 -0.2569
  343TMC3    C5 5196   1.107   0.496  17.566  0.2454 -0.2392  0.1854
  343TMC3    C6 5197   1.184   0.543  17.459  0.1897  0.0823 -0.1323
  343TMC3     C 5198   0.957   0.812  17.697 -0.4364  0.0380  0.5342
  343TMC3     O 5199   0.862   0.759  17.754 -0.5676 -0.1527  0.3027
  343TMC3     H 5200   1.123   0.880  17.498 -1.4912  0.4050  0.1430
  343TMC3    H1 5201   0.955   0.555  17.703 -0.1774  1.3545  0.8444
  343TMC3    H2 5202   1.226   0.462  17.401  0.1439  0.5663 -0.8508
  343TMC3    C7 5203   1.047   0.363  17.550 -0.6462 -0.1776 -0.5281
  343TMC3    C8 5204   1.259   0.731  17.322  0.1152  0.3912 -0.0625
  343TMC3    O1 5205   1.038   0.325  17.435 -0.1046 -0.3824  0.2611
  343TMC3    O2 5206   1.299   0.847  17.311  0.4903  0.1977 -0.2265
  344MPD2     C 5207   2.770   0.985  10.953 -0.4579 -0.3605  0.3252
  344MPD2    C1 5208   2.662   1.008  10.873 -0.1508  0.1858 -0.9559
  344MPD2    C2 5209   2.669   1.116  10.789  0.3723  0.3005  0.4176
  344MPD2    C3 5210   2.782   1.199  10.785 -0.9419 -0.5515  0.0722
  344MPD2    C4 5211   2.887   1.171  10.858 -0.9048  0.4798 -0.0683
  344MPD2    C5 5212   2.880   1.064  10.948 -0.4290 -0.2028  0.2152
  344MPD2     H 5213   2.590   1.130  10.716  0.2724 -0.1241  0.4493
  344MPD2    H1 5214   2.980   1.226  10.850  1.3320 -3.5646 -2.1075
  344MPD2    H2 5215   2.778   0.901  11.020 -0.4306 -0.3032  0.3940
  344MPD2    H3 5216   2.966   1.042  11.010  0.8506 -1.3313 -1.9853
  344MPD2     N 5217   2.798   1.295  10.684  0.2632 -0.2405 -0.0875
  344MPD2    H5 5218   2.886   1.345  10.683  1.1476 -1.7837 -0.2390
  344MPD2    N1 5219   2.550   0.919  10.859 -0.9484  0.2218 -0.0873
  344MPD2    H7 5220   2.484   0.935  10.783 -0.1555 -0.3895 -0.9149
  345TMC3    C1 5221   2.735   1.461  10.531 -0.2859  0.6516 -0.4738
  345TMC3    C2 5222   2.798   1.551  10.605  0.0691 -0.3152 -0.4616
  345TMC3    C3 5223   2.836   1.668  10.551  0.2931 -0.4434 -0.5233
  345TMC3    C4 5224   2.685   1.488  10.406 -0.6266  0.3865  0.2554
  345TMC3    C5 5225   2.722   1.612  10.359  0.3028  0.4523 -0.2933
  345TMC3    C6 5226   2.801   1.707  10.422  0.0273  0.4315 -0.4744
  345TMC3     C 5227   2.695   1.342  10.596 -0.1529  0.2449 -0.1292
  345TMC3     O 5228   2.585   1.294  10.571  0.1378  0.0150  0.0088
  345TMC3     H 5229   2.822   1.536  10.710  1.9686  2.4380 -0.4975
  345TMC3    H1 5230   2.634   1.413  10.346 -0.4618  0.4338  0.0550
  345TMC3    H2 5231   2.817   1.809  10.387 -1.1599  1.1023  0.9323
  345TMC3    C7 5232   2.669   1.663  10.232  0.3592  0.2109  0.0604
  345TMC3    C8 5233   2.891   1.767  10.641  0.3404  0.8041  0.7317
  345TMC3    O1 5234   2.724   1.766  10.188  0.5479  0.6017 -0.5113
  345TMC3    O2 5235   2.934   1.734  10.753  0.0645 -0.0915  0.6913
  346MPD2     C 5236   2.327   2.939  14.543  0.0853 -0.0849  0.5112
  346MPD2    C1 5237   2.447   2.959  14.480  0.1067  0.5642 -0.4714
  346MPD2    C2 5238   2.557   2.995  14.552 -0.3514 -0.1062  0.4018
  346MPD2    C3 5239   2.560   2.999  14.691  0.2108 -0.3547 -0.2179
  346MPD2    C4 5240   2.434   2.985  14.752 -0.4325  0.4123  0.5132
  346MPD2    C5 5241   2.322   2.958  14.675  0.1005  0.0407  0.5994
  346MPD2     H 5242   2.645   3.009  14.490  0.1051 -4.1797  0.1441
  346MPD2    H1 5243   2.426   3.005  14.858 -4.4930  0.3422  0.2025
  346MPD2    H2 5244   2.237   2.897  14.501  0.5108  1.7389 -2.2460
  346MPD2    H3 5245   2.229   2.940  14.727 -0.2117  0.8332  0.3164
  346MPD2     N 5246   2.678   3.035  14.761  0.6789  0.2242  0.0565
  346MPD2    H5 5247   2.761   3.061  14.709 -0.4804  0.6829 -1.5686
  346MPD2    N1 5248   2.463   2.947  14.335 -0.5257  0.0882  0.1681
  346MPD2    H7 5249   2.555   2.954  14.293 -0.5511  0.5180  0.1853
  347TMC3    C1 5250   2.823   3.103  14.935  0.2008 -0.1623  0.3468
  347TMC3    C2 5251   2.906   3.155  14.837 -0.3420 -0.6823 -0.0911
  347TMC3    C3 5252   3.037   3.175  14.876  0.1217  0.5543 -0.2015
  347TMC3    C4 5253   2.864   3.066  15.061  0.7434 -0.1607  0.0822
  347TMC3    C5 5254   2.999   3.078  15.076 -0.0346  0.1168 -0.0766
  347TMC3    C6 5255   3.093   3.123  14.987  0.2871  0.1444 -1.0565
  347TMC3     C 5256   2.692   3.045  14.895 -0.7966 -0.0296  0.3813
  347TMC3     O 5257   2.626   2.996  14.989  0.4621  0.2519 -0.0256
  347TMC3     H 5258   2.878   3.184  14.736 -0.4186  0.5001  0.2704
  347TMC3    H1 5259   2.802   3.018  15.136 -3.1515  0.0670 -2.9828
  347TMC3    H2 5260   3.193   3.153  15.014  0.8817 -2.6940 -0.1150
  347TMC3    C7 5261   3.053   3.044  15.209 -0.6905  0.2819 -0.3224
  347TMC3    C8 5262   3.131   3.212  14.771 -0.1026 -0.4494  0.1312
  347TMC3    O1 5263   2.974   3.054  15.303 -0.6370 -1.1638 -0.3321
  347TMC3    O2 5264   3.115   3.318  14.713 -0.1972  0.3056 -0.2764
  348MPD2     C 5265   0.756   2.078  11.796 -0.0703  0.2685 -0.3593
  348MPD2    C1 5266   0.873   2.143  11.821 -0.3038 -0.2298 -0.5062
  348MPD2    C2 5267   0.913   2.254  11.741  0.5597  0.3792  0.1284
  348MPD2    C3 5268   0.835   2.295  11.633  0.5370  0.1180  0.1121
  348MPD2    C4 5269   0.710   2.237  11.627 -0.7103 -0.1436 -0.2958
  348MPD2    C5 5270   0.676   2.126  11.702  0.0392 -0.1322  0.7544
  348MPD2     H 5271   1.009   2.301  11.758  0.8626 -0.6987  1.4096
  348MPD2    H1 5272   0.647   2.249  11.540 -2.6669 -1.4591  0.9473
  348MPD2    H2 5273   0.732   1.984  11.845  1.0323  0.3954  0.4303
  348MPD2    H3 5274   0.583   2.074  11.682  0.9119 -1.2649 -0.4106
  348MPD2     N 5275   0.881   2.390  11.536  0.5331 -0.2124  0.2846
  348MPD2    H5 5276   0.977   2.421  11.546  0.3867 -0.1926  1.6213
  348MPD2    N1 5277   0.948   2.094  11.926  0.0973  0.8268  0.6015
  348MPD2    H7 5278   0.921   2.001  11.955  0.5201 -0.0696 -1.8798
  349TMC3    C1 5279   1.150   2.084  12.030 -0.2972 -0.8277 -0.1630
  349TMC3    C2 5280   1.110   1.962  12.078  0.2724 -0.2284 -0.2859
  349TMC3    C3 5281   1.186   1.861  12.038  0.2514  0.8763 -0.1325
  349TMC3    C4 5282   1.261   2.104  11.958  1.0681  0.0717 -0.2037
  349TMC3    C5 5283   1.322   1.993  11.905 -0.2985 -0.5916  0.4031
  349TMC3    C6 5284   1.293   1.870  11.957  0.3537 -0.1991 -0.5851
  349TMC3     C 5285   1.050   2.167  11.974  0.3732  0.4466 -0.7041
  349TMC3     O 5286   1.072   2.287  11.972  1.1524 -0.1266 -0.4142
  349TMC3     H 5287   1.028   1.958  12.149  1.3915 -1.2821  0.9512
  349TMC3    H1 5288   1.276   2.200  11.910 -0.0067  0.0982 -0.4813
  349TMC3    H2 5289   1.345   1.781  11.923  1.1787  0.1872 -0.3214
  349TMC3    C7 5290   1.303   1.990  11.766  0.6233 -0.4587  0.1779
  349TMC3    C8 5291   1.156   1.729  12.076 -0.4716  0.1784 -1.0861
  349TMC3    O1 5292   1.255   1.888  11.720  0.2900  0.4184  0.4085
  349TMC3    O2 5293   1.248   1.654  12.088  0.1026 -0.8072 -0.8323
  350MPD2     C 5294   0.193   4.506  10.686  0.0204  0.2332 -0.4028
  350MPD2    C1 5295   0.261   4.592  10.602 -0.5092 -0.3383 -0.3425
  350MPD2    C2 5296   0.251   4.728  10.625  0.6366 -0.2537 -0.8842
  350MPD2    C3 5297   0.165   0.037  10.720  0.4253  0.6178 -1.1131
  350MPD2    C4 5298   0.100   4.691  10.805  0.5713 -0.1992 -0.2048
  350MPD2    C5 5299   0.107   4.551  10.781  0.2587  0.7453  0.8420
  350MPD2     H 5300   0.314   0.069  10.590  0.6230  1.0635  2.2334
  350MPD2    H1 5301   0.026   4.721  10.878 -0.0953 -3.4716  0.4528
  350MPD2    H2 5302   0.194   4.400  10.664  0.2231  0.2144 -0.3044
  350MPD2    H3 5303   0.036   4.491  10.837  1.3154 -0.5092  0.8383
  350MPD2     N 5304   0.142   0.173  10.727 -0.0761 -0.5075  0.3752
  350MPD2    H5 5305   0.195   0.236  10.668 -1.0003  1.0056  1.1340
  350MPD2    N1 5306   0.344   4.553  10.493  0.0286  0.5166 -1.0265
  350MPD2    H7 5307   0.397   4.627  10.447  0.0862 -0.6156 -2.7925
  351TMC3    C1 5308   0.461   4.407  10.351  0.4082 -0.0698 -0.0217
  351TMC3    C2 5309   0.561   4.502  10.335  0.2254 -0.3422  0.2693
  351TMC3    C3 5310   0.633   4.497  10.221 -0.5178  0.4888 -0.3822
  351TMC3    C4 5311   0.447   4.296  10.271 -0.0557  0.9156 -0.2886
  351TMC3    C5 5312   0.536   4.289  10.165  0.0895 -0.6214  0.0240
  351TMC3    C6 5313   0.613   4.397  10.134 -0.0836  0.2556  0.4755
  351TMC3     C 5314   0.356   4.422  10.446 -0.0659 -0.3904 -0.5741
  351TMC3     O 5315   0.294   4.320  10.476  0.0967  0.0211 -0.2961
  351TMC3     H 5316   0.566   4.587  10.402  0.0137  0.3799 -0.6307
  351TMC3    H1 5317   0.366   4.224  10.274 -1.9254  2.9427 -2.2181
  351TMC3    H2 5318   0.668   4.394  10.040  0.7969 -1.7634  1.0356
  351TMC3    C7 5319   0.472   4.229  10.053  0.2736  0.9119  0.0439
  351TMC3    C8 5320   0.732   4.597  10.175 -0.6837 -0.1871  0.0665
  351TMC3    O1 5321   0.351   4.240  10.053 -0.5545 -0.3615  0.3070
  351TMC3    O2 5322   0.812   4.557  10.092 -0.4784  0.0721 -0.1616
  352MPD2     C 5323   3.404   2.418   0.628 -0.3575 -0.0749 -0.4062
  352MPD2    C1 5324   3.310   2.378   0.530 -0.6294  0.4476  0.3163
  352MPD2    C2 5325   3.353   2.293   0.430  0.3477  0.3800 -0.1361
  352MPD2    C3 5326   3.484   2.246   0.441 -0.0274  0.4838 -0.4692
  352MPD2    C4 5327   3.567   2.277   0.545  0.3475 -0.1900 -0.6305
  352MPD2    C5 5328   3.528   2.364   0.639  0.2466 -0.9412  0.2882
  352MPD2     H 5329   3.292   2.286   0.340 -0.4978  1.0017  0.3799
  352MPD2    H1 5330   3.665   2.231   0.551 -0.6360 -2.4488 -2.1328
  352MPD2    H2 5331   3.377   2.478   0.715 -0.5623 -1.8374  0.7582
  352MPD2    H3 5332   3.598   2.404   0.712  1.7767 -0.5023 -1.4039
  352MPD2     N 5333   3.521   2.136   0.362 -0.3575 -0.0372  0.0480
  352MPD2    H5 5334   3.619   2.115   0.372 -0.2265  1.2197  1.2662
  352MPD2    N1 5335   3.171   2.421   0.543  0.0599  0.2016 -0.1666
  352MPD2    H7 5336   3.159   2.478   0.627  3.4476 -0.8758  1.0639
  353TMC3    C1 5337   3.515   1.952   0.214  0.3532 -0.9095  0.0350
  353TMC3    C2 5338   3.635   1.924   0.258 -0.4480 -0.0424 -0.4504
  353TMC3    C3 5339   3.673   1.791   0.272  0.2425  0.4196 -0.2777
  353TMC3    C4 5340   3.432   1.848   0.179  0.4211 -0.3592 -0.6268
  353TMC3    C5 5341   3.468   1.719   0.193  0.0851 -0.6319  0.3697
  353TMC3    C6 5342   3.595   1.684   0.234 -0.2652  0.1163  0.1710
  353TMC3     C 5343   3.441   2.061   0.272 -0.1588  0.1634  0.4916
  353TMC3     O 5344   3.319   2.059   0.252 -0.4277  0.1068 -0.2194
  353TMC3     H 5345   3.707   2.003   0.278 -0.4629 -0.0115 -0.5200
  353TMC3    H1 5346   3.325   1.858   0.161  0.0855 -2.1142  0.3971
  353TMC3    H2 5347   3.632   1.587   0.266  1.6248  0.4636 -0.9505
  353TMC3    C7 5348   3.364   1.612   0.207 -0.1004  0.3754  0.0246
  353TMC3    C8 5349   3.799   1.770   0.342 -0.0423 -0.2268  0.5698
  353TMC3    O1 5350   3.388   1.519   0.287  0.3497  0.2358 -0.1709
  353TMC3    O2 5351   3.869   1.868   0.363  0.1083  0.9955 -0.4664
  354TMC3    C1 5352   0.086   2.887  13.328  0.1343  0.3796 -0.6212
  354TMC3    C2 5353   0.048   3.000  13.263 -0.4572 -0.3218 -0.2926
  354TMC3    C3 5354   0.079   2.997  13.127 -0.6089  0.0720 -0.0375
  354TMC3    C4 5355   0.154   2.782  13.267 -0.8797 -0.3392 -0.7264
  354TMC3    C5 5356   0.186   2.798  13.131  0.5126 -0.4747  0.0502
  354TMC3    C6 5357   0.142   2.898  13.061 -0.3503  0.8959 -0.6280
  354TMC3     C 5358   0.101   2.903  13.471 -0.0181 -0.2668  0.2379
  354TMC3     O 5359   0.076   3.008  13.527  0.2135  0.1811  0.2205
  354TMC3     H 5360   4.713   3.063  13.309  0.2155  1.5890 -1.8300
  354TMC3    H1 5361   0.202   2.695  13.310  2.0869  0.8010 -1.7782
  354TMC3    H2 5362   0.152   2.892  12.953 -1.3826 -0.1001 -0.6667
  354TMC3    C7 5363   0.295   2.719  13.074 -0.1380 -0.5875  0.5169
  354TMC3    C8 5364   0.097   3.129  13.068 -0.1177 -0.2101 -1.7019
  354TMC3    O1 5365   0.298   2.600  13.101 -0.2420 -0.1551 -0.3716
  354TMC3    O2 5366   0.100   3.138  12.945 -0.6633  0.2285 -0.9953
  355MPD2     C 5367   0.387   4.557  11.496  1.2438 -0.4238  0.4145
  355MPD2    C1 5368   0.505   4.554  11.420 -0.2372 -0.5242 -0.7971
  355MPD2    C2 5369   0.581   4.440  11.426 -0.0502  0.1241 -1.1480
  355MPD2    C3 5370   0.566   4.345  11.527  0.2680 -0.1003 -0.7758
  355MPD2    C4 5371   0.450   4.357  11.598  0.6355 -0.2056  0.1089
  355MPD2    C5 5372   0.361   4.459  11.584 -0.9848 -0.4230 -0.0352
  355MPD2     H 5373   0.663   4.420  11.358 -0.7929 -1.8213 -1.4694
  355MPD2    H1 5374   0.419   4.278  11.667 -0.7685  3.3450  3.5314
  355MPD2    H2 5375   0.319   4.641  11.498  2.8555  0.8522  1.1646
  355MPD2    H3 5376   0.264   4.461  11.632 -1.4076  2.2389 -1.0282
  355MPD2     N 5377   0.662   4.254  11.570  0.1570  0.5323  0.3568
  355MPD2    H5 5378   0.654   4.232  11.669  1.0077  0.5675  0.4287
  355MPD2    N1 5379   0.546   4.668  11.342  0.3223  0.0968  0.5376
  355MPD2    H7 5380   0.480   0.004  11.338 -0.3565 -0.5216 -0.0634
  356TMC3    C1 5381   0.898   4.205  11.592  0.0369 -0.0817  0.4602
  356TMC3    C2 5382   1.022   4.242  11.547 -0.2440  0.5066 -0.1435
  356TMC3    C3 5383   1.124   4.270  11.630  0.7438 -0.2352 -0.3757
  356TMC3    C4 5384   0.889   4.179  11.730 -0.0394 -0.2850 -0.5707
  356TMC3    C5 5385   1.003   4.201  11.805  0.2054 -0.2472  0.3046
  356TMC3    C6 5386   1.119   4.256  11.761 -0.1483  0.3193 -0.4541
  356TMC3     C 5387   0.782   4.234  11.501 -0.4978 -0.0301  0.3039
  356TMC3     O 5388   0.804   4.231  11.378  0.1220  0.0399  0.7160
  356TMC3     H 5389   1.032   4.275  11.444  0.3800 -1.7754 -0.8080
  356TMC3    H1 5390   0.788   4.155  11.763  0.1431  0.6607  0.6888
  356TMC3    H2 5391   1.203   4.284  11.824 -1.7092 -0.9084  2.1611
  356TMC3    C7 5392   0.988   4.169  11.944  0.1092  0.0287 -0.3250
  356TMC3    C8 5393   1.224   4.360  11.571  0.8561 -0.0200 -0.3577
  356TMC3    O1 5394   0.898   4.089  11.965 -0.2812  0.0172 -0.3233
  356TMC3    O2 5395   1.244   4.350  11.453 -0.4890  0.2045  0.0140
  357MPD2     C 5396   4.487   3.932   0.452  0.0268 -0.1454 -0.2071
  357MPD2    C1 5397   4.434   3.805   0.455 -0.6894 -0.3087  0.0220
  357MPD2    C2 5398   4.305   3.796   0.410  0.3561  0.9626  0.0389
  357MPD2    C3 5399   4.224   3.894   0.364 -0.1457  0.4186  0.0084
  357MPD2    C4 5400   4.284   4.021   0.358  0.3657  0.0078 -0.4816
  357MPD2    C5 5401   4.414   4.034   0.410 -0.5958  1.0212 -0.1733
  357MPD2     H 5402   4.270   3.697   0.437  3.3639  0.2590  1.3378
  357MPD2    H1 5403   4.241   4.115   0.326  1.3616  0.2742 -1.0367
  357MPD2    H2 5404   4.586   3.958   0.488 -0.1493 -0.6431  0.6382
  357MPD2    H3 5405   4.463   4.130   0.400  0.1238  0.8251  1.5738
  357MPD2     N 5406   4.090   3.869   0.327  0.2877  0.0059 -0.7288
  357MPD2    H5 5407   4.046   3.948   0.281 -0.2771 -0.0176 -0.2243
  357MPD2    N1 5408   4.499   3.697   0.509  0.1944  0.2833 -0.8405
  357MPD2    H7 5409   4.470   3.603   0.488 -0.5824  0.0158  1.4309
  358TMC3    C1 5410   4.644   3.571   0.636  0.2602  0.4288 -0.0131
  358TMC3    C2 5411   4.644   3.489   0.529  0.1270 -0.0192 -0.5937
  358TMC3    C3 5412   4.670   3.361   0.557 -0.1447  0.1405  0.1773
  358TMC3    C4 5413   4.657   3.535   0.766 -0.5126  0.0686 -0.2312
  358TMC3    C5 5414   4.661   3.401   0.790  0.1585 -0.3989  0.5799
  358TMC3    C6 5415   4.673   3.309   0.686  0.2402  0.1682  0.0807
  358TMC3     C 5416   4.608   3.705   0.600  0.2897 -1.1938  0.0972
  358TMC3     O 5417   4.646   3.804   0.667  0.3994 -0.1415 -0.4328
  358TMC3     H 5418   4.651   3.535   0.431 -0.3299  1.6181  0.1624
  358TMC3    H1 5419   4.674   3.614   0.839  2.3711  0.3717 -1.2513
  358TMC3    H2 5420   4.720   3.214   0.710 -1.5485 -1.1135 -1.5688
  358TMC3    C7 5421   4.694   3.362   0.925  0.3819  0.0784 -0.5653
  358TMC3    C8 5422   4.694   3.288   0.427 -0.8684 -0.2390  0.4504
  358TMC3    O1 5423   0.017   3.259   0.950 -0.4451 -0.5849  0.1193
  358TMC3    O2 5424   4.697   3.349   0.320  0.5392  0.0390 -0.1716
  359MPD2     C 5425   0.688   2.878  12.456 -0.7071  0.2846  1.0591
  359MPD2    C1 5426   0.674   2.816  12.333 -0.7330 -0.5337  0.7079
  359MPD2    C2 5427   0.582   2.711  12.317  0.0847  0.2076  0.3603
  359MPD2    C3 5428   0.526   2.659  12.431 -0.0397 -0.0829  0.1917
  359MPD2    C4 5429   0.555   2.710  12.551 -0.7926 -0.1951 -0.3725
  359MPD2    C5 5430   0.632   2.819  12.568  0.1756 -0.0158  0.0110
  359MPD2     H 5431   0.551   2.683  12.217 -1.1904 -0.6549  0.9997
  359MPD2    H1 5432   0.511   2.665  12.639  0.0464  1.6294  0.9732
  359MPD2    H2 5433   0.747   2.969  12.459 -0.9670  0.3576  4.0624
  359MPD2    H3 5434   0.645   2.857  12.668 -0.4172  0.3991 -0.0691
  359MPD2     N 5435   0.452   2.538  12.429 -0.6179 -0.0266  0.7692
  359MPD2    H5 5436   0.421   2.505  12.520 -1.2502  0.0977  0.5943
  359MPD2    N1 5437   0.736   2.864  12.216 -0.1986  0.0814 -0.5443
  359MPD2    H7 5438   0.686   2.850  12.129 -2.4173  2.0486  0.4086
  360TMC3    C1 5439   0.912   2.931  12.083  0.0811 -0.6277  0.6779
  360TMC3    C2 5440   1.019   3.019  12.068  0.1652 -0.1279 -0.1724
  360TMC3    C3 5441   1.079   3.024  11.939 -0.0879 -0.8179 -0.1388
  360TMC3    C4 5442   0.886   2.830  11.994  0.0104 -0.3246  0.3809
  360TMC3    C5 5443   0.958   2.826  11.877 -0.2112  0.0325  0.0431
  360TMC3    C6 5444   1.048   2.923  11.852  0.3083 -0.1840 -0.1704
  360TMC3     C 5445   0.858   2.923  12.216  0.8646 -0.8211  0.0707
  360TMC3     O 5446   0.929   2.972  12.301 -0.0454  0.1855 -0.1498
  360TMC3     H 5447   1.025   3.099  12.142 -1.5379  0.0428 -0.2068
  360TMC3    H1 5448   0.803   2.761  12.007  0.0944 -0.8098 -1.5667
  360TMC3    H2 5449   1.102   2.929  11.758  0.6367 -0.5088 -0.0013
  360TMC3    C7 5450   0.898   2.786  11.753 -0.4670  0.5655 -0.3794
  360TMC3    C8 5451   1.155   3.144  11.902 -0.2349 -0.2507  1.0054
  360TMC3    O1 5452   0.963   2.809  11.651  0.3326  0.1021 -0.1802
  360TMC3    O2 5453   1.124   3.257  11.943 -0.4136 -0.2012 -0.4892
  361MPD2     C 5454   2.100   1.113  16.546 -0.4099  0.2818 -0.1265
  361MPD2    C1 5455   2.068   1.190  16.655  0.5209 -0.6414 -0.5499
  361MPD2    C2 5456   2.120   1.157  16.780 -0.2747  0.7812 -0.2229
  361MPD2    C3 5457   2.204   1.046  16.798  0.1427  0.0549  0.4337
  361MPD2    C4 5458   2.237   0.979  16.685 -0.3746 -0.2877 -0.1391
  361MPD2    C5 5459   2.185   1.012  16.561 -0.2326 -0.0861 -0.6065
  361MPD2     H 5460   2.083   1.211  16.866 -2.2584 -1.3560  0.2531
  361MPD2    H1 5461   2.295   0.887  16.687 -1.0497 -0.6895  0.8000
  361MPD2    H2 5462   2.051   1.117  16.450  0.4236 -1.1872 -0.6197
  361MPD2    H3 5463   2.210   0.940  16.484 -0.0858  0.0352 -0.6699
  361MPD2     N 5464   2.232   0.984  16.929 -0.4054  0.5232 -0.5661
  361MPD2    H5 5465   2.271   0.890  16.932  0.5639  0.9540  0.7696
  361MPD2    N1 5466   1.981   1.304  16.648  0.2775 -0.0489 -0.1947
  361MPD2    H7 5467   1.968   1.358  16.733 -1.0236 -0.9088  0.1442
  362TMC3    C1 5468   1.831   1.468  16.555 -0.2300  0.2634 -0.2892
  362TMC3    C2 5469   1.775   1.491  16.678 -0.3092  0.2045  0.0779
  362TMC3    C3 5470   1.702   1.607  16.691 -0.7294  0.1860 -1.2202
  362TMC3    C4 5471   1.831   1.559  16.455  0.3819 -0.6243  0.4549
  362TMC3    C5 5472   1.769   1.678  16.481  1.0595  0.1673 -1.1133
  362TMC3    C6 5473   1.696   1.703  16.593  0.0969  0.1623  0.2702
  362TMC3     C 5474   1.915   1.354  16.537  0.2305  0.0616 -0.2719
  362TMC3     O 5475   1.917   1.308  16.425 -0.1961 -0.3411  0.5672
  362TMC3     H 5476   1.784   1.426  16.764 -0.0896 -1.0279 -0.8861
  362TMC3    H1 5477   1.872   1.530  16.360  0.8546 -0.6611  0.6689
  362TMC3    H2 5478   1.643   1.797  16.603 -0.6430 -0.0219 -1.8913
  362TMC3    C7 5479   1.763   1.785  16.379  0.1934  0.0503  0.0001
  362TMC3    C8 5480   1.623   1.611  16.812  0.1224  0.2653  0.0558
  362TMC3    O1 5481   1.696   1.884  16.406  0.0123 -0.5663  0.2194
  362TMC3    O2 5482   1.626   1.513  16.888  0.8147 -0.8280 -0.4675
  363TMC3    C1 5483   1.868   0.698   9.772 -0.1960  0.0893  0.0517
  363TMC3    C2 5484   1.848   0.573   9.829 -0.0280  0.1102  0.0691
  363TMC3    C3 5485   1.736   0.544   9.893 -0.8250  0.7211 -0.2892
  363TMC3    C4 5486   1.771   0.797   9.776 -0.8578 -0.6346 -0.4215
  363TMC3    C5 5487   1.660   0.755   9.842 -0.0509  0.2496 -0.3497
  363TMC3    C6 5488   1.636   0.634   9.898  0.0901  0.6166 -0.6066
  363TMC3     C 5489   1.992   0.726   9.703  0.2991 -0.1202 -0.7339
  363TMC3     O 5490   1.980   0.811   9.614 -0.3816  0.0986  0.3883
  363TMC3     H 5491   1.928   0.500   9.832 -0.6530 -0.5923 -0.5598
  363TMC3    H1 5492   1.781   0.902   9.751  1.4051 -1.1080 -1.4774
  363TMC3    H2 5493   1.543   0.608   9.947  0.9396 -0.9052  0.2058
  363TMC3    C7 5494   1.548   0.845   9.867  0.5768 -0.6406 -0.0073
  363TMC3    C8 5495   1.710   0.424   9.973 -0.3520  0.8805  0.4479
  363TMC3    O1 5496   1.489   0.817   9.970 -0.1254 -0.1742  0.1609
  363TMC3    O2 5497   1.631   0.437  10.064 -0.1267 -0.2210 -0.3114
  364MPD2     C 5498   0.160   3.913  10.060  0.2019 -0.6600 -0.0048
  364MPD2    C1 5499   0.081   3.973  10.152 -0.8241 -0.4899 -0.0294
  364MPD2    C2 5500   4.738   3.891  10.234 -0.0274  0.0827  0.0143
  364MPD2    C3 5501   0.008   3.753  10.227  0.8152 -0.1356  0.0283
  364MPD2    C4 5502   0.081   3.696  10.126 -0.3017  0.6822 -0.1090
  364MPD2    C5 5503   0.156   3.776  10.045  0.2809 -0.2051 -0.2352
  364MPD2     H 5504   4.671   3.942  10.303  0.0338  0.7069 -0.3862
  364MPD2    H1 5505   0.094   3.589  10.113  0.7503  0.8712 -0.6598
  364MPD2    H2 5506   0.233   3.970  10.003  0.3606 -1.4746 -0.6112
  364MPD2    H3 5507   0.227   3.729   9.977 -0.5960  0.2295 -1.4571
  364MPD2     N 5508   4.667   3.665  10.294  0.6189 -0.3472 -0.5948
  364MPD2    H5 5509   4.690   3.566  10.288 -0.1565 -0.6177  0.7233
  364MPD2    N1 5510   0.085   4.113  10.172  0.1907 -0.0744  0.6226
  364MPD2    H7 5511   0.149   4.157  10.106 -0.0536 -1.4546 -0.5260
  365TMC3    C1 5512   0.023   4.331  10.264  0.7408  0.8592  0.5828
  365TMC3    C2 5513   0.103   4.395  10.170  0.3362  0.6227 -0.3881
  365TMC3    C3 5514   0.118   4.530  10.193  0.6734 -0.5173  0.3040
  365TMC3    C4 5515   4.696   4.398  10.364 -0.8054 -0.5064 -0.2128
  365TMC3    C5 5516   4.723   4.529  10.383  0.2599  0.0558 -0.3202
  365TMC3    C6 5517   0.064   4.599  10.297  0.2182  0.0678 -0.2765
  365TMC3     C 5518   0.023   4.186  10.273 -0.1473  0.6151 -0.4803
  365TMC3     O 5519   4.687   4.144  10.355 -0.6876 -0.2315 -0.1026
  365TMC3     H 5520   0.151   4.348  10.085 -2.0401 -2.4039 -0.0502
  365TMC3    H1 5521   4.624   4.346  10.426 -2.5793  0.4273 -1.5202
  365TMC3    H2 5522   0.077   4.704  10.317 -1.1589  0.3194 -0.7389
  365TMC3    C7 5523   4.622   4.608  10.446  0.2874 -0.5100 -1.0980
  365TMC3    C8 5524   0.217   4.598  10.112  0.1214 -0.0121  0.2776
  365TMC3    O1 5525   4.575   4.705  10.384 -0.5577  0.1718 -0.4710
  365TMC3    O2 5526   0.244   4.709  10.150 -0.2808  0.3459  0.7799
  366MPD2     C 5527   2.434   4.553  15.284 -0.2775  0.3803  0.4432
  366MPD2    C1 5528   2.521   4.660  15.308  0.1648  0.4967  0.0114
  366MPD2    C2 5529   2.655   4.635  15.289 -0.7932  0.4215 -0.2968
  366MPD2    C3 5530   2.705   4.509  15.259  0.0732  0.1438  0.2335
  366MPD2    C4 5531   2.615   4.407  15.222 -0.1915  0.3027  0.3849
  366MPD2    C5 5532   2.486   4.432  15.240 -0.5435  0.5297  0.6300
  366MPD2     H 5533   2.723   4.718  15.303 -0.3444 -0.0531  0.3360
  366MPD2    H1 5534   2.641   4.311  15.178 -1.9379  0.8560 -1.8814
  366MPD2    H2 5535   2.327   4.560  15.300 -0.2659 -1.5254  1.4591
  366MPD2    H3 5536   2.418   4.350  15.222 -2.3852  2.2032  0.0462
  366MPD2     N 5537   2.843   4.496  15.270  0.5621  0.7392  0.2161
  366MPD2    H5 5538   2.897   4.577  15.299  0.4160  0.9618 -0.1381
  366MPD2    N1 5539   2.493   0.038  15.375 -0.4823 -0.0250  0.1239
  366MPD2    H7 5540   2.570   0.078  15.429 -0.3190 -0.3246  0.1151
  367TMC3    C1 5541   2.379   0.239  15.413  0.1595 -0.7555 -0.4177
  367TMC3    C2 5542   2.469   0.260  15.515  0.2290  0.3781 -0.0569
  367TMC3    C3 5543   2.522   0.386  15.535  0.0174 -0.1167 -1.0801
  367TMC3    C4 5544   2.344   0.340  15.324 -0.0817 -0.5775 -0.4269
  367TMC3    C5 5545   2.401   0.461  15.346 -0.5095  0.3742  0.0055
  367TMC3    C6 5546   2.484   0.488  15.450  0.7949  0.4363 -0.5703
  367TMC3     C 5547   2.370   0.099  15.368  0.0233  0.6421 -0.4378
  367TMC3     O 5548   2.264   0.066  15.312 -0.1830  0.4184  0.2136
  367TMC3     H 5549   2.489   0.180  15.585 -0.7917 -0.4133 -0.6718
  367TMC3    H1 5550   2.294   0.312  15.232 -0.2614 -0.8103 -0.2603
  367TMC3    H2 5551   2.524   0.587  15.468  0.2743  0.3580  1.0543
  367TMC3    C7 5552   2.377   0.575  15.255  0.4457 -1.1104 -0.6423
  367TMC3    C8 5553   2.637   0.405  15.622  0.0404 -0.0834  0.3998
  367TMC3    O1 5554   2.449   0.676  15.273  0.0483  0.2376 -0.6959
  367TMC3    O2 5555   2.676   0.302  15.679  0.1523  0.7142 -0.4734
  368MPD2     C 5556   3.745   1.516  12.846  0.4203  0.4133 -0.0978
  368MPD2    C1 5557   3.852   1.589  12.896 -0.1380 -0.4307  0.1447
  368MPD2    C2 5558   3.972   1.576  12.841  0.6902  0.1285  0.2976
  368MPD2    C3 5559   3.997   1.489  12.737  1.1147  0.3750 -0.8753
  368MPD2    C4 5560   3.894   1.421  12.683  0.4283  0.1278 -0.4035
  368MPD2    C5 5561   3.769   1.433  12.746  0.1642 -0.0553  0.4423
  368MPD2     H 5562   4.060   1.629  12.877  1.9864 -0.8048 -1.5150
  368MPD2    H1 5563   3.905   1.342  12.611 -0.9163 -1.6392  1.3362
  368MPD2    H2 5564   3.642   1.513  12.879  0.8910 -0.8555  1.2928
  368MPD2    H3 5565   3.686   1.376  12.707 -0.6437  0.2749  1.6726
  368MPD2     N 5566   4.126   1.481  12.672  0.3853  0.0094  0.2650
  368MPD2    H5 5567   4.138   1.424  12.588  1.0373 -0.3941  0.6307
  368MPD2    N1 5568   3.837   1.680  12.997  0.0628  0.5860 -0.4258
  368MPD2    H7 5569   3.920   1.723  13.037  0.2051 -0.4578  0.4158
  369TMC3    C1 5570   3.706   1.846  13.112 -0.4624  0.1216  0.3227
  369TMC3    C2 5571   3.808   1.938  13.085 -0.6044 -0.0314  0.2851
  369TMC3    C3 5572   3.781   2.068  13.106  0.0790 -0.0658  0.0346
  369TMC3    C4 5573   3.586   1.880  13.166 -0.2315  0.1446 -0.4628
  369TMC3    C5 5574   3.564   2.013  13.178 -0.2640 -0.1605  0.6275
  369TMC3    C6 5575   3.652   2.112  13.140  0.6186 -0.3993  0.4131
  369TMC3     C 5576   3.715   1.710  13.056 -0.2149  0.3462  0.1835
  369TMC3     O 5577   3.606   1.662  13.037 -0.4045 -0.5057  0.6942
  369TMC3     H 5578   3.905   1.907  13.046 -0.3732  0.1862  0.6927
  369TMC3    H1 5579   3.504   1.812  13.186  1.6623 -1.4866  1.7107
  369TMC3    H2 5580   3.637   2.219  13.151 -1.4893 -0.6155 -0.3350
  369TMC3    C7 5581   3.439   2.048  13.236 -0.2862 -0.5325  0.1691
  369TMC3    C8 5582   3.869   2.163  13.037  0.4011 -0.6050  0.4003
  369TMC3    O1 5583   3.401   1.985  13.335  0.1101 -0.1629  0.5693
  369TMC3    O2 5584   3.815   2.242  12.959 -0.0830 -0.5151  0.2424
  370TMC3    C1 5585   2.940   2.631  16.221 -0.1321  0.0316  0.7039
  370TMC3    C2 5586   2.828   2.580  16.279  0.1038 -0.3171  0.2916
  370TMC3    C3 5587   2.787   2.456  16.232 -0.3762  0.9782 -0.2512
  370TMC3    C4 5588   3.010   2.567  16.124  0.1953  0.0509 -0.3055
  370TMC3    C5 5589   2.969   2.440  16.095 -0.0336 -0.6793  0.0306
  370TMC3    C6 5590   2.856   2.377  16.143 -0.1746  0.4890  0.3698
  370TMC3     C 5591   3.017   2.708  16.307 -0.0964 -0.1384  0.9099
  370TMC3     O 5592   2.981   2.714  16.425 -0.1015 -0.3890 -0.1746
  370TMC3     H 5593   2.776   2.621  16.366 -0.3135 -1.0879  0.4088
  370TMC3    H1 5594   3.100   2.616  16.088  0.8536 -2.3939 -1.9534
  370TMC3    H2 5595   2.811   2.286  16.104  1.3842  0.5145 -1.4676
  370TMC3    C7 5596   3.036   2.386  15.983  0.4029  0.1726  0.1017
  370TMC3    C8 5597   2.716   2.378  16.332  0.6894 -0.2568  0.8929
  370TMC3    O1 5598   3.079   2.468  15.904  0.4624  0.1820  0.0967
  370TMC3    O2 5599   2.763   2.265  16.346  0.5996 -0.3493  0.4212
  371TMC3    C1 5600   4.164   0.585  16.220 -0.8670 -0.0147 -0.0384
  371TMC3    C2 5601   4.062   0.601  16.129  0.7968 -0.2232 -0.0927
  371TMC3    C3 5602   3.989   0.716  16.123  0.1664 -0.6982 -0.1682
  371TMC3    C4 5603   4.170   0.678  16.320 -0.0943  0.5855  0.5243
  371TMC3    C5 5604   4.088   0.790  16.321 -0.2322 -0.4841  0.1241
  371TMC3    C6 5605   4.005   0.817  16.218 -0.0663  0.5786 -0.1712
  371TMC3     C 5606   4.299   0.552  16.175 -0.2983  0.2432  0.3281
  371TMC3     O 5607   4.390   0.615  16.224 -0.1675  0.3889 -0.2912
  371TMC3     H 5608   4.069   0.534  16.044  0.5188  0.7601 -0.8804
  371TMC3    H1 5609   4.250   0.676  16.392 -0.5211  0.1203  0.9844
  371TMC3    H2 5610   3.932   0.897  16.223 -2.6504 -1.8916  1.4757
  371TMC3    C7 5611   4.132   0.905  16.395  0.1130 -0.3827  0.1147
  371TMC3    C8 5612   3.939   0.762  15.994  0.1801 -0.3390 -0.1371
  371TMC3    O1 5613   4.178   0.883  16.507 -0.0808  0.6365 -0.3414
  371TMC3    O2 5614   4.001   0.721  15.897  0.1421 -0.1779 -0.3482
  372MPD2     C 5615   3.907   1.666  13.379 -0.4875 -0.1370 -0.3861
  372MPD2    C1 5616   4.010   1.579  13.417 -0.3749  0.2027 -0.4230
  372MPD2    C2 5617   3.976   1.482  13.513  0.2171  0.2987 -0.1315
  372MPD2    C3 5618   3.846   1.462  13.548  0.3102 -0.1225  0.3320
  372MPD2    C4 5619   3.746   1.546  13.500 -0.5684  0.5313  0.0145
  372MPD2    C5 5620   3.779   1.646  13.415 -0.2417 -0.7970  0.3406
  372MPD2     H 5621   4.050   1.409  13.545  1.7202  1.0615 -1.8615
  372MPD2    H1 5622   3.639   1.543  13.516 -0.4159 -0.3343  0.8542
  372MPD2    H2 5623   3.923   1.740  13.302 -1.3801  0.6418  0.1653
  372MPD2    H3 5624   3.702   1.713  13.378 -1.4757 -2.8530 -0.7832
  372MPD2     N 5625   3.818   1.349  13.630 -0.4751 -0.0557 -0.3790
  372MPD2    H5 5626   3.899   1.295  13.657  0.1717  0.8215 -0.5497
  372MPD2    N1 5627   4.141   1.592  13.376 -0.0456  0.3936  0.8242
  372MPD2    H7 5628   4.214   1.567  13.442  0.5005  0.4490  0.2379
  373TMC3    C1 5629   3.718   1.202  13.776 -0.5384 -0.2984 -0.2853
  373TMC3    C2 5630   3.665   1.209  13.899  0.1338  0.0924  0.4080
  373TMC3    C3 5631   3.731   1.139  14.010  0.3198 -0.7251  0.5792
  373TMC3    C4 5632   3.827   1.118  13.743  0.5943  0.0387  0.2902
  373TMC3    C5 5633   3.893   1.053  13.849  0.4748  0.4037 -0.4321
  373TMC3    C6 5634   3.847   1.056  13.977 -0.2279 -0.0199  0.4381
  373TMC3     C 5635   3.699   1.317  13.690 -0.0073 -0.4068 -0.4025
  373TMC3     O 5636   3.602   1.387  13.720 -0.2219  0.0746  1.0744
  373TMC3     H 5637   3.578   1.271  13.914  0.0431 -0.0244  0.3620
  373TMC3    H1 5638   3.863   1.108  13.642  0.0696  0.2583  0.0809
  373TMC3    H2 5639   3.903   1.005  14.055 -0.6718 -1.3634 -0.1215
  373TMC3    C7 5640   4.014   0.977  13.822  0.3198 -0.8104  0.3254
  373TMC3    C8 5641   3.758   1.230  14.119 -0.4821  0.4935 -0.7280
  373TMC3    O1 5642   4.101   0.976  13.912  0.4942 -0.6130 -0.0864
  373TMC3    O2 5643   3.741   1.351  14.102 -0.4657  0.2955 -0.2875
  374TMC3    C1 5644   0.250   2.973   9.486  0.0173  0.2658 -0.0288
  374TMC3    C2 5645   0.382   3.014   9.515  0.5958 -0.0088 -0.0478
  374TMC3    C3 5646   0.468   3.032   9.411 -0.3655  0.2727  0.1897
  374TMC3    C4 5647   0.202   2.954   9.358  0.0034 -0.7237  0.0216
  374TMC3    C5 5648   0.295   2.977   9.255  0.1133  0.8162 -0.0172
  374TMC3    C6 5649   0.432   3.015   9.281  0.4354 -0.1542 -0.6041
  374TMC3     C 5650   0.141   3.009   9.574 -0.2270 -0.3804 -0.0070
  374TMC3     O 5651   0.037   2.951   9.555 -0.2094  0.7886  0.0547
  374TMC3     H 5652   0.418   3.017   9.617 -3.4755 -1.6260  1.4427
  374TMC3    H1 5653   0.098   2.934   9.339  0.1548 -0.8227 -0.7155
  374TMC3    H2 5654   0.508   3.014   9.205  0.2379  0.5988 -0.8129
  374TMC3    C7 5655   0.238   2.979   9.125 -0.5046  0.1268 -0.3045
  374TMC3    C8 5656   0.600   3.085   9.434  0.5861  0.0191 -0.5415
  374TMC3    O1 5657   0.118   2.957   9.107 -0.6247  0.1330 -0.3125
  374TMC3    O2 5658   0.641   3.156   9.344  0.0639 -0.3285 -0.1583
  375MPD2     C 5659   4.188   2.601  17.154  0.1589 -0.1198  0.1074
  375MPD2    C1 5660   4.117   2.629  17.039 -0.0692  0.0770  0.2849
  375MPD2    C2 5661   4.177   2.702  16.937  0.0003  0.5000  0.2519
  375MPD2    C3 5662   4.314   2.730  16.947  0.5360 -0.0834 -0.2164
  375MPD2    C4 5663   4.377   2.710  17.066  0.6742 -0.5005 -0.2157
  375MPD2    C5 5664   4.317   2.647  17.167 -0.3730  0.1207  0.2863
  375MPD2     H 5665   4.120   2.727  16.848 -1.1180 -2.1386  0.2204
  375MPD2    H1 5666   4.480   2.742  17.070  1.0745 -2.0491  1.6732
  375MPD2    H2 5667   4.144   2.551  17.239 -1.8196 -1.5037 -1.7480
  375MPD2    H3 5668   4.375   2.625  17.256  1.1033 -0.2726 -0.7692
  375MPD2     N 5669   4.391   2.801  16.846 -0.0296  0.5112 -0.0897
  375MPD2    H5 5670   4.489   2.815  16.866 -0.3715  1.7930  0.6431
  375MPD2    N1 5671   3.977   2.593  17.015  0.1617 -0.7531 -0.3213
  375MPD2    H7 5672   3.947   2.610  16.920  2.3428  1.7370 -0.5748
  376TMC3    C1 5673   4.438   2.940  16.657  0.4136  0.4389 -0.2081
  376TMC3    C2 5674   4.566   2.898  16.654  0.1268 -0.4671 -0.9360
  376TMC3    C3 5675   4.645   2.930  16.544  0.1817  0.0080  0.4089
  376TMC3    C4 5676   4.383   3.022  16.562  0.0334  0.0803  0.1228
  376TMC3    C5 5677   4.465   3.070  16.465 -0.5313 -0.3099  0.1440
  376TMC3    C6 5678   4.600   3.030  16.460 -0.0747 -0.0547 -0.3544
  376TMC3     C 5679   4.340   2.867  16.736  0.3121 -0.1136  0.2938
  376TMC3     O 5680   4.225   2.885  16.706 -0.6108  0.0632 -0.7636
  376TMC3     H 5681   4.598   2.830  16.732  0.4544  0.7140 -0.0500
  376TMC3    H1 5682   4.279   3.052  16.562 -0.5844 -2.0481  0.9555
  376TMC3    H2 5683   4.667   3.073  16.386  1.3297  0.3416  1.1598
  376TMC3    C7 5684   4.423   3.175  16.382 -0.8560  0.0714 -0.1043
  376TMC3    C8 5685   0.041   2.888  16.553  0.1244 -0.0528 -0.9842
  376TMC3    O1 5686   4.493   3.190  16.281  0.7318  0.3007  0.0001
  376TMC3    O2 5687   0.117   2.967  16.498 -0.4090 -0.3495 -0.4110
  377MPD2     C 5688   2.867   2.867  12.748 -0.1261  0.1686 -0.4256
  377MPD2    C1 5689   2.949   2.774  12.806  0.0209 -0.2652 -0.3670
  377MPD2    C2 5690   2.927   2.744  12.939  0.4409 -0.1909  0.1517
  377MPD2    C3 5691   2.820   2.802  13.010 -0.2401 -0.6089  0.0406
  377MPD2    C4 5692   2.750   2.905  12.951 -0.4174  0.2006  0.2974
  377MPD2    C5 5693   2.775   2.939  12.821  0.1257  0.7589  0.0923
  377MPD2     H 5694   2.981   2.661  12.985 -0.8902 -0.1995  1.7163
  377MPD2    H1 5695   2.665   2.951  13.000  0.3704  3.1060 -1.0879
  377MPD2    H2 5696   2.889   2.907  12.649 -0.1636  1.9577  0.2816
  377MPD2    H3 5697   2.706   3.007  12.772 -0.6826  0.1195  0.3437
  377MPD2     N 5698   2.763   2.750  13.131 -0.0974  0.1175 -0.0615
  377MPD2    H5 5699   2.678   2.790  13.170 -0.5777 -0.1473 -0.8326
  377MPD2    N1 5700   3.037   2.709  12.722  0.6823  0.4125 -0.1552
  377MPD2    H7 5701   3.006   2.728  12.628  0.3445 -0.1616 -0.1662
  378TMC3    C1 5702   3.256   2.581  12.408 -0.4107 -0.3432 -0.1189
  378TMC3    C2 5703   3.170   2.605  12.514 -0.4591  1.4903  0.3676
  378TMC3    C3 5704   3.219   2.572  12.639 -0.7030  0.0658 -0.2095
  378TMC3    C4 5705   3.386   2.533  12.426  0.1269 -1.0832  0.2737
  378TMC3    C5 5706   3.426   2.496  12.554 -0.0625  0.2004 -0.3556
  378TMC3    C6 5707   3.339   2.510  12.662  0.2642 -0.2820 -0.2306
  378TMC3     C 5708   3.235   2.662  12.290  0.1560  0.0973  0.4919
  378TMC3     O 5709   3.172   2.766  12.298  0.0690 -0.2270  0.1593
  378TMC3     H 5710   3.084   2.667  12.492 -0.7357  0.7331 -0.6472
  378TMC3    H1 5711   3.456   2.534  12.343  0.8119  0.2235  0.8763
  378TMC3    H2 5712   3.359   2.481  12.764  0.1892  1.3284  0.2455
  378TMC3    C7 5713   3.534   2.399  12.570 -0.2684 -0.7840  0.3893
  378TMC3    C8 5714   3.145   2.632  12.755 -1.4815 -0.1452 -0.3175
  378TMC3    O1 5715   3.532   2.337  12.676  0.4544  0.3887  0.1503
  378TMC3    O2 5716   3.187   2.609  12.870  0.5527  0.3448 -0.3713
  379MPD2     C 5717   3.603   0.565  16.484 -0.4821  1.3678  0.1954
  379MPD2    C1 5718   3.535   0.447  16.471  0.5653  0.0223 -0.0658
  379MPD2    C2 5719   3.508   0.385  16.592  0.0458  0.3220 -0.3002
  379MPD2    C3 5720   3.562   0.431  16.711  0.2907  0.1066  0.5976
  379MPD2    C4 5721   3.628   0.550  16.717 -0.5467  0.3839 -0.1164
  379MPD2    C5 5722   3.639   0.625  16.601  0.1938 -0.3633 -0.4194
  379MPD2     H 5723   3.447   0.295  16.598 -0.2709  0.4145 -2.1800
  379MPD2    H1 5724   3.670   0.603  16.802  1.2156  0.8804 -1.2909
  379MPD2    H2 5725   3.622   0.610  16.387  0.8176  1.6743  0.5893
  379MPD2    H3 5726   3.697   0.717  16.597  1.8184 -1.2845  1.8107
  379MPD2     N 5727   3.552   0.358  16.833  0.0372 -0.1228  0.2034
  379MPD2    H5 5728   3.607   0.396  16.909 -2.0024  3.2716 -0.0610
  379MPD2    N1 5729   3.488   0.408  16.345  0.0246  0.1336 -0.1473
  379MPD2    H7 5730   3.490   0.467  16.263  0.1309 -1.9186 -1.6321
  380TMC3    C1 5731   3.389   0.259  16.184 -0.6795  0.4117  0.9079
  380TMC3    C2 5732   3.367   0.126  16.139 -0.6385  0.5720 -0.4993
  380TMC3    C3 5733   3.271   0.109  16.037  0.7531  0.0636  0.0311
  380TMC3    C4 5734   3.326   0.369  16.132  0.3476  0.2720 -0.0503
  380TMC3    C5 5735   3.235   0.347  16.035  0.1822  0.6693  0.2659
  380TMC3    C6 5736   3.200   0.222  15.995  0.6899  0.0816  0.0478
  380TMC3     C 5737   3.433   0.277  16.324 -0.4241 -0.0285 -0.0194
  380TMC3     O 5738   3.399   0.187  16.402 -0.1513 -0.0245 -0.1625
  380TMC3     H 5739   3.401   0.043  16.201 -0.4376  0.5439 -0.6448
  380TMC3    H1 5740   3.329   0.468  16.174 -3.1756  0.8269 -1.1392
  380TMC3    H2 5741   3.135   0.219  15.908  0.7707 -2.1930  0.0541
  380TMC3    C7 5742   3.191   0.462  15.961  0.1138  0.5554  0.0748
  380TMC3    C8 5743   3.305   0.014  15.942 -1.0334  0.9945 -0.4426
  380TMC3    O1 5744   3.254   0.567  15.961 -0.4738 -0.2274 -0.2882
  380TMC3    O2 5745   3.271   0.038  15.828  0.3554 -0.4120  0.0465
  381TMC3    C1 5746   2.665   1.913  16.175 -0.2268  0.3212  0.2632
  381TMC3    C2 5747   2.794   1.950  16.166  0.3528  0.1082 -0.0009
  381TMC3    C3 5748   2.868   1.969  16.283 -0.4400  0.8361  0.7389
  381TMC3    C4 5749   2.608   1.893  16.298 -0.4237 -0.5027  0.7350
  381TMC3    C5 5750   2.681   1.928  16.414 -0.6192  0.0375 -0.2860
  381TMC3    C6 5751   2.815   1.954  16.407  0.0861  0.0506  0.0840
  381TMC3     C 5752   2.621   1.844  16.054 -0.5278 -0.3907  0.0503
  381TMC3     O 5753   2.699   1.847  15.963  0.3203 -0.6504 -0.2418
  381TMC3     H 5754   2.846   1.963  16.072  1.4181 -0.0900  0.5632
  381TMC3    H1 5755   2.507   1.857  16.306  0.7683 -3.6610  1.4370
  381TMC3    H2 5756   2.876   1.968  16.496  1.3784  0.7941 -0.9333
  381TMC3    C7 5757   2.646   1.841  16.517 -0.0113  0.0387  0.2565
  381TMC3    C8 5758   2.996   2.039  16.277 -0.3236 -0.7312  0.4780
  381TMC3    O1 5759   2.730   1.757  16.531  0.6627  0.6164 -0.3087
  381TMC3    O2 5760   3.067   2.024  16.176 -0.5620  0.0898 -0.1973
  382MPD2     C 5761   2.153   4.301  16.941  0.2031  0.7801  0.6506
  382MPD2    C1 5762   2.071   4.309  17.049 -0.0521  0.3589  0.1864
  382MPD2    C2 5763   2.053   4.192  17.126  0.5488  0.2572 -0.2915
  382MPD2    C3 5764   2.124   4.075  17.087  0.2281 -0.3144 -0.1156
  382MPD2    C4 5765   2.198   4.074  16.967  0.5165  0.3370 -0.4397
  382MPD2    C5 5766   2.208   4.186  16.900  0.3005  0.9483  0.1205
  382MPD2     H 5767   1.990   4.204  17.213 -0.9681 -1.6404 -1.1288
  382MPD2    H1 5768   2.252   3.988  16.930 -0.4779 -0.4949  0.0062
  382MPD2    H2 5769   2.184   4.383  16.877 -3.0049  0.0874 -1.8225
  382MPD2    H3 5770   2.259   4.184  16.804  0.5121  2.1383  0.2032
  382MPD2     N 5771   2.110   3.951  17.158  0.6741  0.0525  0.0361
  382MPD2    H5 5772   2.139   3.864  17.115 -1.0121 -0.2377 -0.4813
  382MPD2    N1 5773   2.011   4.422  17.096  0.2788 -0.5191 -0.5885
  382MPD2    H7 5774   1.932   4.411  17.159  1.5972  1.9091  1.5190
  383TMC3    C1 5775   2.067   3.819  17.349 -0.5941 -0.0749  0.4321
  383TMC3    C2 5776   2.082   3.708  17.277  0.2319 -0.7037 -0.2189
  383TMC3    C3 5777   2.097   3.595  17.351 -0.1209  0.4798  1.3021
  383TMC3    C4 5778   2.050   3.820  17.482 -0.4822 -0.1570 -0.9853
  383TMC3    C5 5779   2.069   3.706  17.552  0.5244  0.3302 -0.6285
  383TMC3    C6 5780   2.113   3.593  17.488 -0.4871  0.2458 -0.3306
  383TMC3     C 5781   2.075   3.949  17.291 -0.0026  0.0102 -0.4165
  383TMC3     O 5782   2.063   4.049  17.363  1.0045  0.2065  0.1761
  383TMC3     H 5783   2.094   3.700  17.169 -0.2057 -0.9869 -0.2483
  383TMC3    H1 5784   2.028   3.916  17.528  1.5465 -0.1030 -0.1444
  383TMC3    H2 5785   2.149   3.512  17.550  0.2738  1.0710  0.3153
  383TMC3    C7 5786   2.022   3.693  17.688 -0.3321  0.4031  0.1267
  383TMC3    C8 5787   2.044   3.477  17.291  0.5929 -0.5036  0.6584
  383TMC3    O1 5788   1.999   3.579  17.712 -0.3404  0.2596  0.3634
  383TMC3    O2 5789   2.006   3.494  17.177 -0.4303  0.1972 -0.0652
  384MPD2     C 5790   4.545   0.461  11.990  0.3811 -0.2131  0.4959
  384MPD2    C1 5791   4.576   0.399  12.107  0.1599 -0.2295 -0.3719
  384MPD2    C2 5792   4.678   0.308  12.119  0.4270 -0.4793  0.0448
  384MPD2    C3 5793   4.739   0.265  12.000  0.0811 -0.4025 -0.3349
  384MPD2    C4 5794   4.697   0.315  11.875 -0.0929  0.8678  0.0328
  384MPD2    C5 5795   4.607   0.411  11.880 -0.3816  0.0467 -0.0160
  384MPD2     H 5796   4.706   0.262  12.212  1.8582 -1.2139 -0.7550
  384MPD2    H1 5797   4.736   0.281  11.779  2.2158  0.7119  1.0220
  384MPD2    H2 5798   4.470   0.539  11.982  0.9723  0.2909 -0.2259
  384MPD2    H3 5799   4.583   0.453  11.783  3.8044 -2.1625 -1.9950
  384MPD2     N 5800   0.091   0.158  12.002  0.3462 -0.8785  0.6134
  384MPD2    H5 5801   0.110   0.120  12.094 -0.1947 -0.4030  0.9183
  384MPD2    N1 5802   4.506   0.428  12.223  0.3257 -0.4221 -0.1297
  384MPD2    H7 5803   4.536   0.376  12.305  0.3931  0.1428  0.1971
  385TMC3    C1 5804   0.237   4.735  11.962 -0.9010  0.0187  0.4802
  385TMC3    C2 5805   0.219   4.612  11.905  0.7443 -0.4008 -0.0007
  385TMC3    C3 5806   0.213   4.516  11.998  0.5919 -0.2077 -0.7740
  385TMC3    C4 5807   0.274   0.019  12.090  0.2692  0.3462 -0.1624
  385TMC3    C5 5808   0.267   4.658  12.181 -0.0356  0.3020  0.3460
  385TMC3    C6 5809   0.236   4.535  12.131 -0.3802 -0.1368 -0.1084
  385TMC3     C 5810   0.157   0.098  11.904 -0.4480  0.5017  0.4635
  385TMC3     O 5811   0.160   0.103  11.785 -0.0328  0.2840  0.9170
  385TMC3     H 5812   0.211   4.602  11.797  1.4920 -1.5454  0.0490
  385TMC3    H1 5813   0.294   0.120  12.126 -1.8042  0.9537 -0.7245
  385TMC3    H2 5814   0.250   4.447  12.193 -0.4768  1.5393  2.3266
  385TMC3    C7 5815   0.170   4.705  12.279 -0.1778 -0.6256  0.9029
  385TMC3    C8 5816   0.179   4.378  11.952 -0.2883 -0.0421 -0.4479
  385TMC3    O1 5817   0.149   0.082  12.276  0.1837  0.0929  0.0785
  385TMC3    O2 5818   0.206   4.288  12.034 -0.5571 -0.3391  0.6934
  386TMC3    C1 5819   4.737   2.598  11.782 -0.0832  1.2138 -0.3795
  386TMC3    C2 5820   4.715   2.689  11.677 -0.3505 -0.3941  0.1745
  386TMC3    C3 5821   4.600   2.684  11.606 -0.3039  0.4982 -0.6530
  386TMC3    C4 5822   4.633   2.510  11.809 -1.0164 -0.3366  0.0171
  386TMC3    C5 5823   4.516   2.512  11.730 -0.3388 -0.4591 -0.0730
  386TMC3    C6 5824   4.498   2.599  11.631 -0.2035 -0.2031  0.0067
  386TMC3     C 5825   0.126   2.543  11.794 -0.5637 -0.1844 -0.3230
  386TMC3     O 5826   0.220   2.619  11.799 -0.2088 -0.1158 -0.2670
  386TMC3     H 5827   0.056   2.744  11.632 -0.3617 -0.2996  0.2708
  386TMC3    H1 5828   4.645   2.435  11.887 -0.6212 -0.1654  0.1173
  386TMC3    H2 5829   4.405   2.605  11.576 -0.2715 -0.8006  0.0571
  386TMC3    C7 5830   4.405   2.453  11.795 -0.7712  0.7991  0.5309
  386TMC3    C8 5831   4.571   2.784  11.507 -0.8672 -0.1832  0.8818
  386TMC3    O1 5832   4.418   2.421  11.912  0.5506 -0.0873  0.3623
  386TMC3    O2 5833   4.496   2.757  11.417 -0.2998  0.0925 -0.2640
  387MPD2     C 5834   2.058   3.013   9.764 -0.6336  0.1054  0.1332
  387MPD2    C1 5835   2.160   2.974   9.853 -0.1125  0.2814 -0.7099
  387MPD2    C2 5836   2.183   2.844   9.896  0.1660 -0.2107  0.3581
  387MPD2    C3 5837   2.134   2.741   9.822 -0.0201 -0.6712  0.2270
  387MPD2    C4 5838   2.040   2.777   9.726  0.8620 -0.0618  0.9391
  387MPD2    C5 5839   2.004   2.908   9.694  0.1156  0.4515 -0.9341
  387MPD2     H 5840   2.248   2.820   9.980 -1.2338 -0.1168  1.4542
  387MPD2    H1 5841   1.991   2.693   9.677 -0.3310  1.0741  0.1912
  387MPD2    H2 5842   2.035   3.114   9.735 -1.1843 -0.4575 -1.4028
  387MPD2    H3 5843   1.929   2.930   9.619 -0.0809  2.0075 -0.2752
  387MPD2     N 5844   2.184   2.616   9.858 -0.2169 -0.3916  0.0066
  387MPD2    H5 5845   2.233   2.612   9.947 -0.1541 -0.0894 -0.0161
  387MPD2    N1 5846   2.248   3.070   9.904 -0.1272  0.0352 -0.4769
  387MPD2    H7 5847   2.312   3.033   9.974  0.7860  0.3618 -1.1324
  388TMC3    C1 5848   2.393   3.248   9.914  0.2576  0.1019 -0.2877
  388TMC3    C2 5849   2.409   3.372   9.967 -0.3864  0.4820  0.2888
  388TMC3    C3 5850   2.523   3.409  10.031 -0.4820 -0.6430  0.5881
  388TMC3    C4 5851   2.489   3.154   9.931  0.2393  0.0084  0.9854
  388TMC3    C5 5852   2.604   3.194  10.000 -0.8819 -0.2610  0.0669
  388TMC3    C6 5853   2.610   3.312  10.074 -0.4269  0.3819 -0.6129
  388TMC3     C 5854   2.260   3.206   9.863 -0.0017 -0.4538  1.0396
  388TMC3     O 5855   2.191   3.275   9.792  0.0812 -0.1524 -0.5207
  388TMC3     H 5856   2.337   3.448   9.938 -0.7813  0.0126  0.0267
  388TMC3    H1 5857   2.482   3.058   9.879 -0.3314  0.1537  0.7901
  388TMC3    H2 5858   2.693   3.332  10.141 -0.6124  0.1338 -0.3093
  388TMC3    C7 5859   2.692   3.092  10.053  0.2238 -0.1570  0.3397
  388TMC3    C8 5860   2.485   3.485  10.145 -0.6866  0.5029 -0.0314
  388TMC3    O1 5861   2.730   3.105  10.169 -0.2202  0.4971 -0.2728
  388TMC3    O2 5862   2.483   3.426  10.254 -0.3210 -0.5425  0.6482
  389MPD2     C 5863   2.047   0.956  11.603  0.2356  0.1439  0.4639
  389MPD2    C1 5864   2.022   0.836  11.549  0.1317 -0.6809  0.5903
  389MPD2    C2 5865   1.954   0.735  11.614 -0.4676  0.3376  0.5179
  389MPD2    C3 5866   1.905   0.756  11.746 -0.6281 -0.2736  0.3421
  389MPD2    C4 5867   1.931   0.881  11.797  0.6967 -0.0592  0.4811
  389MPD2    C5 5868   1.998   0.981  11.728 -0.0402 -0.2470  0.2822
  389MPD2     H 5869   1.932   0.643  11.563 -0.6716  0.4582  0.3869
  389MPD2    H1 5870   1.893   0.906  11.896 -1.7055  1.6061 -0.8595
  389MPD2    H2 5871   2.089   1.039  11.548 -1.8158  1.4774  0.9160
  389MPD2    H3 5872   2.011   1.075  11.781  0.4356 -0.3371  0.3259
  389MPD2     N 5873   1.818   0.670  11.818 -1.2756 -0.0309 -0.1452
  389MPD2    H5 5874   1.777   0.706  11.904  0.1883 -0.0303  0.5555
  389MPD2    N1 5875   2.071   0.823  11.420 -0.0663 -0.2049  0.4655
  389MPD2    H7 5876   2.108   0.900  11.365 -2.1670  0.5766  0.1661
  390TMC3    C1 5877   1.659   0.507  11.852  0.4760  1.1100  0.2086
  390TMC3    C2 5878   1.556   0.457  11.775 -0.5774  0.0756  0.2258
  390TMC3    C3 5879   1.427   0.447  11.826 -0.5683 -0.6104 -0.7328
  390TMC3    C4 5880   1.631   0.553  11.979 -0.3023  0.4377  0.3224
  390TMC3    C5 5881   1.506   0.523  12.037 -0.3473  0.1226  0.1755
  390TMC3    C6 5882   1.407   0.476  11.959  0.0853 -0.8491 -0.1221
  390TMC3     C 5883   1.763   0.558  11.768 -0.4643 -0.4959 -0.0404
  390TMC3     O 5884   1.783   0.502  11.663 -0.5968  0.1696  0.6544
  390TMC3     H 5885   1.567   0.446  11.667 -0.5158 -1.5624  0.3917
  390TMC3    H1 5886   1.709   0.583  12.049 -0.8237  0.5559  0.8551
  390TMC3    H2 5887   1.310   0.450  12.001 -0.2659  0.4292 -0.1408
  390TMC3    C7 5888   1.480   0.547  12.178 -0.2571  0.4473 -0.1330
  390TMC3    C8 5889   1.325   0.464  11.726  0.1251 -0.1559  0.1581
  390TMC3    O1 5890   1.566   0.612  12.240 -0.1194 -0.5463 -0.5177
  390TMC3    O2 5891   1.347   0.430  11.610  0.1702 -0.0344 -0.1344
  391MPD2     C 5892   0.626   2.584  10.819 -0.4505  0.3249 -0.3403
  391MPD2    C1 5893   0.762   2.597  10.843  0.0959  0.3412  0.2964
  391MPD2    C2 5894   0.831   2.659  10.735  0.2242  0.0199  0.3053
  391MPD2    C3 5895   0.773   2.697  10.617 -0.7110 -0.7262 -0.1625
  391MPD2    C4 5896   0.637   2.685  10.599 -0.4519  0.2585  0.4773
  391MPD2    C5 5897   0.567   2.634  10.703 -0.1090 -0.7117  0.3325
  391MPD2     H 5898   0.939   2.662  10.743  0.1580 -3.4677  2.2968
  391MPD2    H1 5899   0.585   2.711  10.507 -1.0960 -0.4914  0.6275
  391MPD2    H2 5900   0.565   2.530  10.890  0.3669  0.9455  0.8348
  391MPD2    H3 5901   0.463   2.616  10.678 -0.2394  2.0994 -1.2208
  391MPD2     N 5902   0.872   2.737  10.518 -0.1046 -0.2672 -0.9098
  391MPD2    H5 5903   0.970   2.739  10.544 -0.2094 -0.9965 -0.4533
  391MPD2    N1 5904   0.815   2.567  10.974  0.5157  0.2890 -0.1278
  391MPD2    H7 5905   0.755   2.544  11.052 -1.6122  1.2182 -1.5128
  392TMC3    C1 5906   0.949   2.783  10.304 -0.9234 -0.3595 -0.2731
  392TMC3    C2 5907   0.914   2.791  10.170  0.1854 -0.1847 -0.9824
  392TMC3    C3 5908   0.997   2.863  10.091  0.4057  0.1743 -0.2169
  392TMC3    C4 5909   1.063   2.843  10.350  0.5155 -0.5586  0.1111
  392TMC3    C5 5910   1.153   2.904  10.262 -0.0369  1.3770  0.1306
  392TMC3    C6 5911   1.119   2.918  10.130 -0.9321 -0.2358  0.6237
  392TMC3     C 5912   0.836   2.759  10.382 -0.2703 -0.0381 -0.2435
  392TMC3     O 5913   0.726   2.742  10.330 -0.8338  0.0916 -0.2776
  392TMC3     H 5914   0.829   2.731  10.136  1.1255 -2.9009  1.4382
  392TMC3    H1 5915   1.078   2.850  10.457 -1.9153 -0.6239  0.4668
  392TMC3    H2 5916   1.190   2.969  10.066 -0.4446 -0.1589  1.2262
  392TMC3    C7 5917   1.270   2.963  10.332 -0.3443 -0.2984  0.6309
  392TMC3    C8 5918   0.946   2.891   9.953  0.3380  0.2289  0.3685
  392TMC3    O1 5919   1.286   2.929  10.449  0.5694 -0.4214  0.5286
  392TMC3    O2 5920   0.843   2.826   9.925  0.4749  0.1851 -0.2527
  393TMC3    C1 5921   4.030   1.128  10.433 -0.3261 -0.0588  0.4254
  393TMC3    C2 5922   3.958   1.030  10.373 -0.3023 -0.2547 -0.2921
  393TMC3    C3 5923   3.943   0.916  10.450 -1.6616  0.4419 -0.6981
  393TMC3    C4 5924   4.084   1.120  10.555 -0.7017  1.1509  0.4168
  393TMC3    C5 5925   4.071   1.003  10.622 -0.1010  0.5234  0.1621
  393TMC3    C6 5926   4.003   0.895  10.570  0.2595 -0.0955 -0.0597
  393TMC3     C 5927   4.059   1.249  10.354  0.0098  0.2129 -0.3121
  393TMC3     O 5928   3.980   1.286  10.270  0.3389  0.0158  0.0665
  393TMC3     H 5929   3.908   1.036  10.278 -1.1260  0.3336  0.1835
  393TMC3    H1 5930   4.144   1.197  10.602 -0.8279  0.4089  1.7689
  393TMC3    H2 5931   4.000   0.799  10.621  0.4838  0.6872  1.4026
  393TMC3    C7 5932   4.169   0.971  10.730 -0.1119  0.6245 -0.4718
  393TMC3    C8 5933   3.861   0.810  10.398  0.2911  0.0249 -0.2422
  393TMC3    O1 5934   4.265   1.040  10.747  0.5757  0.3858  0.2737
  393TMC3    O2 5935   3.815   0.824  10.285 -0.3810  0.5254 -0.1140
  394TMC3    C1 5936   2.073   0.746  11.207 -0.1097 -0.0533 -0.1112
  394TMC3    C2 5937   1.946   0.756  11.155 -0.0333  0.4446 -0.3881
  394TMC3    C3 5938   1.921   0.856  11.062 -0.0037 -0.2018 -0.2036
  394TMC3    C4 5939   2.164   0.840  11.181 -0.0197 -0.7091 -0.5319
  394TMC3    C5 5940   2.135   0.945  11.103 -0.7607  0.5263 -0.5476
  394TMC3    C6 5941   2.009   0.959  11.048  0.9213  0.2962  0.0133
  394TMC3     C 5942   2.073   0.709  11.344 -0.1774 -0.1323 -0.0471
  394TMC3     O 5943   2.019   0.597  11.357  0.1692 -0.4340  0.2868
  394TMC3     H 5944   1.867   0.695  11.199  0.8208 -1.0622 -0.9550
  394TMC3    H1 5945   2.257   0.834  11.237 -1.1548 -1.6598  1.2739
  394TMC3    H2 5946   1.977   1.049  10.996 -2.3386  0.2010  1.8456
  394TMC3    C7 5947   2.242   1.024  11.060 -0.5204 -0.7985 -0.0029
  394TMC3    C8 5948   1.782   0.883  11.028  0.1568 -0.2557  0.2784
  394TMC3    O1 5949   2.343   0.998  11.118  0.1314 -0.2094  0.4853
  394TMC3    O2 5950   1.697   0.822  11.092 -0.1376  0.1549 -0.2040
  395TMC3    C1 5951   1.199   2.763  14.544 -0.6373  0.1094 -0.6865
  395TMC3    C2 5952   1.097   2.767  14.458 -0.0818 -0.0764  0.5458
  395TMC3    C3 5953   1.130   2.783  14.326  0.5835  0.1247  0.3931
  395TMC3    C4 5954   1.327   2.797  14.513  0.4441 -0.0838 -0.2075
  395TMC3    C5 5955   1.347   2.832  14.380  0.1920 -0.2583  0.3965
  395TMC3    C6 5956   1.255   2.816  14.284  0.1217 -0.2027 -0.0388
  395TMC3     C 5957   1.169   2.681  14.666  0.1899  0.1764  0.2530
  395TMC3     O 5958   1.053   2.661  14.699  0.4525 -0.0617  0.3460
  395TMC3     H 5959   0.997   2.730  14.482 -0.2461  1.3878  2.1579
  395TMC3    H1 5960   1.396   2.806  14.596  0.4887  1.3881 -0.4148
  395TMC3    H2 5961   1.269   2.844  14.180  1.4755 -0.1072  0.1643
  395TMC3    C7 5962   1.446   2.935  14.349  0.9126  0.1779  0.3136
  395TMC3    C8 5963   1.023   2.813  14.234 -0.5016  0.1495  0.9327
  395TMC3    O1 5964   1.485   2.942  14.231  0.4997  0.1515 -0.3076
  395TMC3    O2 5965   1.046   2.901  14.150  0.0769  0.4899 -0.1411
  396MPD2     C 5966   0.654   3.340  17.393  0.5618  0.4288  0.0797
  396MPD2    C1 5967   0.761   3.424  17.424 -0.3123  0.2321  0.1239
  396MPD2    C2 5968   0.755   3.550  17.368  0.3573 -0.4236  0.1565
  396MPD2    C3 5969   0.653   3.587  17.289 -0.7023 -0.0133 -0.1696
  396MPD2    C4 5970   0.549   3.507  17.261 -1.0986  0.0596 -0.9063
  396MPD2    C5 5971   0.549   3.382  17.314 -0.2736 -0.0379 -0.0842
  396MPD2     H 5972   0.823   3.632  17.385 -0.0893 -0.3630  1.6526
  396MPD2    H1 5973   0.457   3.532  17.210 -0.9046 -0.4304 -1.5049
  396MPD2    H2 5974   0.650   3.239  17.432 -3.4561  0.0016 -1.4360
  396MPD2    H3 5975   0.464   3.316  17.299 -2.1797  1.9922  1.9173
  396MPD2     N 5976   0.668   3.708  17.207 -0.4615 -0.2236  0.9486
  396MPD2    H5 5977   0.742   3.772  17.234  0.4097 -1.6546  1.9450
  396MPD2    N1 5978   0.870   3.373  17.498  0.2752 -0.3274  0.6440
  396MPD2    H7 5979   0.859   3.289  17.553  0.8063  0.8214  2.4933
  397TMC3    C1 5980   1.076   3.317  17.562  0.0320  0.2858  0.5977
  397TMC3    C2 5981   1.198   3.321  17.499 -0.6478 -0.1994  0.2345
  397TMC3    C3 5982   1.230   3.219  17.414  0.3346  0.5555  0.4134
  397TMC3    C4 5983   1.016   3.194  17.570  0.2262  0.0448 -0.5974
  397TMC3    C5 5984   1.067   3.076  17.509  0.5784 -0.2895 -0.3145
  397TMC3    C6 5985   1.172   3.093  17.433 -0.2678 -0.5999 -0.5562
  397TMC3     C 5986   0.994   3.426  17.516  0.3789  0.0142 -0.0344
  397TMC3     O 5987   1.033   3.535  17.477  0.7659  0.0609  0.0399
  397TMC3     H 5988   1.245   3.418  17.485 -3.6377  1.2039 -0.0172
  397TMC3    H1 5989   0.941   3.183  17.648 -0.1780 -1.7840 -1.2447
  397TMC3    H2 5990   1.196   3.005  17.374  0.9341  0.9562 -2.4097
  397TMC3    C7 5991   0.972   2.966  17.479 -0.0771 -0.5603  0.9852
  397TMC3    C8 5992   1.255   3.252  17.281 -1.1120 -0.2463 -0.3290
  397TMC3    O1 5993   0.997   2.894  17.386  0.1103  0.4274 -0.1354
  397TMC3    O2 5994   1.218   3.175  17.197 -0.0488  0.7970 -0.5922
  398MPD2     C 5995   3.453   0.563   0.307 -0.0177  0.2232  1.3786
  398MPD2    C1 5996   3.555   0.476   0.286  0.1622 -0.0643 -1.0853
  398MPD2    C2 5997   3.678   0.525   0.257  0.5587 -0.5865 -0.0196
  398MPD2    C3 5998   3.701   0.662   0.256 -1.1356  0.1631 -0.4576
  398MPD2    C4 5999   3.594   0.750   0.272 -0.2027 -0.3842  0.3300
  398MPD2    C5 6000   3.470   0.696   0.306 -0.4217 -0.2148  0.2809
  398MPD2     H 6001   3.757   0.454   0.235  0.6418 -0.2992 -0.6697
  398MPD2    H1 6002   3.608   0.857   0.272 -2.7100 -0.0414  0.6000
  398MPD2    H2 6003   3.356   0.520   0.329 -0.2227 -0.1840 -0.3616
  398MPD2    H3 6004   3.398   0.764   0.350  0.6668  0.3235  1.2275
  398MPD2     N 6005   3.839   0.708   0.230 -0.6573  0.0203  0.8201
  398MPD2    H5 6006   3.905   0.632   0.220 -0.1733  0.3306  1.6385
  398MPD2    N1 6007   3.545   0.333   0.283 -0.2616  0.6784  0.0634
  398MPD2    H7 6008   3.628   0.277   0.265 -0.9705 -0.8298  1.5164
  399TMC3    C1 6009   3.466   0.123   0.306  0.6280  0.5306 -0.5215
  399TMC3    C2 6010   3.596   0.082   0.322  0.4150  0.7891  0.1075
  399TMC3    C3 6011   3.621   4.690   0.295 -0.1821 -0.2932  0.0955
  399TMC3    C4 6012   3.362   0.036   0.274  0.4856 -0.0088  0.4028
  399TMC3    C5 6013   3.399   4.644   0.275 -0.8134  0.2836 -0.0454
  399TMC3    C6 6014   3.526   4.597   0.283 -0.5919  0.0013  0.4073
  399TMC3     C 6015   3.434   0.258   0.286  1.4913  0.9745  0.4265
  399TMC3     O 6016   3.319   0.291   0.270  0.1490 -0.3257 -0.2338
  399TMC3     H 6017   3.677   0.148   0.350 -0.1961  1.8328 -0.5679
  399TMC3    H1 6018   3.260   0.071   0.266  1.1619  1.7533 -0.5567
  399TMC3    H2 6019   3.547   4.493   0.304  0.7168  0.5930  2.0351
  399TMC3    C7 6020   3.301   4.546   0.261  0.2647 -0.0175 -0.5662
  399TMC3    C8 6021   3.761   4.654   0.273 -0.5054  0.2731 -0.0886
  399TMC3    O1 6022   3.297   4.451   0.343  0.7503  0.2037  0.2009
  399TMC3    O2 6023   3.839   0.003   0.288 -0.2931 -0.5826  0.7138
  400TMC3    C1 6024   2.074   3.216  16.962 -0.6171  0.1042 -0.5295
  400TMC3    C2 6025   1.986   3.105  16.953  0.6780 -0.5179 -0.6608
  400TMC3    C3 6026   1.885   3.111  16.866 -0.1813  0.2631  0.6018
  400TMC3    C4 6027   2.031   3.342  16.917 -1.4781 -0.6091 -0.0811
  400TMC3    C5 6028   1.924   3.344  16.837  0.7738 -0.0560  0.2459
  400TMC3    C6 6029   1.852   3.232  16.808 -0.3025 -0.3750  0.4802
  400TMC3     C 6030   2.180   3.213  17.063  0.3557  0.3624 -0.4909
  400TMC3     O 6031   2.208   3.102  17.107 -0.0689 -0.3534  0.6899
  400TMC3     H 6032   2.012   3.009  16.994  1.2796  0.0368  0.2657
  400TMC3    H1 6033   2.069   3.434  16.960 -0.3957 -1.6344  1.1675
  400TMC3    H2 6034   1.757   3.246  16.758  0.1021 -0.9400 -0.4540
  400TMC3    C7 6035   1.846   3.471  16.834 -0.3298  0.0571  0.7346
  400TMC3    C8 6036   1.796   2.998  16.866 -0.7172 -0.6296  0.0365
  400TMC3    O1 6037   1.775   3.480  16.734  0.5892  0.4639 -0.0969
  400TMC3    O2 6038   1.809   2.927  16.966 -0.5521  0.7048 -0.2023
  401MPD2     C 6039   4.713   1.960   0.875  0.0987  0.4137 -0.7644
  401MPD2    C1 6040   0.059   1.889   0.957 -0.8418  0.0925  0.4059
  401MPD2    C2 6041   0.081   1.758   0.929 -0.9057  0.4958  0.2686
  401MPD2    C3 6042   0.022   1.696   0.822 -0.0145  0.3509 -0.6800
  401MPD2    C4 6043   4.669   1.765   0.741 -0.7131  0.2350 -1.1693
  401MPD2    C5 6044   4.644   1.888   0.780 -0.0251 -0.0314  0.0221
  401MPD2     H 6045   0.147   1.694   0.987 -1.2678  2.3656  2.7402
  401MPD2    H1 6046   4.612   1.728   0.657 -1.7071  1.1885 -0.9065
  401MPD2    H2 6047   4.696   2.064   0.897  0.9691  0.1422  1.2259
  401MPD2    H3 6048   4.570   1.947   0.727 -0.6650 -0.9266 -0.0775
  401MPD2     N 6049   0.048   1.554   0.804 -0.3610  0.6630  0.4817
  401MPD2    H5 6050   0.099   1.503   0.875 -0.6865  0.7979  0.8177
  401MPD2    N1 6051   0.139   1.951   1.061  0.2279 -0.4945  0.4106
  401MPD2    H7 6052   0.198   1.887   1.113  1.7140  0.0563 -0.6073
  402TMC3    C1 6053   0.057   1.350   0.694  0.0914 -0.8062  0.1578
  402TMC3    C2 6054   0.105   1.290   0.809  0.1363 -1.1514 -0.6234
  402TMC3    C3 6055   0.151   1.160   0.799  0.3886  0.1787  0.2444
  402TMC3    C4 6056   0.049   1.289   0.573 -0.2983 -0.0557 -0.2174
  402TMC3    C5 6057   0.099   1.165   0.571  0.2597  0.3670  0.1734
  402TMC3    C6 6058   0.151   1.098   0.677  0.0327 -0.2747  0.8072
  402TMC3     C 6059   0.009   1.487   0.692  0.3202 -0.4651  0.3767
  402TMC3     O 6060   4.705   1.532   0.585 -0.4300  0.5594 -0.6358
  402TMC3     H 6061   0.105   1.342   0.905 -2.1815 -1.2403 -0.5760
  402TMC3    H1 6062   0.029   1.349   0.484  0.1755  0.4224  0.0011
  402TMC3    H2 6063   0.202   1.005   0.656  2.6456  1.1412  0.7718
  402TMC3    C7 6064   0.142   1.116   0.448  0.3807 -0.1705 -0.0372
  402TMC3    C8 6065   0.242   1.104   0.907 -0.2440  0.1481 -0.3895
  402TMC3    O1 6066   0.061   1.123   0.355  0.6157  0.0926 -0.3277
  402TMC3    O2 6067   0.304   1.005   0.875 -0.2038 -0.2102 -0.1011
  403MPD2     C 6068   3.690   0.382  13.480 -0.0997  0.1917  0.4543
  403MPD2    C1 6069   3.736   0.275  13.554  0.4205  0.1644  0.1365
  403MPD2    C2 6070   3.816   0.303  13.670  0.7409 -0.0616  0.4108
  403MPD2    C3 6071   3.828   0.431  13.710  0.2940 -0.4699 -0.4504
  403MPD2    C4 6072   3.784   0.538  13.630 -0.2328 -0.2681 -0.2407
  403MPD2    C5 6073   3.715   0.514  13.513  0.6676 -0.6605 -0.8278
  403MPD2     H 6074   3.848   0.221  13.732  0.3768 -0.7484 -0.3112
  403MPD2    H1 6075   3.786   0.640  13.668  1.8946 -1.0789  1.8383
  403MPD2    H2 6076   3.642   0.366  13.384  0.5225 -1.8375  0.4760
  403MPD2    H3 6077   3.682   0.602  13.458 -0.6883  0.6822  2.1068
  403MPD2     N 6078   3.907   0.441  13.824 -0.2397 -0.0908 -0.4770
  403MPD2    H5 6079   3.951   0.355  13.855  1.9047  1.0520 -0.2864
  403MPD2    N1 6080   3.703   0.145  13.507  0.5119  0.0347  0.0597
  403MPD2    H7 6081   3.665   0.144  13.414  1.5889  2.4449 -0.4117
  404TMC3    C1 6082   3.664   4.656  13.534  0.7970 -0.0249  1.0709
  404TMC3    C2 6083   3.633   4.578  13.637  0.2498  0.4772  0.7903
  404TMC3    C3 6084   3.622   4.446  13.616 -0.1374  0.1822 -0.5407
  404TMC3    C4 6085   3.674   4.603  13.408  0.0208 -0.0777 -0.4927
  404TMC3    C5 6086   3.642   4.467  13.388  0.7234 -0.3856  0.6999
  404TMC3    C6 6087   3.637   4.386  13.495 -0.0161 -0.1493 -0.3494
  404TMC3     C 6088   3.733   0.029  13.576 -0.1294 -0.0989 -0.8326
  404TMC3     O 6089   3.798   0.017  13.682  0.0277 -0.1772  0.0425
  404TMC3     H 6090   3.613   4.621  13.734 -0.8912 -2.2784  1.7580
  404TMC3    H1 6091   3.729   4.653  13.330  0.4446  0.0034 -0.1442
  404TMC3    H2 6092   3.615   4.280  13.491  0.0639 -0.2146  0.9451
  404TMC3    C7 6093   3.695   4.397  13.278  0.1037  0.3915 -0.0153
  404TMC3    C8 6094   3.667   4.365  13.726 -0.3703 -0.4021 -0.3666
  404TMC3    O1 6095   3.741   4.288  13.307  0.8868 -0.6260 -0.5267
  404TMC3    O2 6096   3.753   4.277  13.704 -0.1671  0.2576  0.6958
  405MPD2     C 6097   4.214   1.040  15.781 -0.3867  0.4887  0.6930
  405MPD2    C1 6098   4.247   0.948  15.683  0.2984 -0.4958  0.7388
  405MPD2    C2 6099   4.238   0.990  15.551 -0.2803 -0.7951 -0.2991
  405MPD2    C3 6100   4.205   1.118  15.518  0.1315 -0.3529 -0.2002
  405MPD2    C4 6101   4.174   1.214  15.616  0.3391 -0.4179 -0.0453
  405MPD2    C5 6102   4.175   1.168  15.749  0.0840  0.4098 -0.0104
  405MPD2     H 6103   4.254   0.919  15.471 -0.7879 -2.8543  1.4300
  405MPD2    H1 6104   4.161   1.318  15.590  0.0731 -0.4980 -0.2350
  405MPD2    H2 6105   4.215   0.999  15.881  2.7966  0.5635  0.6978
  405MPD2    H3 6106   4.161   1.235  15.832 -0.1328  1.0994 -0.6049
  405MPD2     N 6107   4.195   1.141  15.381 -0.1788 -0.9729 -0.3420
  405MPD2    H5 6108   4.238   1.070  15.323  1.5741 -0.1284 -0.0863
  405MPD2    N1 6109   4.292   0.817  15.719 -0.1476 -0.7457  0.3246
  405MPD2    H7 6110   4.269   0.782  15.811  1.7260 -2.9880 -0.0682
  406TMC3    C1 6111   4.029   1.224  14.962  0.2891 -0.3140 -0.0786
  406TMC3    C2 6112   4.040   1.091  14.930 -0.3675  0.3173 -0.3162
  406TMC3    C3 6113   4.083   1.006  15.032 -0.2599  0.1917  0.6482
  406TMC3    C4 6114   4.063   1.280  15.081  0.0635 -0.5195 -0.1522
  406TMC3    C5 6115   4.119   1.189  15.172  0.1886  0.7386 -0.0815
  406TMC3    C6 6116   4.118   1.054  15.156 -0.1552  0.0919  0.4728
  406TMC3     C 6117   3.996   1.317  14.851  0.4138  0.0516  0.6220
  406TMC3     O 6118   4.061   1.420  14.864  0.5034 -0.3968 -0.5260
  406TMC3     H 6119   4.005   1.043  14.840  0.3354  1.5262 -1.2398
  406TMC3    H1 6120   4.067   1.385  15.108 -1.5107 -0.5963  0.3667
  406TMC3    H2 6121   4.146   0.978  15.228  1.7394 -0.7162 -1.1001
  406TMC3    C7 6122   4.135   1.241  15.308 -0.0669  0.4683 -0.1909
  406TMC3    C8 6123   4.074   0.861  15.008 -0.2688 -1.6449  0.5715
  406TMC3    O1 6124   4.087   1.347  15.345  0.3970  0.2992  0.1393
  406TMC3    O2 6125   3.979   0.807  14.948  0.1635  0.1730  0.3441
  407MPD2     C 6126   1.780   2.575   9.996  0.2814  0.3883 -0.5060
  407MPD2    C1 6127   1.768   2.689   9.921  0.6603 -0.1292 -0.2803
  407MPD2    C2 6128   1.816   2.810   9.966 -0.2915 -0.2177  0.0987
  407MPD2    C3 6129   1.881   2.823  10.085 -0.3802  0.7248  0.4264
  407MPD2    C4 6130   1.890   2.710  10.166 -0.2525  0.4207  0.4719
  407MPD2    C5 6131   1.831   2.593  10.123 -0.0097 -0.1135 -0.1498
  407MPD2     H 6132   1.805   2.889   9.894 -0.0403 -0.9525 -0.7498
  407MPD2    H1 6133   1.913   2.721  10.271  2.1696 -0.7078  0.0575
  407MPD2    H2 6134   1.729   2.485   9.963  0.0265 -0.4606  2.2663
  407MPD2    H3 6135   1.849   2.510  10.190 -2.5239 -0.8966 -0.4338
  407MPD2     N 6136   1.925   2.948  10.135 -0.6340  0.3579  0.2331
  407MPD2    H5 6137   2.001   2.949  10.201  0.1446 -1.8360 -0.6233
  407MPD2    N1 6138   1.699   2.691   9.802 -0.2804  0.0493 -0.7289
  407MPD2    H7 6139   1.673   2.784   9.770 -1.9333 -0.3357 -0.5005
  408TMC3    C1 6140   1.571   2.622   9.620  0.7309  0.1288  0.2751
  408TMC3    C2 6141   1.607   2.742   9.560  0.1605 -0.3423 -0.6336
  408TMC3    C3 6142   1.537   2.784   9.450  0.2917 -0.2291  0.4810
  408TMC3    C4 6143   1.466   2.549   9.566 -0.2423  0.4835 -0.4537
  408TMC3    C5 6144   1.390   2.607   9.465  0.1917 -0.0155  0.2492
  408TMC3    C6 6145   1.422   2.729   9.405 -1.0145 -0.9345 -0.2868
  408TMC3     C 6146   1.644   2.581   9.737  0.0008  0.5210  0.1094
  408TMC3     O 6147   1.629   2.459   9.760 -0.6095 -0.4124  0.0364
  408TMC3     H 6148   1.692   2.798   9.595 -0.4420  0.5485 -0.6079
  408TMC3    H1 6149   1.445   2.454   9.614 -1.0768  0.7093 -0.3804
  408TMC3    H2 6150   1.361   2.777   9.330  0.4756  1.1781 -0.1459
  408TMC3    C7 6151   1.267   2.539   9.430 -0.3678 -0.3239 -0.2682
  408TMC3    C8 6152   1.568   2.916   9.400  0.5508 -0.5906  0.2894
  408TMC3    O1 6153   1.217   2.476   9.522 -0.4139  0.0791 -0.2693
  408TMC3    O2 6154   1.476   2.994   9.371  0.1245 -0.2604  0.2931
  409MPD2     C 6155   1.146   2.671  16.416  0.8159 -0.8951 -0.3698
  409MPD2    C1 6156   1.141   2.667  16.555 -0.3642 -0.3408 -0.1384
  409MPD2    C2 6157   1.197   2.779  16.623  0.0998  0.1312  0.0938
  409MPD2    C3 6158   1.246   2.890  16.557  0.0073 -0.1341 -0.3291
  409MPD2    C4 6159   1.250   2.892  16.418 -0.4652 -0.4861 -0.2177
  409MPD2    C5 6160   1.202   2.782  16.353 -0.7730  0.4505 -0.4604
  409MPD2     H 6161   1.200   2.785  16.732  0.9374  2.2156 -0.0441
  409MPD2    H1 6162   1.284   2.976  16.359  1.0388  0.0664  1.4193
  409MPD2    H2 6163   1.093   2.607  16.347  0.7114 -0.4061 -0.7420
  409MPD2    H3 6164   1.204   2.801  16.246 -0.8029  1.0171 -0.3575
  409MPD2     N 6165   1.299   3.004  16.627  0.3330  0.1966 -0.2951
  409MPD2    H5 6166   1.341   3.079  16.573  0.0969 -0.6560 -1.6590
  409MPD2    N1 6167   1.075   2.568  16.628  0.5164  0.4077  0.3962
  409MPD2    H7 6168   1.079   2.576  16.729  0.8186 -0.7050  0.4713
  410TMC3    C1 6169   1.418   3.127  16.797  0.0032  1.2608  0.1678
  410TMC3    C2 6170   1.456   3.136  16.932  0.4644 -0.4387 -0.0420
  410TMC3    C3 6171   1.518   3.255  16.967 -1.1485 -0.4921  0.0231
  410TMC3    C4 6172   1.418   3.232  16.719 -0.1057  0.5758  0.5669
  410TMC3    C5 6173   1.461   3.353  16.766  0.2121 -0.2946  0.3476
  410TMC3    C6 6174   1.526   3.363  16.883 -0.0471  0.1404  0.5326
  410TMC3     C 6175   1.334   3.014  16.761 -0.2593 -0.3122  0.5121
  410TMC3     O 6176   1.289   2.940  16.849 -0.0900 -0.3724 -0.2870
  410TMC3     H 6177   1.451   3.053  17.002  0.4323 -0.5459 -0.1711
  410TMC3    H1 6178   1.382   3.236  16.617  0.1238 -1.0086  0.4375
  410TMC3    H2 6179   1.554   3.463  16.914  2.1958  0.5323 -2.8055
  410TMC3    C7 6180   1.474   3.454  16.663  0.1089 -0.2037 -0.4354
  410TMC3    C8 6181   1.599   3.265  17.090 -0.7218  0.3163  0.4022
  410TMC3    O1 6182   1.476   3.417  16.546 -0.1468  0.7065 -0.0523
  410TMC3    O2 6183   1.615   3.373  17.149 -0.2381  0.2732  0.1868
  411MPD2     C 6184   1.608   3.945  14.635 -0.1487  0.1775 -0.2017
  411MPD2    C1 6185   1.473   3.906  14.661 -0.2579 -1.1523 -0.1112
  411MPD2    C2 6186   1.434   3.780  14.622  0.1206 -0.2503  0.2971
  411MPD2    C3 6187   1.506   3.697  14.536 -0.0769  0.2808  0.2745
  411MPD2    C4 6188   1.633   3.737  14.514  0.3985 -0.2471  0.4946
  411MPD2    C5 6189   1.689   3.860  14.561 -0.0079 -0.2808  0.1228
  411MPD2     H 6190   1.330   3.761  14.649  0.2388 -0.4924  0.5817
  411MPD2    H1 6191   1.695   3.677  14.447  0.9562 -0.2762  1.0361
  411MPD2    H2 6192   1.654   4.041  14.660 -0.6912  0.5819 -0.7491
  411MPD2    H3 6193   1.795   3.880  14.558 -0.4198  1.8974 -0.3341
  411MPD2     N 6194   1.459   3.582  14.472 -0.1088  0.8747  0.2928
  411MPD2    H5 6195   1.514   3.544  14.395  0.6918  0.8959  0.8510
  411MPD2    N1 6196   1.386   3.982  14.742  0.4065  0.6625 -0.2516
  411MPD2    H7 6197   1.294   3.944  14.759  1.5857 -2.1259 -0.1098
  412TMC3    C1 6198   1.299   3.417  14.421 -0.3666 -1.4383 -0.3285
  412TMC3    C2 6199   1.241   3.303  14.464  0.1042  0.7197  0.7495
  412TMC3    C3 6200   1.192   3.213  14.370  0.8891 -0.0065 -0.1986
  412TMC3    C4 6201   1.339   3.433  14.286 -0.6733 -0.3538  0.0769
  412TMC3    C5 6202   1.299   3.334  14.199  0.1479 -0.4051 -0.2523
  412TMC3    C6 6203   1.222   3.225  14.236 -0.7299  1.1464  0.6204
  412TMC3     C 6204   1.346   3.515  14.515 -1.1254  0.6933  0.5923
  412TMC3     O 6205   1.305   3.510  14.629  0.0039  0.3410  0.0174
  412TMC3     H 6206   1.204   3.313  14.566  0.1527 -0.1257  0.8484
  412TMC3    H1 6207   1.381   3.526  14.248  3.5392 -2.0814  0.4237
  412TMC3    H2 6208   1.190   3.155  14.160 -1.3999  0.3166  1.6676
  412TMC3    C7 6209   1.241   3.385  14.076 -0.1658 -0.6908 -0.1321
  412TMC3    C8 6210   1.049   3.180  14.387 -0.0438 -0.4840  0.0748
  412TMC3    O1 6211   1.124   3.350  14.058  0.3014 -0.4086  0.0791
  412TMC3    O2 6212   1.013   3.155  14.500 -0.0906 -0.2482  0.0595
  413MPD2     C 6213   3.546   1.819  15.362  0.0620  0.3711 -0.6237
  413MPD2    C1 6214   3.422   1.792  15.308  0.0073  0.2927 -0.7154
  413MPD2    C2 6215   3.388   1.657  15.308 -0.0091 -0.9587  0.3145
  413MPD2    C3 6216   3.469   1.549  15.346 -0.5011  0.3077  0.0856
  413MPD2    C4 6217   3.590   1.583  15.397 -0.0490 -0.3960  0.1273
  413MPD2    C5 6218   3.617   1.717  15.407 -0.2202  0.3935  0.0919
  413MPD2     H 6219   3.292   1.635  15.263 -0.2089 -1.6723  1.1000
  413MPD2    H1 6220   3.650   1.510  15.451 -0.3780 -0.2818  0.6475
  413MPD2    H2 6221   3.571   1.923  15.373 -0.2195  0.6849 -2.8621
  413MPD2    H3 6222   3.708   1.745  15.459 -0.7279 -1.8617  2.1961
  413MPD2     N 6223   3.423   1.419  15.319  0.2254  0.1219 -1.1928
  413MPD2    H5 6224   3.339   1.409  15.263  1.1696 -0.5066 -2.5064
  413MPD2    N1 6225   3.351   1.888  15.234 -0.1518  0.1693  0.4306
  413MPD2    H7 6226   3.410   1.967  15.212  2.3226 -1.5113  0.9230
  414TMC3    C1 6227   3.442   1.197  15.261  0.3259 -0.4463 -0.0613
  414TMC3    C2 6228   3.531   1.097  15.272  0.0124  0.2036 -0.2862
  414TMC3    C3 6229   3.558   1.016  15.165 -0.1251 -0.3998  0.1294
  414TMC3    C4 6230   3.387   1.223  15.137 -0.2703  0.0742  0.1037
  414TMC3    C5 6231   3.422   1.149  15.032  1.1372  0.1991 -0.1115
  414TMC3    C6 6232   3.509   1.049  15.044  0.2809 -0.5408 -0.0272
  414TMC3     C 6233   3.490   1.301  15.345 -0.1209 -0.0955  0.5246
  414TMC3     O 6234   3.596   1.280  15.401 -0.5552 -0.0716 -0.6182
  414TMC3     H 6235   3.562   1.066  15.371  0.5418 -0.9940 -0.8198
  414TMC3    H1 6236   3.304   1.292  15.128  1.3180  1.8578 -0.7645
  414TMC3    H2 6237   3.537   0.993  14.956 -0.6998 -2.1871  0.7135
  414TMC3    C7 6238   3.367   1.175  14.898 -0.4486  0.3271 -0.6715
  414TMC3    C8 6239   3.637   0.893  15.170 -0.4980  0.8519 -0.7884
  414TMC3    O1 6240   3.356   1.072  14.827  0.1408  0.0788 -0.3497
  414TMC3    O2 6241   3.603   0.809  15.089  0.2308 -0.2246  0.1996
  415TMC3    C1 6242   3.768   4.573  10.487 -1.0057 -0.2159 -0.4915
  415TMC3    C2 6243   3.800   4.688  10.555  0.8313  0.1267 -0.8759
  415TMC3    C3 6244   3.838   0.057  10.475 -0.1162  0.4193  0.2667
  415TMC3    C4 6245   3.771   4.569  10.348  0.2883 -0.6552 -0.2629
  415TMC3    C5 6246   3.812   4.679  10.277  0.2439  0.6299  0.6346
  415TMC3    C6 6247   3.852   0.052  10.336  0.1377  0.3822 -0.0136
  415TMC3     C 6248   3.696   4.463  10.555 -0.1490  0.5558 -0.0036
  415TMC3     O 6249   3.641   4.387  10.481  0.3520  0.4018 -0.2671
  415TMC3     H 6250   3.790   4.693  10.663 -1.2015  0.2643 -1.0675
  415TMC3    H1 6251   3.750   4.474  10.300 -1.8627 -1.2728  1.8618
  415TMC3    H2 6252   3.887   0.136  10.277  1.7723  1.5216  2.5730
  415TMC3    C7 6253   3.803   4.681  10.130  0.0558 -0.2381 -0.6433
  415TMC3    C8 6254   3.900   0.167  10.553  0.0646  0.1484 -0.6027
  415TMC3    O1 6255   3.872   0.020  10.063  0.1014  0.3124  0.2080
  415TMC3    O2 6256   3.882   0.181  10.671  0.2799  0.9622 -0.1262
  416MPD2     C 6257   1.061   3.607  11.221 -0.0211  0.3615 -0.0166
  416MPD2    C1 6258   0.957   3.534  11.261  0.3046 -0.9998  0.3288
  416MPD2    C2 6259   0.934   3.410  11.198  0.3422  0.5783  0.5600
  416MPD2    C3 6260   0.997   3.368  11.090 -0.1277  1.1211 -0.6920
  416MPD2    C4 6261   1.105   3.442  11.055 -0.0627  0.6121 -0.4703
  416MPD2    C5 6262   1.140   3.549  11.128 -0.0656 -1.0330  0.1538
  416MPD2     H 6263   0.857   3.346  11.242 -2.9555  2.1977 -2.8768
  416MPD2    H1 6264   1.167   3.408  10.973  0.1756 -1.7822  0.6911
  416MPD2    H2 6265   1.083   3.707  11.256 -2.0615  0.6567  0.4082
  416MPD2    H3 6266   1.238   3.586  11.098 -0.9365  1.1317 -0.0594
  416MPD2     N 6267   0.964   3.252  11.026  0.5894 -0.2297  0.1996
  416MPD2    H5 6268   1.034   3.220  10.959 -1.1104  0.2748 -1.7874
  416MPD2    N1 6269   0.880   3.582  11.371 -0.3707 -0.5302 -0.2658
  416MPD2    H7 6270   0.904   3.675  11.405  1.2380 -1.0985  0.1325
  417TMC3    C1 6271   0.705   3.611  11.524  0.2604  0.0791  0.5435
  417TMC3    C2 6272   0.639   3.559  11.632  0.3673  0.4507 -0.9455
  417TMC3    C3 6273   0.535   3.632  11.684  0.0538  0.1340  0.0658
  417TMC3    C4 6274   0.684   3.735  11.465 -0.9362 -0.1881  0.2107
  417TMC3    C5 6275   0.583   3.804  11.524 -0.1412  0.2981 -0.4270
  417TMC3    C6 6276   0.510   3.756  11.632 -0.5133  0.0431 -0.3562
  417TMC3     C 6277   0.771   3.522  11.431 -0.4977  0.2767  0.3671
  417TMC3     O 6278   0.729   3.406  11.420  0.3813  0.2781  0.3031
  417TMC3     H 6279   0.670   3.462  11.668 -1.1244  0.1844 -0.3562
  417TMC3    H1 6280   0.734   3.773  11.377  1.1247 -0.1185  1.4215
  417TMC3    H2 6281   0.426   3.810  11.674  1.5572  0.0442  3.7781
  417TMC3    C7 6282   0.537   3.917  11.449  0.0615  0.0482 -0.4412
  417TMC3    C8 6283   0.469   3.588  11.811 -0.1261 -0.2430  0.5481
  417TMC3    O1 6284   0.628   3.977  11.393 -0.1160 -0.3748 -0.6484
  417TMC3    O2 6285   0.366   3.640  11.854  0.0216 -0.6278  0.7440
  418TMC3    C1 6286   4.182   1.031   0.155  0.7203 -0.4145 -0.2426
  418TMC3    C2 6287   4.057   0.988   0.146 -0.3442  0.0375 -0.1394
  418TMC3    C3 6288   4.025   0.865   0.196  0.2934 -0.3430 -0.0198
  418TMC3    C4 6289   4.275   0.958   0.216  0.1502 -0.7974  0.1036
  418TMC3    C5 6290   4.240   0.837   0.268  0.4291  0.7666 -0.3040
  418TMC3    C6 6291   4.120   0.789   0.262 -0.4002 -0.3334  0.1719
  418TMC3     C 6292   4.220   1.114   0.039 -0.0570 -0.6412 -0.0042
  418TMC3     O 6293   4.148   1.205   0.013 -0.3434  0.2874  0.3482
  418TMC3     H 6294   3.982   1.055   0.107  0.1506  0.8778  0.3352
  418TMC3    H1 6295   4.377   0.991   0.227 -0.4508  1.1318 -0.0346
  418TMC3    H2 6296   4.083   0.710   0.328 -3.3539  1.4378  0.6130
  418TMC3    C7 6297   4.339   0.779   0.359 -0.2448 -0.2905  0.6788
  418TMC3    C8 6298   3.878   0.841   0.212 -0.1404  0.3546 -0.0302
  418TMC3    O1 6299   4.428   0.855   0.398 -0.0583 -0.8837 -0.0531
  418TMC3    O2 6300   3.808   0.942   0.220  0.2112  0.2028  0.3502
  419MPD2     C 6301   2.995   3.741  12.200 -0.4853  0.5091 -0.0136
  419MPD2    C1 6302   2.922   3.858  12.223  0.1932  0.1839 -0.1990
  419MPD2    C2 6303   2.902   3.904  12.353 -0.9297  0.3719  0.5640
  419MPD2    C3 6304   2.950   3.840  12.463  0.8549 -0.1123  0.5766
  419MPD2    C4 6305   3.033   3.737  12.441  0.2748  0.7353 -0.3135
  419MPD2    C5 6306   3.062   3.692  12.310  0.0371  0.8560  0.6573
  419MPD2     H 6307   2.853   4.000  12.361 -0.6861  0.7242 -2.3698
  419MPD2    H1 6308   3.071   3.674  12.520 -2.2139 -0.8572 -0.4013
  419MPD2    H2 6309   3.012   3.704  12.100  3.2884  3.0832 -0.3401
  419MPD2    H3 6310   3.126   3.606  12.298 -1.9875 -0.5592  0.0393
  419MPD2     N 6311   2.912   3.890  12.584  0.2349  0.0923  0.1395
  419MPD2    H5 6312   2.867   3.981  12.580 -0.0163 -0.0244  0.2729
  419MPD2    N1 6313   2.872   3.945  12.120  0.4242 -0.5582 -0.2842
  419MPD2    H7 6314   2.832   4.032  12.153  2.1407 -0.7642  2.3026
  420TMC3    C1 6315   2.867   3.914  12.810 -0.5506 -0.6565  0.1197
  420TMC3    C2 6316   2.770   3.997  12.776  0.7841 -0.0359 -0.6531
  420TMC3    C3 6317   2.697   4.060  12.865 -0.3163  0.0653  0.2766
  420TMC3    C4 6318   2.907   3.896  12.939  0.1553  0.6203 -0.5666
  420TMC3    C5 6319   2.845   3.975  13.028  0.4416  0.2542  0.6155
  420TMC3    C6 6320   2.727   4.041  12.996 -0.2963 -0.4353 -0.3610
  420TMC3     C 6321   2.938   3.838  12.711 -0.3871 -0.7621 -0.5641
  420TMC3     O 6322   2.977   3.723  12.751  0.2132 -0.2373 -0.3319
  420TMC3     H 6323   2.736   4.010  12.674 -0.6401  0.9684 -0.0446
  420TMC3    H1 6324   2.999   3.842  12.958 -0.0229  0.0017 -1.5228
  420TMC3    H2 6325   2.685   4.095  13.080  1.5535 -0.4499  0.5732
  420TMC3    C7 6326   2.876   3.952  13.171  0.3506 -0.4302 -0.1094
  420TMC3    C8 6327   2.568   4.112  12.826  0.0448 -0.2920  0.3141
  420TMC3    O1 6328   2.921   3.843  13.208 -0.0538  0.3357 -0.3187
  420TMC3    O2 6329   2.537   4.112  12.706 -0.0121 -0.3211 -0.5227
  421TMC3    C1 6330   4.065   0.566  13.963  0.7587  0.4155  0.2225
  421TMC3    C2 6331   4.085   0.674  14.045 -0.2169 -0.6388 -0.3859
  421TMC3    C3 6332   4.215   0.696  14.087  0.1242  0.3147  0.3544
  421TMC3    C4 6333   4.167   0.485  13.925 -0.2756  0.3024  0.6349
  421TMC3    C5 6334   4.290   0.513  13.977  0.0803  0.2668  0.2425
  421TMC3    C6 6335   4.315   0.620  14.053  0.8298 -0.0108  0.0109
  421TMC3     C 6336   3.943   0.564  13.882  0.1914 -0.4125  0.1660
  421TMC3     O 6337   3.863   0.655  13.903  0.2870  0.3916 -0.5028
  421TMC3     H 6338   4.007   0.746  14.066 -0.7459 -1.3671  0.1288
  421TMC3    H1 6339   4.152   0.401  13.859  0.4876  0.4435  0.2833
  421TMC3    H2 6340   4.412   0.629  14.101  1.2599 -0.3975 -0.7888
  421TMC3    C7 6341   4.383   0.406  13.989 -0.1073  0.0496 -0.1133
  421TMC3    C8 6342   4.249   0.814  14.165  0.1561  0.9814  0.5189
  421TMC3    O1 6343   4.497   0.436  14.010  0.6669  0.1692 -0.0686
  421TMC3    O2 6344   4.360   0.863  14.156 -0.2186 -1.1140  0.6635
  422TMC3    C1 6345   1.882   1.587  12.657  0.1079 -0.0946 -0.0368
  422TMC3    C2 6346   1.932   1.698  12.718  0.1168 -0.5081  0.0043
  422TMC3    C3 6347   1.847   1.788  12.781  0.2543 -0.0845 -0.9499
  422TMC3    C4 6348   1.751   1.555  12.676  0.0799 -0.1087 -0.1647
  422TMC3    C5 6349   1.675   1.639  12.747  0.8414 -0.2438 -0.7180
  422TMC3    C6 6350   1.717   1.760  12.789 -0.1613  0.3898  0.3387
  422TMC3     C 6351   1.955   1.559  12.541  0.0732  0.1068  0.1682
  422TMC3     O 6352   2.010   1.652  12.482 -0.4163 -0.2160  0.3169
  422TMC3     H 6353   2.039   1.699  12.735 -0.0007  1.0848  0.7033
  422TMC3    H1 6354   1.704   1.467  12.634 -0.6701  1.0342 -1.7215
  422TMC3    H2 6355   1.650   1.843  12.812  1.0539  0.7826  2.4939
  422TMC3    C7 6356   1.548   1.642  12.681 -0.4456  1.0106  0.1949
  422TMC3    C8 6357   1.881   1.924  12.741  0.3451  0.1974 -0.4015
  422TMC3    O1 6358   1.548   1.615  12.562  0.1308  0.0797  0.1275
  422TMC3    O2 6359   1.822   2.019  12.791  1.0577 -0.7056 -0.4576
  423MPD2     C 6360   2.377   2.098   0.528 -0.9934 -0.0066  0.3768
  423MPD2    C1 6361   2.465   2.121   0.431  0.4173  0.5562  0.2228
  423MPD2    C2 6362   2.453   2.060   0.308  0.3909 -0.5529  0.1614
  423MPD2    C3 6363   2.355   1.970   0.282 -0.1626  0.6366 -0.7326
  423MPD2    C4 6364   2.259   1.953   0.383  0.1530 -0.6074 -0.5031
  423MPD2    C5 6365   2.273   2.014   0.503  0.6734 -0.1108 -0.5954
  423MPD2     H 6366   2.518   2.092   0.228 -0.2014 -1.6587 -0.7576
  423MPD2    H1 6367   2.168   1.900   0.357  0.2144 -1.2973  0.6930
  423MPD2    H2 6368   2.374   2.152   0.622 -0.0529 -1.1580  1.0715
  423MPD2    H3 6369   2.189   2.009   0.571  1.6396 -0.7358  0.5610
  423MPD2     N 6370   2.344   1.907   0.162 -0.4502 -0.3840 -0.3903
  423MPD2    H5 6371   2.289   1.822   0.149  2.3394 -2.2858  0.0895
  423MPD2    N1 6372   2.578   2.203   0.449 -0.3215  0.5019  0.2912
  423MPD2    H7 6373   2.638   2.203   0.368 -0.4023  1.9462  0.2204
  424TMC3    C1 6374   2.718   2.370   0.561 -0.2137  0.2077 -0.7588
  424TMC3    C2 6375   2.838   2.335   0.500  0.0312  0.3034  0.0028
  424TMC3    C3 6376   2.941   2.429   0.503  1.7102 -0.1526  0.1313
  424TMC3    C4 6377   2.702   2.495   0.622  0.4589  1.0211  0.0469
  424TMC3    C5 6378   2.815   2.573   0.635 -0.2459 -0.3725  0.4352
  424TMC3    C6 6379   2.927   2.552   0.564  0.4882 -0.2734  0.0496
  424TMC3     C 6380   2.598   2.283   0.559 -0.3749  0.6427 -0.4442
  424TMC3     O 6381   2.529   2.308   0.656  0.3541 -0.0300 -0.0283
  424TMC3     H 6382   2.851   2.239   0.453  0.8621  1.0278 -1.2653
  424TMC3    H1 6383   2.603   2.526   0.655  0.6407  1.0026  0.6055
  424TMC3    H2 6384   3.005   2.627   0.553 -0.9344  1.3360  1.0765
  424TMC3    C7 6385   2.798   2.710   0.675 -0.0292  0.4420  0.0703
  424TMC3    C8 6386   3.068   2.386   0.462  0.5383 -0.0467 -0.5129
  424TMC3    O1 6387   2.838   2.795   0.596 -0.2108  0.5132  0.0120
  424TMC3    O2 6388   3.060   2.315   0.360  0.4293 -0.3377  0.6117
  425MPD2     C 6389   1.578   1.902  17.321  0.0542  0.3912 -0.8439
  425MPD2    C1 6390   1.577   1.792  17.398 -0.3485  0.4810 -0.5041
  425MPD2    C2 6391   1.465   1.764  17.478 -0.7385  0.0883  0.2516
  425MPD2    C3 6392   1.364   1.858  17.491  0.1607 -0.0093 -0.2535
  425MPD2    C4 6393   1.383   1.978  17.432  0.5189  0.3723  0.7608
  425MPD2    C5 6394   1.488   1.998  17.341 -0.0373 -0.7840  0.1871
  425MPD2     H 6395   1.468   1.664  17.519  0.2561 -0.0688 -0.2006
  425MPD2    H1 6396   1.307   2.054  17.445  2.4378  2.1332  1.4991
  425MPD2    H2 6397   1.655   1.909  17.245  1.9377 -0.5813  0.9668
  425MPD2    H3 6398   1.492   2.093  17.289 -0.0127 -1.9627 -2.0078
  425MPD2     N 6399   1.256   1.831  17.579 -0.7094 -0.3273 -0.5067
  425MPD2    H5 6400   1.251   1.733  17.604 -0.9190  0.5326  2.7517
  425MPD2    N1 6401   1.668   1.685  17.377  0.0844  0.2905  0.1823
  425MPD2    H7 6402   1.657   1.608  17.442 -2.3484  1.8354  1.6201
  426TMC3    C1 6403   1.803   1.530  17.279  0.1289 -1.1523 -0.3990
  426TMC3    C2 6404   1.818   1.460  17.156  0.3895  0.2028 -0.2690
  426TMC3    C3 6405   1.860   1.327  17.168 -0.6256 -0.7381  0.5194
  426TMC3    C4 6406   1.845   1.478  17.403 -0.8431  0.7034 -0.7369
  426TMC3    C5 6407   1.886   1.345  17.400 -0.2666 -0.7497  0.0155
  426TMC3    C6 6408   1.896   1.277  17.285 -0.5278 -0.1696 -0.0585
  426TMC3     C 6409   1.741   1.657  17.265  0.5397  0.3824  0.5023
  426TMC3     O 6410   1.765   1.728  17.168 -0.6489  0.6685 -0.7508
  426TMC3     H 6411   1.798   1.512  17.063  0.5449 -1.7335 -1.3897
  426TMC3    H1 6412   1.841   1.528  17.499 -4.0676 -1.2740  0.1422
  426TMC3    H2 6413   1.922   1.172  17.296  0.5000  0.3062  2.1627
  426TMC3    C7 6414   1.948   1.280  17.525  0.3121  0.4171  0.3726
  426TMC3    C8 6415   1.840   1.235  17.061 -0.2881 -0.2924 -0.3670
  426TMC3    O1 6416   2.034   1.198  17.501 -0.6468 -0.1186  0.0493
  426TMC3    O2 6417   1.903   1.129  17.075  0.0642  0.4210  1.1714
  427MPD2     C 6418   0.706   3.760  14.699  0.0019  0.1606  0.2988
  427MPD2    C1 6419   0.634   3.705  14.801  0.3654  0.1061 -0.1528
  427MPD2    C2 6420   0.497   3.728  14.811 -0.0495  0.1422  0.7140
  427MPD2    C3 6421   0.439   3.814  14.726  0.4974  0.1317 -0.0019
  427MPD2    C4 6422   0.517   3.883  14.636 -0.4622  1.0214 -0.2408
  427MPD2    C5 6423   0.647   3.853  14.620  0.4379 -0.4934 -0.2765
  427MPD2     H 6424   0.444   3.671  14.887  2.6690 -2.5939  0.5177
  427MPD2    H1 6425   0.481   3.959  14.567 -2.3680  0.0694 -0.2786
  427MPD2    H2 6426   0.812   3.742  14.684 -0.4185 -1.5852 -0.5486
  427MPD2    H3 6427   0.712   3.898  14.545  2.1251 -1.4460  0.6165
  427MPD2     N 6428   0.303   3.854  14.738 -0.0133 -0.1201  0.2861
  427MPD2    H5 6429   0.268   3.931  14.682  0.1511 -0.0798  0.2382
  427MPD2    N1 6430   0.698   3.625  14.896 -0.1099 -0.2443 -0.3546
  427MPD2    H7 6431   0.629   3.572  14.949  0.3033  1.0574  1.4714
  428TMC3    C1 6432   0.868   3.569  15.048  0.3085  0.3023 -0.5414
  428TMC3    C2 6433   0.804   3.464  15.099  0.5218 -0.3102 -0.6901
  428TMC3    C3 6434   0.852   3.408  15.218  0.6182 -0.2266 -0.3762
  428TMC3    C4 6435   0.972   3.628  15.117 -0.3536  0.4229  0.2373
  428TMC3    C5 6436   1.022   3.568  15.230  0.6105  0.5711 -0.3501
  428TMC3    C6 6437   0.969   3.453  15.278 -0.8474 -0.3390  0.9154
  428TMC3     C 6438   0.830   3.641  14.928  0.2365 -0.4012  0.4240
  428TMC3     O 6439   0.919   3.716  14.892 -0.3358  0.2412  0.0853
  428TMC3     H 6440   0.719   3.411  15.057  2.6335 -1.8023 -3.0779
  428TMC3    H1 6441   1.003   3.729  15.091  1.2003  0.1546  1.0391
  428TMC3    H2 6442   1.018   3.412  15.365  1.0040 -1.9721 -0.8718
  428TMC3    C7 6443   1.074   3.658  15.327  1.0308  0.6741  0.5056
  428TMC3    C8 6444   0.812   3.275  15.261  0.7338 -0.6329 -0.4643
  428TMC3    O1 6445   1.031   3.643  15.443  0.1338  0.1755 -0.5161
  428TMC3    O2 6446   0.773   3.193  15.176  0.2838 -0.8766 -0.3385
  429MPD2     C 6447   1.232   3.297   0.121 -0.2784  0.2130  0.1010
  429MPD2    C1 6448   1.351   3.270   0.055 -0.9362  0.1349 -0.4746
  429MPD2    C2 6449   1.423   3.383   0.018 -0.1018 -0.5419  0.2126
  429MPD2    C3 6450   1.379   3.511   0.033 -0.4908  0.2870  0.3188
  429MPD2    C4 6451   1.257   3.531   0.084  0.2807 -0.2832 -0.1300
  429MPD2    C5 6452   1.189   3.425   0.137  0.4474 -0.4982 -0.2244
  429MPD2     H 6453   1.523   3.370  17.739 -0.2661 -0.2944 -0.2841
  429MPD2    H1 6454   1.203   3.620   0.115 -0.7808 -0.4922 -1.3749
  429MPD2    H2 6455   1.165   3.218   0.155 -0.1215 -0.8109 -1.9972
  429MPD2    H3 6456   1.088   3.438   0.174  0.6117 -1.7821  0.6893
  429MPD2     N 6457   1.472   3.618   0.012  0.1769 -0.2996  0.1946
  429MPD2    H5 6458   1.567   3.585  17.758  0.2861 -0.2294  0.7694
  429MPD2    N1 6459   1.390   3.146   0.004  0.5189  0.1191  0.2884
  429MPD2    H7 6460   1.466   3.150  17.696 -0.5322  0.0816 -0.8764
  430TMC3    C1 6461   1.538   3.832  17.703 -0.2597  0.3608 -0.4168
  430TMC3    C2 6462   1.503   3.967  17.676  0.7098  0.2145 -0.1510
  430TMC3    C3 6463   1.582   4.032  17.587 -0.2743 -0.3223 -0.0708
  430TMC3    C4 6464   1.635   3.768  17.622 -0.5264 -1.1239 -0.8398
  430TMC3    C5 6465   1.703   3.846  17.530  0.2158 -0.0008  0.5173
  430TMC3    C6 6466   1.684   3.977  17.512 -0.1104  0.1490 -0.0312
  430TMC3     C 6467   1.435   3.750   0.005 -0.4550 -0.0085 -0.5113
  430TMC3     O 6468   1.319   3.797   0.018 -0.0205 -0.3433  1.1336
  430TMC3     H 6469   1.424   4.018  17.730  1.5968 -0.3843  1.7330
  430TMC3    H1 6470   1.632   3.660  17.610 -0.9432 -1.4788  2.3362
  430TMC3    H2 6471   1.736   4.037  17.438 -0.5447 -0.9092 -1.1890
  430TMC3    C7 6472   1.723   3.763  17.408 -0.1134 -0.0709 -0.2477
  430TMC3    C8 6473   1.507   4.115  17.495 -0.1192  0.3254  0.0694
  430TMC3    O1 6474   1.757   3.648  17.421  0.3620  0.2971  0.1704
  430TMC3    O2 6475   1.530   4.084  17.379 -0.4756  0.1532  0.3069
  431MPD2     C 6476   2.906   4.581  12.481 -0.4548 -0.3839  0.5204
  431MPD2    C1 6477   2.996   4.576  12.372 -0.6370  0.1486 -0.1532
  431MPD2    C2 6478   2.947   4.515  12.253 -0.1116 -0.3635  0.2783
  431MPD2    C3 6479   2.818   4.469  12.236  0.8531  0.6153  0.0910
  431MPD2    C4 6480   2.741   4.461  12.350  0.2036  0.6829 -0.9479
  431MPD2    C5 6481   2.785   4.521  12.465  0.2363  0.3322 -0.0383
  431MPD2     H 6482   3.011   4.510  12.166  0.2737 -1.0284  0.6002
  431MPD2    H1 6483   2.646   4.409  12.348 -0.8745  2.6181  0.5672
  431MPD2    H2 6484   2.927   4.620  12.581  1.6647  0.1966 -0.1552
  431MPD2    H3 6485   2.715   4.525  12.548 -0.2607  0.4169 -0.4643
  431MPD2     N 6486   2.776   4.403  12.122 -0.2251  0.6226  0.8398
  431MPD2    H5 6487   2.691   4.350  12.134  0.1545  0.5419  3.1706
  431MPD2    N1 6488   3.132   4.625  12.394  0.3942  0.1442 -0.4799
  431MPD2    H7 6489   3.147   4.684  12.475 -1.9427 -0.9834  0.7848
  432TMC3    C1 6490   2.818   4.284  11.913  0.1118 -0.6200 -0.0284
  432TMC3    C2 6491   2.854   4.293  11.784 -0.4640  0.2508  0.2015
  432TMC3    C3 6492   2.886   4.172  11.722 -0.3335  0.1772 -0.2288
  432TMC3    C4 6493   2.800   4.164  11.980  0.2317 -0.1871 -0.1670
  432TMC3    C5 6494   2.837   4.051  11.910  0.5762  0.8824 -0.3274
  432TMC3    C6 6495   2.874   4.053  11.777 -0.2102  0.0027  0.5248
  432TMC3     C 6496   2.836   4.403  11.996  0.2195 -0.5424  0.2050
  432TMC3     O 6497   2.922   4.479  11.948  0.4756 -0.5612  0.1075
  432TMC3     H 6498   2.870   4.390  11.739 -1.7419 -0.2647 -1.3845
  432TMC3    H1 6499   2.764   4.154  12.082  0.0068 -1.1601 -0.3475
  432TMC3    H2 6500   2.909   3.964  11.727  3.3780  2.1397 -0.7993
  432TMC3    C7 6501   2.881   3.930  11.985  0.8292  0.0392 -0.0570
  432TMC3    C8 6502   3.014   4.192  11.664 -0.2850 -0.0674  0.6017
  432TMC3    O1 6503   2.910   3.834  11.915 -0.1454 -0.0705 -0.1321
  432TMC3    O2 6504   3.032   4.279  11.580  0.3649  0.1943 -0.4856
  433MPD2     C 6505   1.887   2.830  10.562 -0.7809  0.0615  0.0400
  433MPD2    C1 6506   1.916   2.733  10.656  0.1043 -0.1682  0.6045
  433MPD2    C2 6507   1.858   2.754  10.776 -0.5939  0.1627  0.4469
  433MPD2    C3 6508   1.808   2.870  10.824 -0.0694  0.1822  0.6346
  433MPD2    C4 6509   1.791   2.974  10.734  0.3482 -0.1821 -0.9761
  433MPD2    C5 6510   1.821   2.944  10.603 -0.4028 -0.1589  0.4223
  433MPD2     H 6511   1.880   2.678  10.850 -0.4616 -1.1446 -0.9423
  433MPD2    H1 6512   1.767   3.073  10.772 -1.8683 -1.1731  0.1997
  433MPD2    H2 6513   1.920   2.833  10.458  0.4680  3.9250  0.5665
  433MPD2    H3 6514   1.801   3.021  10.529  1.7712  1.4288  1.4895
  433MPD2     N 6515   1.792   2.867  10.966  0.1718  0.1384 -0.1568
  433MPD2    H5 6516   1.817   2.778  11.006  1.3112  1.0722  1.1912
  433MPD2    N1 6517   1.978   2.611  10.623  0.5366 -0.7041 -0.0542
  433MPD2    H7 6518   1.965   2.535  10.690 -3.7733  1.5780  1.6602
  434TMC3    C1 6519   2.118   2.467  10.509  0.0835  0.0714  0.4867
  434TMC3    C2 6520   2.249   2.446  10.538 -0.0303  0.3055 -0.6269
  434TMC3    C3 6521   2.276   2.310  10.553 -0.3178 -0.1215  0.0348
  434TMC3    C4 6522   2.019   2.377  10.485 -0.1323 -0.3293 -0.3881
  434TMC3    C5 6523   2.054   2.251  10.503 -0.3382 -0.6129  0.0410
  434TMC3    C6 6524   2.180   2.215  10.544  0.2554 -0.0746  0.6429
  434TMC3     C 6525   2.071   2.602  10.524 -0.0328 -0.3346 -0.3069
  434TMC3     O 6526   2.114   2.689  10.447  0.3048 -0.7219  0.0637
  434TMC3     H 6527   2.316   2.528  10.560  0.4759 -0.7973  2.0146
  434TMC3    H1 6528   1.916   2.408  10.473  0.2012  0.6685 -0.6187
  434TMC3    H2 6529   2.193   2.108  10.558  0.0558 -0.4040 -1.6418
  434TMC3    C7 6530   1.958   2.149  10.471  0.1098  0.0266  0.1217
  434TMC3    C8 6531   2.408   2.284  10.628 -0.7405  1.1502 -0.1469
  434TMC3    O1 6532   1.860   2.188  10.408 -0.5722 -0.1614  0.0518
  434TMC3    O2 6533   2.473   2.384  10.655  0.5096 -0.6661 -0.1708
  435MPD2     C 6534   3.322   2.509  15.464 -0.0988  0.0274 -0.1191
  435MPD2    C1 6535   3.266   2.523  15.591 -0.1459  0.5072  0.3351
  435MPD2    C2 6536   3.344   2.475  15.691  0.2113 -0.0073 -0.3925
  435MPD2    C3 6537   3.470   2.421  15.683 -0.1006  0.2459  0.0250
  435MPD2    C4 6538   3.529   2.418  15.554  0.2268  0.4356  0.9299
  435MPD2    C5 6539   3.449   2.458  15.450 -0.3539 -0.3533 -0.5416
  435MPD2     H 6540   3.292   2.465  15.786  0.3046  0.1709 -0.3223
  435MPD2    H1 6541   3.620   2.364  15.530 -0.3985 -1.0201  1.8169
  435MPD2    H2 6542   3.270   2.537  15.373  1.6391  2.1030 -0.4577
  435MPD2    H3 6543   3.483   2.445  15.348  0.5492 -0.2191 -0.2633
  435MPD2     N 6544   3.523   2.358  15.798 -0.6634 -0.1665 -0.7193
  435MPD2    H5 6545   3.467   2.350  15.883  0.1926 -2.7076 -0.3743
  435MPD2    N1 6546   3.129   2.549  15.612  0.1662 -0.5371 -0.2120
  435MPD2    H7 6547   3.109   2.553  15.711  0.3073 -1.7112 -0.1340
  436TMC3    C1 6548   2.722   2.488  15.699  0.5961 -0.5620 -0.1640
  436TMC3    C2 6549   2.858   2.494  15.674 -0.1113  0.0918 -0.0500
  436TMC3    C3 6550   2.903   2.581  15.579 -0.4438 -0.7218 -0.1444
  436TMC3    C4 6551   2.627   2.557  15.626 -1.2028 -0.1001  0.4108
  436TMC3    C5 6552   2.679   2.630  15.523 -0.2815 -0.2617 -0.1941
  436TMC3    C6 6553   2.808   2.642  15.501  0.0702  0.3753  0.0145
  436TMC3     C 6554   2.685   2.400  15.811 -0.3372  0.2820 -0.1780
  436TMC3     O 6555   2.759   2.301  15.828 -0.3556  0.2123  0.5570
  436TMC3     H 6556   2.922   2.433  15.736 -0.2801  0.4797  0.5003
  436TMC3    H1 6557   2.523   2.530  15.634 -1.4157  1.4511  2.7504
  436TMC3    H2 6558   2.838   2.707  15.419  0.3832  0.9036  0.5487
  436TMC3    C7 6559   2.594   2.724  15.453 -0.8712  0.2083 -0.0637
  436TMC3    C8 6560   3.033   2.562  15.517 -0.6665 -0.3188  0.7909
  436TMC3    O1 6561   2.638   2.760  15.348  0.0368  0.4796  0.0941
  436TMC3    O2 6562   3.044   2.581  15.396 -0.2411 -0.2284  0.7086
  437TMC3    C1 6563   2.704   0.615  13.363 -0.0221 -0.1565  0.3467
  437TMC3    C2 6564   2.580   0.558  13.346  0.7876 -0.1691 -0.0413
  437TMC3    C3 6565   2.513   0.587  13.229  0.0384 -0.0186  0.6440
  437TMC3    C4 6566   2.735   0.720  13.281  0.5761 -0.6370  0.3232
  437TMC3    C5 6567   2.658   0.757  13.178  0.3507  0.0750  0.4125
  437TMC3    C6 6568   2.551   0.690  13.141 -0.0106  0.7428 -0.1391
  437TMC3     C 6569   2.803   0.516  13.363 -0.7716  0.4478 -0.1147
  437TMC3     O 6570   2.895   0.538  13.286  0.2779 -0.1044  0.4023
  437TMC3     H 6571   2.543   0.472  13.401  1.2458 -0.4236 -0.1314
  437TMC3    H1 6572   2.833   0.766  13.292  0.1159  0.1481  1.1849
  437TMC3    H2 6573   2.488   0.726  13.060  0.5233  2.1447  0.0649
  437TMC3    C7 6574   2.740   0.791  13.065 -0.1972 -0.2168 -0.3868
  437TMC3    C8 6575   2.374   0.536  13.203 -0.1863 -0.6691  0.0430
  437TMC3    O1 6576   2.692   0.867  12.983 -0.5281 -0.0449 -1.0385
  437TMC3    O2 6577   2.311   0.582  13.103  0.3180 -0.2896  0.2548
  438MPD2     C 6578   4.075   0.451  16.626  0.3214 -0.4111 -0.8597
  438MPD2    C1 6579   4.187   0.500  16.682  0.2206 -0.1116 -0.1049
  438MPD2    C2 6580   4.181   0.571  16.801  0.0911 -0.5517  0.1331
  438MPD2    C3 6581   4.063   0.571  16.867 -0.0954 -0.5286  0.0355
  438MPD2    C4 6582   3.955   0.502  16.818  0.0814  0.0362 -0.2542
  438MPD2    C5 6583   3.953   0.447  16.693  0.0760 -0.0480  0.2460
  438MPD2     H 6584   4.273   0.591  16.854 -1.2323  2.4339  1.3290
  438MPD2    H1 6585   3.876   0.475  16.888  1.6925  0.3045  1.6723
  438MPD2    H2 6586   4.079   0.394  16.534 -0.8689  1.4595 -2.0605
  438MPD2    H3 6587   3.866   0.398  16.652 -0.6912  1.2668  0.2936
  438MPD2     N 6588   4.062   0.604  17.009  0.4453 -0.4706  0.0934
  438MPD2    H5 6589   3.986   0.562  17.062  1.3075 -0.9230  0.9618
  438MPD2    N1 6590   4.316   0.480  16.631  0.3981  0.3264  0.6248
  438MPD2    H7 6591   4.392   0.508  16.692 -0.1101 -0.6539  1.6948
  439TMC3    C1 6592   4.484   0.388  16.482 -0.2758  0.3823  0.2377
  439TMC3    C2 6593   4.504   0.318  16.364 -0.5127  0.3150 -0.3324
  439TMC3    C3 6594   4.632   0.274  16.342  0.4161  0.2704 -0.4845
  439TMC3    C4 6595   4.577   0.379  16.585  0.4045  0.3996  0.6090
  439TMC3    C5 6596   4.701   0.325  16.565  0.0066 -0.0644 -0.5242
  439TMC3    C6 6597   4.730   0.272  16.443  0.4148  0.4547 -0.0004
  439TMC3     C 6598   4.346   0.419  16.510  0.1417  0.1236 -0.4127
  439TMC3     O 6599   4.265   0.391  16.425  0.4429  0.0667 -0.0487
  439TMC3     H 6600   4.439   0.324  16.278  0.6991  1.4152 -1.1726
  439TMC3    H1 6601   4.567   0.451  16.665 -0.7414 -1.8300  2.4447
  439TMC3    H2 6602   0.084   0.223  16.421  0.9672 -0.3603  4.1852
  439TMC3    C7 6603   0.026   0.249  16.680 -0.1881  0.1556  0.3363
  439TMC3    C8 6604   4.636   0.161  16.250 -0.4548  0.0826 -0.0195
  439TMC3    O1 6605   0.150   0.239  16.688 -0.1190  0.0297  0.6738
  439TMC3    O2 6606   0.010   0.126  16.214  0.6541 -0.1227 -0.4665
  440MPD2     C 6607   3.048   0.397  14.958  0.8052 -0.6452  0.7796
  440MPD2    C1 6608   3.158   0.460  15.006 -0.2866 -0.0655 -0.1533
  440MPD2    C2 6609   3.256   0.384  15.061  0.5437 -0.3287 -0.1214
  440MPD2    C3 6610   3.260   0.245  15.062 -0.1368  0.3805  0.1361
  440MPD2    C4 6611   3.151   0.182  15.011  0.0837  0.6272 -0.7775
  440MPD2    C5 6612   3.048   0.260  14.973 -0.6467  0.0182 -0.6926
  440MPD2     H 6613   3.345   0.432  15.102  0.6979 -2.1324  1.6960
  440MPD2    H1 6614   3.147   0.073  15.009 -1.2680  0.6631 -0.3264
  440MPD2    H2 6615   2.968   0.447  14.904  1.7578  0.5095  0.4365
  440MPD2    H3 6616   2.970   0.196  14.932  0.4238 -2.2302  0.7740
  440MPD2     N 6617   3.375   0.168  15.099 -0.5447 -0.5031  0.1719
  440MPD2    H5 6618   3.374   0.067  15.093  1.5738 -0.6133  1.6532
  440MPD2    N1 6619   3.153   0.601  15.018  0.0569  0.2573  0.2705
  440MPD2    H7 6620   3.235   0.639  15.065 -0.0156 -1.4371  1.7410
  441TMC3    C1 6621   3.601   0.128  15.158  0.9443  0.1170  0.7103
  441TMC3    C2 6622   3.726   0.192  15.170 -0.5143  0.0455  1.0337
  441TMC3    C3 6623   3.788   0.181  15.290  0.7204  0.6939  0.6208
  441TMC3    C4 6624   3.550   0.049  15.253  0.1903 -0.1347  1.1996
  441TMC3    C5 6625   3.616   0.040  15.371  0.1766 -0.8769 -0.5641
  441TMC3    C6 6626   3.735   0.106  15.395 -0.1411 -0.5670 -0.1289
  441TMC3     C 6627   3.499   0.225  15.114 -0.2074 -0.3284 -0.7871
  441TMC3     O 6628   3.545   0.339  15.108  0.6044 -0.3730 -0.1991
  441TMC3     H 6629   3.772   0.251  15.092 -1.1462  0.6535  1.1256
  441TMC3    H1 6630   3.457   4.734  15.239 -0.2192  0.3919  1.8657
  441TMC3    H2 6631   3.785   0.112  15.491  0.8623  1.0481 -0.7531
  441TMC3    C7 6632   3.550   4.712  15.472 -0.0592  0.1295  0.1992
  441TMC3    C8 6633   3.867   0.299  15.323 -1.0819  0.5697  0.1806
  441TMC3    O1 6634   3.427   4.717  15.476  0.0379 -0.0755  0.4864
  441TMC3    O2 6635   3.953   0.277  15.406  0.3477 -0.0937 -0.0921
  442MPD2     C 6636   1.488   1.571  16.328 -0.7450  0.6354  0.7264
  442MPD2    C1 6637   1.428   1.479  16.413  0.0064  0.2051 -0.5374
  442MPD2    C2 6638   1.433   1.347  16.382 -0.4192  0.4651  0.3470
  442MPD2    C3 6639   1.517   1.300  16.284  0.5930 -0.3211  0.4174
  442MPD2    C4 6640   1.585   1.386  16.204 -0.1544 -0.4744 -0.5182
  442MPD2    C5 6641   1.554   1.521  16.221  0.6207 -0.2538  0.8457
  442MPD2     H 6642   1.384   1.275  16.447  1.4506 -0.5525  0.6327
  442MPD2    H1 6643   1.661   1.364  16.131  0.1182 -3.8378  0.7554
  442MPD2    H2 6644   1.475   1.678  16.343  0.7213  0.7547  1.1030
  442MPD2    H3 6645   1.601   1.592  16.154 -0.5251 -1.6903 -1.4868
  442MPD2     N 6646   1.531   1.164  16.247  0.0614 -0.2104  0.2026
  442MPD2    H5 6647   1.595   1.151  16.169 -2.7001  0.0713 -2.1373
  442MPD2    N1 6648   1.332   1.515  16.512 -0.0396  0.4344 -0.1995
  442MPD2    H7 6649   1.294   1.435  16.562 -2.1775  0.8968 -1.0989
  443TMC3    C1 6650   1.188   1.648  16.637 -0.0985 -0.6780 -0.0555
  443TMC3    C2 6651   1.097   1.755  16.635  0.2328 -0.2283 -0.4935
  443TMC3    C3 6652   0.990   1.754  16.719 -0.7278 -0.6201  0.1662
  443TMC3    C4 6653   1.182   1.552  16.738 -0.2486  0.8095  0.1424
  443TMC3    C5 6654   1.079   1.568  16.832 -0.0969  0.2412  0.1848
  443TMC3    C6 6655   0.979   1.662  16.820  0.6158 -0.6655  0.2402
  443TMC3     C 6656   1.288   1.642  16.534 -0.5238  0.0811  0.4726
  443TMC3     O 6657   1.322   1.752  16.488  0.2749  0.6076 -0.2212
  443TMC3     H 6658   1.123   1.830  16.562  0.5835  0.3686  0.2467
  443TMC3    H1 6659   1.265   1.486  16.760 -0.6755 -0.7676 -2.9261
  443TMC3    H2 6660   0.893   1.666  16.885  0.0222 -1.9596 -0.4664
  443TMC3    C7 6661   1.082   1.474  16.938 -0.4520  0.5338  0.2927
  443TMC3    C8 6662   0.890   1.865  16.726  0.6121 -0.2240  0.2759
  443TMC3    O1 6663   1.144   1.370  16.930  0.1899 -0.5671  0.1277
  443TMC3    O2 6664   0.847   1.894  16.834  0.1046 -0.0517  0.0618
  444MPD2     C 6665   1.379   0.749  17.058  0.1927  0.1350 -0.5790
  444MPD2    C1 6666   1.328   0.636  17.108 -0.3585 -0.4343 -0.4287
  444MPD2    C2 6667   1.370   0.520  17.053 -0.0284  0.5548 -0.7494
  444MPD2    C3 6668   1.451   0.520  16.938 -0.1526 -0.5687  0.0878
  444MPD2    C4 6669   1.485   0.639  16.876 -0.0270 -0.5794  0.2592
  444MPD2    C5 6670   1.457   0.749  16.946 -0.0685 -0.4152  0.1484
  444MPD2     H 6671   1.337   0.428  17.102  0.2168 -0.5325 -2.6347
  444MPD2    H1 6672   1.548   0.657  16.789 -0.3067 -0.6297  0.0468
  444MPD2    H2 6673   1.374   0.848  17.102  0.8134 -0.8791  1.7491
  444MPD2    H3 6674   1.486   0.844  16.905  0.5449 -1.1326 -1.0531
  444MPD2     N 6675   1.477   0.395  16.880  1.2684  0.8543 -0.2598
  444MPD2    H5 6676   1.430   0.311  16.911 -1.0910  1.7798 -1.3181
  444MPD2    N1 6677   1.263   0.629  17.229 -0.2476  0.0900 -0.3264
  444MPD2    H7 6678   1.231   0.541  17.267 -2.4655  0.7845 -0.6207
  445TMC3    C1 6679   1.595   0.241  16.741 -0.2472 -0.0107  0.3148
  445TMC3    C2 6680   1.535   0.132  16.808  0.0656 -0.1308  0.3364
  445TMC3    C3 6681   1.595   0.012  16.787 -0.2295 -0.1075  0.2477
  445TMC3    C4 6682   1.704   0.226  16.662  0.0157 -0.0127 -0.4171
  445TMC3    C5 6683   1.746   0.105  16.642  0.0784  0.5258 -0.7047
  445TMC3    C6 6684   1.695   4.731  16.702 -0.0535 -0.7772  0.4166
  445TMC3     C 6685   1.559   0.379  16.775  0.6193  0.7917 -0.3263
  445TMC3     O 6686   1.616   0.457  16.697 -0.3505 -0.2624  0.0287
  445TMC3     H 6687   1.460   0.145  16.885  1.8826  0.5907  1.9900
  445TMC3    H1 6688   1.753   0.314  16.622 -3.5545  0.4907 -3.6271
  445TMC3    H2 6689   1.748   4.639  16.682 -0.5552 -0.7209 -1.1742
  445TMC3    C7 6690   1.892   0.089  16.618 -0.2630 -0.2660 -0.2320
  445TMC3    C8 6691   1.594   4.659  16.896 -0.4985  0.7429  0.0723
  445TMC3    O1 6692   1.934   4.722  16.570 -0.2666  0.3903 -0.1979
  445TMC3    O2 6693   1.560   4.706  17.004  0.6671  0.1161 -0.1455
  446MPD2     C 6694   1.820   1.997  11.221 -1.4170  0.5921 -0.7640
  446MPD2    C1 6695   1.752   2.095  11.151  0.4382  0.8348  0.1157
  446MPD2    C2 6696   1.830   2.192  11.098  0.6217 -0.6478  0.2976
  446MPD2    C3 6697   1.969   2.191  11.126 -0.3080  0.2409  0.4273
  446MPD2    C4 6698   2.030   2.097  11.202 -0.8091  0.8133  0.1441
  446MPD2    C5 6699   1.947   2.002  11.257 -0.0224 -0.0907  0.0346
  446MPD2     H 6700   1.787   2.262  11.028 -1.3834  1.1451  3.2931
  446MPD2    H1 6701   2.132   2.102  11.237  0.0861 -1.1206 -2.2049
  446MPD2    H2 6702   1.758   1.919  11.265  0.2796 -0.0515  0.5146
  446MPD2    H3 6703   1.989   1.933  11.330  0.5858 -1.3653 -1.5112
  446MPD2     N 6704   2.039   2.290  11.056 -0.0786 -0.2558 -1.2231
  446MPD2    H5 6705   1.991   2.380  11.047  0.1179  0.1021  1.1640
  446MPD2    N1 6706   1.616   2.073  11.129 -0.1722 -0.2926 -0.8234
  446MPD2    H7 6707   1.583   1.978  11.146 -0.6537 -0.3529 -2.1288
  447TMC3    C1 6708   2.236   2.409  10.988 -0.0277 -0.6108 -0.3126
  447TMC3    C2 6709   2.167   2.528  10.968 -0.2970  0.8857  0.0854
  447TMC3    C3 6710   2.244   2.626  10.915 -0.2835 -0.5996 -0.0700
  447TMC3    C4 6711   2.363   2.401  10.966 -0.2996  0.1758  0.2598
  447TMC3    C5 6712   2.441   2.510  10.939  0.2192 -0.2033 -0.1042
  447TMC3    C6 6713   2.383   2.630  10.906 -0.4127  0.3665  0.4399
  447TMC3     C 6714   2.175   2.286  11.035  0.6227  0.0625 -0.8234
  447TMC3     O 6715   2.234   2.181  11.006  0.6077 -0.0727 -0.2038
  447TMC3     H 6716   2.060   2.528  10.949 -0.5057 -1.9084  1.2524
  447TMC3    H1 6717   2.414   2.307  10.981 -0.9789  0.0504  1.7967
  447TMC3    H2 6718   2.435   2.724  10.892  0.0053  0.0843  0.0944
  447TMC3    C7 6719   2.586   2.508  10.965  0.0175 -0.0233  0.1402
  447TMC3    C8 6720   2.174   2.753  10.923  0.4437 -0.5683  0.0439
  447TMC3    O1 6721   2.622   2.413  11.039  0.8458  0.1062  0.0607
  447TMC3    O2 6722   2.092   2.767  11.014 -0.0268 -0.2082  0.6593
  448TMC3    C1 6723   4.363   1.695  17.136 -0.3948 -0.1306 -0.4481
  448TMC3    C2 6724   4.394   1.574  17.079  0.1906  0.1221 -0.1645
  448TMC3    C3 6725   4.461   1.478  17.148 -0.1708 -0.3655  0.2227
  448TMC3    C4 6726   4.415   1.725  17.254 -0.4365 -0.0799 -0.1317
  448TMC3    C5 6727   4.486   1.627  17.319 -1.2322  0.0706  0.4838
  448TMC3    C6 6728   4.504   1.504  17.271 -0.2363 -0.1475  0.5606
  448TMC3     C 6729   4.263   1.780  17.059  0.0761  0.0674 -0.1015
  448TMC3     O 6730   4.213   1.738  16.954  0.4052 -0.2795 -0.4327
  448TMC3     H 6731   4.362   1.562  16.976  0.4840 -0.1648 -0.2245
  448TMC3    H1 6732   4.382   1.816  17.302  2.5142  0.0052  1.7496
  448TMC3    H2 6733   4.541   1.422  17.330 -0.9218  0.5152  1.9030
  448TMC3    C7 6734   4.502   1.644  17.460 -1.0483  0.2336  0.5415
  448TMC3    C8 6735   4.507   1.357  17.080 -0.4754  0.1631 -0.2837
  448TMC3    O1 6736   4.556   1.749  17.496 -0.8348 -0.1864  0.4677
  448TMC3    O2 6737   4.591   1.302  17.152 -0.3582  0.5423 -0.1167
  449MPD2     C 6738   1.220   0.543  13.493 -0.0079 -0.4470  0.1126
  449MPD2    C1 6739   1.184   0.417  13.535  0.0708 -0.1218 -0.1578
  449MPD2    C2 6740   1.131   0.398  13.661  0.4376 -0.3141  0.7075
  449MPD2    C3 6741   1.110   0.507  13.740  0.7870  0.0617  0.0064
  449MPD2    C4 6742   1.130   0.636  13.697 -0.4877  0.1067 -0.3864
  449MPD2    C5 6743   1.193   0.651  13.572 -0.7143 -0.0845  0.0851
  449MPD2     H 6744   1.103   0.299  13.695  0.7257 -0.6086  0.0822
  449MPD2    H1 6745   1.105   0.716  13.765 -0.8263  0.4553 -0.9203
  449MPD2    H2 6746   1.242   0.562  13.388  1.2267 -2.1491  0.0628
  449MPD2    H3 6747   1.215   0.755  13.550  0.9107  0.0452  2.3690
  449MPD2     N 6748   1.053   0.466  13.856 -0.6117  0.9169 -0.6482
  449MPD2    H5 6749   1.060   0.367  13.878 -2.2505  0.6370 -1.4139
  449MPD2    N1 6750   1.184   0.304  13.452 -0.5186  0.3088 -0.7557
  449MPD2    H7 6751   1.123   0.229  13.483  0.0292  0.3556  0.4077
  450TMC3    C1 6752   1.207   0.179  13.261 -0.5019 -0.4978 -0.0244
  450TMC3    C2 6753   1.321   0.109  13.283 -0.0162  0.1694 -0.4097
  450TMC3    C3 6754   1.307   4.721  13.335 -0.0029 -0.1627 -0.3041
  450TMC3    C4 6755   1.085   0.127  13.283 -0.4334  0.4278 -0.4051
  450TMC3    C5 6756   1.074   4.740  13.324 -0.5564  0.1742 -0.2537
  450TMC3    C6 6757   1.184   4.658  13.336 -0.2143  0.1820 -0.1345
  450TMC3     C 6758   1.226   0.309  13.321 -0.1117  0.5814  0.4224
  450TMC3     O 6759   1.327   0.373  13.286  0.5166 -0.1182 -0.4397
  450TMC3     H 6760   1.416   0.161  13.288  0.5650 -0.9993  0.9389
  450TMC3    H1 6761   1.003   0.198  13.271 -1.2833 -0.4041  0.4293
  450TMC3    H2 6762   1.171   4.561  13.382  1.3033 -0.3331 -0.8013
  450TMC3    C7 6763   1.001   0.012  13.446 -0.4069  0.4719 -1.4012
  450TMC3    C8 6764   1.406   4.645  13.410 -0.4244 -0.3384 -0.4460
  450TMC3    O1 6765   0.991   0.121  13.494 -0.2126 -0.2390 -0.2360
  450TMC3    O2 6766   1.381   4.527  13.434 -0.0238 -0.5164  0.1805
  451MPD2     C 6767   2.166   3.593   1.611 -0.0395  0.6396 -0.3992
  451MPD2    C1 6768   2.149   3.607   1.477 -0.7364  0.4810 -0.4137
  451MPD2    C2 6769   2.216   3.524   1.395  0.5755  0.3177  0.1471
  451MPD2    C3 6770   2.308   3.426   1.441 -0.2581 -0.7789 -0.2163
  451MPD2    C4 6771   2.327   3.416   1.576 -0.0857  0.7849 -0.3035
  451MPD2    C5 6772   2.253   3.498   1.660  0.3873  0.2222 -0.1479
  451MPD2     H 6773   2.190   3.533   1.290  2.1479  2.1503 -0.0880
  451MPD2    H1 6774   2.403   3.349   1.614  0.6241  1.7997  0.0613
  451MPD2    H2 6775   2.109   3.659   1.676 -1.2653 -0.2662 -0.5669
  451MPD2    H3 6776   2.271   3.497   1.767  1.8463  1.4243 -0.3737
  451MPD2     N 6777   2.388   3.346   1.356 -0.4265  0.9233 -0.2283
  451MPD2    H5 6778   2.457   3.286   1.400 -0.4654 -0.4548 -2.0736
  451MPD2    N1 6779   2.064   3.708   1.430  0.6390  0.0477 -0.6190
  451MPD2    H7 6780   2.020   3.762   1.505  0.2435 -0.9350 -0.1345
  452TMC3    C1 6781   2.486   3.272   1.158  0.1713  0.8989  0.4412
  452TMC3    C2 6782   2.566   3.188   1.234  0.3783 -0.0783 -0.1336
  452TMC3    C3 6783   2.685   3.151   1.185 -0.0363 -0.0914  0.3933
  452TMC3    C4 6784   2.525   3.319   1.032  0.6105  0.6093 -0.1093
  452TMC3    C5 6785   2.657   3.290   1.000  0.9911  1.0499 -0.4616
  452TMC3    C6 6786   2.742   3.203   1.072 -0.0182 -0.9645  0.5996
  452TMC3     C 6787   2.382   3.351   1.221 -0.2525  0.2308  0.0617
  452TMC3     O 6788   2.322   3.423   1.145  0.6815  0.6613 -0.4243
  452TMC3     H 6789   2.513   3.135   1.313  0.8396  0.6321  0.6469
  452TMC3    H1 6790   2.476   3.402   0.982 -2.0836  0.0320  1.5995
  452TMC3    H2 6791   2.843   3.177   1.042  0.3931  0.2583  0.9195
  452TMC3    C7 6792   2.710   3.352   0.873 -0.2705 -0.1368  0.2011
  452TMC3    C8 6793   2.750   3.037   1.250  0.0933 -0.4027  0.5514
  452TMC3    O1 6794   2.625   3.397   0.804 -0.1014  0.4807 -0.7649
  452TMC3    O2 6795   2.707   3.014   1.361 -0.1546  0.3857  0.0327
  453TMC3    C1 6796   3.792   1.036  11.946 -0.0717  0.7521 -0.4864
  453TMC3    C2 6797   3.710   0.932  11.927 -0.1720 -0.2902 -0.1677
  453TMC3    C3 6798   3.645   0.922  11.802 -0.0224 -0.0166 -0.4141
  453TMC3    C4 6799   3.804   1.139  11.855  0.4320  0.0897  0.1277
  453TMC3    C5 6800   3.728   1.126  11.740  0.3617 -0.2513  0.3505
  453TMC3    C6 6801   3.657   1.014  11.708  0.3738  0.1694 -0.3712
  453TMC3     C 6802   3.872   1.046  12.066  0.3846 -0.7212  0.3967
  453TMC3     O 6803   3.953   1.138  12.065 -0.2596 -0.4182 -0.1971
  453TMC3     H 6804   3.683   0.868  12.010 -5.1627 -1.8130 -2.9982
  453TMC3    H1 6805   3.882   1.213  11.869  0.1524 -0.1740  3.2003
  453TMC3    H2 6806   3.615   0.993  11.611  0.2256 -1.2656  0.0026
  453TMC3    C7 6807   3.744   1.233  11.642  0.3501  0.3748  0.5219
  453TMC3    C8 6808   3.627   0.790  11.751  0.0002 -0.1611 -0.4022
  453TMC3    O1 6809   3.839   1.310  11.655 -0.6489 -0.4130  0.1372
  453TMC3    O2 6810   3.581   0.771  11.642 -0.3830  0.3468 -0.5339
  454MPD2     C 6811   2.594   0.395  16.316  0.1171  0.5524  0.4605
  454MPD2    C1 6812   2.481   0.358  16.249  0.1383 -0.1096  0.0106
  454MPD2    C2 6813   2.359   0.397  16.299  0.5902 -0.0160 -0.4152
  454MPD2    C3 6814   2.353   0.468  16.417 -0.7179 -0.1256 -0.2123
  454MPD2    C4 6815   2.463   0.496  16.490  0.3049 -0.3755  1.0202
  454MPD2    C5 6816   2.583   0.453  16.440 -0.2581  0.2485 -0.2119
  454MPD2     H 6817   2.269   0.358  16.255 -0.7843  2.0920  0.5254
  454MPD2    H1 6818   2.455   0.542  16.588 -1.0502  2.2336 -0.3068
  454MPD2    H2 6819   2.694   0.373  16.282  0.5526  1.8664  0.9029
  454MPD2    H3 6820   2.670   0.484  16.496 -2.7512  3.8843  1.6488
  454MPD2     N 6821   2.218   0.499  16.450 -0.2681  0.4246  0.4593
  454MPD2    H5 6822   2.144   0.473  16.387 -1.2313  0.3187  1.6341
  454MPD2    N1 6823   2.480   0.288  16.125  0.3780  0.4365  0.0140
  454MPD2    H7 6824   2.389   0.262  16.088  0.5518  0.3347 -0.3415
  455TMC3    C1 6825   2.037   0.553  16.574  0.7918 -0.4613 -0.1754
  455TMC3    C2 6826   1.958   0.664  16.605  0.5153 -0.2174  0.1975
  455TMC3    C3 6827   1.832   0.679  16.543 -0.0241 -0.2104  0.1451
  455TMC3    C4 6828   1.993   0.465  16.481 -0.6130  0.6982  0.1212
  455TMC3    C5 6829   1.868   0.487  16.429  0.2989  0.3579 -0.0911
  455TMC3    C6 6830   1.786   0.590  16.457 -0.4364 -0.0751 -0.9521
  455TMC3     C 6831   2.180   0.565  16.565 -0.6272  0.1764  0.1499
  455TMC3     O 6832   2.240   0.655  16.624 -0.0889 -0.1630 -0.2733
  455TMC3     H 6833   1.999   0.734  16.677  0.3878  0.1902 -0.1232
  455TMC3    H1 6834   2.035   0.367  16.467 -0.0151  0.9194  0.4045
  455TMC3    H2 6835   1.687   0.591  16.413 -0.2448 -3.8844 -1.4933
  455TMC3    C7 6836   1.840   0.406  16.314  0.2454  0.2420 -0.9737
  455TMC3    C8 6837   1.745   0.791  16.565 -0.2416 -0.5402 -0.2215
  455TMC3    O1 6838   1.939   0.352  16.266 -0.3699  0.7273 -0.5098
  455TMC3    O2 6839   1.649   0.799  16.486 -0.2070  0.3932  0.3998
  456MPD2     C 6840   0.160   0.443  16.165 -0.0222 -0.8500  0.4940
  456MPD2    C1 6841   0.243   0.379  16.249 -0.5641 -0.4204  0.1759
  456MPD2    C2 6842   0.268   0.434  16.377  0.1888 -0.4590 -0.2407
  456MPD2    C3 6843   0.198   0.546  16.422  0.3023  0.1460 -0.2485
  456MPD2    C4 6844   0.101   0.593  16.340  0.5875  0.4172  0.7334
  456MPD2    C5 6845   0.082   0.543  16.214 -0.3447 -0.3701  0.7320
  456MPD2     H 6846   0.350   0.392  16.435  1.4790 -0.7158 -2.2553
  456MPD2    H1 6847   0.035   0.672  16.375 -0.1495 -0.6103  1.6778
  456MPD2    H2 6848   0.151   0.411  16.062  0.3230 -1.4905  0.6621
  456MPD2    H3 6849   0.008   0.593  16.152  0.6599  2.0981  1.5015
  456MPD2     N 6850   0.216   0.592  16.554 -0.1215 -0.0073 -0.6333
  456MPD2    H5 6851   0.283   0.545  16.615 -0.8356 -0.1205  0.0628
  456MPD2    N1 6852   0.318   0.277  16.187  0.7558 -0.3215  0.5994
  456MPD2    H7 6853   0.289   0.245  16.095 -1.9184 -2.2256  2.1083
  457TMC3    C1 6854   0.223   0.750  16.732 -0.1320  1.1147 -0.5467
  457TMC3    C2 6855   0.244   0.884  16.753  0.4226  0.2396  0.5684
  457TMC3    C3 6856   0.246   0.938  16.879  0.1067  0.6048  0.3608
  457TMC3    C4 6857   0.210   0.663  16.841  0.3763  0.0188  0.0853
  457TMC3    C5 6858   0.221   0.718  16.966  0.5104  0.7633 -0.3893
  457TMC3    C6 6859   0.244   0.851  16.985  0.5788  0.6084 -0.0883
  457TMC3     C 6860   0.167   0.716  16.598 -0.3914 -0.1967  0.0916
  457TMC3     O 6861   0.120   0.809  16.535  0.2994 -0.8049  0.5089
  457TMC3     H 6862   0.255   0.953  16.670  2.1743 -0.8320 -0.0949
  457TMC3    H1 6863   0.181   0.561  16.820 -3.6438  1.6626 -2.2862
  457TMC3    H2 6864   0.259   0.891  17.084  1.1638 -0.5690  0.3022
  457TMC3    C7 6865   0.183   0.637  17.079  0.4094 -0.1874 -0.4356
  457TMC3    C8 6866   0.142   1.033  16.893  0.2288 -0.0003  0.1396
  457TMC3    O1 6867   0.158   0.521  17.059 -0.3062  0.1109  0.7514
  457TMC3    O2 6868   0.139   1.095  16.999  0.5590  0.5574  0.1599
  458MPD2     C 6869   3.140   0.708  12.750  0.5748 -0.2346 -0.4198
  458MPD2    C1 6870   3.141   0.614  12.848 -0.5387 -0.1761  0.3866
  458MPD2    C2 6871   3.042   0.625  12.944 -0.3585 -0.0073  0.0614
  458MPD2    C3 6872   2.952   0.728  12.951  0.3817 -0.0092 -0.0398
  458MPD2    C4 6873   2.950   0.820  12.853  1.0189 -0.1022 -0.6480
  458MPD2    C5 6874   3.047   0.812  12.756  0.7598  0.0716  0.1034
  458MPD2     H 6875   3.030   0.556  13.027 -0.1792 -0.6555 -0.4506
  458MPD2    H1 6876   2.875   0.896  12.843 -0.9196 -1.7734  1.1447
  458MPD2    H2 6877   3.220   0.704  12.677  1.8805 -2.8451  1.1902
  458MPD2    H3 6878   3.050   0.889  12.679  2.5903 -0.6997 -0.6004
  458MPD2     N 6879   2.850   0.710  13.051  0.2384 -0.5283  0.0988
  458MPD2    H5 6880   2.870   0.643  13.125 -3.1383 -1.8658 -0.2137
  458MPD2    N1 6881   3.235   0.506  12.855  0.1675  0.4774  0.1654
  458MPD2    H7 6882   3.325   0.508  12.807  1.6621  1.8083  3.0156
  459TMC3    C1 6883   3.333   0.301  12.926 -0.8094 -0.0619 -0.6843
  459TMC3    C2 6884   3.408   0.290  12.809  0.6769 -0.5292 -0.0249
  459TMC3    C3 6885   3.482   0.171  12.789  0.7929  0.3166 -0.1477
  459TMC3    C4 6886   3.333   0.207  13.021 -0.0802  0.5406 -0.3964
  459TMC3    C5 6887   3.431   0.113  13.012  0.0796 -0.1647  0.4786
  459TMC3    C6 6888   3.495   0.084  12.897 -0.5894  0.1752 -0.0427
  459TMC3     C 6889   3.230   0.400  12.941 -0.0105 -0.0680 -0.1669
  459TMC3     O 6890   3.145   0.376  13.025  0.4157  0.0776 -0.0581
  459TMC3     H 6891   3.415   0.371  12.738 -3.4706  0.1232  0.3267
  459TMC3    H1 6892   3.270   0.209  13.110 -0.6006  0.2824 -0.7572
  459TMC3    H2 6893   3.563   0.000  12.889  1.4618  1.7624  0.7057
  459TMC3    C7 6894   3.414   0.006  13.105 -0.5554  0.5774 -0.1685
  459TMC3    C8 6895   3.572   0.155  12.678 -0.2211 -0.2898 -0.2364
  459TMC3    O1 6896   3.409   4.631  13.069 -0.0853 -0.2517 -0.2260
  459TMC3    O2 6897   3.678   0.098  12.696  0.0384  0.4602  0.1157
  460MPD2     C 6898   2.131   3.045  10.911  0.0284 -0.1599  0.2839
  460MPD2    C1 6899   2.172   2.968  10.806 -0.4128  0.2722  0.3485
  460MPD2    C2 6900   2.166   3.023  10.674  0.2245 -0.0181 -0.3140
  460MPD2    C3 6901   2.107   3.152  10.652  0.2336  0.9971 -0.4508
  460MPD2    C4 6902   2.077   3.232  10.758  0.0831  0.7082  0.0804
  460MPD2    C5 6903   2.091   3.176  10.887 -0.3689 -0.1762 -0.3551
  460MPD2     H 6904   2.187   2.954  10.592 -0.6213 -1.2852  0.5272
  460MPD2    H1 6905   2.038   3.333  10.750  2.7189  1.9454  3.1770
  460MPD2    H2 6906   2.122   3.004  11.010 -0.3528  0.6508  0.5890
  460MPD2    H3 6907   2.051   3.229  10.973 -0.3780 -1.8561  0.6679
  460MPD2     N 6908   2.086   3.190  10.518  0.3208 -0.6190  0.5957
  460MPD2    H5 6909   2.117   3.131  10.442 -1.1984  0.9745 -1.2720
  460MPD2    N1 6910   2.217   2.836  10.826  0.2252  0.5387  0.4338
  460MPD2    H7 6911   2.279   2.801  10.753 -1.5060 -1.8164  0.0746
  461TMC3    C1 6912   2.011   3.295  10.330 -1.1049  0.2697  0.1981
  461TMC3    C2 6913   1.997   3.175  10.267  0.5275  0.5569  0.7948
  461TMC3    C3 6914   1.967   3.180  10.130 -0.2606 -0.9306  0.4975
  461TMC3    C4 6915   2.022   3.416  10.266 -0.5059 -0.1870 -0.3322
  461TMC3    C5 6916   2.005   3.413  10.129 -0.3330 -0.4854 -0.1041
  461TMC3    C6 6917   1.976   3.300  10.056  1.0008 -0.2723  0.1268
  461TMC3     C 6918   2.039   3.314  10.472  0.1511 -0.1412  0.2977
  461TMC3     O 6919   2.014   3.422  10.527 -0.5320 -0.4531 -0.0893
  461TMC3     H 6920   1.987   3.083  10.322 -0.1286  0.2124  0.0916
  461TMC3    H1 6921   2.053   3.508  10.314 -0.9935 -0.4277  0.4453
  461TMC3    H2 6922   1.953   3.310   9.950 -0.3290  0.4929  0.4764
  461TMC3    C7 6923   2.033   3.542  10.065  0.4574  0.6849 -0.1345
  461TMC3    C8 6924   1.897   3.066  10.071  0.1317 -0.8682  0.6722
  461TMC3    O1 6925   2.019   3.642  10.130 -0.3646 -0.1660  0.7852
  461TMC3    O2 6926   1.818   3.095   9.985  0.9167 -0.0445 -0.0274
  462TMC3    C1 6927   1.661   3.395   1.146  0.1740  0.8582  0.3389
  462TMC3    C2 6928   1.775   3.440   1.090  0.7295  0.2510 -0.7361
  462TMC3    C3 6929   1.793   3.404   0.955  0.0057  0.6181  0.2467
  462TMC3    C4 6930   1.560   3.329   1.082  0.3355 -0.3444  0.3417
  462TMC3    C5 6931   1.588   3.299   0.952 -0.1189 -0.6767 -0.2276
  462TMC3    C6 6932   1.704   3.326   0.890 -0.1276 -0.4909 -0.5544
  462TMC3     C 6933   1.633   3.448   1.278 -0.5832  0.8072  0.0827
  462TMC3     O 6934   1.513   3.451   1.304  0.2484 -0.5213  0.1577
  462TMC3     H 6935   1.837   3.513   1.140 -1.2382  1.7859 -0.5176
  462TMC3    H1 6936   1.466   3.296   1.126 -0.0007 -1.6743 -1.3879
  462TMC3    H2 6937   1.722   3.307   0.784  1.5535  0.8808 -0.5192
  462TMC3    C7 6938   1.483   3.229   0.866 -0.0193 -0.5586 -0.5343
  462TMC3    C8 6939   1.873   3.496   0.872  0.2402 -0.0134 -0.0912
  462TMC3    O1 6940   1.395   3.171   0.927 -0.6169  0.0650  0.6238
  462TMC3    O2 6941   1.910   3.604   0.921 -0.0465 -0.2593 -0.6067
  463MPD2     C 6942   3.120   2.335   1.039  0.5975 -0.5853 -0.2078
  463MPD2    C1 6943   3.090   2.205   1.084 -0.2866 -0.4269  1.0545
  463MPD2    C2 6944   3.179   2.131   1.155 -0.1012  0.0753 -0.1337
  463MPD2    C3 6945   3.289   2.198   1.202  0.3336 -0.2575 -0.7569
  463MPD2    C4 6946   3.321   2.324   1.154 -0.4918 -0.2294 -0.8142
  463MPD2    C5 6947   3.240   2.394   1.070  0.6178  0.1130  0.1746
  463MPD2     H 6948   3.156   2.028   1.179 -0.3230  1.0338  3.6427
  463MPD2    H1 6949   3.416   2.373   1.168  0.5218 -2.6622  0.8720
  463MPD2    H2 6950   3.057   2.394   0.973  1.5392  1.0999  0.4110
  463MPD2    H3 6951   3.279   2.485   1.026 -1.3700  1.7064  1.7580
  463MPD2     N 6952   3.377   2.134   1.298  0.1814  0.1756  0.0795
  463MPD2    H5 6953   3.443   2.188   1.353  0.2477 -3.0162  3.0997
  463MPD2    N1 6954   2.966   2.140   1.067  0.0625  0.0087  0.1929
  463MPD2    H7 6955   2.971   2.041   1.088 -0.7388 -0.2682 -0.9176
  464TMC3    C1 6956   2.733   2.134   1.000  0.0074 -0.7070 -0.0971
  464TMC3    C2 6957   2.629   2.195   0.938  0.3505  0.7140  0.3255
  464TMC3    C3 6958   2.505   2.131   0.960  0.1664  0.5995  0.3737
  464TMC3    C4 6959   2.723   2.019   1.071 -0.6452 -0.0882 -0.3811
  464TMC3    C5 6960   2.609   1.948   1.067 -0.0363  0.0478  0.2105
  464TMC3    C6 6961   2.495   2.010   1.016  0.2121  0.2045  0.1320
  464TMC3     C 6962   2.855   2.210   1.016  0.3966  0.4158  0.2342
  464TMC3     O 6963   2.836   2.331   1.000  0.2447  0.0714 -0.7766
  464TMC3     H 6964   2.644   2.285   0.879 -1.8513  0.2151 -0.9867
  464TMC3    H1 6965   2.814   1.977   1.112 -1.7581 -1.4342  0.7162
  464TMC3    H2 6966   2.397   1.968   1.038 -1.2927  2.6479 -1.8125
  464TMC3    C7 6967   2.605   1.822   1.136  0.1874 -0.1240  0.3234
  464TMC3    C8 6968   2.388   2.213   0.977  0.0564 -0.7538 -0.0767
  464TMC3    O1 6969   2.693   1.793   1.213  0.0886 -0.0298 -0.0113
  464TMC3    O2 6970   2.290   2.166   1.035  0.5120 -0.1357 -0.3266
  465MPD2     C 6971   3.820   0.920  16.986 -0.0341  0.3468 -0.0974
  465MPD2    C1 6972   3.689   0.915  17.029  0.2849 -0.2805 -0.0167
  465MPD2    C2 6973   3.589   0.952  16.939 -0.0203 -0.1450  0.4286
  465MPD2    C3 6974   3.621   0.975  16.803 -0.0026 -0.4730 -0.8336
  465MPD2    C4 6975   3.751   0.976  16.757 -0.3818 -0.0057 -0.3087
  465MPD2    C5 6976   3.843   0.947  16.854 -0.1172 -0.0453 -0.2266
  465MPD2     H 6977   3.486   0.944  16.971 -0.0230 -1.8336 -0.0158
  465MPD2    H1 6978   3.782   0.975  16.653 -0.3357  0.1355 -0.2964
  465MPD2    H2 6979   3.907   0.905  17.049  1.0055  1.1221 -1.3430
  465MPD2    H3 6980   3.947   0.948  16.822  0.0049 -0.7220  0.1372
  465MPD2     N 6981   3.513   0.984  16.709 -0.4070 -0.4202 -0.0565
  465MPD2    H5 6982   3.419   0.991  16.747 -0.8239  0.4794 -1.2220
  465MPD2    N1 6983   3.651   0.890  17.164 -0.0006  0.0872 -0.7524
  465MPD2    H7 6984   3.562   0.930  17.194 -0.0007 -0.9767  0.6574
  466TMC3    C1 6985   3.166   0.978  16.561 -0.2546 -0.0841  0.1479
  466TMC3    C2 6986   3.149   1.086  16.474  0.1042 -0.7746 -0.5655
  466TMC3    C3 6987   3.259   1.133  16.401 -0.4267  0.0701  0.1739
  466TMC3    C4 6988   3.295   0.932  16.583 -0.7918  0.2225 -0.4031
  466TMC3    C5 6989   3.395   0.973  16.506  0.1456  0.2912 -0.0780
  466TMC3    C6 6990   3.382   1.076  16.416 -0.2417  0.2853  0.3524
  466TMC3     C 6991   3.056   0.909  16.618  0.3138 -0.5294 -0.0428
  466TMC3     O 6992   3.073   0.886  16.735  0.6074  0.0308  0.6445
  466TMC3     H 6993   3.052   1.132  16.458 -0.1753 -0.5542  1.7999
  466TMC3    H1 6994   3.313   0.842  16.641 -0.2007  0.7468  0.2278
  466TMC3    H2 6995   3.470   1.116  16.366 -0.2596 -1.7169 -1.2525
  466TMC3    C7 6996   3.522   0.973  16.574 -0.1740  0.0575 -0.5143
  466TMC3    C8 6997   3.244   1.266  16.357  0.1398  0.1420  0.0839
  466TMC3    O1 6998   3.618   0.972  16.500  0.5370 -0.2157 -0.2299
  466TMC3    O2 6999   3.334   1.305  16.285 -0.0824 -0.0435 -0.1442
  467TMC3    C1 7000   0.251   3.793  13.732 -0.0559 -0.4566  0.1070
  467TMC3    C2 7001   0.177   3.846  13.627 -0.1152 -0.6144  0.1437
  467TMC3    C3 7002   0.078   3.940  13.656  0.4952 -0.3769 -0.6982
  467TMC3    C4 7003   0.192   3.795  13.854 -0.2797  0.1999  0.0530
  467TMC3    C5 7004   0.094   3.886  13.877 -0.1424 -0.1070 -0.5451
  467TMC3    C6 7005   0.039   3.963  13.780  0.3282 -0.1568  0.2492
  467TMC3     C 7006   0.397   3.794  13.739  0.1992 -0.6788 -0.1476
  467TMC3     O 7007   0.450   3.810  13.846  0.4182 -0.7849  0.2803
  467TMC3     H 7008   0.211   3.830  13.525  1.6884 -0.7053  0.7603
  467TMC3    H1 7009   0.236   3.736  13.933  2.3206  1.5716 -0.3580
  467TMC3    H2 7010   4.703   4.033  13.811  1.0607  0.1521  1.3664
  467TMC3    C7 7011   0.053   3.889  14.014  0.1762  0.9506  0.1518
  467TMC3    C8 7012   0.094   4.067  13.576  0.2260  0.1765  0.0206
  467TMC3    O1 7013   0.136   3.878  14.098  0.0119 -0.4846  0.2405
  467TMC3    O2 7014   0.079   4.178  13.630 -0.5094 -0.1341 -0.6413
  468MPD2     C 7015   4.212   2.914  10.568  0.2943  0.1776  0.3891
  468MPD2    C1 7016   4.180   2.864  10.690 -0.5254 -0.3136  0.4163
  468MPD2    C2 7017   4.178   2.728  10.710  0.7774 -0.0685  0.1030
  468MPD2    C3 7018   4.201   2.643  10.609  0.2015  0.2114  1.4372
  468MPD2    C4 7019   4.239   2.694  10.487 -0.1153 -0.0463  0.5798
  468MPD2    C5 7020   4.232   2.826  10.459 -0.1990 -0.7633 -0.4907
  468MPD2     H 7021   4.166   2.699  10.814 -0.4019  0.9220  0.2403
  468MPD2    H1 7022   4.264   2.626  10.406  0.4017  1.4779 -0.5412
  468MPD2    H2 7023   4.214   3.020  10.542  1.9621  0.2215  0.6850
  468MPD2    H3 7024   4.250   2.863  10.359 -1.0420  1.6788  0.2516
  468MPD2     N 7025   4.184   2.502  10.619 -0.7630  0.9105  0.2603
  468MPD2    H5 7026   4.206   2.443  10.540 -1.0785 -0.3751  1.1231
  468MPD2    N1 7027   4.129   2.940  10.796 -0.0746 -0.7573 -0.3272
  468MPD2    H7 7028   4.116   2.897  10.887 -2.0868 -1.2597 -0.8532
  469TMC3    C1 7029   4.062   3.124  10.925  0.0211 -0.3402  0.7189
  469TMC3    C2 7030   4.139   3.216  10.996 -0.4728  0.1716 -0.2150
  469TMC3    C3 7031   4.121   3.207  11.131 -0.0641 -0.0151 -0.0471
  469TMC3    C4 7032   3.972   3.040  10.976 -0.3132 -0.4317  0.1831
  469TMC3    C5 7033   3.967   3.034  11.117  0.3418 -0.6876  0.0197
  469TMC3    C6 7034   4.040   3.112  11.195 -0.5521  0.2266  0.0849
  469TMC3     C 7035   4.128   3.077  10.804 -0.1653  0.0573 -0.5796
  469TMC3     O 7036   4.192   3.157  10.739  0.1221  0.6137 -0.6860
  469TMC3     H 7037   4.216   3.281  10.955  2.2142 -1.7439  1.7230
  469TMC3    H1 7038   3.925   2.967  10.911 -0.3563 -0.9180  0.7577
  469TMC3    H2 7039   4.044   3.095  11.302  0.3906  0.3532  0.0734
  469TMC3    C7 7040   3.885   2.919  11.164 -0.0351 -0.1558  0.0701
  469TMC3    C8 7041   4.233   3.258  11.206 -0.6724  0.2269 -0.3344
  469TMC3    O1 7042   3.841   2.837  11.081  0.5631  0.0824 -0.2141
  469TMC3    O2 7043   4.282   3.361  11.161  0.2013  0.4757  0.0812
  470TMC3    C1 7044   0.648   3.051   0.632  0.9224  0.1399 -0.3393
  470TMC3    C2 7045   0.633   3.178   0.656 -0.2177  0.7027 -0.0936
  470TMC3    C3 7046   0.632   3.227   0.788  0.4208  0.4342  0.1624
  470TMC3    C4 7047   0.663   2.960   0.738  0.1796  0.3361  0.1596
  470TMC3    C5 7048   0.649   3.009   0.864 -0.0574 -0.5466  0.4978
  470TMC3    C6 7049   0.629   3.139   0.896  0.2852 -0.8508 -0.4385
  470TMC3     C 7050   0.651   3.000   0.502 -0.3062  0.3126 -0.6321
  470TMC3     O 7051   0.688   3.073   0.412 -0.0937 -0.2514 -0.5893
  470TMC3     H 7052   0.611   3.243   0.572  0.1288  0.8668 -0.0595
  470TMC3    H1 7053   0.684   2.856   0.720 -1.4571  0.2333 -1.1101
  470TMC3    H2 7054   0.612   3.164   1.000  2.9066 -1.5465  0.1344
  470TMC3    C7 7055   0.604   2.909   0.961 -1.2257  0.2851  0.3345
  470TMC3    C8 7056   0.636   3.368   0.826 -0.1808 -0.2702 -0.1762
  470TMC3    O1 7057   0.665   2.801   0.957 -0.6540 -0.2238  0.2174
  470TMC3    O2 7058   0.638   3.385   0.948  0.2535 -0.0447  0.3424
  471MPD2     C 7059   1.402   4.562  17.297  0.0215 -0.5161 -0.0183
  471MPD2    C1 7060   1.356   4.435  17.261 -0.2369  0.2962 -0.0389
  471MPD2    C2 7061   1.385   4.334  17.349  0.0491 -0.0862  0.7472
  471MPD2    C3 7062   1.447   4.352  17.470 -0.6343  0.4584 -0.0690
  471MPD2    C4 7063   1.496   4.475  17.504 -0.4301  0.0987  0.2362
  471MPD2    C5 7064   1.470   4.580  17.421 -0.3187 -0.0493 -0.5168
  471MPD2     H 7065   1.345   4.236  17.327 -0.1713 -0.0139  0.8236
  471MPD2    H1 7066   1.557   4.498  17.591  2.5824 -1.0221 -1.5862
  471MPD2    H2 7067   1.414   4.644  17.227 -0.8749 -1.5032 -1.3172
  471MPD2    H3 7068   1.515   4.676  17.441 -1.0960  0.4312 -1.0482
  471MPD2     N 7069   1.490   4.241  17.547  0.6970 -0.1012 -0.5495
  471MPD2    H5 7070   1.526   4.247  17.641 -1.5029 -1.5055  0.3842
  471MPD2    N1 7071   1.291   4.401  17.147 -0.2553 -0.2019  0.8133
  471MPD2    H7 7072   1.266   4.304  17.133 -1.2266  0.2825 -0.8417
  472TMC3    C1 7073   1.223   4.398  16.932  0.0500  0.1242  0.8818
  472TMC3    C2 7074   1.132   4.440  16.836  0.0361  0.2250 -0.3960
  472TMC3    C3 7075   1.129   4.362  16.721 -0.9046 -0.7175 -1.0272
  472TMC3    C4 7076   1.305   4.291  16.915  0.0839 -0.4285  0.8324
  472TMC3    C5 7077   1.294   4.222  16.799  0.0013  0.0135 -0.2109
  472TMC3    C6 7078   1.206   4.248  16.701  0.3268  0.1481 -0.1418
  472TMC3     C 7079   1.250   4.482  17.046  0.1190 -0.4933  1.3397
  472TMC3     O 7080   1.237   4.603  17.030  0.1353  0.3656 -0.3650
  472TMC3     H 7081   1.064   4.524  16.842  1.3476  1.0847  2.2137
  472TMC3    H1 7082   1.377   4.249  16.985  0.5466  1.3679  1.4229
  472TMC3    H2 7083   1.199   4.196  16.606 -1.4414 -0.1580  0.1451
  472TMC3    C7 7084   1.357   4.096  16.787  1.1870 -0.2946  0.2113
  472TMC3    C8 7085   0.990   4.331  16.677  0.3783  0.5702 -0.1885
  472TMC3    O1 7086   1.359   4.027  16.892 -0.6437 -0.3165  0.2846
  472TMC3    O2 7087   0.910   4.421  16.663 -0.2939 -0.2037 -0.3327
  473MPD2     C 7088   2.106   1.721  14.317 -0.1949  0.5058  0.8935
  473MPD2    C1 7089   2.014   1.796  14.244 -0.2508 -0.3939 -0.7897
  473MPD2    C2 7090   2.023   1.930  14.268  0.8140 -0.2578  0.7761
  473MPD2    C3 7091   2.115   1.987  14.351  0.4779 -0.2761  0.7468
  473MPD2    C4 7092   2.190   1.911  14.437 -0.2601 -0.3728  0.4375
  473MPD2    C5 7093   2.190   1.773  14.414 -0.1448  0.0407  0.2882
  473MPD2     H 7094   1.951   1.991  14.215 -2.8440 -4.5475  0.8219
  473MPD2    H1 7095   2.237   1.967  14.517  0.7400 -0.7535  0.1209
  473MPD2    H2 7096   2.096   1.613  14.314 -0.3743  0.5835 -1.1456
  473MPD2    H3 7097   2.261   1.709  14.465  0.7869 -0.9030 -2.1782
  473MPD2     N 7098   2.136   2.129  14.347 -0.1642  0.3103  0.4781
  473MPD2    H5 7099   2.212   2.170  14.400 -0.8087  0.2836  1.4273
  473MPD2    N1 7100   1.923   1.745  14.143  0.2199  0.0904  0.1609
  473MPD2    H7 7101   1.864   1.815  14.101  0.3265  0.0455 -0.0620
  474TMC3    C1 7102   2.102   2.357  14.276 -0.2021  0.3608  0.2304
  474TMC3    C2 7103   2.031   2.444  14.197 -0.2037  0.0935  0.1220
  474TMC3    C3 7104   2.082   2.566  14.175 -0.1097 -0.3580  0.1553
  474TMC3    C4 7105   2.218   2.397  14.346 -0.4558 -0.2947  0.0137
  474TMC3    C5 7106   2.256   2.523  14.324  0.0979 -0.5519  0.3396
  474TMC3    C6 7107   2.185   2.611  14.247  0.5211 -0.5838 -0.7254
  474TMC3     C 7108   2.050   2.218  14.284 -0.2180  0.2780 -0.3171
  474TMC3     O 7109   1.936   2.213  14.234 -0.1091  0.4604 -0.0213
  474TMC3     H 7110   1.954   2.406  14.131  0.4883 -0.3624 -0.4266
  474TMC3    H1 7111   2.276   2.326  14.404 -2.6171 -0.4658  1.9759
  474TMC3    H2 7112   2.229   2.707  14.220 -0.0190 -0.3095 -0.6516
  474TMC3    C7 7113   2.387   2.555  14.386  0.0405  0.3924 -0.0239
  474TMC3    C8 7114   2.036   2.641  14.058  0.1484  0.1764 -0.1763
  474TMC3    O1 7115   2.453   2.637  14.321  0.0589 -0.4902 -0.2620
  474TMC3    O2 7116   2.006   2.582  13.953 -0.2728  0.5025 -0.1242
  475MPD2     C 7117   4.306   0.589  11.067  1.0793 -0.5252 -0.3094
  475MPD2    C1 7118   4.385   0.668  10.990  0.6432 -0.0573  0.9467
  475MPD2    C2 7119   4.326   0.773  10.909  0.0096  0.3590  0.2984
  475MPD2    C3 7120   4.190   0.785  10.903  0.2938 -0.5133  0.3139
  475MPD2    C4 7121   4.117   0.703  10.987  0.0231 -0.9609 -0.5100
  475MPD2    C5 7122   4.174   0.609  11.069  0.7839  0.5179  0.0534
  475MPD2     H 7123   4.389   0.818  10.834  2.5610 -2.5161  0.7213
  475MPD2    H1 7124   4.009   0.698  10.989  0.0873 -1.9130  0.2885
  475MPD2    H2 7125   4.341   0.509  11.131 -0.0975 -0.8090 -0.0077
  475MPD2    H3 7126   4.107   0.560  11.138 -0.7380  0.8361 -1.1768
  475MPD2     N 7127   4.122   0.866  10.808 -0.4157 -0.3694  0.8715
  475MPD2    H5 7128   4.021   0.855  10.805 -0.4056  0.2318 -1.7957
  475MPD2    N1 7129   4.519   0.628  10.985 -0.3718  0.0920  0.5935
  475MPD2    H7 7130   4.535   0.546  11.042  1.8114  1.9909  2.6837
  476TMC3    C1 7131   4.734   0.596  10.886 -0.4043 -0.1971  0.9301
  476TMC3    C2 7132   4.719   0.468  10.856  0.6391 -0.3278 -0.4255
  476TMC3    C3 7133   0.067   0.391  10.776 -0.6968  0.5152  0.3893
  476TMC3    C4 7134   0.108   0.662  10.851 -0.0278 -0.4199  0.2027
  476TMC3    C5 7135   0.204   0.585  10.800 -0.4151  0.4256 -0.4086
  476TMC3    C6 7136   0.191   0.452  10.754 -0.0241  0.1831  0.5879
  476TMC3     C 7137   4.612   0.674  10.893 -0.5729 -0.4850  0.6665
  476TMC3     O 7138   4.597   0.768  10.819 -0.4893  0.1531  0.1531
  476TMC3     H 7139   4.623   0.418  10.869  1.3011 -0.6673  3.1248
  476TMC3    H1 7140   0.119   0.770  10.856  1.6184 -0.5058 -1.7236
  476TMC3    H2 7141   0.275   0.399  10.710 -1.4545 -1.4640 -0.1634
  476TMC3    C7 7142   0.340   0.643  10.801 -0.0317  0.3654 -0.0441
  476TMC3    C8 7143   0.052   0.247  10.798 -0.2972  0.1813 -0.3104
  476TMC3    O1 7144   0.421   0.594  10.723 -0.2499  0.0972 -0.3130
  476TMC3    O2 7145   4.712   0.205  10.880 -0.2274  0.8734  0.3441
  477MPD2     C 7146   2.804   2.111  11.971  0.7803 -0.3872 -0.0245
  477MPD2    C1 7147   2.852   2.064  11.854 -0.4418  0.2067 -0.3004
  477MPD2    C2 7148   2.953   1.965  11.857  0.0055 -0.1463  0.0523
  477MPD2    C3 7149   3.003   1.912  11.973  0.1707 -0.1868 -0.1120
  477MPD2    C4 7150   2.954   1.959  12.092 -0.2088 -0.2313 -0.7796
  477MPD2    C5 7151   2.853   2.057  12.085 -0.6021 -0.9250 -0.0701
  477MPD2     H 7152   2.996   1.927  11.765 -1.8957  0.8179 -1.2383
  477MPD2    H1 7153   2.989   1.919  12.186  0.7276  1.7031 -0.2909
  477MPD2    H2 7154   2.730   2.190  11.973  0.7983 -0.3634 -0.2998
  477MPD2    H3 7155   2.815   2.099  12.178 -2.7767 -2.1576 -0.4137
  477MPD2     N 7156   3.105   1.812  11.962  0.1997  0.4198 -0.2121
  477MPD2    H5 7157   3.125   1.768  11.872 -0.1180 -0.8709  0.3528
  477MPD2    N1 7158   2.810   2.133  11.732 -0.0092  0.2797  0.2734
  477MPD2    H7 7159   2.737   2.203  11.740 -0.6561 -0.5936  2.0267
  478TMC3    C1 7160   2.770   2.151  11.509  0.2018  0.6271  0.0562
  478TMC3    C2 7161   2.637   2.161  11.545  0.3283 -0.1570 -0.7698
  478TMC3    C3 7162   2.556   2.175  11.435 -0.6911  0.0398  1.2661
  478TMC3    C4 7163   2.812   2.153  11.377  0.2367  0.4990  0.0968
  478TMC3    C5 7164   2.725   2.159  11.273 -0.9500 -0.0958 -0.3204
  478TMC3    C6 7165   2.588   2.178  11.305 -0.1468 -0.4047  0.6853
  478TMC3     C 7166   2.859   2.097  11.609 -0.6979  0.4622  0.0017
  478TMC3     O 7167   2.948   2.030  11.565 -0.0860  0.4512 -0.2310
  478TMC3     H 7168   2.598   2.124  11.639  0.4490 -0.9096 -1.0158
  478TMC3    H1 7169   2.913   2.123  11.352  0.0912  0.1275 -0.0407
  478TMC3    H2 7170   2.504   2.167  11.238  2.7763 -2.7946 -2.5619
  478TMC3    C7 7171   2.749   2.083  11.148 -0.1919 -0.0112 -0.2897
  478TMC3    C8 7172   2.414   2.176  11.463  0.1166  0.1176 -0.0141
  478TMC3    O1 7173   2.821   1.983  11.160  0.0381  0.1477 -0.0480
  478TMC3    O2 7174   2.365   2.096  11.538  0.1392 -0.4963 -0.4553
  479MPD2     C 7175   1.288   3.952  15.291  0.4992 -0.0984 -0.0617
  479MPD2    C1 7176   1.231   3.846  15.360 -0.7251  0.2995  0.5453
  479MPD2    C2 7177   1.229   3.841  15.503  0.4255 -0.4718  0.5297
  479MPD2    C3 7178   1.296   3.945  15.567  0.4039  0.4298 -0.3318
  479MPD2    C4 7179   1.352   4.048  15.498  0.1969 -0.6297 -0.0273
  479MPD2    C5 7180   1.355   4.048  15.356  0.7092  0.5249  0.0851
  479MPD2     H 7181   1.189   3.760  15.563  3.5375 -1.5435  1.1674
  479MPD2    H1 7182   1.397   4.134  15.545  0.1845 -0.5750 -0.1157
  479MPD2    H2 7183   1.276   3.971  15.185  0.5490  1.1664  0.1546
  479MPD2    H3 7184   1.406   4.127  15.302  0.2361  1.0244  0.3730
  479MPD2     N 7185   1.299   3.960  15.712  0.2402 -0.0577 -0.2835
  479MPD2    H5 7186   1.369   4.023  15.751  0.3429 -0.8229  0.7763
  479MPD2    N1 7187   1.158   3.751  15.278 -0.1515  0.1711 -0.0691
  479MPD2    H7 7188   1.179   3.758  15.179 -3.2034 -1.2768 -0.8195
  480TMC3    C1 7189   0.940   3.710  15.919  0.2819 -0.0844  0.1796
  480TMC3    C2 7190   0.849   3.748  15.827  0.6745  0.3149  0.1579
  480TMC3    C3 7191   0.882   3.832  15.725 -0.4293 -0.7886 -0.4226
  480TMC3    C4 7192   1.070   3.755  15.903  0.8045 -0.1278  0.1882
  480TMC3    C5 7193   1.104   3.829  15.798 -0.9762  1.3456  0.8205
  480TMC3    C6 7194   1.014   3.877  15.701 -0.4202  0.3082  0.4612
  480TMC3     C 7195   0.915   3.637  16.039 -0.3679 -0.3020  0.3699
  480TMC3     O 7196   1.002   3.582  16.103 -0.1840 -0.2217  0.5663
  480TMC3     H 7197   0.747   3.713  15.838  0.1418  1.4337 -1.1539
  480TMC3    H1 7198   1.141   3.734  15.983  2.3339 -2.0912 -1.6701
  480TMC3    H2 7199   1.045   3.949  15.626 -3.2949  2.9327  1.8033
  480TMC3    C7 7200   1.238   3.884  15.813 -0.5710 -0.6977 -0.3614
  480TMC3    C8 7201   0.781   3.854  15.619 -0.1090 -0.3185 -0.9734
  480TMC3    O1 7202   1.295   3.871  15.922  0.2066  0.2741 -0.5008
  480TMC3    O2 7203   0.663   3.838  15.645 -0.5591  0.9755 -1.0358
  481MPD2     C 7204   3.344   3.767  14.420  1.0380  0.2870  0.5344
  481MPD2    C1 7205   3.210   3.732  14.411 -0.9628  0.2263  0.5832
  481MPD2    C2 7206   3.140   3.694  14.529 -0.1634  0.0879  0.0357
  481MPD2    C3 7207   3.204   3.683  14.656 -0.2177  0.5799  0.3845
  481MPD2    C4 7208   3.337   3.720  14.659  0.2144 -0.5117  0.0342
  481MPD2    C5 7209   3.402   3.768  14.544 -0.8351  0.0077 -0.1868
  481MPD2     H 7210   3.041   3.651  14.519 -0.5477  1.3822 -1.8465
  481MPD2    H1 7211   3.398   3.711  14.749  0.2326  0.8665  0.1561
  481MPD2    H2 7212   3.393   3.810  14.334  1.0651 -2.6428 -0.9165
  481MPD2    H3 7213   3.502   3.807  14.556 -0.8896  0.1966 -0.3305
  481MPD2     N 7214   3.137   3.637  14.769 -0.3528  0.3154  0.1535
  481MPD2    H5 7215   3.194   3.641  14.853 -0.2732  0.7210  0.0820
  481MPD2    N1 7216   3.150   3.734  14.284  0.2773 -0.5352 -0.0582
  481MPD2    H7 7217   3.213   3.737  14.205  1.3459 -0.2699  0.7950
  482TMC3    C1 7218   3.009   3.692  14.106  0.8224 -0.3751  0.2476
  482TMC3    C2 7219   2.932   3.591  14.062  0.1930  1.0345  0.0420
  482TMC3    C3 7220   2.897   3.594  13.931  0.2803 -0.3147  0.2994
  482TMC3    C4 7221   3.036   3.799  14.027 -1.1481 -0.1794  0.0022
  482TMC3    C5 7222   2.992   3.804  13.898 -0.6154 -0.4663 -0.6116
  482TMC3    C6 7223   2.921   3.702  13.846  0.0715  0.3175 -0.4636
  482TMC3     C 7224   3.021   3.705  14.251 -0.0922 -0.0448  0.5589
  482TMC3     O 7225   2.932   3.667  14.325 -0.2566 -0.0139  0.1524
  482TMC3     H 7226   2.897   3.513  14.130 -0.2343  0.6076 -0.6635
  482TMC3    H1 7227   3.084   3.879  14.081  2.2755 -0.7313 -2.2116
  482TMC3    H2 7228   2.883   3.710  13.744 -0.4463  0.3572 -0.2701
  482TMC3    C7 7229   2.998   3.933  13.816 -0.6899 -0.5334  0.5651
  482TMC3    C8 7230   2.814   3.489  13.887 -0.2189 -0.0613  0.5922
  482TMC3    O1 7231   3.038   4.031  13.880  0.1537  0.1141 -0.1036
  482TMC3    O2 7232   2.827   3.384  13.955  0.1846 -0.7592 -0.2410
  483TMC3    C1 7233   0.240   2.103   1.207  0.6713  0.6168  0.1255
  483TMC3    C2 7234   0.333   2.194   1.172  0.4405  0.5812  0.1231
  483TMC3    C3 7235   0.463   2.182   1.216  0.4866 -0.6833  0.3036
  483TMC3    C4 7236   0.274   1.995   1.279  0.6173  0.2820 -0.0502
  483TMC3    C5 7237   0.404   1.981   1.317  0.2831 -0.3895 -0.2392
  483TMC3    C6 7238   0.497   2.078   1.293  0.7613 -0.4210  0.9867
  483TMC3     C 7239   0.147   2.081   1.098 -0.5933  0.6063 -0.2555
  483TMC3     O 7240   0.083   2.174   1.051 -0.2381 -0.2603 -0.6527
  483TMC3     H 7241   0.307   2.283   1.117  0.4246  0.2316 -0.4280
  483TMC3    H1 7242   0.194   1.926   1.303  1.7332 -0.9679  0.0857
  483TMC3    H2 7243   0.604   2.068   1.305  1.0643  2.1252  0.4255
  483TMC3    C7 7244   0.452   1.860   1.377 -0.1016  0.3088  0.3543
  483TMC3    C8 7245   0.557   2.289   1.175 -1.1125  0.0488 -0.0036
  483TMC3    O1 7246   0.558   1.864   1.436 -0.4357  0.1419  0.5803
  483TMC3    O2 7247   0.512   2.357   1.083  0.2630  0.5883  0.2504
  484MPD2     C 7248   3.536   0.310  12.352  0.3278 -0.2489 -0.3392
  484MPD2    C1 7249   3.600   0.266  12.467 -0.1857 -0.0396 -0.2445
  484MPD2    C2 7250   3.742   0.271  12.473  0.1520 -0.0765  0.5512
  484MPD2    C3 7251   3.814   0.342  12.382 -0.4110 -0.1620  0.2306
  484MPD2    C4 7252   3.743   0.407  12.280 -0.7273  0.5688  0.7044
  484MPD2    C5 7253   3.603   0.388  12.266 -0.1949 -0.5925 -0.6745
  484MPD2     H 7254   3.794   0.236  12.562  1.4906 -2.4885 -1.1913
  484MPD2    H1 7255   3.782   0.470  12.201 -1.5191  0.3338  0.1253
  484MPD2    H2 7256   3.429   0.306  12.338  0.3422 -1.6524 -0.0538
  484MPD2    H3 7257   3.562   0.446  12.185 -0.6433 -3.1686 -2.2948
  484MPD2     N 7258   3.955   0.368  12.388 -0.1083 -0.8398  0.6372
  484MPD2    H5 7259   3.998   0.428  12.318  1.0292 -0.3003  1.7958
  484MPD2    N1 7260   3.519   0.215  12.573  0.0795  0.3547 -0.2909
  484MPD2    H7 7261   3.421   0.241  12.569 -0.0008  0.1790  0.5769
  485TMC3    C1 7262   4.184   0.360  12.460  0.6007 -0.6527 -0.2759
  485TMC3    C2 7263   4.276   0.292  12.535  0.6350  0.5469  0.2872
  485TMC3    C3 7264   4.404   0.335  12.532  0.7212 -0.3966 -0.8246
  485TMC3    C4 7265   4.214   0.463  12.373  1.1819  0.1038  0.6853
  485TMC3    C5 7266   4.347   0.493  12.373 -0.3433 -0.7406  1.0261
  485TMC3    C6 7267   4.439   0.433  12.452  0.2890 -0.2345 -0.4434
  485TMC3     C 7268   4.043   0.309  12.473  0.5100  0.1304  0.2601
  485TMC3     O 7269   4.031   0.202  12.534 -0.4892  0.0150 -0.5926
  485TMC3     H 7270   4.237   0.226  12.611  0.6306  1.2322  0.8873
  485TMC3    H1 7271   4.145   0.519  12.311  0.2981  0.9146  2.4039
  485TMC3    H2 7272   4.537   0.477  12.463 -0.9963  2.2750  1.1025
  485TMC3    C7 7273   4.408   0.521  12.242  0.0755 -0.9829 -0.0797
  485TMC3    C8 7274   4.510   0.238  12.514 -0.2822  0.3848 -0.6759
  485TMC3    O1 7275   4.346   0.595  12.166  0.6876 -0.0375  0.1874
  485TMC3    O2 7276   4.603   0.276  12.449 -0.6672  0.7350 -0.0439
  486MPD2     C 7277   0.938   3.395  12.187 -0.0278  0.1474 -0.6895
  486MPD2    C1 7278   0.866   3.442  12.298  0.0347 -0.7477 -0.5917
  486MPD2    C2 7279   0.778   3.551  12.293  0.5730 -0.1008 -0.1824
  486MPD2    C3 7280   0.765   3.618  12.171 -0.4176 -0.0027 -0.7960
  486MPD2    C4 7281   0.814   3.552  12.057  0.1139 -0.1763  1.2420
  486MPD2    C5 7282   0.899   3.445  12.067 -0.7339  0.6294  0.3840
  486MPD2     H 7283   0.734   3.587  12.385 -1.9843  0.4507 -1.6407
  486MPD2    H1 7284   0.799   3.595  11.959  0.4536  0.3601  1.4246
  486MPD2    H2 7285   1.012   3.317  12.199 -0.3929  0.4549  3.5862
  486MPD2    H3 7286   0.961   3.414  11.984 -0.7616 -0.1034  0.6421
  486MPD2     N 7287   0.680   3.733  12.169 -0.2883 -0.6076 -0.1084
  486MPD2    H5 7288   0.638   3.768  12.255 -0.4294  1.2437 -0.9353
  486MPD2    N1 7289   0.890   3.387  12.425  0.1726 -1.2872 -0.4041
  486MPD2    H7 7290   0.828   3.419  12.500  0.3554  0.7643 -1.1254
  487TMC3    C1 7291   0.951   3.233  12.594  0.6782  0.4882 -1.1092
  487TMC3    C2 7292   0.989   3.106  12.609 -0.1164  0.3308  0.4088
  487TMC3    C3 7293   0.985   3.061  12.740 -0.2378 -0.8701 -0.3852
  487TMC3    C4 7294   0.948   3.321  12.692 -0.0123 -0.4922  0.5930
  487TMC3    C5 7295   0.970   3.275  12.821 -0.3084 -0.0312  0.2149
  487TMC3    C6 7296   0.959   3.139  12.847  0.5760 -0.2031 -0.6954
  487TMC3     C 7297   0.976   3.283  12.459 -0.1073  0.4552 -0.4987
  487TMC3     O 7298   1.064   3.243  12.389  0.4099  0.4870 -0.3634
  487TMC3     H 7299   0.985   3.035  12.527  1.2964 -0.4121  0.9769
  487TMC3    H1 7300   0.925   3.425  12.675  0.7427 -0.5185 -0.6445
  487TMC3    H2 7301   0.971   3.095  12.945 -1.4162 -0.0980 -0.3894
  487TMC3    C7 7302   0.934   3.357  12.933  0.3971  0.0242  0.2366
  487TMC3    C8 7303   0.922   2.928  12.759 -0.3968  0.3549 -0.1609
  487TMC3    O1 7304   0.975   3.302  13.036 -0.1851  0.1860 -0.0874
  487TMC3    O2 7305   0.970   2.829  12.708  0.1475  0.2273  0.8716
  488MPD2     C 7306   1.022   0.751  16.383 -0.3214  0.2608  0.0543
  488MPD2    C1 7307   1.002   0.867  16.457 -0.4788  0.4633 -0.3518
  488MPD2    C2 7308   0.953   0.861  16.587  0.2246 -0.0343  0.5211
  488MPD2    C3 7309   0.946   0.744  16.658  0.1355  0.7936 -0.1172
  488MPD2    C4 7310   0.979   0.627  16.587  0.0029  0.1123  0.5115
  488MPD2    C5 7311   1.012   0.634  16.449  0.1161 -0.6089  0.4109
  488MPD2     H 7312   0.927   0.957  16.629  2.0245 -0.1746  1.9532
  488MPD2    H1 7313   0.969   0.530  16.635  1.2589 -0.9615 -1.3608
  488MPD2    H2 7314   1.055   0.749  16.280  0.9796 -0.9116  0.4881
  488MPD2    H3 7315   1.036   0.541  16.399  0.5971 -1.6418  2.5615
  488MPD2     N 7316   0.938   0.759  16.798  0.0889  0.2547 -0.4486
  488MPD2    H5 7317   0.952   0.852  16.835  1.4675  1.0057 -2.8600
  488MPD2    N1 7318   1.017   0.994  16.396  0.6461 -0.0238 -0.2781
  488MPD2    H7 7319   1.001   1.075  16.455  0.0198 -0.1671 -0.2554
  489TMC3    C1 7320   0.939   0.701  17.026 -0.1169 -0.1495  0.0676
  489TMC3    C2 7321   1.005   0.819  17.051 -0.0703 -0.1528 -0.1338
  489TMC3    C3 7322   0.980   0.882  17.175 -0.3958  0.0546 -0.6329
  489TMC3    C4 7323   0.857   0.641  17.123 -0.2996 -0.2539  0.1528
  489TMC3    C5 7324   0.840   0.703  17.242 -0.9482  0.4990  0.1870
  489TMC3    C6 7325   0.901   0.824  17.272 -0.0659  0.1408  0.0406
  489TMC3     C 7326   0.925   0.652  16.883 -0.7081  0.5148 -0.2462
  489TMC3     O 7327   0.902   0.531  16.861 -0.0442 -0.7257  0.4108
  489TMC3     H 7328   1.084   0.844  16.981  0.7227 -0.1433  0.7644
  489TMC3    H1 7329   0.805   0.553  17.086  0.6926 -0.4641 -0.7629
  489TMC3    H2 7330   0.889   0.870  17.369 -0.7246  1.3475 -0.6183
  489TMC3    C7 7331   0.758   0.644  17.343 -0.0339  0.0497  0.0982
  489TMC3    C8 7332   1.028   1.014  17.182 -1.2499  0.1939  0.0284
  489TMC3    O1 7333   0.741   0.714  17.443 -0.0985  0.5474 -0.5089
  489TMC3    O2 7334   1.126   1.039  17.113 -0.1002  0.2343 -0.5158
  490MPD2     C 7335   1.488   0.237  17.284 -0.3991 -0.2848  0.0888
  490MPD2    C1 7336   1.430   0.256  17.408 -0.2691 -0.4272 -0.5586
  490MPD2    C2 7337   1.445   0.371  17.478  0.1762 -0.5526  0.0319
  490MPD2    C3 7338   1.516   0.477  17.421  0.5526  0.1253  0.7684
  490MPD2    C4 7339   1.571   0.457  17.296  0.3937 -0.2038 -0.1779
  490MPD2    C5 7340   1.552   0.341  17.223  0.2064  0.5341 -0.2407
  490MPD2     H 7341   1.390   0.377  17.571 -1.0020 -0.2913 -0.6745
  490MPD2    H1 7342   1.616   0.541  17.245 -0.8178  0.1875 -0.6241
  490MPD2    H2 7343   1.470   0.146  17.228 -0.6800 -0.4973  0.5283
  490MPD2    H3 7344   1.597   0.345  17.125 -0.7481 -0.4819 -0.7324
  490MPD2     N 7345   1.551   0.594  17.496  0.2391  0.1997  0.1517
  490MPD2    H5 7346   1.623   0.656  17.462  0.2947 -0.5733 -1.1622
  490MPD2    N1 7347   1.355   0.151  17.452  0.2168  0.0534  0.5612
  490MPD2    H7 7348   1.331   0.074  17.390  2.4077 -0.1577 -0.0435
  491TMC3    C1 7349   1.265   4.740  17.599  0.2425  0.5949 -0.2103
  491TMC3    C2 7350   1.296   4.657  17.704 -0.9400  0.2531  0.3329
  491TMC3    C3 7351   1.204   4.558  17.728  0.3128  0.1735  0.2601
  491TMC3    C4 7352   1.160   4.720  17.513 -0.4731 -0.2578 -0.5051
  491TMC3    C5 7353   1.081   4.609  17.535  0.1938  0.4015 -0.4086
  491TMC3    C6 7354   1.105   4.528  17.641  0.5068 -0.0363 -0.5733
  491TMC3     C 7355   1.348   0.114  17.583 -0.6240  0.2296  0.5360
  491TMC3     O 7356   1.407   0.158  17.679  0.1178  0.4518  0.1981
  491TMC3     H 7357   1.367   4.687   0.021 -1.6862  2.0372  0.3347
  491TMC3    H1 7358   1.134   0.058  17.442  0.4337  0.9426  0.4846
  491TMC3    H2 7359   1.046   4.441  17.665  2.1793 -1.1620 -0.5195
  491TMC3    C7 7360   1.003   4.551  17.424  0.4686 -0.9352 -0.4068
  491TMC3    C8 7361   1.243   4.441   0.054 -0.0442 -0.2580 -0.4852
  491TMC3    O1 7362   0.945   4.453  17.461 -0.1060 -0.1457 -0.1085
  491TMC3    O2 7363   1.156   4.375   0.103 -0.0018  0.0869 -0.2277
  492MPD2     C 7364   2.448   0.315  11.329  0.2871 -0.2554  1.0488
  492MPD2    C1 7365   2.337   0.317  11.246 -0.2173 -0.1268  0.1511
  492MPD2    C2 7366   2.250   0.217  11.250 -0.6362 -0.1276 -0.2144
  492MPD2    C3 7367   2.262   0.108  11.335  0.3427  0.6392 -0.4246
  492MPD2    C4 7368   2.360   0.122  11.428  0.1821  0.7002 -0.2822
  492MPD2    C5 7369   2.462   0.220  11.422 -0.5194 -0.0688 -0.1720
  492MPD2     H 7370   2.160   0.224  11.191 -1.4467 -1.6289  0.8338
  492MPD2    H1 7371   2.374   0.043  11.501 -0.3371 -1.1400 -2.1895
  492MPD2    H2 7372   2.517   0.399  11.324  0.4441 -0.4976 -0.9349
  492MPD2    H3 7373   2.544   0.204  11.491 -0.5367  3.2687  0.6280
  492MPD2     N 7374   2.169   0.003  11.349  0.3452  0.5007 -0.2493
  492MPD2    H5 7375   2.178   4.689  11.434  0.1081 -1.0013 -1.1967
  492MPD2    N1 7376   2.330   0.425  11.156 -0.4205  0.3136  0.5167
  492MPD2    H7 7377   2.398   0.498  11.175  1.3541 -1.1882 -0.0680
  493TMC3    C1 7378   2.266   0.565  10.969  0.5578  0.3183  0.6824
  493TMC3    C2 7379   2.388   0.626  10.971 -0.1408  0.5482  0.0593
  493TMC3    C3 7380   2.402   0.747  10.907  0.4419  0.0020 -0.6063
  493TMC3    C4 7381   2.166   0.610  10.885 -0.4447  0.5878 -0.3749
  493TMC3    C5 7382   2.184   0.720  10.812  0.2078 -0.0321  0.0847
  493TMC3    C6 7383   2.297   0.798  10.828  0.0942 -0.2635  0.1695
  493TMC3     C 7384   2.240   0.445  11.049 -0.0962  0.9259  0.0373
  493TMC3     O 7385   2.147   0.373  11.013 -0.6183  0.6207  0.1918
  493TMC3     H 7386   2.467   0.587  11.035  1.1683  0.1916 -1.7708
  493TMC3    H1 7387   2.078   0.547  10.882 -0.5032  0.5432  2.2831
  493TMC3    H2 7388   2.304   0.888  10.767 -2.2653 -0.1922 -0.0062
  493TMC3    C7 7389   2.075   0.765  10.720  0.1542 -0.4333  0.0816
  493TMC3    C8 7390   2.530   0.805  10.929 -0.1772  0.7112 -0.8534
  493TMC3    O1 7391   2.091   0.884  10.680 -0.3085  0.8091 -0.3756
  493TMC3    O2 7392   2.616   0.754  11.001 -0.0297  0.8056  0.7425
  494TMC3    C1 7393   2.060   1.673   0.612 -0.3229 -0.3444  0.6020
  494TMC3    C2 7394   2.184   1.625   0.644 -1.0632  0.7469  0.1042
  494TMC3    C3 7395   2.258   1.566   0.547 -0.5214  0.2437  0.7856
  494TMC3    C4 7396   2.010   1.686   0.481  0.6157  0.0598  0.5724
  494TMC3    C5 7397   2.088   1.629   0.380  1.0419 -0.4072  0.2827
  494TMC3    C6 7398   2.216   1.574   0.412 -0.3495 -0.3371  0.3929
  494TMC3     C 7399   1.987   1.759   0.706 -0.7414 -0.0448  0.1641
  494TMC3     O 7400   1.914   1.845   0.663 -0.3980 -0.1188 -0.7111
  494TMC3     H 7401   2.224   1.642   0.744 -2.2030  1.7773  0.3902
  494TMC3    H1 7402   1.909   1.725   0.469  0.9508  0.2794 -1.4652
  494TMC3    H2 7403   2.267   1.526   0.329  0.5144 -0.7328  1.1514
  494TMC3    C7 7404   2.052   1.674   0.249 -0.0584 -0.3139  0.6894
  494TMC3    C8 7405   2.367   1.473   0.565 -0.6681 -0.6034 -0.4462
  494TMC3    O1 7406   2.146   1.679   0.167 -0.0015 -0.2950  0.0255
  494TMC3    O2 7407   2.426   1.438   0.462  0.7374  0.2050 -0.1500
  495TMC3    C1 7408   1.289   4.177  14.810 -0.2388 -0.1823 -0.4491
  495TMC3    C2 7409   1.214   4.188  14.694 -0.0979  0.0527  0.5265
  495TMC3    C3 7410   1.079   4.161  14.687  0.3329 -0.1975 -0.0614
  495TMC3    C4 7411   1.215   4.136  14.918  0.0738 -0.1440  0.1596
  495TMC3    C5 7412   1.091   4.088  14.912  0.7779 -0.0634  0.0137
  495TMC3    C6 7413   1.019   4.102  14.793 -0.2003  0.1715 -0.2744
  495TMC3     C 7414   1.411   4.108  14.792  0.5323  0.5064  0.4586
  495TMC3     O 7415   1.512   4.176  14.783 -0.4494  0.1879 -0.1084
  495TMC3     H 7416   1.272   4.223  14.609 -2.4765  0.7922 -0.8043
  495TMC3    H1 7417   1.273   4.124  15.009  1.6690 -0.1119 -0.8580
  495TMC3    H2 7418   0.925   4.052  14.775 -0.9324  1.4518 -0.0264
  495TMC3    C7 7419   1.019   4.066  15.035  1.0375 -0.3316 -0.4984
  495TMC3    C8 7420   1.037   4.113  14.555 -0.0846  0.9508 -0.1969
  495TMC3    O1 7421   1.079   4.095  15.140  0.0154 -0.0466 -0.5830
  495TMC3    O2 7422   0.916   4.112  14.536 -0.5315 -0.6467 -0.1550
  496MPD2     C 7423   3.246   3.658  15.572  0.5006 -0.6702 -0.7970
  496MPD2    C1 7424   3.256   3.793  15.580 -0.2120  0.4015  0.0448
  496MPD2    C2 7425   3.150   3.872  15.624 -0.2117  0.0649  0.5926
  496MPD2    C3 7426   3.043   3.807  15.677 -0.0282  0.1203  0.0813
  496MPD2    C4 7427   3.034   3.669  15.678 -0.0905 -0.3354  1.0739
  496MPD2    C5 7428   3.139   3.591  15.628  0.2671  0.2740  0.5032
  496MPD2     H 7429   3.155   3.980  15.625  2.0453 -0.0430  2.4856
  496MPD2    H1 7430   2.952   3.614  15.725 -0.7935 -0.7728 -0.6649
  496MPD2    H2 7431   3.325   3.594  15.534 -0.6918 -1.5868 -1.7484
  496MPD2    H3 7432   3.138   3.483  15.634  0.9395  0.3643  2.1523
  496MPD2     N 7433   2.918   3.861  15.728  0.2439  0.1609 -0.5410
  496MPD2    H5 7434   2.845   3.797  15.759 -1.2756  1.6422 -1.1080
  496MPD2    N1 7435   3.383   3.846  15.537 -0.1556 -0.1968  0.4752
  496MPD2    H7 7436   3.447   3.781  15.493 -1.5486  0.4396 -2.4912
  497TMC3    C1 7437   2.741   4.015  15.741 -0.6034  0.4048 -0.4881
  497TMC3    C2 7438   2.667   4.104  15.667  1.0185  0.3336  0.1942
  497TMC3    C3 7439   2.546   4.138  15.716 -0.4787  0.3874  0.3699
  497TMC3    C4 7440   2.711   3.978  15.867 -0.3826 -0.1588  0.4055
  497TMC3    C5 7441   2.593   4.029  15.917  0.0678  0.9150 -0.6847
  497TMC3    C6 7442   2.501   4.098  15.842 -0.4604  0.9448 -0.4790
  497TMC3     C 7443   2.881   3.995  15.705  0.4553  0.0212 -0.6962
  497TMC3     O 7444   2.931   4.070  15.621  0.7163  0.4468 -0.6441
  497TMC3     H 7445   2.703   4.132  15.569 -0.9526  2.7463  0.1662
  497TMC3    H1 7446   2.783   3.924  15.927  0.2573  0.0239 -0.1854
  497TMC3    H2 7447   2.416   4.146  15.890  0.1082  1.0019  0.4847
  497TMC3    C7 7448   2.548   3.982  16.045 -0.5680 -0.0590  0.5276
  497TMC3    C8 7449   2.447   4.178  15.616  0.1090 -0.4675  0.0226
  497TMC3    O1 7450   2.424   3.974  16.061  0.1890  0.1788  0.0662
  497TMC3    O2 7451   2.486   4.223  15.510 -0.2371  0.0368 -0.2203
  498MPD2     C 7452   4.197   0.583  10.566  0.4834  0.4677  0.0619
  498MPD2    C1 7453   4.155   0.572  10.436  0.5335  0.0201 -0.4673
  498MPD2    C2 7454   4.069   0.466  10.406  0.3168 -0.6086 -0.7748
  498MPD2    C3 7455   4.022   0.382  10.510  0.1990  0.1406 -0.1337
  498MPD2    C4 7456   4.066   0.407  10.638  0.1838  0.5762  1.2354
  498MPD2    C5 7457   4.152   0.496  10.665  0.6047 -0.5082 -0.2384
  498MPD2     H 7458   4.044   0.448  10.302 -2.0768 -1.0577 -0.1244
  498MPD2    H1 7459   4.034   0.351  10.725  0.0292 -2.0070 -0.4628
  498MPD2    H2 7460   4.270   0.657  10.599  0.6626 -0.6604  2.2381
  498MPD2    H3 7461   4.182   0.511  10.769 -2.4368  2.7654  0.1799
  498MPD2     N 7462   3.950   0.267  10.472  0.4299 -0.3192 -0.5596
  498MPD2    H5 7463   3.940   0.242  10.374 -1.9261  0.3477 -0.5123
  498MPD2    N1 7464   4.187   0.669  10.338 -0.1750  0.6757  0.3604
  498MPD2    H7 7465   4.147   0.657  10.246 -0.1602  2.1463  0.1662
  499TMC3    C1 7466   4.270   0.879  10.252 -0.1915 -0.4043 -0.3525
  499TMC3    C2 7467   4.171   0.871  10.152 -0.1221  0.7054 -0.0219
  499TMC3    C3 7468   4.175   0.960  10.050 -0.0588  0.0968 -0.4057
  499TMC3    C4 7469   4.355   0.984  10.257  0.1840 -0.5298  0.1216
  499TMC3    C5 7470   4.349   1.078  10.155  0.0665  0.1416  0.2024
  499TMC3    C6 7471   4.261   1.068  10.050  0.5757 -0.5102  0.7835
  499TMC3     C 7472   4.271   0.778  10.359 -0.0544  0.8307  0.2933
  499TMC3     O 7473   4.333   0.818  10.462  0.3049  0.6789 -0.1297
  499TMC3     H 7474   4.096   0.794  10.140 -0.0816  0.6616  0.0092
  499TMC3    H1 7475   4.420   0.995  10.343  0.1805  0.4429 -0.0009
  499TMC3    H2 7476   4.264   1.136   9.966 -0.4191 -0.8894  0.4386
  499TMC3    C7 7477   4.439   1.183  10.148  0.2811  0.7382 -0.1568
  499TMC3    C8 7478   4.080   0.943   9.941 -0.0553 -0.4730 -0.2126
  499TMC3    O1 7479   4.465   1.221  10.034 -0.1669 -0.1934 -0.0765
  499TMC3    O2 7480   3.989   0.862   9.944  0.1561 -0.8297 -0.3580
  500MPD2     C 7481   1.334   1.379  11.075 -0.2808  0.3425  0.6017
  500MPD2    C1 7482   1.407   1.472  11.003 -0.1335 -0.2642 -0.0016
  500MPD2    C2 7483   1.351   1.571  10.929 -0.0239 -0.4776 -0.6229
  500MPD2    C3 7484   1.216   1.573  10.930 -0.0339 -0.2815 -0.1742
  500MPD2    C4 7485   1.144   1.484  11.002 -0.1206 -0.5041 -0.0415
  500MPD2    C5 7486   1.205   1.382  11.072 -0.0141 -0.1973 -0.0957
  500MPD2     H 7487   1.410   1.642  10.873  0.0462 -0.6547 -0.7739
  500MPD2    H1 7488   1.036   1.485  10.993 -0.1436 -0.4323  0.2257
  500MPD2    H2 7489   1.391   1.298  11.119 -0.5060 -0.0936  0.0965
  500MPD2    H3 7490   1.163   1.306  11.136  0.8553 -0.7647 -0.2035
  500MPD2     N 7491   1.141   1.661  10.846  0.1906  0.3773  0.4062
  500MPD2    H5 7492   1.040   1.654  10.855 -0.0162  2.5723 -0.0636
  500MPD2    N1 7493   1.551   1.469  10.991  0.0520 -0.7113 -0.5901
  500MPD2    H7 7494   1.596   1.537  10.931 -0.1136  1.0810  1.3337
  501TMC3    C1 7495   1.775   1.398  11.011 -0.6181  0.6955 -0.2608
  501TMC3    C2 7496   1.802   1.433  10.885 -0.3137 -0.1323 -0.1338
  501TMC3    C3 7497   1.936   1.453  10.859  0.5981  0.3303 -0.1613
  501TMC3    C4 7498   1.865   1.346  11.088  0.0606 -0.4481  0.0897
  501TMC3    C5 7499   2.000   1.372  11.060  0.2888 -0.1426  0.1756
  501TMC3    C6 7500   2.041   1.425  10.945 -0.1389 -0.6401  0.0485
  501TMC3     C 7501   1.636   1.387  11.060  1.0781 -0.6795 -0.4753
  501TMC3     O 7502   1.619   1.291  11.141 -0.1359 -0.4275  0.3513
  501TMC3     H 7503   1.723   1.478  10.827  0.0624  1.1492  0.3544
  501TMC3    H1 7504   1.840   1.300  11.183 -3.8119  1.2220 -0.1421
  501TMC3    H2 7505   2.141   1.463  10.932 -1.4733  2.8742 -0.0689
  501TMC3    C7 7506   2.099   1.346  11.170  0.1559 -0.7614  0.1178
  501TMC3    C8 7507   1.974   1.555  10.762  0.0141 -0.6068  0.3895
  501TMC3    O1 7508   2.060   1.279  11.267  0.1717  0.7387 -0.4644
  501TMC3    O2 7509   2.065   1.634  10.787  0.2243 -0.2198  0.4930
  502TMC3    C1 7510   1.057   4.668  15.424 -0.1550 -0.0941 -0.8324
  502TMC3    C2 7511   1.096   0.029  15.341 -0.3002  0.0924  0.0499
  502TMC3    C3 7512   1.058   0.014  15.215 -0.9783  0.0945  0.3337
  502TMC3    C4 7513   0.992   4.561  15.386 -0.8081 -0.1816  0.1220
  502TMC3    C5 7514   0.946   4.557  15.260  0.1704 -0.1458 -0.7805
  502TMC3    C6 7515   0.986   4.648  15.169 -0.0045  0.4615 -0.3726
  502TMC3     C 7516   1.080   4.685  15.564  0.5379 -0.0658 -0.0251
  502TMC3     O 7517   1.166   0.019  15.608  0.1007  0.2629 -0.2426
  502TMC3     H 7518   1.138   0.122  15.378  0.0481 -0.4010  0.9002
  502TMC3    H1 7519   0.968   4.477  15.451  0.2036 -1.0196 -0.5887
  502TMC3    H2 7520   0.939   4.648  15.071  0.3855 -1.2004 -0.5558
  502TMC3    C7 7521   0.851   4.448  15.224 -0.3645 -0.1114  0.2091
  502TMC3    C8 7522   1.113   0.108  15.118  0.0819  0.3316  0.2715
  502TMC3    O1 7523   0.880   4.343  15.280 -0.1692 -0.0291 -0.3357
  502TMC3    O2 7524   1.126   0.221  15.160 -0.0235 -0.6259 -0.1819
  503MPD2     C 7525   2.292   0.291  17.222 -0.1800 -0.8647  0.1361
  503MPD2    C1 7526   2.337   0.386  17.315  0.4506 -0.7326 -0.0023
  503MPD2    C2 7527   2.413   0.345  17.426  0.4662 -0.5689  0.2731
  503MPD2    C3 7528   2.455   0.221  17.434  0.6535 -0.7831 -0.0314
  503MPD2    C4 7529   2.420   0.130  17.338 -0.3632 -0.1097  0.2938
  503MPD2    C5 7530   2.333   0.159  17.236  0.4413 -0.5721  0.4873
  503MPD2     H 7531   2.427   0.418  17.505 -0.6892 -0.6736  0.5598
  503MPD2    H1 7532   2.466   0.032  17.337  0.6678  0.3692  0.2646
  503MPD2    H2 7533   2.241   0.314  17.129  1.9189  0.0884 -0.7825
  503MPD2    H3 7534   2.307   0.078  17.169  1.8319 -0.4062 -0.2416
  503MPD2     N 7535   2.534   0.194  17.548  0.4834  0.8125 -0.2630
  503MPD2    H5 7536   2.555   0.279  17.598 -1.1746  1.2870 -0.3647
  503MPD2    N1 7537   2.296   0.521  17.305  0.1018  0.0449 -0.0131
  503MPD2    H7 7538   2.323   0.575  17.387 -1.8904  0.5546  0.2902
  504TMC3    C1 7539   2.659   0.065  17.708  0.1226  0.6542 -0.0646
  504TMC3    C2 7540   2.658   4.707   0.037 -0.5691 -0.2865 -0.0323
  504TMC3    C3 7541   2.753   4.706   0.128  0.3147 -0.3556 -0.3338
  504TMC3    C4 7542   2.753   0.159  17.687 -0.2377  0.0896 -0.1921
  504TMC3    C5 7543   2.853   0.154   0.018 -0.0932 -0.3108 -0.3350
  504TMC3    C6 7544   2.861   0.048   0.109 -0.0527 -0.2069  0.0574
  504TMC3     C 7545   2.557   0.068  17.601  0.2082 -0.2021  0.7897
  504TMC3     O 7546   2.509   4.701  17.573 -0.2690 -0.1933 -0.2869
  504TMC3     H 7547   2.587   4.625   0.031 -0.0324 -0.7634  0.1529
  504TMC3    H1 7548   2.756   0.229  17.605 -0.5425  1.5514  1.0499
  504TMC3    H2 7549   2.950   0.049   0.170  1.0704  0.3558 -1.5731
  504TMC3    C7 7550   2.983   0.197  17.742  0.2847  0.1538  0.4639
  504TMC3    C8 7551   2.736   4.624   0.245  0.2581 -0.6521 -0.7475
  504TMC3    O1 7552   3.068   0.109  17.730  0.3060 -0.3846 -0.0554
  504TMC3    O2 7553   2.622   4.579   0.263 -0.4476 -0.1382 -0.5491
  505MPD2     C 7554   2.913   4.575  10.311  0.1568 -0.0429 -0.8284
  505MPD2    C1 7555   2.901   4.454  10.247  0.2079  0.3656 -0.4203
  505MPD2    C2 7556   2.894   4.341  10.327  0.2731 -0.6770  0.3158
  505MPD2    C3 7557   2.912   4.348  10.466 -0.6585  0.3818 -0.4257
  505MPD2    C4 7558   2.927   4.470  10.530 -0.1044  0.5195 -0.1001
  505MPD2    C5 7559   2.926   4.584  10.446  0.2350 -0.2187 -0.8011
  505MPD2     H 7560   2.894   4.245  10.277 -0.0879 -0.2863 -0.4343
  505MPD2    H1 7561   2.923   4.481  10.637  0.3222 -0.0358 -0.0322
  505MPD2    H2 7562   2.909   4.670  10.260 -1.8879 -1.0919 -2.6028
  505MPD2    H3 7563   2.925   4.683  10.490  1.0251 -0.8655  0.6638
  505MPD2     N 7564   2.925   4.227  10.534  0.3514 -0.8302  0.2293
  505MPD2    H5 7565   2.913   4.144  10.476 -0.1372  0.2110 -1.1665
  505MPD2    N1 7566   2.886   4.458  10.105  0.5024 -0.3033 -0.7696
  505MPD2    H7 7567   2.898   4.550  10.065  0.1355  0.6982  1.4206
  506TMC3    C1 7568   2.894   4.375   9.886  0.2299 -0.7754 -0.7069
  506TMC3    C2 7569   3.016   4.438   9.852  0.6739  0.3686 -0.6287
  506TMC3    C3 7570   3.094   4.382   9.755  0.4458  0.1416  0.7877
  506TMC3    C4 7571   2.855   4.260   9.823  0.1689  0.2296 -0.0136
  506TMC3    C5 7572   2.949   4.203   9.738  0.3104 -0.4160 -0.6505
  506TMC3    C6 7573   3.065   4.261   9.693 -0.6213 -0.1811 -0.0777
  506TMC3     C 7574   2.886   4.347  10.024 -0.2142  0.7600  0.9442
  506TMC3     O 7575   2.881   4.229  10.059 -0.3213 -0.0376  0.0645
  506TMC3     H 7576   3.039   4.526   9.910 -2.2243  0.5131  0.3066
  506TMC3    H1 7577   2.766   4.210   9.859  0.0193  0.8708  0.4983
  506TMC3    H2 7578   3.128   4.218   9.615  1.1229  1.7088  0.2999
  506TMC3    C7 7579   2.955   4.059   9.747  0.6479 -0.1832 -0.4275
  506TMC3    C8 7580   3.227   4.443   9.732 -0.1948 -0.4290  0.7276
  506TMC3    O1 7581   3.026   4.007   9.663 -0.1074 -0.6526 -0.3161
  506TMC3    O2 7582   3.272   4.422   9.619 -0.5299  0.2298 -0.1336
  507TMC3    C1 7583   4.200   0.419  15.705 -0.3563  0.3194  0.1042
  507TMC3    C2 7584   4.277   0.343  15.615 -0.5808 -0.0180  0.5609
  507TMC3    C3 7585   4.388   0.399  15.568 -0.6555  0.3454  0.0519
  507TMC3    C4 7586   4.235   0.545  15.735 -0.4332  0.3340 -0.2423
  507TMC3    C5 7587   4.350   0.592  15.678  0.3054  0.2757 -0.1750
  507TMC3    C6 7588   4.430   0.522  15.592  0.1007  0.0363 -0.1854
  507TMC3     C 7589   4.070   0.362  15.730  0.2843 -0.3513  0.4977
  507TMC3     O 7590   4.059   0.238  15.737 -0.4591  0.2657  0.8012
  507TMC3     H 7591   4.262   0.236  15.617 -0.0730 -0.1054 -0.4556
  507TMC3    H1 7592   4.173   0.618  15.786  1.8324  0.7280  1.9365
  507TMC3    H2 7593   4.522   0.563  15.551 -0.3154  1.7484  0.5807
  507TMC3    C7 7594   4.344   0.725  15.633 -0.3844  0.5186 -0.2453
  507TMC3    C8 7595   4.413   0.372  15.431  0.1094 -0.1733 -0.1326
  507TMC3    O1 7596   4.408   0.749  15.528  0.5742  0.1280 -0.8625
  507TMC3    O2 7597   4.392   0.255  15.399  0.4237  0.1751  0.0525
  508MPD2     C 7598   4.168   3.448  16.422 -0.2600  0.5335  0.6854
  508MPD2    C1 7599   4.265   3.369  16.361 -0.3265 -0.6541  0.0538
  508MPD2    C2 7600   4.292   3.392  16.224  0.4531  0.1680  0.6807
  508MPD2    C3 7601   4.232   3.498  16.160 -0.2495 -0.4629  0.6536
  508MPD2    C4 7602   4.134   3.567  16.225 -0.6250  0.7072  0.0266
  508MPD2    C5 7603   4.102   3.549  16.357  0.3023 -0.0660  0.4697
  508MPD2     H 7604   4.369   3.342  16.166 -0.2747  0.1538 -0.2870
  508MPD2    H1 7605   4.095   3.655  16.174 -0.1003  0.3200 -1.0473
  508MPD2    H2 7606   4.134   3.436  16.524 -0.6358 -0.4329  0.4427
  508MPD2    H3 7607   4.027   3.618  16.395  0.5517 -0.3113  1.4079
  508MPD2     N 7608   4.280   3.542  16.039 -0.1202 -0.0693 -0.2819
  508MPD2    H5 7609   4.378   3.516  16.029  0.6676  1.3951  3.9098
  508MPD2    N1 7610   4.319   3.256  16.432 -0.0842 -0.2673 -0.0964
  508MPD2    H7 7611   4.280   3.233  16.523  1.2016 -0.9244  0.2752
  509TMC3    C1 7612   4.417   3.806  15.685 -0.5465 -0.1407  0.3543
  509TMC3    C2 7613   4.534   3.825  15.753  0.2290  0.0264  0.5569
  509TMC3    C3 7614   4.537   3.794  15.886 -0.3914  0.0140 -0.2200
  509TMC3    C4 7615   4.316   3.746  15.746  0.2409  0.0972  0.3232
  509TMC3    C5 7616   4.331   3.697  15.876 -0.1578  0.0248 -0.1909
  509TMC3    C6 7617   4.442   3.728  15.949  0.3699  0.0220  0.2621
  509TMC3     C 7618   4.415   3.841  15.545  0.6030 -0.3040  0.1724
  509TMC3     O 7619   4.520   3.885  15.497  0.2706 -0.4208 -0.0402
  509TMC3     H 7620   4.615   3.880  15.705  1.4249 -0.5203  1.9614
  509TMC3    H1 7621   4.224   3.719  15.695 -0.0189 -0.1856  0.9353
  509TMC3    H2 7622   4.447   3.699  16.053 -0.0853 -1.3512 -0.1010
  509TMC3    C7 7623   4.222   3.632  15.955 -0.1343 -0.0709 -0.2680
  509TMC3    C8 7624   4.661   3.815  15.960 -0.0544  0.3306 -0.1209
  509TMC3    O1 7625   4.112   3.682  15.948 -0.7417  0.1931  0.0647
  509TMC3    O2 7626   4.642   3.806  16.082 -0.0373 -0.3186 -0.7612
  510MPD2     C 7627   2.892   0.221  14.622  0.0550 -1.0109 -0.1803
  510MPD2    C1 7628   2.912   0.090  14.665  0.5267  0.1603  0.6642
  510MPD2    C2 7629   3.043   0.044  14.678  0.0767  0.9005  0.9660
  510MPD2    C3 7630   3.142   0.113  14.619 -0.1412  0.3566 -0.3498
  510MPD2    C4 7631   3.118   0.240  14.563  1.0345  0.2337 -0.3132
  510MPD2    C5 7632   2.997   0.296  14.576 -0.2455 -0.1802 -0.3062
  510MPD2     H 7633   3.061   4.682  14.708 -0.8880 -0.1558 -2.0988
  510MPD2    H1 7634   3.202   0.294  14.521  1.3293 -0.6957 -0.9200
  510MPD2    H2 7635   2.795   0.266  14.643  0.0552 -0.9728 -0.2616
  510MPD2    H3 7636   2.994   0.400  14.546  0.9374 -0.3367 -1.0043
  510MPD2     N 7637   3.269   0.047  14.626 -0.0861  0.1042 -0.3416
  510MPD2    H5 7638   3.278   4.711  14.692 -1.0654 -0.3690 -0.7593
  510MPD2    N1 7639   2.797   0.008  14.692 -0.8468  0.1484  0.3778
  510MPD2    H7 7640   2.705   0.049  14.692 -1.1689 -0.5839 -0.1843
  511TMC3    C1 7641   2.681   4.533  14.741 -0.6631 -0.1383 -0.1788
  511TMC3    C2 7642   2.573   4.596  14.802  0.0502  0.6022 -0.2910
  511TMC3    C3 7643   2.493   4.518  14.879 -0.1717  0.2254 -0.3620
  511TMC3    C4 7644   2.706   4.395  14.755 -0.1252  0.2001  0.1919
  511TMC3    C5 7645   2.616   4.324  14.829  0.4393  0.8291 -0.2901
  511TMC3    C6 7646   2.510   4.382  14.896 -0.4560  0.7564 -0.0807
  511TMC3     C 7647   2.798   4.607  14.697  0.7205 -0.2186 -0.3231
  511TMC3     O 7648   2.896   4.538  14.676 -0.2837 -0.1503  0.2092
  511TMC3     H 7649   2.551   4.702  14.795 -0.5777  0.4795 -0.1623
  511TMC3    H1 7650   2.790   4.355  14.700 -2.1726  0.4170 -3.1652
  511TMC3    H2 7651   2.440   4.331  14.960 -0.4042  2.2730  1.1851
  511TMC3    C7 7652   2.591   4.193  14.779 -0.0952 -0.0013 -0.1553
  511TMC3    C8 7653   2.389   4.589  14.948 -0.1762 -0.8478 -0.4472
  511TMC3    O1 7654   2.623   4.173  14.661 -0.6057  0.3797 -0.0967
  511TMC3    O2 7655   2.412   4.699  15.003 -0.2098  0.1645  0.2800
  512TMC3    C1 7656   2.046   3.912  12.824  0.9555  0.5407 -0.1665
  512TMC3    C2 7657   2.064   3.856  12.944 -0.0968  0.3100  0.0740
  512TMC3    C3 7658   2.148   3.752  12.949  0.1179  0.0197  0.7357
  512TMC3    C4 7659   2.101   3.853  12.715 -0.0869 -0.3185  0.2006
  512TMC3    C5 7660   2.203   3.762  12.732  0.3201 -0.1535  0.3404
  512TMC3    C6 7661   2.232   3.703  12.851  0.5349  0.0725  0.9408
  512TMC3     C 7662   1.918   3.986  12.803 -0.4801 -0.2994 -0.5186
  512TMC3     O 7663   1.859   3.954  12.704 -0.0134 -0.4663 -0.0724
  512TMC3     H 7664   2.005   3.878  13.033 -1.0959  2.5365 -1.1308
  512TMC3    H1 7665   2.081   3.883  12.613 -0.3402  0.7400  0.5580
  512TMC3    H2 7666   2.299   3.619  12.870  1.9849  0.7192 -1.3391
  512TMC3    C7 7667   2.235   3.685  12.607 -0.0654 -0.1958 -0.8465
  512TMC3    C8 7668   2.156   3.673  13.074 -0.2452 -0.5204  0.5161
  512TMC3    O1 7669   2.220   3.735  12.497  0.2980  0.4710 -0.0534
  512TMC3    O2 7670   2.193   3.557  13.070 -0.5439  0.3333 -0.1659
  513MPD2     C 7671   4.051   4.230  13.415  0.2236 -0.2216 -0.0302
  513MPD2    C1 7672   4.019   4.097  13.378 -0.1351  0.4273 -0.4413
  513MPD2    C2 7673   4.119   4.000  13.387 -0.7021 -0.8865 -0.3594
  513MPD2    C3 7674   4.246   4.032  13.420  0.6467 -0.6884  0.1058
  513MPD2    C4 7675   4.279   4.157  13.461 -0.6070 -0.0587 -0.2378
  513MPD2    C5 7676   4.180   4.256  13.455 -0.0170 -0.5815 -0.5942
  513MPD2     H 7677   4.103   3.895  13.365  0.0242 -1.1537  0.3747
  513MPD2    H1 7678   4.371   4.191  13.507 -0.9462 -0.2470  0.5733
  513MPD2    H2 7679   3.975   4.307  13.403  0.7698  0.5046  1.1201
  513MPD2    H3 7680   4.201   4.356  13.491  1.9387 -1.1854 -0.0212
  513MPD2     N 7681   4.341   3.931  13.418  0.4347 -0.4291  0.2215
  513MPD2    H5 7682   4.302   3.841  13.391  0.0447  0.3092 -1.6939
  513MPD2    N1 7683   3.889   4.065  13.332  0.9909  0.8369 -0.2553
  513MPD2    H7 7684   3.818   4.136  13.316 -0.5523 -0.2835  1.5637
  514TMC3    C1 7685   3.710   3.932  13.267  0.2012 -0.3990  0.1510
  514TMC3    C2 7686   3.688   4.006  13.157  0.0789  0.2921  0.6343
  514TMC3    C3 7687   3.620   3.943  13.062  0.4307 -0.0979 -0.2525
  514TMC3    C4 7688   3.666   3.802  13.275 -1.1059 -0.2115 -0.6650
  514TMC3    C5 7689   3.608   3.744  13.169 -0.3666 -0.3885  0.4114
  514TMC3    C6 7690   3.580   3.812  13.056 -0.2227 -0.7643 -0.0674
  514TMC3     C 7691   3.837   3.938  13.332 -0.6741 -0.1277 -1.2721
  514TMC3     O 7692   3.891   3.830  13.336 -0.0855 -0.1046 -0.0911
  514TMC3     H 7693   3.720   4.110  13.151 -1.0706  0.5267 -1.4160
  514TMC3    H1 7694   3.680   3.758  13.373 -2.0983 -0.3425 -0.5843
  514TMC3    H2 7695   3.525   3.758  12.979  1.1006 -1.5246 -0.4865
  514TMC3    C7 7696   3.660   3.615  13.145  0.0043  0.2085  0.6542
  514TMC3    C8 7697   3.566   4.026  12.957  0.2496  0.3814 -0.0728
  514TMC3    O1 7698   3.597   3.545  13.071 -0.4595  0.6513  0.8183
  514TMC3    O2 7699   3.504   4.127  12.985 -0.3553  0.1628 -0.5839
  515MPD2     C 7700   1.414   1.430  15.169  0.2276  0.2362  0.8388
  515MPD2    C1 7701   1.484   1.311  15.139  1.7050  0.0871  0.1070
  515MPD2    C2 7702   1.614   1.299  15.186 -0.2916 -0.0636 -0.3032
  515MPD2    C3 7703   1.676   1.417  15.235  0.1338 -0.4050 -0.3535
  515MPD2    C4 7704   1.607   1.532  15.261 -0.8554 -0.2955 -0.4249
  515MPD2    C5 7705   1.471   1.533  15.237 -0.0388  0.6250  0.1975
  515MPD2     H 7706   1.662   1.206  15.154  0.9299  0.1762  0.7971
  515MPD2    H1 7707   1.655   1.623  15.295  0.7526 -0.6457 -1.7536
  515MPD2    H2 7708   1.307   1.440  15.152  0.0336 -3.5872 -0.3159
  515MPD2    H3 7709   1.417   1.626  15.254  0.6543  1.4388 -2.0650
  515MPD2     N 7710   1.818   1.415  15.228 -0.0272 -0.9282 -0.2254
  515MPD2    H5 7711   1.862   1.499  15.266  0.8392 -1.6419  0.3533
  515MPD2    N1 7712   1.433   1.206  15.054  0.1309 -0.0999 -0.0250
  515MPD2    H7 7713   1.480   1.116  15.056 -0.0840 -0.1966  1.1230
  516TMC3    C1 7714   1.293   1.096  14.903  0.4288 -0.1758 -0.2585
  516TMC3    C2 7715   1.234   1.117  14.779  0.4451 -0.1350  0.1523
  516TMC3    C3 7716   1.213   1.007  14.696 -0.5823 -0.3185  0.5131
  516TMC3    C4 7717   1.353   0.978  14.930 -0.0338 -0.7120 -0.8772
  516TMC3    C5 7718   1.351   0.878  14.838 -0.1638  0.1994 -0.5127
  516TMC3    C6 7719   1.274   0.884  14.720 -0.6547 -0.2920  0.0260
  516TMC3     C 7720   1.321   1.219  14.981 -0.4545 -0.3210  0.0935
  516TMC3     O 7721   1.266   1.325  14.945 -0.7765 -0.1630  0.4269
  516TMC3     H 7722   1.199   1.216  14.753 -3.6303 -1.4867  0.6314
  516TMC3    H1 7723   1.389   0.953  15.029  0.7399  1.9185 -0.5104
  516TMC3    H2 7724   1.238   0.798  14.666  1.3409  0.0440 -1.8673
  516TMC3    C7 7725   1.382   0.740  14.879  0.5070  0.0961 -0.4510
  516TMC3    C8 7726   1.113   1.016  14.594  0.0422 -0.5089 -0.5603
  516TMC3    O1 7727   1.395   0.714  14.999  0.2978 -0.1067 -0.6078
  516TMC3    O2 7728   1.112   0.928  14.508 -0.1295  0.6416 -0.4135
  517MPD2     C 7729   0.639   2.023   0.376 -0.4041 -0.7538 -0.3243
  517MPD2    C1 7730   0.761   2.057   0.321  0.3810 -0.1333  0.2799
  517MPD2    C2 7731   0.805   2.182   0.360 -0.0754  0.1491  0.1276
  517MPD2    C3 7732   0.733   2.262   0.440  0.2121  0.3330  0.1529
  517MPD2    C4 7733   0.614   2.216   0.497 -0.2578  0.6919  0.4291
  517MPD2    C5 7734   0.563   2.101   0.451 -0.3211 -0.3466 -0.0001
  517MPD2     H 7735   0.895   2.222   0.314  0.1742 -1.2808 -0.6625
  517MPD2    H1 7736   0.574   2.286   0.570 -0.1899  2.0500 -0.8528
  517MPD2    H2 7737   0.596   1.925   0.358 -0.1854 -0.7543 -0.8481
  517MPD2    H3 7738   0.481   2.054   0.504 -0.9850  0.6233 -0.1782
  517MPD2     N 7739   0.780   2.392   0.491 -0.0707  0.1401  0.4167
  517MPD2    H5 7740   0.726   2.436   0.564 -1.4487 -3.9054  1.8718
  517MPD2    N1 7741   0.835   1.982   0.238  0.3018 -0.0897  0.0921
  517MPD2    H7 7742   0.924   2.028   0.223  0.5598 -0.7487 -0.4089
  518TMC3    C1 7743   0.901   1.799   0.101 -0.0631  0.0824  0.1340
  518TMC3    C2 7744   0.897   1.663   0.084  0.6769 -0.5225  0.0594
  518TMC3    C3 7745   0.975   1.606  17.740  0.6318 -0.0446 -0.1384
  518TMC3    C4 7746   0.978   1.880   0.028 -0.4526  0.3596  0.9859
  518TMC3    C5 7747   1.053   1.822  17.691 -0.5240 -0.3124 -0.0525
  518TMC3    C6 7748   1.057   1.684  17.665  0.5192  0.3872 -0.1753
  518TMC3     C 7749   0.805   1.856   0.190 -0.2613  0.4274 -0.4605
  518TMC3     O 7750   0.710   1.784   0.217 -0.2390 -0.0569  0.2559
  518TMC3     H 7751   0.826   1.597   0.132 -0.9189 -0.1749 -1.8120
  518TMC3    H1 7752   0.980   1.988   0.035 -1.2717  0.3235  1.8222
  518TMC3    H2 7753   1.100   1.650  17.572 -1.7098 -2.9073  0.0157
  518TMC3    C7 7754   1.151   1.908  17.619  0.7432 -1.2295  0.0598
  518TMC3    C8 7755   0.973   1.466  17.708 -0.1625 -0.0630  0.9308
  518TMC3    O1 7756   1.141   2.032  17.622 -0.0288  0.5972 -0.0859
  518TMC3    O2 7757   1.064   1.420  17.643 -0.4636 -0.4432  0.2396
  519MPD2     C 7758   2.864   0.842  13.596  0.1967  0.5218  0.3068
  519MPD2    C1 7759   2.787   0.820  13.706 -0.3261  0.5009  0.1907
  519MPD2    C2 7760   2.802   0.699  13.768 -0.0533 -0.2742 -0.0808
  519MPD2    C3 7761   2.893   0.607  13.720  0.5141  0.1570 -0.5488
  519MPD2    C4 7762   2.970   0.642  13.616  0.3098 -0.3130  0.2382
  519MPD2    C5 7763   2.959   0.762  13.553 -0.3438 -0.0719  0.2089
  519MPD2     H 7764   2.753   0.687  13.863  1.3817  0.0477  0.6939
  519MPD2    H1 7765   3.057   0.584  13.588 -0.0438 -1.6503  1.9277
  519MPD2    H2 7766   2.845   0.931  13.537 -1.5504 -0.1702 -0.1643
  519MPD2    H3 7767   3.019   0.786  13.465  1.1879 -1.9964  0.7267
  519MPD2     N 7768   2.910   0.476  13.769  0.3006  0.4209  0.0917
  519MPD2    H5 7769   2.990   0.416  13.750 -1.6350 -1.9295 -0.6610
  519MPD2    N1 7770   2.687   0.923  13.745 -0.6204  0.5758  0.0829
  519MPD2    H7 7771   2.670   1.001  13.683  0.9046  0.0037 -1.0529
  520TMC3    C1 7772   2.862   0.282  13.894 -0.1973  0.1214 -0.3198
  520TMC3    C2 7773   2.758   0.195  13.910 -0.1618 -0.2248 -0.1159
  520TMC3    C3 7774   2.798   0.075  13.961 -0.0490 -0.4556  0.4035
  520TMC3    C4 7775   2.993   0.249  13.900 -1.0908  0.5933  0.4030
  520TMC3    C5 7776   3.020   0.117  13.938 -0.0031  0.8207 -0.7002
  520TMC3    C6 7777   2.924   0.030  13.979 -0.0142  0.2647  0.0680
  520TMC3     C 7778   2.824   0.419  13.860  0.4612 -0.0464  0.2944
  520TMC3     O 7779   2.716   0.456  13.902  0.1510 -0.0001 -0.4246
  520TMC3     H 7780   2.659   0.231  13.887  0.3488  0.1695 -1.6618
  520TMC3    H1 7781   3.071   0.321  13.880 -1.1400  0.2915 -0.8616
  520TMC3    H2 7782   2.940   4.667  14.007 -2.4643  0.0639  0.6465
  520TMC3    C7 7783   3.156   0.075  13.975 -0.2087 -0.2534 -0.2304
  520TMC3    C8 7784   2.687   4.721  14.004  0.5910 -0.1474 -0.4763
  520TMC3    O1 7785   3.179   4.718  14.049 -0.1691  0.0807 -0.7836
  520TMC3    O2 7786   2.703   4.600  13.991 -0.2331 -0.9545  0.3028
  521MPD2     C 7787   2.985   2.296  17.411  0.4254  0.7947 -0.2137
  521MPD2    C1 7788   2.998   2.436  17.418 -0.2779 -0.1624  0.0011
  521MPD2    C2 7789   3.103   2.497  17.349  0.9733  0.1297 -0.0344
  521MPD2    C3 7790   3.209   2.414  17.295  0.3495  1.3473 -0.5021
  521MPD2    C4 7791   3.202   2.276  17.309  0.5632  0.4142  0.7232
  521MPD2    C5 7792   3.088   2.217  17.356 -0.1991  0.1236  0.2265
  521MPD2     H 7793   3.118   2.604  17.346 -1.3643  0.4720  0.8355
  521MPD2    H1 7794   3.280   2.211  17.270  0.8299  0.3305  1.3986
  521MPD2    H2 7795   2.904   2.236  17.450 -1.2954  1.9494 -1.9743
  521MPD2    H3 7796   3.074   2.110  17.365 -1.7151  0.4057  1.2106
  521MPD2     N 7797   3.315   2.477  17.224 -0.1708  0.0271  0.1959
  521MPD2    H5 7798   3.314   2.578  17.233 -2.5543 -0.1384  1.9263
  521MPD2    N1 7799   2.896   2.509  17.487  0.1813  0.4844  0.0637
  521MPD2    H7 7800   2.809   2.462  17.510  1.3459 -1.2596  0.9253
  522TMC3    C1 7801   3.527   2.520  17.129  0.3427  0.0569  0.1073
  522TMC3    C2 7802   3.654   2.481  17.125 -0.2391  0.8022 -0.1585
  522TMC3    C3 7803   3.748   2.560  17.063 -0.3648  0.6729  0.1778
  522TMC3    C4 7804   3.485   2.637  17.067 -0.0816  0.2062 -0.2422
  522TMC3    C5 7805   3.583   2.719  17.011  0.2200  0.2847  0.2708
  522TMC3    C6 7806   3.711   2.676  16.999 -0.4715 -0.7206 -0.4484
  522TMC3     C 7807   3.428   2.419  17.168  0.9738 -0.5712  0.8333
  522TMC3     O 7808   3.466   2.303  17.165  0.2165 -0.2153  0.7078
  522TMC3     H 7809   3.685   2.393  17.179 -2.8966  0.3620  0.6435
  522TMC3    H1 7810   3.383   2.668  17.051 -0.0365  0.3432 -0.2669
  522TMC3    H2 7811   3.788   2.746  16.967 -1.9550  0.5701 -1.1760
  522TMC3    C7 7812   3.559   2.852  16.956  0.0522 -0.3462  0.3286
  522TMC3    C8 7813   3.889   2.544  17.105 -0.0247 -0.2373 -1.4338
  522TMC3    O1 7814   3.655   2.918  16.913 -0.0494  0.1666  1.0826
  522TMC3    O2 7815   3.908   2.503  17.219 -0.2283  0.6886  0.2395
  523MPD2     C 7816   2.137   3.593   9.701  0.8356  0.5162  0.2840
  523MPD2    C1 7817   2.105   3.629   9.834  0.2728 -0.1083 -0.6248
  523MPD2    C2 7818   2.109   3.762   9.859 -0.4915 -0.0320 -0.8316
  523MPD2    C3 7819   2.132   3.861   9.764  0.2717 -0.7207  0.2503
  523MPD2    C4 7820   2.144   3.825   9.635  0.0762 -0.2249  0.5882
  523MPD2    C5 7821   2.153   3.691   9.609  0.0071  1.1231 -0.4357
  523MPD2     H 7822   2.088   3.801   9.958  1.4325  0.6520 -0.6916
  523MPD2    H1 7823   2.150   3.888   9.547  1.7155 -4.1315 -2.0818
  523MPD2    H2 7824   2.136   3.492   9.662 -2.2004  1.5171 -2.2309
  523MPD2    H3 7825   2.168   3.669   9.504 -0.7661 -2.5289  0.2199
  523MPD2     N 7826   2.135   4.002   9.793  0.2408  0.0511 -0.2152
  523MPD2    H5 7827   2.156   4.065   9.717  2.4170 -0.3225  0.0914
  523MPD2    N1 7828   2.069   3.524   9.932  0.4421  0.4232 -0.2425
  523MPD2    H7 7829   2.069   3.431   9.891  0.6160 -0.4463  1.6889
  524TMC3    C1 7830   2.153   4.201   9.913  0.0839  0.6106 -0.6815
  524TMC3    C2 7831   2.244   4.244   9.825 -0.6971  0.2167 -0.2799
  524TMC3    C3 7832   2.256   4.381   9.822  0.2404  0.4868  0.8491
  524TMC3    C4 7833   2.063   4.270   9.985  0.1024 -0.3915 -0.5253
  524TMC3    C5 7834   2.056   4.404   9.959 -0.2853  0.2508 -0.0980
  524TMC3    C6 7835   2.159   4.451   9.877 -1.1055 -0.1937  0.2140
  524TMC3     C 7836   2.129   4.060   9.919  0.1025  0.0371 -0.3443
  524TMC3     O 7837   2.088   4.013  10.024 -0.1033  0.1139 -0.4319
  524TMC3     H 7838   2.322   4.173   9.799 -1.6454 -0.3103 -1.7465
  524TMC3    H1 7839   1.987   4.220  10.044  0.1843  0.0400 -0.0534
  524TMC3    H2 7840   2.175   4.558   9.883  0.0233 -0.3725  0.3418
  524TMC3    C7 7841   1.959   4.477  10.031  0.7390 -0.4572 -0.0339
  524TMC3    C8 7842   2.371   4.454   9.782  0.0541 -0.0237  0.1168
  524TMC3    O1 7843   1.892   4.419  10.111  0.6645 -0.8256 -0.2274
  524TMC3    O2 7844   2.384   4.569   9.823 -0.1871 -0.0536  0.2134
  525MPD2     C 7845   4.200   0.124  14.375 -0.0777  0.1043  0.9792
  525MPD2    C1 7846   4.330   0.132  14.401 -0.2602 -0.1495 -0.1713
  525MPD2    C2 7847   4.389   0.257  14.390 -0.3326 -0.4134  0.3988
  525MPD2    C3 7848   4.312   0.374  14.366 -0.3350 -0.0354 -0.6773
  525MPD2    C4 7849   4.181   0.356  14.333  0.0059 -0.2679 -0.4929
  525MPD2    C5 7850   4.126   0.229  14.336 -0.0179  0.8163  0.1519
  525MPD2     H 7851   4.487   0.268  14.435 -1.1025  0.7234  1.8070
  525MPD2    H1 7852   4.108   0.434  14.316  0.7724  0.9761  2.0315
  525MPD2    H2 7853   4.161   0.029  14.340  2.2670 -1.0901  1.6108
  525MPD2    H3 7854   4.024   0.225  14.299  0.0123  0.3457  0.1166
  525MPD2     N 7855   4.371   0.504  14.372 -0.1207 -0.4227  0.1059
  525MPD2    H5 7856   4.315   0.588  14.369 -0.9699 -1.0402 -1.1230
  525MPD2    N1 7857   4.408   0.026  14.460 -0.0034 -0.0468  0.1472
  525MPD2    H7 7858   4.505   0.053  14.472 -0.0232  0.1309 -0.0947
  526TMC3    C1 7859   4.455   4.541  14.552  0.8887  0.4225 -0.5465
  526TMC3    C2 7860   4.407   4.457  14.649  0.0821  0.4198 -0.0554
  526TMC3    C3 7861   4.497   4.381  14.714  0.2838 -0.0446 -0.8458
  526TMC3    C4 7862   4.587   4.562  14.526  0.3759  0.1016  0.0603
  526TMC3    C5 7863   4.669   4.480  14.591  0.1580 -0.2407 -0.3866
  526TMC3    C6 7864   4.634   4.385  14.678  0.7347 -0.7404 -0.1953
  526TMC3     C 7865   4.362   4.648  14.512 -0.0754  0.2776  0.6013
  526TMC3     O 7866   4.243   4.614  14.526 -0.0707  0.4562  0.4075
  526TMC3     H 7867   4.302   4.455  14.679 -0.0525 -0.7494 -0.5994
  526TMC3    H1 7868   4.623   4.633  14.453 -1.4413  1.0736  0.1098
  526TMC3    H2 7869   4.711   4.324  14.725  0.4143 -1.0218 -0.0309
  526TMC3    C7 7870   0.073   4.490  14.566  0.0025  0.0073  0.0987
  526TMC3    C8 7871   4.471   4.333  14.846  0.4309  0.0804  0.2335
  526TMC3    O1 7872   0.128   4.598  14.538 -0.0455  0.1659 -1.0122
  526TMC3    O2 7873   4.567   4.303  14.916 -0.0503  0.1262  0.6645
  527MPD2     C 7874   2.431   3.017   0.876 -0.2687  0.1583  0.2486
  527MPD2    C1 7875   2.429   2.895   0.936  0.1317  0.1545  0.3263
  527MPD2    C2 7876   2.524   2.801   0.904 -0.7964  0.0636 -0.0130
  527MPD2    C3 7877   2.620   2.824   0.810 -0.3160 -0.0875 -0.3605
  527MPD2    C4 7878   2.625   2.948   0.751 -0.4740  0.3339  0.3121
  527MPD2    C5 7879   2.533   3.040   0.790  0.4779  0.0312  0.7215
  527MPD2     H 7880   2.512   2.705   0.954  3.2724  0.0998  1.0237
  527MPD2    H1 7881   2.708   2.978   0.688 -0.3966 -3.2214 -1.3164
  527MPD2    H2 7882   2.361   3.093   0.908  0.6618  0.7565  0.8589
  527MPD2    H3 7883   2.560   3.141   0.760 -1.5330  0.7804  1.3946
  527MPD2     N 7884   2.707   2.718   0.773  0.2613 -0.5068 -0.1935
  527MPD2    H5 7885   2.694   2.633   0.827 -3.1617 -0.2165 -0.6031
  527MPD2    N1 7886   2.337   2.855   1.034  1.1074 -0.1360  0.6810
  527MPD2    H7 7887   2.354   2.766   1.080 -0.6127 -0.8705 -0.1158
  528TMC3    C1 7888   2.174   2.858   1.197  0.1674 -0.6944  0.4610
  528TMC3    C2 7889   2.260   2.790   1.281 -0.3797 -0.0247 -0.7529
  528TMC3    C3 7890   2.208   2.711   1.382  0.2945 -0.3605  0.1182
  528TMC3    C4 7891   2.039   2.861   1.214  0.0524 -0.9641  0.1029
  528TMC3    C5 7892   1.987   2.778   1.313  0.2909  0.7118 -0.3925
  528TMC3    C6 7893   2.067   2.703   1.396 -0.2991  0.2394  0.4952
  528TMC3     C 7894   2.238   2.934   1.088 -0.0918  0.0000  0.2521
  528TMC3     O 7895   2.207   3.049   1.067 -0.1366 -0.1494  0.4592
  528TMC3     H 7896   2.367   2.805   1.273 -0.3768  1.3896  1.9847
  528TMC3    H1 7897   1.983   2.930   1.153 -1.0804  0.7092  3.0436
  528TMC3    H2 7898   2.022   2.625   1.456  0.8672  0.2626  1.3993
  528TMC3    C7 7899   1.838   2.765   1.309  0.6630  0.2694 -0.4253
  528TMC3    C8 7900   2.306   2.672   1.485 -0.1399 -0.1823 -0.5803
  528TMC3    O1 7901   1.779   2.801   1.206 -0.3504 -0.0033  0.0090
  528TMC3    O2 7902   2.423   2.686   1.445 -0.2523 -0.0566  0.1159
  529MPD2     C 7903   3.933   0.550   0.616 -0.5729 -0.3399  0.8963
  529MPD2    C1 7904   4.045   0.617   0.643 -0.1638  0.0236 -0.0523
  529MPD2    C2 7905   4.045   0.760   0.616 -0.3320 -0.1340 -0.0825
  529MPD2    C3 7906   3.938   0.824   0.565  0.0609  0.9238  0.4885
  529MPD2    C4 7907   3.820   0.754   0.549  0.3151 -0.0217  0.0074
  529MPD2    C5 7908   3.817   0.621   0.577 -0.6200  0.4375  0.0182
  529MPD2     H 7909   4.140   0.807   0.639  0.2187 -1.5453  0.5247
  529MPD2    H1 7910   3.727   0.800   0.516  0.1219 -1.6024 -1.6975
  529MPD2    H2 7911   3.922   0.445   0.639  3.9784 -0.6051  1.8881
  529MPD2    H3 7912   3.726   0.562   0.574 -0.2027 -0.0913 -2.0619
  529MPD2     N 7913   3.938   0.963   0.530  1.0149 -0.0220  0.4318
  529MPD2    H5 7914   3.854   0.991   0.479 -0.3715  2.8038  4.2844
  529MPD2    N1 7915   4.157   0.567   0.714 -0.6715  0.3537  0.2653
  529MPD2    H7 7916   4.232   0.634   0.731  0.5890 -0.2385 -2.8870
  530TMC3    C1 7917   4.280   0.425   0.856 -0.2220  0.7660 -0.4443
  530TMC3    C2 7918   4.378   0.521   0.863  0.0194  0.0491  0.0227
  530TMC3    C3 7919   4.480   0.505   0.950  0.9128 -0.2599  0.2265
  530TMC3    C4 7920   4.282   0.320   0.941  0.1597 -0.3524  0.2099
  530TMC3    C5 7921   4.385   0.304   1.026 -0.3580  0.9979  0.0220
  530TMC3    C6 7922   4.485   0.393   1.030  0.3541 -0.2876 -0.6481
  530TMC3     C 7923   4.162   0.441   0.772 -0.1285 -0.5694 -0.3200
  530TMC3     O 7924   4.082   0.349   0.765 -0.6281 -0.8663 -0.0030
  530TMC3     H 7925   4.378   0.612   0.805  0.0157  0.7501  1.1303
  530TMC3    H1 7926   4.199   0.250   0.945 -1.9360  1.9705 -2.7055
  530TMC3    H2 7927   4.545   0.393   1.120 -0.6657  1.4277  0.0331
  530TMC3    C7 7928   4.338   0.268   1.158 -0.0847  0.1525 -0.1959
  530TMC3    C8 7929   4.591   0.598   0.952  0.1292  0.3024 -0.9355
  530TMC3    O1 7930   4.300   0.157   1.195 -0.0770  0.2603  0.2398
  530TMC3    O2 7931   4.579   0.711   0.909 -0.7934  0.0811  0.3909
  531MPD2     C 7932   4.083   3.321  13.177 -0.3608  0.9030 -0.0053
  531MPD2    C1 7933   4.108   3.440  13.237  0.0323  0.2402  0.0076
  531MPD2    C2 7934   4.008   3.540  13.230 -0.1231 -0.1311  0.6966
  531MPD2    C3 7935   3.885   3.511  13.173 -0.5204  0.2720  0.1818
  531MPD2    C4 7936   3.863   3.386  13.108 -0.3696  0.4071  0.0316
  531MPD2    C5 7937   3.964   3.297  13.111 -0.0994 -0.0332  0.5350
  531MPD2     H 7938   4.025   3.642  13.262 -0.3413  0.1039  0.0597
  531MPD2    H1 7939   3.764   3.361  13.072 -0.5934  0.6205  0.5031
  531MPD2    H2 7940   4.157   3.242  13.174 -1.9341 -0.6713  1.9224
  531MPD2    H3 7941   3.937   3.197  13.080 -0.1461  0.4080 -0.8724
  531MPD2     N 7942   3.794   3.615  13.184  0.5293 -0.0565  0.3363
  531MPD2    H5 7943   3.828   3.697  13.234 -3.0948  0.5065  1.8356
  531MPD2    N1 7944   4.238   3.466  13.286  0.8595  0.8236 -0.0078
  531MPD2    H7 7945   4.317   3.407  13.263 -0.6387 -2.6542  3.9796
  532TMC3    C1 7946   4.420   3.590  13.370  0.0802  0.5239  0.0752
  532TMC3    C2 7947   4.449   3.722  13.342  0.1595  0.1582 -0.4923
  532TMC3    C3 7948   4.519   3.796  13.435  0.4504 -0.1124  1.0392
  532TMC3    C4 7949   4.468   3.532  13.482  0.1954  0.1936 -0.1281
  532TMC3    C5 7950   4.544   3.604  13.573 -0.3121 -0.0578 -0.7825
  532TMC3    C6 7951   4.570   3.741  13.548  0.5741 -0.9086  0.6640
  532TMC3     C 7952   4.281   3.578  13.352 -0.2185 -0.6214  0.4042
  532TMC3     O 7953   4.212   3.668  13.400 -0.2864  0.4927 -0.0545
  532TMC3     H 7954   4.411   3.767  13.251 -1.0014  0.9292  0.3819
  532TMC3    H1 7955   4.414   3.445  13.517  0.9395 -0.2410 -0.0570
  532TMC3    H2 7956   4.606   3.809  13.624 -1.5111  1.1642 -0.2241
  532TMC3    C7 7957   4.558   3.562  13.714  0.7402 -0.4386 -0.2835
  532TMC3    C8 7958   4.474   3.929  13.462  0.3412  0.5928 -0.4093
  532TMC3    O1 7959   4.597   3.648  13.791  0.0758  0.0128 -0.2557
  532TMC3    O2 7960   4.528   3.999  13.547 -0.7228  0.0610 -0.1329
  533TMC3    C1 7961   4.505   0.665  14.464 -0.8273  0.8879 -0.5694
  533TMC3    C2 7962   4.622   0.727  14.444  0.3509  0.3056  0.1054
  533TMC3    C3 7963   4.678   0.802  14.538 -0.0709 -0.2916 -0.2439
  533TMC3    C4 7964   4.443   0.657  14.586 -0.1419 -0.5931  0.0044
  533TMC3    C5 7965   4.507   0.726  14.686  0.6057  0.5258 -0.2701
  533TMC3    C6 7966   4.622   0.804  14.662  0.6420 -0.1508  0.2594
  533TMC3     C 7967   4.496   0.531  14.408 -0.1790  0.3833  0.8314
  533TMC3     O 7968   4.599   0.467  14.417 -0.2189  0.3547 -0.0405
  533TMC3     H 7969   4.672   0.700  14.351  0.2453 -0.5799  0.3052
  533TMC3    H1 7970   4.370   0.579  14.603  0.6780 -1.3030  0.2656
  533TMC3    H2 7971   4.679   0.845  14.745 -1.2376  2.7786  0.1166
  533TMC3    C7 7972   4.507   0.648  14.809 -0.1106 -0.0358  0.2360
  533TMC3    C8 7973   0.067   0.852  14.518  0.0452  0.2915  0.2554
  533TMC3    O1 7974   4.440   0.544  14.817 -0.6655 -0.1574 -1.0907
  533TMC3    O2 7975   0.137   0.883  14.611 -0.0020  0.0763  0.1259
  534MPD2     C 7976   2.473   1.596   1.301  0.1917 -0.2658 -0.4907
  534MPD2    C1 7977   2.438   1.643   1.176 -0.0086  0.6439  0.0576
  534MPD2    C2 7978   2.330   1.588   1.116 -1.0460  0.6798  1.0962
  534MPD2    C3 7979   2.264   1.481   1.168 -0.1027  0.0765 -0.5364
  534MPD2    C4 7980   2.306   1.438   1.289 -0.6315  0.6946  0.0732
  534MPD2    C5 7981   2.409   1.495   1.357 -0.5883  0.4710  0.3446
  534MPD2     H 7982   2.288   1.629   1.025  2.1334 -1.6442 -1.4049
  534MPD2    H1 7983   2.258   1.350   1.330  1.0135  0.0955  0.7025
  534MPD2    H2 7984   2.557   1.639   1.355  0.0948 -0.2568 -0.3475
  534MPD2    H3 7985   2.446   1.459   1.452  0.8570  1.0542  0.0101
  534MPD2     N 7986   2.165   1.399   1.102 -0.5399 -0.0546  0.5703
  534MPD2    H5 7987   2.121   1.334   1.166 -0.4792  0.0894  0.7581
  534MPD2    N1 7988   2.491   1.754   1.103  0.5538 -0.2832  0.1250
  534MPD2    H7 7989   2.436   1.782   1.023 -0.7504  1.2957  1.5752
  535TMC3    C1 7990   2.042   1.308   0.923 -0.7206 -0.4544  0.3226
  535TMC3    C2 7991   1.954   1.255   1.009 -0.4576 -0.1754 -0.9168
  535TMC3    C3 7992   1.900   1.135   0.967 -0.3140 -0.1446  0.5857
  535TMC3    C4 7993   2.077   1.258   0.803  0.2479  0.0874  0.6865
  535TMC3    C5 7994   2.016   1.142   0.767 -0.7700  0.0423 -0.1199
  535TMC3    C6 7995   1.923   1.086   0.846  0.7624 -0.3149  0.5877
  535TMC3     C 7996   2.125   1.414   0.975 -0.5793  0.0895  0.8329
  535TMC3     O 7997   2.156   1.493   0.886 -0.6098 -0.1507 -0.1891
  535TMC3     H 7998   1.923   1.301   1.103  2.7535  0.3567 -0.1225
  535TMC3    H1 7999   2.150   1.303   0.737  0.4671 -0.4975  0.5274
  535TMC3    H2 8000   1.886   0.988   0.820 -2.8225  0.9855  0.7610
  535TMC3    C7 8001   2.103   1.056   0.695  0.3041  0.1325  0.4179
  535TMC3    C8 8002   1.774   1.113   1.034 -0.2989  0.1885 -0.7297
  535TMC3    O1 8003   2.115   0.937   0.720  0.2104 -0.3243 -0.1576
  535TMC3    O2 8004   1.677   1.103   0.961 -0.1804  0.0102 -0.2030
  536MPD2     C 8005   0.199   3.892  16.591 -0.3073  0.3464  0.0364
  536MPD2    C1 8006   0.307   3.975  16.596  0.2804 -0.1060 -0.3385
  536MPD2    C2 8007   0.313   4.079  16.506  0.4754  0.2096 -0.3587
  536MPD2    C3 8008   0.228   4.087  16.394 -0.3731  0.0382 -0.2334
  536MPD2    C4 8009   0.122   3.997  16.391  0.5270  0.4682  0.5035
  536MPD2    C5 8010   0.107   3.905  16.495 -0.2967 -0.6478 -0.3113
  536MPD2     H 8011   0.389   4.155  16.519  0.3627  0.0546  1.1319
  536MPD2    H1 8012   0.054   4.000  16.306  2.5336 -0.1144 -1.1061
  536MPD2    H2 8013   0.188   3.817  16.668 -0.6226 -0.3538 -0.6814
  536MPD2    H3 8014   0.020   3.843  16.508 -0.1580 -0.6726  0.4967
  536MPD2     N 8015   0.247   4.169  16.276  0.4336  0.1950  0.1089
  536MPD2    H5 8016   0.170   4.170  16.210  0.0835 -0.0628  0.5139
  536MPD2    N1 8017   0.392   3.947  16.704  0.6136 -0.4413 -0.7932
  536MPD2    H7 8018   0.384   3.859  16.753 -3.1058 -1.0023 -2.4646
  537TMC3    C1 8019   0.586   4.005  16.844  0.1157 -0.4668  0.1714
  537TMC3    C2 8020   0.639   4.113  16.897  0.2023  0.0845 -0.6265
  537TMC3    C3 8021   0.702   4.094  17.019 -0.6493  0.4975 -0.3368
  537TMC3    C4 8022   0.587   3.879  16.895  0.3025 -0.3076  0.3743
  537TMC3    C5 8023   0.642   3.863  17.023 -0.0065  1.1350 -1.1365
  537TMC3    C6 8024   0.700   3.969  17.081  0.7943  0.1140  0.1459
  537TMC3     C 8025   0.480   4.041  16.749 -0.6586 -0.1480 -0.4081
  537TMC3     O 8026   0.464   4.164  16.739 -0.0777 -0.4679 -0.1817
  537TMC3     H 8027   0.646   4.204  16.838 -1.1217 -0.1328 -1.1106
  537TMC3    H1 8028   0.553   3.790  16.844 -1.5846 -1.0988  3.0141
  537TMC3    H2 8029   0.731   3.966  17.185 -0.8470 -0.6078  0.6210
  537TMC3    C7 8030   0.591   3.744  17.095 -0.6544 -0.6871  0.5727
  537TMC3    C8 8031   0.751   4.208  17.094 -0.2003  0.3178 -0.6309
  537TMC3    O1 8032   0.502   3.679  17.043  0.2379 -0.1336 -0.1126
  537TMC3    O2 8033   0.799   4.185  17.203  0.3698 -0.1817  0.2458
  538TMC3    C1 8034   2.477   3.086  10.983  0.1826  0.3013  0.1122
  538TMC3    C2 8035   2.522   3.104  10.858 -0.6448  0.4958 -0.1991
  538TMC3    C3 8036   2.522   3.231  10.808 -0.5143 -0.2619 -0.1461
  538TMC3    C4 8037   2.441   3.194  11.061 -0.5603 -0.4913 -0.0050
  538TMC3    C5 8038   2.453   3.319  11.015 -0.7236 -0.2476 -0.5272
  538TMC3    C6 8039   2.485   3.337  10.887  0.8107  0.6861 -0.0747
  538TMC3     C 8040   2.541   2.973  11.052  0.6873  0.1918  0.1281
  538TMC3     O 8041   2.563   2.873  10.990  0.1601 -0.5718  0.5291
  538TMC3     H 8042   2.547   3.019  10.796  0.7717  1.4827 -0.9673
  538TMC3    H1 8043   2.408   3.187  11.164 -0.7618 -0.2798 -0.0563
  538TMC3    H2 8044   2.497   3.439  10.853  2.4133  0.2516 -0.7979
  538TMC3    C7 8045   2.346   3.408  11.060 -1.0545 -0.3708 -0.3639
  538TMC3    C8 8046   2.596   3.247  10.686 -0.2548  0.2900  0.1644
  538TMC3    O1 8047   2.267   3.364  11.141 -0.4571 -0.1618 -0.5969
  538TMC3    O2 8048   2.634   3.148  10.623 -0.6819 -0.3027  0.2581
  539MPD2     C 8049   2.148   2.258  11.480  0.3126 -0.0993  0.9231
  539MPD2    C1 8050   2.240   2.342  11.422  0.1147  0.2941  0.6913
  539MPD2    C2 8051   2.200   2.468  11.389 -0.0176 -0.1410 -0.5100
  539MPD2    C3 8052   2.073   2.509  11.406 -0.0903  0.9348 -0.3602
  539MPD2    C4 8053   1.983   2.422  11.464 -0.4973  0.4855 -0.1830
  539MPD2    C5 8054   2.025   2.297  11.496  0.0699 -0.8851 -0.4624
  539MPD2     H 8055   2.267   2.537  11.338 -0.0388 -0.7042 -1.3021
  539MPD2    H1 8056   1.877   2.436  11.477 -0.2151  1.0981  1.4465
  539MPD2    H2 8057   2.167   2.155  11.509 -2.8662 -1.1681 -0.8395
  539MPD2    H3 8058   1.951   2.223  11.526 -1.8954  1.3732  0.2303
  539MPD2     N 8059   2.033   2.642  11.376 -0.0860 -0.1758 -0.2253
  539MPD2    H5 8060   2.091   2.688  11.307 -0.3864  2.0803  1.0163
  539MPD2    N1 8061   2.369   2.289  11.398  0.0603 -0.2040  0.2642
  539MPD2    H7 8062   2.441   2.352  11.366 -1.2505  0.5689 -1.1286
  540TMC3    C1 8063   1.891   2.825  11.356  0.1258 -0.3404  0.1350
  540TMC3    C2 8064   1.872   2.842  11.221 -0.7258 -0.2740  0.2742
  540TMC3    C3 8065   1.814   2.963  11.185  0.6415 -0.9343 -1.1857
  540TMC3    C4 8066   1.855   2.924  11.446 -0.3350  0.2446 -0.0891
  540TMC3    C5 8067   1.784   3.033  11.412  0.2720  0.5826  1.1942
  540TMC3    C6 8068   1.755   3.056  11.272 -0.8888  0.3803 -0.3741
  540TMC3     C 8069   1.916   2.698  11.420  0.4217  0.7267 -0.2969
  540TMC3     O 8070   1.829   2.657  11.496  0.3037  0.4611  0.4197
  540TMC3     H 8071   1.905   2.758  11.161 -1.0237  0.4597 -0.9061
  540TMC3    H1 8072   1.862   2.911  11.553  0.9421 -4.2237 -0.6889
  540TMC3    H2 8073   1.694   3.137  11.234 -0.6529  0.8243  0.2043
  540TMC3    C7 8074   1.661   3.038  11.483  0.5314  0.1631 -0.2427
  540TMC3    C8 8075   1.774   2.982  11.044 -0.1224 -0.5736 -0.0310
  540TMC3    O1 8076   1.616   2.933  11.524 -0.0450 -0.7202  0.2240
  540TMC3    O2 8077   1.736   3.092  11.007  0.1033 -0.0364  0.3969
  541MPD2     C 8078   0.088   3.444  13.262 -0.1092 -0.6834  0.1838
  541MPD2    C1 8079   0.093   3.365  13.147 -0.2499 -0.0814  0.5567
  541MPD2    C2 8080   0.117   3.427  13.031  0.3139  0.4521 -0.2146
  541MPD2    C3 8081   0.142   3.564  13.031  0.6538  1.0158 -0.1061
  541MPD2    C4 8082   0.114   3.639  13.144 -0.2356  0.7781  0.8531
  541MPD2    C5 8083   0.082   3.577  13.258 -0.1517 -0.2697 -0.1335
  541MPD2     H 8084   0.118   3.367  12.941 -0.3803  0.2491 -0.0889
  541MPD2    H1 8085   0.136   3.745  13.145 -0.6586  0.8755  0.0302
  541MPD2    H2 8086   0.069   3.395  13.357 -1.1828 -0.6553 -0.0174
  541MPD2    H3 8087   0.080   3.640  13.346  1.9098  0.8488 -0.9046
  541MPD2     N 8088   0.167   3.636  12.909  0.2526  0.2591  0.1516
  541MPD2    H5 8089   0.133   3.732  12.913  1.0035  0.5886 -1.6820
  541MPD2    N1 8090   0.089   3.224  13.166 -0.5367 -0.2927 -0.1930
  541MPD2    H7 8091   0.079   3.192  13.261  0.0965  1.2601  0.4038
  542TMC3    C1 8092   0.203   3.673  12.675  0.0630  0.1339 -0.6403
  542TMC3    C2 8093   0.260   3.624  12.556 -0.5686  0.2203 -0.9830
  542TMC3    C3 8094   0.200   3.648  12.435  0.9084 -0.1813 -0.3895
  542TMC3    C4 8095   0.086   3.751  12.670 -0.2952  0.1510  0.2497
  542TMC3    C5 8096   0.040   3.788  12.543 -0.0431 -0.7289  0.1827
  542TMC3    C6 8097   0.096   3.738  12.425  0.0688  0.2914  0.1689
  542TMC3     C 8098   0.206   3.584  12.785  0.4551  0.2261 -0.1365
  542TMC3     O 8099   0.253   3.472  12.763 -0.3780  1.2400 -0.5366
  542TMC3     H 8100   0.351   3.566  12.571 -0.3974  1.3269  2.1230
  542TMC3    H1 8101   0.052   3.803  12.759  1.1054 -0.5767  1.1938
  542TMC3    H2 8102   0.050   3.753  12.328  0.5827 -0.1506 -0.1404
  542TMC3    C7 8103   4.681   3.899  12.537 -0.4673 -0.1814  0.2821
  542TMC3    C8 8104   0.260   3.601  12.317 -0.3795  0.0354  0.1827
  542TMC3    O1 8105   4.596   3.912  12.625  0.0724 -0.4092 -0.1375
  542TMC3    O2 8106   0.232   3.662  12.215  0.3849  0.1805 -0.1962
  543TMC3    C1 8107   4.136   0.681  17.213 -0.3219  0.6026  0.4964
  543TMC3    C2 8108   4.137   0.553  17.249 -0.3505 -0.2886 -0.2263
  543TMC3    C3 8109   4.152   0.523  17.384  0.0309 -0.3244 -0.0529
  543TMC3    C4 8110   4.152   0.786  17.296 -0.1722 -0.1612  0.5198
  543TMC3    C5 8111   4.163   0.753  17.433 -0.3474 -0.5029  0.5401
  543TMC3    C6 8112   4.171   0.626  17.478 -0.5997 -0.2135  0.7738
  543TMC3     C 8113   4.126   0.711  17.069  0.0519 -0.5811 -0.6403
  543TMC3     O 8114   4.184   0.809  17.025  0.2931 -0.1302  0.0054
  543TMC3     H 8115   4.127   0.469  17.182 -0.8497  1.9258 -2.9372
  543TMC3    H1 8116   4.152   0.886  17.255 -1.8801 -0.0066  0.8787
  543TMC3    H2 8117   4.195   0.612  17.583 -1.9282 -0.3119  1.0666
  543TMC3    C7 8118   4.078   0.831  17.516 -0.4666  0.3334 -0.9257
  543TMC3    C8 8119   4.184   0.387  17.422 -0.4979 -0.2325  0.4029
  543TMC3    O1 8120   4.028   0.766  17.606  0.6952 -0.4331 -0.5597
  543TMC3    O2 8121   4.219   0.317  17.330  0.5387 -0.1794  0.0923
  544MPD2     C 8122   4.145   0.014  17.751  0.4600  0.1817 -0.3803
  544MPD2    C1 8123   4.187   0.008  17.621  0.2105 -0.4940  0.0690
  544MPD2    C2 8124   4.189   0.121  17.552  0.4953  0.2068  0.4768
  544MPD2    C3 8125   4.152   0.235  17.610 -0.5228  0.1990 -0.4134
  544MPD2    C4 8126   4.105   0.235  17.741 -0.6459 -0.0837  0.3225
  544MPD2    C5 8127   4.097   0.122   0.050 -0.4204  0.4445  0.0069
  544MPD2     H 8128   4.200   0.115  17.445 -1.4404 -1.0512  0.3535
  544MPD2    H1 8129   4.073   0.325   0.030 -1.2179 -0.0726 -0.0723
  544MPD2    H2 8130   4.117   4.659   0.035 -0.6442  0.4845 -0.4209
  544MPD2    H3 8131   4.059   0.125   0.151  0.0977 -0.9291  0.2415
  544MPD2     N 8132   4.151   0.363  17.547 -0.2276  0.7692 -0.0724
  544MPD2    H5 8133   4.118   0.441  17.602  0.7533  0.1730  1.3461
  544MPD2    N1 8134   4.207   4.620  17.570 -0.3461  0.3206 -0.6850
  544MPD2    H7 8135   4.222   4.547  17.638 -2.5330 -0.9296 -1.5440
  545TMC3    C1 8136   4.263   4.452  17.421 -0.1512 -0.0931  0.3493
  545TMC3    C2 8137   4.294   4.419  17.293  0.9285  0.1735 -0.0733
  545TMC3    C3 8138   4.377   4.323  17.264 -0.3330  0.0948 -0.2429
  545TMC3    C4 8139   4.298   4.379  17.525  0.2545 -0.2491 -0.4787
  545TMC3    C5 8140   4.362   4.260  17.485  0.0393 -0.0956  0.2799
  545TMC3    C6 8141   4.413   4.233  17.364  0.3409  0.7527 -0.5131
  545TMC3     C 8142   4.224   4.584  17.441 -0.5136  0.3929  0.6795
  545TMC3     O 8143   4.205   4.647  17.338 -0.2065 -0.8318  0.2159
  545TMC3     H 8144   4.259   4.481  17.212  2.2657  1.4283  0.2933
  545TMC3    H1 8145   4.252   4.389  17.622  0.1939  0.2816 -0.5644
  545TMC3    H2 8146   4.475   4.147  17.341 -1.8470 -1.0807  0.4805
  545TMC3    C7 8147   4.370   4.151  17.587 -0.7360  0.4344  0.2780
  545TMC3    C8 8148   4.435   4.316  17.135  0.1683  0.1903  0.1266
  545TMC3    O1 8149   4.311   4.183  17.688  0.5178 -0.0028  0.0982
  545TMC3    O2 8150   4.410   4.413  17.066  0.4380  0.3669  0.7190
  546MPD2     C 8151   0.749   4.718  17.708 -0.4211 -0.6224  0.2922
  546MPD2    C1 8152   0.763   0.024  17.577  0.2051  0.0378  0.2168
  546MPD2    C2 8153   0.855   0.130  17.552 -0.0436 -0.2856 -0.0815
  546MPD2    C3 8154   0.920   0.186  17.662 -0.2093 -0.3863 -0.0772
  546MPD2    C4 8155   0.908   0.135   0.030  0.2629 -0.4924 -0.6539
  546MPD2    C5 8156   0.817   0.032   0.048 -0.4087  0.2655  0.2186
  546MPD2     H 8157   0.855   0.182  17.458 -2.2437 -0.2480 -0.0544
  546MPD2    H1 8158   0.960   0.164   0.121 -2.1363  1.6932  0.0094
  546MPD2    H2 8159   0.676   4.639  17.722 -1.6593  0.1485 -1.6654
  546MPD2    H3 8160   0.805   4.730   0.147 -0.6135 -1.5022 -0.5720
  546MPD2     N 8161   1.001   0.300  17.662 -0.0247 -0.2471 -0.6438
  546MPD2    H5 8162   1.016   0.341  17.753  1.5009 -2.7322  0.2235
  546MPD2    N1 8163   0.681   4.711  17.480 -0.4867 -0.1912  0.1352
  546MPD2    H7 8164   0.630   4.628  17.509 -0.4314 -0.2919 -0.0582
  547TMC3    C1 8165   0.587   4.664  17.264  0.5670  0.0840 -0.0189
  547TMC3    C2 8166   0.505   4.722  17.174  0.6421 -0.2733 -0.1073
  547TMC3    C3 8167   0.400   4.644  17.128  0.0536 -0.1643 -0.2550
  547TMC3    C4 8168   0.563   4.541  17.309 -0.8723  0.4989 -0.1278
  547TMC3    C5 8169   0.464   4.471  17.251  0.3767  0.0889 -0.0645
  547TMC3    C6 8170   0.374   4.515  17.163  0.3073 -0.3595 -0.0868
  547TMC3     C 8171   0.671   0.011  17.347 -0.1623 -0.4448  0.2101
  547TMC3     O 8172   0.726   0.108  17.290  0.8097 -0.3616  0.0149
  547TMC3     H 8173   0.542   0.070  17.125  0.4995  0.6567  1.4736
  547TMC3    H1 8174   0.634   4.492  17.375 -2.4563  0.8134  1.8087
  547TMC3    H2 8175   0.303   4.455  17.107  0.5212 -1.1132  0.4478
  547TMC3    C7 8176   0.465   4.331  17.296  0.3828 -0.2184 -1.0631
  547TMC3    C8 8177   0.302   4.717  17.054 -0.2169  0.0638 -0.2835
  547TMC3    O1 8178   0.493   4.307  17.415  0.6954  0.5760  0.0577
  547TMC3    O2 8179   0.341   0.069  16.983 -0.1182 -0.6224  0.2730
  548MPD2     C 8180   0.970   0.333  12.962 -0.3080  0.7664 -0.1289
  548MPD2    C1 8181   0.907   0.228  12.891  0.5904 -0.0776  0.4394
  548MPD2    C2 8182   0.989   0.135  12.829  0.5039 -0.1495 -0.3399
  548MPD2    C3 8183   1.126   0.139  12.852  0.2009 -0.7785  0.1357
  548MPD2    C4 8184   1.185   0.251  12.909  0.8132 -0.2181  0.1487
  548MPD2    C5 8185   1.101   0.339  12.978  0.2260 -0.0498 -0.5268
  548MPD2     H 8186   0.953   0.045  12.779 -2.2580  1.8629 -1.9676
  548MPD2    H1 8187   1.290   0.277  12.899  1.2617 -2.7145 -1.5573
  548MPD2    H2 8188   0.902   0.403  13.009 -0.4778  2.3309 -2.6876
  548MPD2    H3 8189   1.150   0.419  13.033  1.5639 -1.3341  0.1364
  548MPD2     N 8190   1.206   0.044  12.792  0.5287 -0.0900  0.4830
  548MPD2    H5 8191   1.162   0.001  12.711  2.3677 -0.5976 -0.2494
  548MPD2    N1 8192   0.766   0.236  12.876  1.0928  0.2640  0.2632
  548MPD2    H7 8193   0.722   0.310  12.930 -0.1153  0.9384 -1.6536
  549TMC3    C1 8194   0.544   0.166  12.813 -0.6591 -0.9666  0.2067
  549TMC3    C2 8195   0.499   0.294  12.783  0.5091 -0.4997  0.7554
  549TMC3    C3 8196   0.371   0.306  12.735  0.3324 -0.4369 -0.6559
  549TMC3    C4 8197   0.472   0.055  12.783 -0.1037 -0.2272  1.0460
  549TMC3    C5 8198   0.341   0.074  12.742 -0.3131 -0.2462  0.2031
  549TMC3    C6 8199   0.290   0.198  12.719  0.4247 -0.3704  0.1264
  549TMC3     C 8200   0.688   0.144  12.815 -0.5821  0.2593  0.7398
  549TMC3     O 8201   0.729   0.043  12.755 -0.4033 -0.2297 -0.1596
  549TMC3     H 8202   0.565   0.378  12.800  0.0882 -0.0239  0.0781
  549TMC3    H1 8203   0.510   4.702  12.820  0.5529 -0.0252  0.8933
  549TMC3    H2 8204   0.183   0.203  12.701  0.3439 -2.0202  0.1048
  549TMC3    C7 8205   0.253   4.697  12.718 -0.9321  0.4137  0.2173
  549TMC3    C8 8206   0.318   0.438  12.691  0.3782  0.5117  0.1212
  549TMC3    O1 8207   0.134   4.713  12.720  0.3378 -0.0769 -0.6157
  549TMC3    O2 8208   0.213   0.423  12.624 -0.9170 -0.9024  0.0955
  550TMC3    C1 8209   4.383   2.982  12.363 -0.0343 -0.0881  0.3140
  550TMC3    C2 8210   4.328   3.012  12.487 -0.2156 -0.5161  0.1140
  550TMC3    C3 8211   4.369   3.117  12.559  0.4702  1.0061 -0.2703
  550TMC3    C4 8212   4.478   3.064  12.311  0.4229 -0.1957 -0.2360
  550TMC3    C5 8213   4.508   3.181  12.383 -0.1907  0.2425  0.2401
  550TMC3    C6 8214   4.459   3.204  12.511 -0.3069 -0.3016 -0.2531
  550TMC3     C 8215   4.305   2.904  12.270 -0.3558 -0.4970  0.0305
  550TMC3     O 8216   4.260   2.797  12.306 -0.3782  1.0076 -0.4288
  550TMC3     H 8217   4.248   2.948  12.524 -1.5901  0.7101 -0.7626
  550TMC3    H1 8218   4.519   3.048  12.212 -0.9809  2.2524 -1.2145
  550TMC3    H2 8219   4.485   3.294  12.565  0.5989 -1.1464  0.7049
  550TMC3    C7 8220   4.461   3.288  12.295  0.1582  0.7847 -0.0934
  550TMC3    C8 8221   4.272   3.193  12.634 -0.0485 -0.1143  0.4477
  550TMC3    O1 8222   4.380   3.265  12.202  0.2987  0.1148  0.9128
  550TMC3    O2 8223   4.322   3.277  12.710 -0.0988 -0.2928  0.1090
  551TMC3    C1 8224   1.902   1.605  13.215 -1.0936 -0.5297 -0.4505
  551TMC3    C2 8225   1.978   1.678  13.127  0.3382  0.5150 -0.2859
  551TMC3    C3 8226   2.018   1.794  13.184  0.1191  0.4674 -0.3033
  551TMC3    C4 8227   1.869   1.636  13.342  0.0769  0.3564 -0.0818
  551TMC3    C5 8228   1.910   1.758  13.393 -0.2609 -0.1653  0.1208
  551TMC3    C6 8229   1.988   1.835  13.310  0.2321 -0.6686 -0.2003
  551TMC3     C 8230   1.815   1.508  13.155 -0.0925  0.4852 -0.2134
  551TMC3     O 8231   1.707   1.498  13.209 -0.2936  0.3321  0.3342
  551TMC3     H 8232   1.988   1.661  13.020  0.7739  1.1404 -0.3428
  551TMC3    H1 8233   1.826   1.555  13.400  2.3367 -1.6690 -1.2725
  551TMC3    H2 8234   2.029   1.926  13.352 -0.7307 -0.9299  1.2908
  551TMC3    C7 8235   1.932   1.764  13.538  0.3690 -0.2881  0.8155
  551TMC3    C8 8236   2.096   1.881  13.097 -0.2224  0.4439 -0.6103
  551TMC3    O1 8237   1.977   1.659  13.593  0.5972  0.3244  0.2321
  551TMC3    O2 8238   2.100   1.842  12.982  1.0631 -0.5271  0.4552
  552MPD2     C 8239   4.401   3.388  14.414  0.1166 -0.2875 -0.0446
  552MPD2    C1 8240   4.358   3.299  14.506  0.7281  0.0016 -0.2615
  552MPD2    C2 8241   4.435   3.267  14.619  0.5966  0.1560  0.1803
  552MPD2    C3 8242   4.555   3.329  14.639  0.0428  0.2645  0.4832
  552MPD2    C4 8243   4.594   3.411  14.538  0.5777 -0.1825 -0.6866
  552MPD2    C5 8244   4.519   3.443  14.433  0.4420  0.9677  0.0191
  552MPD2     H 8245   4.396   3.194  14.689  1.9576 -1.4538 -0.7304
  552MPD2    H1 8246   4.687   3.465  14.550  0.1487  0.3701  0.1583
  552MPD2    H2 8247   4.345   3.427  14.329 -0.0096  1.6165  0.9036
  552MPD2    H3 8248   4.553   3.518  14.363 -0.6792  0.3260 -1.2194
  552MPD2     N 8249   4.639   3.322  14.751 -1.0556 -0.1386 -0.7382
  552MPD2    H5 8250   4.734   3.358  14.743 -0.7269 -1.3615 -2.3773
  552MPD2    N1 8251   4.237   3.228  14.490  0.3093 -0.2021  0.2796
  552MPD2    H7 8252   4.211   3.161  14.563  2.3072 -0.7798  0.4619
  553TMC3    C1 8253   4.050   3.130  14.398  0.0047  0.9461  0.3319
  553TMC3    C2 8254   4.055   3.066  14.280 -0.6608 -0.3361  0.5053
  553TMC3    C3 8255   4.054   2.927  14.277 -0.1826  0.6644 -0.4330
  553TMC3    C4 8256   4.039   3.067  14.523  1.0105  0.3140 -0.0655
  553TMC3    C5 8257   4.063   2.934  14.520  0.4925  0.6179 -0.6338
  553TMC3    C6 8258   4.064   2.866  14.406 -0.1633 -0.5531 -0.3985
  553TMC3     C 8259   4.135   3.249  14.397 -0.5260 -0.5258  0.1894
  553TMC3     O 8260   4.129   3.325  14.301  0.0364  0.3205  1.0039
  553TMC3     H 8261   4.083   3.126  14.194  3.5946 -0.8378  1.5071
  553TMC3    H1 8262   4.029   3.126  14.613  2.7054  0.4125  0.0587
  553TMC3    H2 8263   4.080   2.759  14.416 -1.1783 -0.4622  2.0630
  553TMC3    C7 8264   4.163   2.902  14.620 -0.6408 -0.1524  0.8156
  553TMC3    C8 8265   4.114   2.860  14.156  0.1588  0.2069  0.8871
  553TMC3    O1 8266   4.159   2.964  14.720 -0.4090  0.0046  0.1853
  553TMC3    O2 8267   4.196   2.779  14.176 -0.5014 -0.2285  0.2736
  554TMC3    C1 8268   0.875   2.553  11.369  0.0024  0.7464  0.4899
  554TMC3    C2 8269   0.853   2.548  11.237  0.0223 -0.1326  0.1632
  554TMC3    C3 8270   0.962   2.556  11.152 -0.0780 -0.5896 -0.1991
  554TMC3    C4 8271   0.997   2.593  11.422 -0.1315  0.8530 -1.1077
  554TMC3    C5 8272   1.097   2.618  11.337 -0.1271 -0.2164 -0.4937
  554TMC3    C6 8273   1.086   2.582  11.205  0.4240  0.3633 -0.8061
  554TMC3     C 8274   0.801   2.450  11.440  0.4589 -0.4351 -0.2425
  554TMC3     O 8275   0.696   2.404  11.392 -0.3166  0.2044  1.2120
  554TMC3     H 8276   0.752   2.520  11.208 -0.3033  2.9414 -1.7329
  554TMC3    H1 8277   1.012   2.613  11.527 -0.0936  1.9711 -1.3273
  554TMC3    H2 8278   1.180   2.582  11.151  0.7044  0.8037 -0.3244
  554TMC3    C7 8279   1.179   2.734  11.349 -0.2552 -0.0841 -0.1219
  554TMC3    C8 8280   0.948   2.582  11.011 -0.3878 -0.0923  0.1397
  554TMC3    O1 8281   1.286   2.730  11.294  0.3249 -0.2709  0.2031
  554TMC3    O2 8282   1.039   2.637  10.949  0.4384 -0.1373 -0.2907
  555TMC3    C1 8283   4.275   1.767  15.831  0.0719 -0.8038 -0.9737
  555TMC3    C2 8284   4.228   1.882  15.891  0.0923  0.0806 -0.9375
  555TMC3    C3 8285   4.189   1.869  16.025  0.0031  0.2493  0.0630
  555TMC3    C4 8286   4.274   1.647  15.896 -0.1894 -0.2674 -0.4126
  555TMC3    C5 8287   4.224   1.635  16.021 -0.6717  0.2005 -0.2213
  555TMC3    C6 8288   4.189   1.749  16.089 -0.1974  0.0029  0.0578
  555TMC3     C 8289   4.368   1.777  15.717 -0.0010  0.8147  0.4582
  555TMC3     O 8290   4.478   1.720  15.725  0.1347  0.4564  0.0938
  555TMC3     H 8291   4.240   1.983  15.854 -2.8767  1.3835  1.5976
  555TMC3    H1 8292   4.330   1.565  15.853 -2.7753 -0.7598 -2.8446
  555TMC3    H2 8293   4.173   1.749  16.196  0.1322  0.3687  0.1051
  555TMC3    C7 8294   4.221   1.504  16.084 -0.4853  0.2682  0.4978
  555TMC3    C8 8295   4.203   1.994  16.097 -0.4875 -0.2984  0.3384
  555TMC3    O1 8296   4.251   1.414  16.009  0.1496  0.1541  0.4139
  555TMC3    O2 8297   4.134   2.088  16.054  0.0991 -0.5998  0.4236
  556MPD2     C 8298   2.686   4.582  10.818  0.0269  0.4943 -0.5410
  556MPD2    C1 8299   2.702   4.447  10.850 -0.3790  0.6054  0.0201
  556MPD2    C2 8300   2.653   4.348  10.770  0.5597  0.2288  0.5126
  556MPD2    C3 8301   2.610   4.386  10.643  0.0903 -0.4411 -0.1301
  556MPD2    C4 8302   2.600   4.518  10.608  0.0386  0.6752 -0.1816
  556MPD2    C5 8303   2.627   4.618  10.699 -0.0732 -0.6230 -0.0038
  556MPD2     H 8304   2.662   4.245  10.805 -1.6232 -0.2578 -0.3365
  556MPD2    H1 8305   2.575   4.551  10.508 -1.4107 -3.0861 -1.0624
  556MPD2    H2 8306   2.712   4.662  10.887 -0.9513  0.7684 -0.4893
  556MPD2    H3 8307   2.603   4.722  10.676  3.0148  0.4653  1.7375
  556MPD2     N 8308   2.589   4.290  10.543  0.3639 -0.3784  0.0487
  556MPD2    H5 8309   2.592   4.191  10.569  0.8284 -0.5225 -0.5589
  556MPD2    N1 8310   2.769   4.403  10.962  0.3810 -0.1159  0.1314
  556MPD2    H7 8311   2.785   4.302  10.961 -1.0957 -0.3375 -0.5834
  557TMC3    C1 8312   2.559   4.185  10.331 -0.1044 -0.0755 -0.3750
  557TMC3    C2 8313   2.584   4.188  10.199 -0.6856 -0.1376  0.1709
  557TMC3    C3 8314   2.608   4.066  10.131  0.8613 -0.3122 -0.1085
  557TMC3    C4 8315   2.563   4.058  10.395 -0.8641 -0.3139 -0.4182
  557TMC3    C5 8316   2.604   3.947  10.331  0.7656 -0.4671  0.6306
  557TMC3    C6 8317   2.623   3.944  10.190 -0.6763 -0.1866  0.5051
  557TMC3     C 8318   2.563   4.312  10.404 -0.5490  0.1672 -0.3813
  557TMC3     O 8319   2.558   4.418  10.339 -0.4825  0.6028 -0.1541
  557TMC3     H 8320   2.578   4.277  10.139  0.7352 -0.1423  0.0231
  557TMC3    H1 8321   2.542   4.055  10.501 -1.9769 -0.4360 -0.6391
  557TMC3    H2 8322   2.636   3.847  10.143 -0.9334 -0.4070  0.9002
  557TMC3    C7 8323   2.605   3.820  10.402 -0.8514 -0.0429  0.3798
  557TMC3    C8 8324   2.594   4.074   9.983  0.4214 -0.7316 -1.2882
  557TMC3    O1 8325   2.548   3.826  10.514  0.5139  0.7422 -0.1040
  557TMC3    O2 8326   2.543   4.178   9.943 -0.3839 -0.3629  0.2640
  558TMC3    C1 8327   1.079   1.847  10.722  0.4556 -0.4788  0.0350
  558TMC3    C2 8328   0.969   1.860  10.799  0.2889  0.5685  0.1821
  558TMC3    C3 8329   0.863   1.929  10.745 -0.1117  0.2134 -0.6895
  558TMC3    C4 8330   1.095   1.911  10.603 -0.3264 -0.5583  0.1546
  558TMC3    C5 8331   0.994   1.987  10.556 -0.4341 -0.2627  0.3449
  558TMC3    C6 8332   0.873   1.995  10.623  0.0222  0.5037  0.1805
  558TMC3     C 8333   1.186   1.765  10.761  0.1577 -0.3548 -0.0640
  558TMC3     O 8334   1.302   1.805  10.746 -0.7560 -0.3304 -0.4983
  558TMC3     H 8335   0.962   1.814  10.898  2.3919  1.3492  0.6797
  558TMC3    H1 8336   1.184   1.912  10.541 -0.3593  4.2592  0.1852
  558TMC3    H2 8337   0.785   2.050  10.590  1.1311  1.2353 -1.5514
  558TMC3    C7 8338   0.991   2.031  10.420  0.2701  0.0560 -0.0015
  558TMC3    C8 8339   0.733   1.926  10.806 -0.1370  0.7971 -0.0421
  558TMC3    O1 8340   1.097   2.046  10.356  0.0711  0.8466 -0.1140
  558TMC3    O2 8341   0.640   1.980  10.750 -0.6259  0.0040  0.0519
  559MPD2     C 8342   1.092   2.422  10.352 -0.0850  0.0908  0.6543
  559MPD2    C1 8343   0.994   2.373  10.433  0.7390 -0.7589  0.6758
  559MPD2    C2 8344   1.023   2.337  10.562  0.7195 -0.3579 -0.3763
  559MPD2    C3 8345   1.157   2.327  10.604  0.1129 -0.5032 -0.8187
  559MPD2    C4 8346   1.252   2.388  10.527  0.3955  0.2040  0.5379
  559MPD2    C5 8347   1.220   2.433  10.403 -0.1300  0.0212 -0.5078
  559MPD2     H 8348   0.946   2.302  10.631  3.0660 -4.7679  0.0089
  559MPD2    H1 8349   1.356   2.384  10.555  0.5939  0.9576 -0.1004
  559MPD2    H2 8350   1.074   2.444  10.248 -2.8505  1.7195  1.4762
  559MPD2    H3 8351   1.304   2.461  10.340  1.6722 -0.7988  1.5205
  559MPD2     N 8352   1.211   2.269  10.721 -0.5952 -0.1491 -0.0821
  559MPD2    H5 8353   1.311   2.264  10.734 -0.5732  1.0936  0.2846
  559MPD2    N1 8354   0.866   2.378  10.374  0.4658 -0.4486 -0.5192
  559MPD2    H7 8355   0.858   2.398  10.275 -0.7217  0.9524 -0.1316
  560TMC3    C1 8356   1.201   2.158  10.943  0.1514  1.0371  1.1821
  560TMC3    C2 8357   1.122   2.072  11.016 -0.0744 -0.0275  0.4049
  560TMC3    C3 8358   1.196   2.002  11.108 -0.7053 -0.1007  0.0306
  560TMC3    C4 8359   1.332   2.202  10.963  0.8297  0.0118  0.7594
  560TMC3    C5 8360   1.391   2.124  11.057 -0.1686 -0.4646 -0.7648
  560TMC3    C6 8361   1.332   2.032  11.133  0.2246  0.3910  0.2229
  560TMC3     C 8362   1.135   2.203  10.823 -0.1360 -0.2051 -0.0081
  560TMC3     O 8363   1.014   2.193  10.820 -0.3752 -0.1679 -0.3026
  560TMC3     H 8364   1.018   2.053  10.992  0.0064  0.0199  0.0180
  560TMC3    H1 8365   1.388   2.275  10.906 -0.6631  0.6581  0.1312
  560TMC3    H2 8366   1.388   1.998  11.220  0.6751 -0.2120 -0.3033
  560TMC3    C7 8367   1.528   2.166  11.090 -0.6998  0.7062  0.1237
  560TMC3    C8 8368   1.137   1.871  11.160 -0.3339 -0.4658 -0.3691
  560TMC3    O1 8369   1.559   2.281  11.067 -0.1925 -0.8676  0.0144
  560TMC3    O2 8370   1.021   1.853  11.135 -0.2528 -0.7989  0.2230
  561TMC3    C1 8371   3.407   1.351  10.930  0.7530  0.3196 -0.2445
  561TMC3    C2 8372   3.341   1.269  11.019  1.2657 -0.5320 -0.1187
  561TMC3    C3 8373   3.337   1.303  11.154  0.3249 -0.5418 -0.8000
  561TMC3    C4 8374   3.466   1.466  10.977  0.2406 -0.2392  0.2994
  561TMC3    C5 8375   3.472   1.496  11.111 -0.1104 -0.0562  0.3662
  561TMC3    C6 8376   3.412   1.411  11.197  0.8401  0.0326  0.1748
  561TMC3     C 8377   3.402   1.310  10.791 -0.6523 -0.4597 -0.0002
  561TMC3     O 8378   3.323   1.225  10.759  0.1748  0.0584  0.0687
  561TMC3     H 8379   3.281   1.183  10.993  0.0592  0.0132  0.8686
  561TMC3    H1 8380   3.533   1.527  10.917 -0.1312  1.1400  1.3084
  561TMC3    H2 8381   3.410   1.441  11.302  0.8688 -0.8079  0.4116
  561TMC3    C7 8382   3.544   1.609  11.173  0.7446  0.3504  0.7796
  561TMC3    C8 8383   3.257   1.222  11.244  0.0219  0.0243 -0.1848
  561TMC3    O1 8384   3.533   1.625  11.293  0.4472  0.4079  0.0051
  561TMC3    O2 8385   3.212   1.114  11.207  0.4787  0.2720  0.1974
  562TMC3    C1 8386   4.513   2.400  16.838  0.6242 -0.8467 -0.6027
  562TMC3    C2 8387   4.430   2.460  16.755 -0.0204  0.1118  0.5363
  562TMC3    C3 8388   4.349   2.372  16.684  0.2123 -1.1159  0.4365
  562TMC3    C4 8389   4.531   2.269  16.865  0.1296 -0.3894 -1.0819
  562TMC3    C5 8390   4.446   2.182  16.790  0.6447  0.1415 -0.1746
  562TMC3    C6 8391   4.356   2.235  16.702 -0.7431  0.8268 -0.9481
  562TMC3     C 8392   4.627   2.486  16.866  1.3215 -0.2007  0.3398
  562TMC3     O 8393   4.644   2.585  16.797 -0.0956  0.1316  0.7096
  562TMC3     H 8394   4.425   2.568  16.741 -2.2547 -0.0264  0.3170
  562TMC3    H1 8395   4.596   2.224  16.939  0.9076  0.7540 -1.0803
  562TMC3    H2 8396   4.288   2.175  16.642 -1.4698 -1.3690  2.0783
  562TMC3    C7 8397   4.456   2.033  16.782 -0.0809  0.1394  0.5502
  562TMC3    C8 8398   4.233   2.420  16.606 -0.4797  0.1101  0.5343
  562TMC3    O1 8399   4.369   1.979  16.707  0.8846  0.7072 -0.4838
  562TMC3    O2 8400   4.139   2.345  16.583 -0.8002 -0.0515  0.0289
  563MPD2     C 8401   1.591   3.523  15.632 -0.2864 -0.0239 -0.6831
  563MPD2    C1 8402   1.649   3.588  15.743 -0.7368 -0.1615 -0.2019
  563MPD2    C2 8403   1.784   3.600  15.746  0.3095  0.7244  0.2781
  563MPD2    C3 8404   1.854   3.537  15.649 -0.2749 -0.2209  0.1153
  563MPD2    C4 8405   1.798   3.485  15.535  0.3138  0.6553  0.9692
  563MPD2    C5 8406   1.659   3.481  15.522 -0.9647 -0.1592 -0.3457
  563MPD2     H 8407   1.831   3.653  15.829  0.0659  0.4334  0.6001
  563MPD2    H1 8408   1.862   3.443  15.458 -0.8653 -2.4487  1.6660
  563MPD2    H2 8409   1.484   3.517  15.612 -0.6401  1.2189  0.7972
  563MPD2    H3 8410   1.606   3.436  15.439 -2.1019  3.4998 -1.6505
  563MPD2     N 8411   1.995   3.513  15.686 -0.3009 -0.1421  0.7906
  563MPD2    H5 8412   2.030   3.553  15.773  2.5688 -0.8682 -0.0500
  563MPD2    N1 8413   1.578   3.627  15.862 -0.2322 -0.3459  0.1218
  563MPD2    H7 8414   1.632   3.674  15.934 -3.0283  0.4927  1.6287
  564TMC3    C1 8415   1.413   3.601  16.019  0.6354 -0.3245 -0.6215
  564TMC3    C2 8416   1.298   3.530  16.034  0.1221  0.2720  0.3696
  564TMC3    C3 8417   1.293   3.424  16.123  0.8788  0.1261 -0.4556
  564TMC3    C4 8418   1.518   3.584  16.103 -0.0621 -0.3187  0.1505
  564TMC3    C5 8419   1.507   3.489  16.200  0.0520 -0.2574  0.2969
  564TMC3    C6 8420   1.392   3.415  16.217  0.5241  0.2468  0.0936
  564TMC3     C 8421   1.442   3.614  15.878  0.9264 -0.2135  0.4954
  564TMC3     O 8422   1.355   3.567  15.805 -0.4861  0.6394 -0.0503
  564TMC3     H 8423   1.210   3.526  15.970  1.6923 -0.6178 -1.7435
  564TMC3    H1 8424   1.605   3.648  16.104 -1.5057  1.6121  0.4310
  564TMC3    H2 8425   1.405   3.337  16.290 -0.2330  2.0320  2.1440
  564TMC3    C7 8426   1.621   3.400  16.212 -0.4548  0.1442 -0.0804
  564TMC3    C8 8427   1.282   3.289  16.066  0.1033  0.2559  0.2619
  564TMC3    O1 8428   1.647   3.346  16.315 -0.3367  0.7195  0.8273
  564TMC3    O2 8429   1.302   3.196  16.143 -0.0435  0.3252  0.0866
  565TMC3    C1 8430   2.865   0.723  10.230 -0.0787 -0.0675 -0.4395
  565TMC3    C2 8431   2.941   0.650  10.322  0.0502 -0.3280 -0.0559
  565TMC3    C3 8432   2.879   0.552  10.397 -0.1977 -0.1031  0.0570
  565TMC3    C4 8433   2.733   0.682  10.215 -0.1347 -0.3772  0.2276
  565TMC3    C5 8434   2.675   0.582  10.283  0.5401 -0.9071 -0.0591
  565TMC3    C6 8435   2.748   0.512  10.374 -0.2900 -0.4780 -0.0879
  565TMC3     C 8436   2.911   0.834  10.155 -0.3959  0.4736  0.0820
  565TMC3     O 8437   2.831   0.894  10.083  0.1759  0.3016  0.3152
  565TMC3     H 8438   3.039   0.683  10.353  0.5748 -1.4529 -0.5311
  565TMC3    H1 8439   2.673   0.753  10.159  0.1411 -0.9399 -0.7699
  565TMC3    H2 8440   2.700   0.474  10.464  1.6290 -0.8302  0.7840
  565TMC3    C7 8441   2.550   0.526  10.230  0.5355  0.9645 -0.0022
  565TMC3    C8 8442   2.942   0.510  10.525  0.1598 -0.8256 -0.2095
  565TMC3    O1 8443   2.485   0.587  10.147 -0.1635  0.0606 -0.4230
  565TMC3    O2 8444   3.018   0.592  10.575 -0.4568  0.0460 -0.2284
  566MPD2     C 8445   4.104   1.271  14.492 -0.1316 -0.0336  0.2930
  566MPD2    C1 8446   4.065   1.362  14.403 -0.0503  0.2857 -0.5469
  566MPD2    C2 8447   3.960   1.331  14.318  0.4855  0.3564  0.3690
  566MPD2    C3 8448   3.908   1.209  14.319  0.2311 -0.2555 -0.1607
  566MPD2    C4 8449   3.939   1.117  14.416 -0.2528  0.1151  0.3962
  566MPD2    C5 8450   4.034   1.156  14.502 -0.1035 -0.2253  0.3027
  566MPD2     H 8451   3.935   1.391  14.232 -0.1700 -2.0377 -1.0941
  566MPD2    H1 8452   3.899   1.017  14.428  0.0733 -0.2112 -1.3080
  566MPD2    H2 8453   4.179   1.289  14.568  0.9255 -0.3505 -0.6648
  566MPD2    H3 8454   4.065   1.091  14.583  0.3101 -2.0691 -1.3443
  566MPD2     N 8455   3.829   1.157  14.215 -0.4577 -0.4985  0.1825
  566MPD2    H5 8456   3.815   1.056  14.216  0.0134 -0.5639  0.3357
  566MPD2    N1 8457   4.147   1.476  14.398 -0.0399 -0.2215  0.2904
  566MPD2    H7 8458   4.223   1.483  14.464 -0.2556 -1.2449  0.6513
  567TMC3    C1 8459   4.245   1.670  14.299  0.2507 -0.5747  0.2644
  567TMC3    C2 8460   4.277   1.716  14.174  0.4420 -0.4978  0.4117
  567TMC3    C3 8461   4.402   1.763  14.159  0.6503  0.8386 -0.1780
  567TMC3    C4 8462   4.332   1.684  14.405  0.4482  0.1081 -0.3182
  567TMC3    C5 8463   4.447   1.751  14.381 -0.2012 -0.0144 -0.1519
  567TMC3    C6 8464   4.487   1.784  14.252 -0.2644  0.6357  0.1298
  567TMC3     C 8465   4.137   1.570  14.303 -0.2660  0.7165  0.3331
  567TMC3     O 8466   4.051   1.597  14.219  0.5487 -0.0927  0.1651
  567TMC3     H 8467   4.202   1.722  14.095  0.6115  2.8463  0.5065
  567TMC3    H1 8468   4.309   1.647  14.504  3.1470  2.4909  1.2020
  567TMC3    H2 8469   4.575   1.846  14.239  0.4378 -0.0818  1.5036
  567TMC3    C7 8470   4.522   1.792  14.490 -0.2645 -0.8202  0.6887
  567TMC3    C8 8471   4.453   1.749  14.020 -0.5083 -0.5160 -0.4775
  567TMC3    O1 8472   4.645   1.789  14.485 -0.0615 -0.2113  0.5581
  567TMC3    O2 8473   4.366   1.727  13.933  0.1226  0.5763  0.1358
  568MPD2     C 8474   1.983   1.846  16.098 -0.3349 -0.6852  0.0974
  568MPD2    C1 8475   1.872   1.862  16.175  0.6204 -0.2127  0.1253
  568MPD2    C2 8476   1.790   1.970  16.154  0.3595  0.1581 -0.1528
  568MPD2    C3 8477   1.821   2.070  16.062  0.4755  0.1353 -0.1769
  568MPD2    C4 8478   1.932   2.060  15.986  0.1145  0.5251 -0.1884
  568MPD2    C5 8479   2.005   1.943  15.995  0.0043  0.4918 -0.0468
  568MPD2     H 8480   1.697   1.990  16.206  0.9160  0.0841  0.8606
  568MPD2    H1 8481   1.968   2.138  15.920  1.4552 -1.7697 -2.1954
  568MPD2    H2 8482   2.055   1.766  16.112  0.3599 -0.1931 -0.6887
  568MPD2    H3 8483   2.096   1.937  15.938 -0.8521 -0.3995 -1.3343
  568MPD2     N 8484   1.746   2.189  16.075 -0.5090 -0.7458 -0.1945
  568MPD2    H5 8485   1.658   2.184  16.125 -0.8191  0.3046 -0.6449
  568MPD2    N1 8486   1.849   1.767  16.273  0.3391  0.2894  0.2337
  568MPD2    H7 8487   1.907   1.683  16.267  1.4357  1.0061  0.8158
  569TMC3    C1 8488   1.686   2.415  16.049 -0.0771  0.7157  0.1154
  569TMC3    C2 8489   1.647   2.428  16.175  0.0128  0.0408 -0.4975
  569TMC3    C3 8490   1.574   2.533  16.218  0.1131  0.5635  0.9086
  569TMC3    C4 8491   1.680   2.527  15.962  0.4182  0.1128  0.1222
  569TMC3    C5 8492   1.606   2.642  16.013 -0.2515 -0.8820  0.6826
  569TMC3    C6 8493   1.556   2.641  16.138 -0.2358  0.2715 -0.3725
  569TMC3     C 8494   1.773   2.310  16.006  0.2334 -0.7645 -0.3969
  569TMC3     O 8495   1.865   2.342  15.931 -0.1441 -0.1528  0.2742
  569TMC3     H 8496   1.673   2.351  16.246  0.5234 -0.1113 -0.8506
  569TMC3    H1 8497   1.736   2.526  15.869  1.7918 -0.0979  0.9487
  569TMC3    H2 8498   1.489   2.714  16.182  1.5924  2.0214 -0.4985
  569TMC3    C7 8499   1.580   2.744  15.914  0.1141  0.0987 -0.2880
  569TMC3    C8 8500   1.555   2.549  16.361 -0.4160 -0.5125  0.0298
  569TMC3    O1 8501   1.641   2.721  15.808  0.4866 -0.4169 -0.9107
  569TMC3    O2 8502   1.544   2.446  16.429  0.0960  0.2749  0.3311
  570TMC3    C1 8503   1.083   1.168  16.241  0.5907 -0.4542  0.3161
  570TMC3    C2 8504   1.174   1.183  16.141 -0.0764  0.0414 -0.0041
  570TMC3    C3 8505   1.197   1.313  16.097 -0.3731  0.1829 -0.3782
  570TMC3    C4 8506   1.020   1.272  16.305 -0.0957  0.4185 -0.0858
  570TMC3    C5 8507   1.039   1.397  16.249 -1.4287  0.7446 -0.2759
  570TMC3    C6 8508   1.131   1.422  16.150 -0.1616  0.3716  0.9052
  570TMC3     C 8509   1.058   1.028  16.266 -0.0645  0.8262  0.0434
  570TMC3     O 8510   1.084   0.952  16.172 -0.6437  0.2126  0.2985
  570TMC3     H 8511   1.229   1.097  16.104  0.2270 -0.7334  2.2703
  570TMC3    H1 8512   0.950   1.253  16.386  0.2183 -0.9681 -0.1317
  570TMC3    H2 8513   1.164   1.518  16.111  3.3623 -1.4036 -0.4017
  570TMC3    C7 8514   0.964   1.509  16.317 -0.3824  0.2676 -0.5534
  570TMC3    C8 8515   1.297   1.335  15.996 -0.3361 -0.5162 -0.3820
  570TMC3    O1 8516   0.914   1.478  16.422  0.0349  0.1033 -0.2352
  570TMC3    O2 8517   1.321   1.452  15.974  0.0196 -0.4257 -0.4129
  571MPD2     C 8518   2.877   2.499   0.142 -0.6568  0.1968  0.2251
  571MPD2    C1 8519   2.844   2.604   0.229  0.1800  0.9020  0.2434
  571MPD2    C2 8520   2.939   2.698   0.279 -0.8608 -0.0654 -0.2092
  571MPD2    C3 8521   3.070   2.679   0.233  0.1586 -0.5656  0.2611
  571MPD2    C4 8522   3.101   2.586   0.140 -0.3753  0.0275 -0.2930
  571MPD2    C5 8523   3.004   2.491   0.102  0.3907 -0.4442 -0.3520
  571MPD2     H 8524   2.910   2.783   0.339  0.3872  0.1891  0.0352
  571MPD2    H1 8525   3.192   2.585   0.080 -0.3087  0.7594 -0.2015
  571MPD2    H2 8526   2.809   2.424   0.106 -0.3701  0.7020 -1.3471
  571MPD2    H3 8527   3.037   2.411   0.037 -1.1943 -0.0933 -1.5815
  571MPD2     N 8528   3.177   2.750   0.282 -0.1280 -0.2934  0.5320
  571MPD2    H5 8529   3.267   2.707   0.259  0.1744  1.2462 -1.2014
  571MPD2    N1 8530   2.715   2.631   0.269 -0.0426 -0.3205  0.1027
  571MPD2    H7 8531   2.703   2.702   0.341  0.8161  0.4526 -0.5305
  572TMC3    C1 8532   3.300   2.926   0.383  0.5019 -1.0683 -0.3196
  572TMC3    C2 8533   3.394   2.840   0.425  0.1234 -0.6690  0.4296
  572TMC3    C3 8534   3.483   2.885   0.515  1.0177 -0.5571 -0.0299
  572TMC3    C4 8535   3.313   3.062   0.405  0.9415  0.3899  0.5518
  572TMC3    C5 8536   3.417   3.104   0.485  0.6430  0.4282  0.1692
  572TMC3    C6 8537   3.504   3.019   0.546  0.1820 -0.7889  0.0128
  572TMC3     C 8538   3.168   2.872   0.350 -0.4498 -0.1712 -0.1755
  572TMC3     O 8539   3.073   2.936   0.396  0.4466 -0.2285 -0.2393
  572TMC3     H 8540   3.383   2.732   0.426 -0.6935 -0.6248 -2.8120
  572TMC3    H1 8541   3.236   3.127   0.365  2.3499  1.0808 -1.0817
  572TMC3    H2 8542   3.571   3.049   0.626  0.2883 -1.1247  0.0531
  572TMC3    C7 8543   3.441   3.249   0.482 -0.2744 -0.2005  0.0868
  572TMC3    C8 8544   3.537   2.799   0.621  0.2398  0.0611  0.0863
  572TMC3    O1 8545   3.367   3.313   0.411 -0.5830 -0.5484  0.4105
  572TMC3    O2 8546   3.580   2.691   0.581  0.1213 -0.6955  0.5153
  573MPD2     C 8547   4.578   2.942   0.339 -0.1297  0.6792 -0.6062
  573MPD2    C1 8548   4.654   3.058   0.326 -0.2294 -0.0357 -0.2243
  573MPD2    C2 8549   4.707   3.079   0.201  0.2336 -0.1568  0.3012
  573MPD2    C3 8550   4.687   2.989   0.098  0.9601 -0.1961  0.0019
  573MPD2    C4 8551   4.615   2.873   0.123  0.0705  0.1805  0.0238
  573MPD2    C5 8552   4.560   2.853   0.243  0.0413 -0.6808  0.2974
  573MPD2     H 8553   0.018   3.172   0.180 -0.8275  0.6160  1.1062
  573MPD2    H1 8554   4.594   2.794   0.051 -0.4480  1.0322 -0.7751
  573MPD2    H2 8555   4.526   2.937   0.434  0.1605 -2.0828 -0.5834
  573MPD2    H3 8556   4.500   2.763   0.249 -0.2623 -0.4262  1.1813
  573MPD2     N 8557   4.729   3.014  17.729  0.4013  0.0356  0.9871
  573MPD2    H5 8558   4.676   2.984  17.648  0.6664  2.5823 -0.1267
  573MPD2    N1 8559   4.664   3.153   0.431  0.0232  0.2420 -0.1769
  573MPD2    H7 8560   4.629   3.122   0.521  0.3158 -0.5219 -0.3306
  574TMC3    C1 8561   0.054   3.173  17.571  0.8187  0.0973  0.3911
  574TMC3    C2 8562   4.673   3.228  17.562  0.1319 -0.4083 -0.7997
  574TMC3    C3 8563   4.663   3.359  17.516 -0.6880  0.0633  0.6184
  574TMC3    C4 8564   0.161   3.227  17.502  0.0102  0.4933 -0.5144
  574TMC3    C5 8565   0.149   3.357  17.460 -0.6079 -0.6766  0.1934
  574TMC3    C6 8566   0.027   3.422  17.463 -0.1921  0.2028  0.4862
  574TMC3     C 8567   0.080   3.109  17.695  0.5499  0.0557 -0.0442
  574TMC3     O 8568   0.166   3.171  17.758 -0.2943  0.6316 -0.4140
  574TMC3     H 8569   4.597   3.193  17.631  1.1258  2.9948  2.0793
  574TMC3    H1 8570   0.255   3.175  17.499 -0.1168  0.1433  2.0503
  574TMC3    H2 8571   0.022   3.527  17.436  0.0520 -0.1991 -1.1183
  574TMC3    C7 8572   0.265   3.438  17.486  0.4788 -0.1413  0.8073
  574TMC3    C8 8573   4.588   3.439  17.613 -0.1831 -0.6180 -0.4451
  574TMC3    O1 8574   0.275   3.544  17.428  0.1800  0.4092 -0.1961
  574TMC3    O2 8575   4.556   3.383  17.719  0.1147 -0.2935  0.0603
  575TMC3    C1 8576   3.628   0.495  11.088  0.1088 -0.1058  0.5761
  575TMC3    C2 8577   3.636   0.401  11.187  0.8594 -0.8684 -0.1549
  575TMC3    C3 8578   3.527   0.315  11.199  0.3919  0.0623  0.5580
  575TMC3    C4 8579   3.523   0.504  11.002  0.0738  0.2920 -0.4069
  575TMC3    C5 8580   3.421   0.414  11.016 -0.1236 -0.1888 -0.8700
  575TMC3    C6 8581   3.424   0.321  11.112  0.9334 -0.1107  0.8991
  575TMC3     C 8582   3.716   0.608  11.093 -0.1321 -0.1915 -0.4031
  575TMC3     O 8583   3.747   0.654  10.985 -0.1835  0.5805  0.0554
  575TMC3     H 8584   3.717   0.406  11.259  1.3547  0.0222 -0.7639
  575TMC3    H1 8585   3.515   0.589  10.935  1.3629  0.9325  0.2453
  575TMC3    H2 8586   3.352   0.244  11.137  1.3080 -0.7800 -0.1095
  575TMC3    C7 8587   3.315   0.409  10.910 -0.3963  0.1541 -0.3606
  575TMC3    C8 8588   3.544   0.212  11.301  0.3981 -0.7616 -0.7256
  575TMC3    O1 8589   3.328   0.484  10.816 -0.0196 -0.0001  0.0296
  575TMC3    O2 8590   3.637   0.220  11.376  0.3378  0.8459 -0.3336
  576MPD2     C 8591   3.132   1.526  12.600 -0.9066 -0.1911 -0.3098
  576MPD2    C1 8592   3.147   1.632  12.510  0.6654 -0.2961 -0.1209
  576MPD2    C2 8593   3.077   1.751  12.537  0.1956  0.3382 -0.9348
  576MPD2    C3 8594   2.992   1.763  12.648  0.1162  0.6749 -0.8138
  576MPD2    C4 8595   2.993   1.663  12.740  0.3583 -0.1837  0.7692
  576MPD2    C5 8596   3.056   1.549  12.712 -0.4912 -0.0020 -0.2518
  576MPD2     H 8597   3.060   1.826  12.462  0.2267 -1.3761 -2.6560
  576MPD2    H1 8598   2.932   1.660  12.829 -0.6207  0.8867  0.1369
  576MPD2    H2 8599   3.177   1.427  12.603  0.5505  0.4697 -0.1728
  576MPD2    H3 8600   3.039   1.466  12.779 -1.0867  0.5071  0.2219
  576MPD2     N 8601   2.912   1.878  12.663  0.0365 -0.0487 -0.5505
  576MPD2    H5 8602   2.927   1.945  12.588 -0.9690 -1.5508 -2.1006
  576MPD2    N1 8603   3.218   1.614  12.392 -0.2682 -0.0460  0.2050
  576MPD2    H7 8604   3.206   1.685  12.321 -0.5005 -0.7634 -0.4677
  577TMC3    C1 8605   3.316   1.487  12.214  0.0404  0.6721 -0.1560
  577TMC3    C2 8606   3.238   1.387  12.156 -0.5009 -0.5776  1.0383
  577TMC3    C3 8607   3.166   1.423  12.045  0.2454  0.3549  0.3892
  577TMC3    C4 8608   3.328   1.610  12.155 -0.8722  0.3855 -1.2995
  577TMC3    C5 8609   3.245   1.643  12.051 -0.0443  0.1654 -0.2031
  577TMC3    C6 8610   3.169   1.549  11.993 -0.5327 -0.9748 -0.4447
  577TMC3     C 8611   3.286   1.499  12.358  0.3395  0.4457  0.2366
  577TMC3     O 8612   3.303   1.392  12.418 -0.1462 -0.2988  0.0894
  577TMC3     H 8613   3.217   1.292  12.202  0.1001  0.8692  4.3180
  577TMC3    H1 8614   3.375   1.683  12.219 -0.2511 -0.2901 -0.9752
  577TMC3    H2 8615   3.113   1.573  11.904 -0.0359 -0.3778 -0.6018
  577TMC3    C7 8616   3.173   1.768  12.068  0.3670  0.6187 -0.1162
  577TMC3    C8 8617   3.130   1.313  11.961  0.3401  0.1189  0.7865
  577TMC3    O1 8618   3.184   1.815  12.182  0.4773 -0.2491  0.6056
  577TMC3    O2 8619   3.089   1.208  12.012  0.5137  0.2754  0.1463
  578MPD2     C 8620   0.267   1.208   1.255  1.0624  0.1250 -0.3811
  578MPD2    C1 8621   0.316   1.156   1.135 -0.2661  0.1604  0.4279
  578MPD2    C2 8622   0.437   1.082   1.138  0.2695  0.2821  0.0611
  578MPD2    C3 8623   0.512   1.075   1.252  0.3727 -1.0417  0.1324
  578MPD2    C4 8624   0.458   1.119   1.369 -0.3300  0.7294 -0.5313
  578MPD2    C5 8625   0.336   1.176   1.373 -0.5343 -0.2396  0.4378
  578MPD2     H 8626   0.478   1.033   1.051  0.4900 -0.1779  0.4227
  578MPD2    H1 8627   0.516   1.117   1.460  0.2491 -1.4474 -0.9644
  578MPD2    H2 8628   0.177   1.266   1.268  0.6563 -0.0529 -2.4227
  578MPD2    H3 8629   0.296   1.221   1.463  0.2040 -1.2198  1.2541
  578MPD2     N 8630   0.637   1.009   1.241 -0.8640 -0.3775 -0.4452
  578MPD2    H5 8631   0.668   0.995   1.145  0.9822  2.0896 -0.2081
  578MPD2    N1 8632   0.226   1.167   1.029  0.5669 -0.2669 -0.0590
  578MPD2    H7 8633   0.156   1.236   1.055 -2.1136 -1.4122 -4.2392
  579TMC3    C1 8634   0.863   0.958   1.276  0.4722  0.1290 -0.2420
  579TMC3    C2 8635   0.980   1.003   1.331  0.2616  0.5226  0.3272
  579TMC3    C3 8636   1.095   0.949   1.281  0.3138 -0.0803  0.4927
  579TMC3    C4 8637   0.857   0.870   1.171 -0.5021 -0.5151 -0.1279
  579TMC3    C5 8638   0.975   0.817   1.131 -0.6737 -0.5107 -0.0816
  579TMC3    C6 8639   1.094   0.857   1.175  0.1651  0.6415 -0.0008
  579TMC3     C 8640   0.738   1.006   1.333 -0.4581  0.0119 -0.2293
  579TMC3     O 8641   0.736   1.051   1.446 -0.1478  0.3651  0.7406
  579TMC3     H 8642   0.977   1.078   1.410 -0.6913 -1.4464  2.1510
  579TMC3    H1 8643   0.765   0.823   1.138 -0.2286  0.7435 -2.6190
  579TMC3    H2 8644   1.180   0.813   1.127  0.7721  0.0665  1.6263
  579TMC3    C7 8645   0.971   0.705   1.050  0.6244  0.1588 -0.4927
  579TMC3    C8 8646   1.223   0.998   1.346 -0.2423 -0.5912  0.8629
  579TMC3    O1 8647   1.065   0.631   1.060  0.3268  0.3429 -0.0594
  579TMC3    O2 8648   1.193   1.055   1.452  0.1272  0.2121 -0.3815
  580TMC3    C1 8649   0.586   0.453  12.420  0.0583  0.1889  0.3572
  580TMC3    C2 8650   0.694   0.476  12.501 -0.3978  0.3465  0.4867
  580TMC3    C3 8651   0.772   0.366  12.528 -0.1441 -0.3024 -0.0284
  580TMC3    C4 8652   0.559   0.330  12.365 -0.8396 -0.0305  0.5125
  580TMC3    C5 8653   0.648   0.229  12.394 -0.0926  0.3627  0.1970
  580TMC3    C6 8654   0.746   0.243  12.488 -0.1931 -0.2015 -0.4954
  580TMC3     C 8655   0.515   0.568  12.367 -0.1574  0.3265  0.0196
  580TMC3     O 8656   0.588   0.671  12.380 -0.1145  0.0959  0.1163
  580TMC3     H 8657   0.725   0.576  12.529  0.5848  0.1514  0.0979
  580TMC3    H1 8658   0.478   0.329  12.293 -0.3796 -0.1541  0.0034
  580TMC3    H2 8659   0.822   0.167  12.498  0.0003  0.1878  0.8889
  580TMC3    C7 8660   0.656   0.110  12.308  0.4666  0.0334 -0.2776
  580TMC3    C8 8661   0.902   0.395  12.583 -0.0480 -0.1060  0.8433
  580TMC3    O1 8662   0.689   0.012  12.374  0.3139  0.2791 -0.6656
  580TMC3    O2 8663   0.895   0.477  12.675 -0.3583  0.6041 -0.2595
  581MPD2     C 8664   3.173   0.298  15.522  0.3972 -0.6734  0.2628
  581MPD2    C1 8665   3.103   0.222  15.431  0.3249 -0.0970  0.2358
  581MPD2    C2 8666   3.010   0.286  15.356  0.1177  0.0936 -0.2018
  581MPD2    C3 8667   2.980   0.421  15.378 -0.2603  0.4715  0.3928
  581MPD2    C4 8668   3.052   0.495  15.468  0.8304  0.0109 -0.6865
  581MPD2    C5 8669   3.156   0.431  15.534 -0.1020  0.4777 -0.0595
  581MPD2     H 8670   2.957   0.228  15.282 -0.8749 -1.2211  1.5685
  581MPD2    H1 8671   3.027   0.597  15.495 -3.4647 -1.2016 -0.0528
  581MPD2    H2 8672   3.252   0.246  15.575 -0.9372  0.6028  3.4969
  581MPD2    H3 8673   3.208   0.480  15.615  0.2185 -0.7115  0.4571
  581MPD2     N 8674   2.873   0.467  15.298 -0.1041 -0.4731  0.0345
  581MPD2    H5 8675   2.816   0.401  15.247 -0.3297  0.3121 -0.7274
  581MPD2    N1 8676   3.149   0.088  15.416 -0.0982 -0.8634 -0.6377
  581MPD2    H7 8677   3.222   0.063  15.481  0.9438  0.1154 -1.4419
  582TMC3    C1 8678   3.133   4.604  15.354 -0.0063 -0.7080 -0.0784
  582TMC3    C2 8679   3.155   4.565  15.491 -0.0724  0.4090  0.1680
  582TMC3    C3 8680   3.109   4.446  15.528  0.1913  0.1437 -0.5025
  582TMC3    C4 8681   3.077   4.516  15.261  0.0578  0.3284  0.0556
  582TMC3    C5 8682   3.039   4.390  15.302 -0.3128  0.8240 -0.6815
  582TMC3    C6 8683   3.048   4.361  15.438 -0.2221  1.1246  0.4139
  582TMC3     C 8684   3.099   0.000  15.324 -0.2399 -0.6122  0.6675
  582TMC3     O 8685   3.002   0.007  15.249 -0.5553 -0.4053  0.3169
  582TMC3     H 8686   3.177   4.636  15.569  2.0585 -0.1968  0.1195
  582TMC3    H1 8687   3.056   4.540  15.157 -0.0802 -2.1092 -0.4824
  582TMC3    H2 8688   3.013   4.265  15.475  0.6963  0.7124  0.2208
  582TMC3    C7 8689   2.907   4.373  15.255 -0.4491  0.2422 -0.1540
  582TMC3    C8 8690   3.032   4.464  15.646  0.3006 -0.2356 -0.6676
  582TMC3    O1 8691   2.853   4.261  15.262  0.2414 -0.0597  0.1223
  582TMC3    O2 8692   3.078   4.519  15.748  0.1452  0.8651  0.3696
  583MPD2     C 8693   2.502   1.659  16.705  0.2515 -0.2405 -0.0096
  583MPD2    C1 8694   2.466   1.789  16.677  0.0346  1.0058  1.2763
  583MPD2    C2 8695   2.355   1.840  16.740  0.0039  0.0386  0.6457
  583MPD2    C3 8696   2.299   1.764  16.840  0.3315  0.2607 -0.7912
  583MPD2    C4 8697   2.328   1.630  16.857 -0.6147  0.9329  0.6607
  583MPD2    C5 8698   2.431   1.577  16.787  0.4818 -0.3736  0.4307
  583MPD2     H 8699   2.323   1.942  16.723 -0.0361 -0.1584 -0.4180
  583MPD2    H1 8700   2.274   1.566  16.925  0.3919 -1.6449 -0.9940
  583MPD2    H2 8701   2.586   1.613  16.655 -0.5269  0.7660 -2.2278
  583MPD2    H3 8702   2.453   1.471  16.787 -0.5041 -0.5817 -2.4719
  583MPD2     N 8703   2.214   1.829  16.933  0.0473 -0.1716  0.0978
  583MPD2    H5 8704   2.218   1.931  16.930  0.6984 -0.1999  0.0382
  583MPD2    N1 8705   2.528   1.872  16.584  0.1758 -0.3214  0.7905
  583MPD2    H7 8706   2.479   1.956  16.557  0.4680 -0.2596  0.4410
  584TMC3    C1 8707   2.095   1.855  17.128  0.2512  0.4110 -0.9132
  584TMC3    C2 8708   2.097   1.984  17.107 -0.2849 -0.0337  0.5134
  584TMC3    C3 8709   2.108   2.057  17.214  1.0953  0.0492  0.0912
  584TMC3    C4 8710   2.081   1.801  17.249 -0.5698 -0.2143  0.3717
  584TMC3    C5 8711   2.067   1.879  17.355 -0.2558  0.1100  0.1801
  584TMC3    C6 8712   2.081   2.016  17.342 -0.1118 -0.2045 -0.2375
  584TMC3     C 8713   2.132   1.767  17.023 -0.0146  0.0090 -0.3078
  584TMC3     O 8714   2.093   1.649  17.033  0.1964  0.3640 -0.0266
  584TMC3     H 8715   2.110   2.028  17.009 -1.4610 -1.0336 -0.0943
  584TMC3    H1 8716   2.063   1.695  17.265  1.8948 -0.7636 -0.5049
  584TMC3    H2 8717   2.074   2.084  17.427  0.3138  1.1867 -1.3139
  584TMC3    C7 8718   2.018   1.818  17.478 -0.2846  0.1870 -0.0006
  584TMC3    C8 8719   2.089   2.194  17.196  0.1794 -0.1150  0.5915
  584TMC3    O1 8720   2.049   1.705  17.509 -0.4270 -1.0828  0.2021
  584TMC3    O2 8721   2.013   2.232  17.109 -0.3142 -0.2737  0.5861
  585MPD2     C 8722   2.028   0.295   0.408 -0.4104  0.0264 -0.2352
  585MPD2    C1 8723   2.090   0.397   0.347 -0.0903 -0.2127 -0.3180
  585MPD2    C2 8724   2.011   0.491   0.278  0.4381  0.2021 -0.3333
  585MPD2    C3 8725   1.874   0.481   0.269  0.2586  0.8211 -0.4277
  585MPD2    C4 8726   1.820   0.369   0.323 -0.1187  0.5873 -0.0610
  585MPD2    C5 8727   1.900   0.273   0.383  0.0460 -0.6612 -1.0640
  585MPD2     H 8728   2.058   0.586   0.255 -0.2714  0.6075 -0.1135
  585MPD2    H1 8729   1.712   0.363   0.315 -0.1886  1.3278  0.3077
  585MPD2    H2 8730   2.070   0.220   0.474 -0.0082  0.7442  0.3294
  585MPD2    H3 8731   1.852   0.183   0.418  0.7754  0.0659  1.8117
  585MPD2     N 8732   1.792   0.570   0.196  0.2704  0.3527  0.1742
  585MPD2    H5 8733   1.694   0.546   0.183  0.7559 -0.8762 -1.2574
  585MPD2    N1 8734   2.230   0.414   0.347 -0.2786  0.3761  0.6618
  585MPD2    H7 8735   2.265   0.502   0.309 -2.5348  0.5668 -0.9403
  586TMC3    C1 8736   1.752   0.751   0.045 -0.0417  0.2072 -0.3559
  586TMC3    C2 8737   1.819   0.819  17.706 -0.4143  0.1087  0.2618
  586TMC3    C3 8738   1.766   0.838  17.579 -0.4039 -1.2553 -0.5684
  586TMC3    C4 8739   1.620   0.717   0.029 -0.5234 -0.1251  0.5733
  586TMC3    C5 8740   1.562   0.741  17.667 -0.2265 -0.0488 -0.1451
  586TMC3    C6 8741   1.631   0.803  17.566  0.1891 -0.2517  0.4490
  586TMC3     C 8742   1.844   0.692   0.144  0.5271 -0.8069 -0.1470
  586TMC3     O 8743   1.944   0.755   0.181  0.3672  0.2932  0.8900
  586TMC3     H 8744   1.925   0.836  17.723  0.0682 -1.8205 -0.8066
  586TMC3    H1 8745   1.566   0.667   0.109  0.8706 -2.5642 -0.0074
  586TMC3    H2 8746   1.577   0.839  17.480  1.2763 -1.5067 -0.7458
  586TMC3    C7 8747   1.507   0.620  17.624 -0.1212 -0.7145 -0.0058
  586TMC3    C8 8748   1.854   0.762  17.490 -0.7920 -0.3975 -0.7067
  586TMC3    O1 8749   1.434   0.564  17.701 -0.7980  0.0772 -0.0787
  586TMC3    O2 8750   1.925   0.680  17.550  0.3803 -0.5864 -0.5577
  587TMC3    C1 8751   4.059   3.989  17.032 -0.0865 -0.1562 -0.0478
  587TMC3    C2 8752   4.001   4.057  17.137  0.4557  0.2090 -0.6372
  587TMC3    C3 8753   4.068   4.062  17.253  0.0836  0.1189 -0.3780
  587TMC3    C4 8754   4.180   3.935  17.040  0.3327  0.3972  0.4771
  587TMC3    C5 8755   4.244   3.928  17.160 -0.6365 -0.5444  0.9351
  587TMC3    C6 8756   4.192   3.999  17.268  0.3777  0.3796 -0.0758
  587TMC3     C 8757   3.988   3.972  16.909 -0.9997 -0.3417  0.3003
  587TMC3     O 8758   4.054   3.954  16.807 -0.1995 -0.2644 -0.2429
  587TMC3     H 8759   3.897   4.082  17.153  1.2237  2.3188  0.9889
  587TMC3    H1 8760   4.229   3.908  16.947  0.1926 -0.5478  0.6706
  587TMC3    H2 8761   4.250   4.007  17.359 -0.3044 -0.5280  0.4418
  587TMC3    C7 8762   4.385   3.882  17.174  0.1402  0.2824  0.9526
  587TMC3    C8 8763   4.028   4.157  17.353  0.4871 -0.0911 -0.4107
  587TMC3    O1 8764   4.450   3.935  17.261 -0.2566  0.4437  0.7135
  587TMC3    O2 8765   4.072   4.136  17.466  0.0264 -0.1221  0.4825
  588TMC3    C1 8766   2.267   2.400   9.822  0.0017  0.1916 -0.3780
  588TMC3    C2 8767   2.241   2.269   9.816  0.1574 -0.8350 -0.8315
  588TMC3    C3 8768   2.344   2.186   9.851 -1.0322 -0.1738  0.0803
  588TMC3    C4 8769   2.396   2.444   9.844 -0.3780 -0.0932  0.7996
  588TMC3    C5 8770   2.493   2.352   9.883 -0.1381 -0.4302 -0.0817
  588TMC3    C6 8771   2.475   2.216   9.881  0.5755 -0.2576  0.1279
  588TMC3     C 8772   2.166   2.502   9.789 -0.0522  0.1959  0.4598
  588TMC3     O 8773   2.090   2.476   9.700  0.6610 -0.7370  0.0569
  588TMC3     H 8774   2.140   2.234   9.796 -0.1290 -1.0475  1.0315
  588TMC3    H1 8775   2.417   2.547   9.819 -0.9891  0.0569  0.8873
  588TMC3    H2 8776   2.556   2.146   9.899  0.3798 -0.1835  1.2898
  588TMC3    C7 8777   2.631   2.397   9.917  0.1102  0.3351 -0.4788
  588TMC3    C8 8778   2.293   2.050   9.875  0.1924 -0.5005  0.3690
  588TMC3    O1 8779   2.705   2.313   9.972  0.1529 -0.1748 -0.5244
  588TMC3    O2 8780   2.209   2.012   9.797 -0.6955  0.4418  0.4115
  589TMC3    C1 8781   0.632   4.193   1.247 -0.6352  1.4956 -0.2963
  589TMC3    C2 8782   0.713   4.176   1.352 -0.2573 -0.0009 -0.2650
  589TMC3    C3 8783   0.785   4.056   1.355  0.0460  0.0841  0.1446
  589TMC3    C4 8784   0.605   4.087   1.154  0.4241 -0.6999  0.0192
  589TMC3    C5 8785   0.675   3.970   1.168  0.2018  0.2349 -0.2409
  589TMC3    C6 8786   0.767   3.953   1.264 -0.4711 -0.0795  0.2906
  589TMC3     C 8787   0.553   4.314   1.237  1.0722  0.0722 -0.2177
  589TMC3     O 8788   0.460   4.327   1.154  0.2455  0.5126  1.1287
  589TMC3     H 8789   0.748   4.245   1.427 -0.8373 -1.2525  1.1539
  589TMC3    H1 8790   0.533   4.106   1.075 -1.1206  1.0127  1.8525
  589TMC3    H2 8791   0.822   3.859   1.267  0.4474  0.4542 -0.0823
  589TMC3    C7 8792   0.660   3.860   1.077  0.0770  0.7141  0.3442
  589TMC3    C8 8793   0.885   4.036   1.458 -0.1397  0.2489  0.2490
  589TMC3    O1 8794   0.723   3.758   1.103  0.3831 -0.2776 -0.8347
  589TMC3    O2 8795   0.875   4.086   1.569 -0.3828  0.4067 -0.5559
  590MPD2     C 8796   0.192   2.568  16.613  0.7473 -0.3810 -0.3636
  590MPD2    C1 8797   0.191   2.701  16.586  0.2324  0.4965  0.6414
  590MPD2    C2 8798   0.310   2.769  16.558 -0.0287 -0.3433 -0.1464
  590MPD2    C3 8799   0.426   2.695  16.556  1.0617  0.0920 -0.4941
  590MPD2    C4 8800   0.422   2.556  16.574 -0.7877 -0.0731  0.1770
  590MPD2    C5 8801   0.306   2.498  16.611  0.4218  0.0222 -0.2696
  590MPD2     H 8802   0.325   2.873  16.530 -0.9226 -0.7678 -2.2298
  590MPD2    H1 8803   0.504   2.485  16.572 -1.9091 -1.3914  1.7559
  590MPD2    H2 8804   0.106   2.507  16.639 -0.6228  0.7987 -2.0726
  590MPD2    H3 8805   0.291   2.392  16.620 -1.0445  0.1364 -1.5260
  590MPD2     N 8806   0.550   2.757  16.523  0.6462  0.2541  0.0672
  590MPD2    H5 8807   0.549   2.858  16.512  1.3588  0.3110  0.5374
  590MPD2    N1 8808   0.065   2.760  16.582 -0.1697 -0.3236 -0.3210
  590MPD2    H7 8809   4.725   2.705  16.611  0.8382 -0.8671  1.4585
  591TMC3    C1 8810   0.777   2.792  16.474  0.3768  0.1629  0.0177
  591TMC3    C2 8811   0.838   2.748  16.362 -0.5358  0.1702  0.1906
  591TMC3    C3 8812   0.875   2.846  16.274  0.1197  0.5136 -0.0490
  591TMC3    C4 8813   0.764   2.920  16.518  0.3851 -0.3151  0.1301
  591TMC3    C5 8814   0.800   3.017  16.430  0.3396  0.9375 -0.5366
  591TMC3    C6 8815   0.857   2.979  16.311 -0.3259 -0.2079 -0.5007
  591TMC3     C 8816   0.673   2.698  16.513 -0.3596 -0.7357  0.3701
  591TMC3     O 8817   0.704   2.584  16.552  0.0489  0.7423  0.3037
  591TMC3     H 8818   0.846   2.644  16.336 -1.3189 -0.3236  1.8835
  591TMC3    H1 8819   0.716   2.949  16.611  0.2386  2.1147 -0.7118
  591TMC3    H2 8820   0.898   3.052  16.243  0.9675  1.8286  2.4316
  591TMC3    C7 8821   0.722   3.133  16.438  0.5581  0.0285 -0.3602
  591TMC3    C8 8822   0.943   2.804  16.149  0.2437 -1.1393 -0.1742
  591TMC3    O1 8823   0.607   3.120  16.476  0.5497  0.2202  0.0403
  591TMC3    O2 8824   0.966   2.686  16.137  0.2137 -0.3206  0.1710
  592MPD2     C 8825   1.505   0.047  11.595  0.3415  0.1285  0.6607
  592MPD2    C1 8826   1.478   0.006  11.722  0.2407  0.5498  0.0132
  592MPD2    C2 8827   1.384   4.649  11.750 -0.8700 -0.2395  0.1799
  592MPD2    C3 8828   1.341   4.564  11.638 -0.5190  0.1308  0.0949
  592MPD2    C4 8829   1.377   4.605  11.506 -0.2153  0.1479  0.0096
  592MPD2    C5 8830   1.457   4.718  11.493 -0.3123 -0.5872  0.0830
  592MPD2     H 8831   1.355   4.617  11.849 -0.6315  0.6982  0.5479
  592MPD2    H1 8832   1.356   4.559  11.410  0.8456  0.2761 -0.2810
  592MPD2    H2 8833   1.580   0.124  11.576 -0.8571  0.8493 -1.1047
  592MPD2    H3 8834   1.474   0.016  11.393  0.2243 -2.5557 -0.5867
  592MPD2     N 8835   1.255   4.455  11.663 -0.8176  0.0718 -0.4377
  592MPD2    H5 8836   1.226   4.456  11.760  3.1195  3.2226  0.7149
  592MPD2    N1 8837   1.548   0.082  11.819  0.0606  0.8566 -0.1024
  592MPD2    H7 8838   1.633   0.128  11.789 -0.7541  2.9986  0.8961
  593TMC3    C1 8839   1.612   0.158  12.037  0.5440  0.0236 -0.6580
  593TMC3    C2 8840   1.578   0.183  12.168 -0.9141  0.6526 -0.3084
  593TMC3    C3 8841   1.674   0.247  12.244  0.5871 -0.1844 -0.0887
  593TMC3    C4 8842   1.735   0.188  11.984 -0.4938 -0.2137 -0.5156
  593TMC3    C5 8843   1.829   0.247  12.063 -0.6777 -0.1623 -0.3891
  593TMC3    C6 8844   1.798   0.288  12.185  0.2155 -0.3077  0.0635
  593TMC3     C 8845   1.517   0.084  11.952 -0.6779 -0.0076  0.8909
  593TMC3     O 8846   1.410   0.059  12.008 -0.2332  0.2928 -0.0525
  593TMC3     H 8847   1.484   0.154  12.213 -0.6368 -0.4813 -0.4594
  593TMC3    H1 8848   1.769   0.136  11.896  0.0119  1.0290 -1.0437
  593TMC3    H2 8849   1.876   0.341  12.238  2.2283 -1.5740 -1.6529
  593TMC3    C7 8850   1.932   0.317  12.002  0.6133  0.5640 -0.8851
  593TMC3    C8 8851   1.637   0.281  12.374 -0.0644  0.1356  0.6128
  593TMC3    O1 8852   1.943   0.427  12.051 -0.1986 -0.2047 -0.8077
  593TMC3    O2 8853   1.524   0.248  12.411  0.0491  0.1335 -0.0080
  594MPD2     C 8854   0.586   3.262  14.809 -0.2721  0.1875  0.2392
  594MPD2    C1 8855   0.466   3.301  14.763 -0.2399  0.3993  0.3527
  594MPD2    C2 8856   0.453   3.384  14.653 -0.4738 -0.4683  0.0170
  594MPD2    C3 8857   0.561   3.414  14.578 -0.0310  0.4115  0.1914
  594MPD2    C4 8858   0.690   3.363  14.618  0.1578 -0.2335 -0.3551
  594MPD2    C5 8859   0.698   3.290  14.729  0.4944  0.1171 -0.0893
  594MPD2     H 8860   0.358   3.426  14.620  0.6148  0.5494 -1.7834
  594MPD2    H1 8861   0.773   3.400  14.558  2.1229 -1.6858  1.4775
  594MPD2    H2 8862   0.607   3.188  14.886  0.1413  0.8586  0.7736
  594MPD2    H3 8863   0.795   3.246  14.748  0.8308  0.0658 -1.9018
  594MPD2     N 8864   0.537   3.503  14.473  0.4525 -0.0534  0.1371
  594MPD2    H5 8865   0.439   3.515  14.450  0.2674  0.3858  1.1375
  594MPD2    N1 8866   0.346   3.254  14.827 -0.3740 -0.0455 -0.1193
  594MPD2    H7 8867   0.261   3.294  14.790 -0.5264 -1.0495 -0.8594
  595TMC3    C1 8868   0.649   3.795  14.136 -0.3537  0.0034  0.1338
  595TMC3    C2 8869   0.660   3.678  14.206 -0.5443 -0.0372  0.3749
  595TMC3    C3 8870   0.572   3.661  14.309 -0.0371  0.0912 -0.7367
  595TMC3    C4 8871   0.543   3.877  14.168 -0.2492 -0.1370  0.8120
  595TMC3    C5 8872   0.462   3.855  14.274 -0.4220 -0.1327  0.6579
  595TMC3    C6 8873   0.463   3.734  14.339 -0.6607 -0.3205 -0.5165
  595TMC3     C 8874   0.763   3.886  14.160  0.0587 -0.6868 -0.3976
  595TMC3     O 8875   0.738   3.999  14.201  0.0812 -0.7961  0.0007
  595TMC3     H 8876   0.749   3.618  14.199 -1.9171 -1.9230 -0.9101
  595TMC3    H1 8877   0.529   3.966  14.107 -1.1855 -0.3584  0.6906
  595TMC3    H2 8878   0.417   3.727  14.437  1.0767 -3.3740  0.0850
  595TMC3    C7 8879   0.376   3.960  14.332 -0.1533  0.2876 -0.1556
  595TMC3    C8 8880   0.627   3.581  14.409  0.0813  0.3852 -0.1118
  595TMC3    O1 8881   0.284   3.924  14.404  0.1792 -0.0454  0.6506
  595TMC3    O2 8882   0.746   3.567  14.412  0.0485 -0.7750 -0.3758
  596MPD2     C 8883   3.449   1.439  16.741 -0.1200  0.2433  0.5205
  596MPD2    C1 8884   3.452   1.566  16.683 -0.1321  0.5214 -0.5423
  596MPD2    C2 8885   3.478   1.594  16.550 -0.3215  0.0737  0.5693
  596MPD2    C3 8886   3.514   1.492  16.467  0.3868  0.2340  0.6272
  596MPD2    C4 8887   3.530   1.370  16.529 -0.2847 -0.2585 -0.3671
  596MPD2    C5 8888   3.492   1.339  16.657 -0.8044 -0.0019  0.1291
  596MPD2     H 8889   3.461   1.698  16.526  0.0160 -0.3612 -1.5393
  596MPD2    H1 8890   3.569   1.284  16.475 -0.7187 -1.0228  0.5304
  596MPD2    H2 8891   3.425   1.426  16.846 -2.6378 -0.5690 -0.1710
  596MPD2    H3 8892   3.498   1.240  16.701  0.6407  0.6733  1.4520
  596MPD2     N 8893   3.536   1.503  16.331  0.0531 -0.6999 -0.1936
  596MPD2    H5 8894   3.573   1.421  16.283  1.3460 -0.4122  0.3046
  596MPD2    N1 8895   3.422   1.678  16.761 -0.1623  0.3113 -0.2745
  596MPD2    H7 8896   3.438   1.769  16.720  2.8084 -0.2642 -0.4309
  597TMC3    C1 8897   3.350   1.817  16.942  0.6096  0.6650  0.0988
  597TMC3    C2 8898   3.426   1.924  16.893  0.3706 -0.3328 -0.0933
  597TMC3    C3 8899   3.385   2.048  16.916 -0.5460 -0.6295 -0.6235
  597TMC3    C4 8900   3.238   1.837  17.011 -0.4391  0.2350 -0.4959
  597TMC3    C5 8901   3.194   1.966  17.037  0.2192 -0.5227  0.3229
  597TMC3    C6 8902   3.264   2.069  16.982  0.3776 -0.0270 -0.2817
  597TMC3     C 8903   3.370   1.685  16.889  0.1498 -0.2536  0.4345
  597TMC3     O 8904   3.319   1.594  16.951  0.0587  0.0828 -0.5063
  597TMC3     H 8905   3.524   1.901  16.855 -0.0732 -1.4767 -0.5460
  597TMC3    H1 8906   3.180   1.749  17.035  1.9531 -0.7763  1.5987
  597TMC3    H2 8907   3.232   2.171  17.000  0.0123 -0.1911 -0.0142
  597TMC3    C7 8908   3.052   1.971  17.091  0.9613 -0.5174  0.1044
  597TMC3    C8 8909   3.454   2.154  16.840 -0.2342 -0.5116  0.7033
  597TMC3    O1 8910   3.003   1.869  17.139  0.0311  0.4783 -0.6214
  597TMC3    O2 8911   3.565   2.132  16.791  0.4481  0.4286 -0.6172
  598TMC3    C1 8912   2.220   3.533  15.290  0.2668  0.5584  0.2896
  598TMC3    C2 8913   2.146   3.423  15.265  0.7184  0.0138 -0.7098
  598TMC3    C3 8914   2.040   3.430  15.184  0.5967  0.3145  0.2557
  598TMC3    C4 8915   2.188   3.652  15.226 -0.2173 -0.6333 -0.2612
  598TMC3    C5 8916   2.076   3.653  15.148 -0.1813 -0.0987  1.2774
  598TMC3    C6 8917   1.995   3.543  15.127 -0.0046 -0.1248  0.2446
  598TMC3     C 8918   2.348   3.523  15.350 -0.1552 -0.4532  0.0661
  598TMC3     O 8919   2.382   3.434  15.427 -0.6712 -0.2872 -0.2289
  598TMC3     H 8920   2.189   3.332  15.305 -2.7860 -1.0444  0.6773
  598TMC3    H1 8921   2.232   3.743  15.264 -1.1076 -0.0832 -0.5623
  598TMC3    H2 8922   1.909   3.537  15.061 -0.7113  0.5108  1.1127
  598TMC3    C7 8923   2.109   3.703  15.011  0.7783 -0.2348  0.5308
  598TMC3    C8 8924   1.948   3.319  15.174 -0.1375 -0.1733  0.9757
  598TMC3    O1 8925   2.043   3.664  14.915 -0.0297  0.1035 -0.0987
  598TMC3    O2 8926   1.886   3.305  15.069  0.1836 -0.1483  0.2643
  599MPD2     C 8927   2.296   0.803  16.144 -0.0345  0.0701  0.5048
  599MPD2    C1 8928   2.220   0.709  16.082  0.4119 -0.0993 -0.5706
  599MPD2    C2 8929   2.086   0.710  16.104  0.1902  0.0921  0.2791
  599MPD2    C3 8930   2.023   0.819  16.158 -0.0238  0.2060 -0.0825
  599MPD2    C4 8931   2.103   0.920  16.216 -0.1987  0.0083  0.3926
  599MPD2    C5 8932   2.240   0.906  16.211 -0.6271 -0.1178 -0.7746
  599MPD2     H 8933   2.023   0.636  16.057  0.5756 -1.8829  2.8371
  599MPD2    H1 8934   2.064   1.004  16.273 -0.5677 -0.2447  0.5066
  599MPD2    H2 8935   2.403   0.790  16.150  0.0237  0.1988 -0.3077
  599MPD2    H3 8936   2.308   0.975  16.259  1.8907 -2.3471 -1.0885
  599MPD2     N 8937   1.883   0.839  16.162 -0.7966  0.6438 -0.2601
  599MPD2    H5 8938   1.846   0.921  16.210 -0.4189  1.4423 -1.3248
  599MPD2    N1 8939   2.289   0.611  16.007  0.3748  0.1714  0.1581
  599MPD2    H7 8940   2.390   0.613  16.007  0.3633  0.7620  0.2662
  600TMC3    C1 8941   1.655   0.795  16.147 -0.1013  0.3820 -0.2150
  600TMC3    C2 8942   1.584   0.684  16.182  0.5047  0.2549  0.2083
  600TMC3    C3 8943   1.457   0.701  16.228  0.0321  0.5730  0.8635
  600TMC3    C4 8944   1.613   0.921  16.165  0.3376  0.1678  0.0365
  600TMC3    C5 8945   1.482   0.934  16.216 -0.1407 -0.3579 -0.1855
  600TMC3    C6 8946   1.410   0.825  16.258 -0.4823 -0.1957  0.0227
  600TMC3     C 8947   1.785   0.765  16.101 -0.9899 -0.7046 -0.2671
  600TMC3     O 8948   1.797   0.656  16.044 -0.6431 -0.2349  0.1627
  600TMC3     H 8949   1.631   0.586  16.178 -0.4768 -0.1505 -1.2814
  600TMC3    H1 8950   1.673   1.006  16.135 -1.1971  1.2716  0.1288
  600TMC3    H2 8951   1.306   0.834  16.289 -0.4211  0.8594 -0.0723
  600TMC3    C7 8952   1.442   1.063  16.274 -0.0697  0.0591  0.2575
  600TMC3    C8 8953   1.403   0.586  16.302  0.5438  0.6475 -0.3784
  600TMC3    O1 8954   1.354   1.061  16.358 -0.0260 -0.1722 -0.3276
  600TMC3    O2 8955   1.458   0.545  16.404 -0.3976 -0.2891  0.4226
  601MPD2     C 8956   3.684   3.689   0.606  0.0624  0.3062 -0.1133
  601MPD2    C1 8957   3.580   3.668   0.519 -0.0832 -1.1146  0.6807
  601MPD2    C2 8958   3.533   3.542   0.501 -0.1577  0.6510 -0.6984
  601MPD2    C3 8959   3.587   3.428   0.565  0.7668  0.3625 -0.6498
  601MPD2    C4 8960   3.697   3.452   0.646 -0.6993  0.4489 -0.4302
  601MPD2    C5 8961   3.744   3.579   0.662  0.3761 -0.1187  0.4941
  601MPD2     H 8962   3.451   3.533   0.431 -2.2655  3.7286  1.4179
  601MPD2    H1 8963   3.751   3.372   0.696 -2.4067 -0.4031  0.0377
  601MPD2    H2 8964   3.726   3.785   0.634 -2.4320  0.8442  1.7325
  601MPD2    H3 8965   3.816   3.606   0.739 -0.7803  0.8509  1.2273
  601MPD2     N 8966   3.546   3.295   0.551  0.2139 -0.3198  0.6729
  601MPD2    H5 8967   3.606   3.232   0.604  0.3651 -1.3957 -0.7997
  601MPD2    N1 8968   3.528   3.769   0.442  0.1326  0.1576 -0.1917
  601MPD2    H7 8969   3.450   3.731   0.389  0.4711  1.9666 -1.9626
  602TMC3    C1 8970   3.465   3.983   0.363  0.3132  0.3951  0.9553
  602TMC3    C2 8971   3.505   4.096   0.295 -0.0808  0.0282  0.2702
  602TMC3    C3 8972   3.410   4.164   0.223 -0.4802  0.0639  0.2521
  602TMC3    C4 8973   3.336   3.944   0.360 -0.3815 -0.3774  0.2509
  602TMC3    C5 8974   3.248   4.014   0.281  0.5881  0.4534 -0.1118
  602TMC3    C6 8975   3.279   4.134   0.225  0.1974  0.6894 -0.3340
  602TMC3     C 8976   3.559   3.902   0.438  0.0082  0.2516  0.2382
  602TMC3     O 8977   3.668   3.955   0.475 -0.3051 -0.0690 -0.1850
  602TMC3     H 8978   3.612   4.109   0.286  0.0135  0.2171  1.6476
  602TMC3    H1 8979   3.300   3.865   0.425 -0.6553 -0.7623 -0.3702
  602TMC3    H2 8980   3.200   4.185   0.170  0.6219  1.5756 -0.1250
  602TMC3    C7 8981   3.142   3.931   0.218  0.4077  0.5734  0.2810
  602TMC3    C8 8982   3.460   4.266   0.139  0.1232  0.2671  0.2384
  602TMC3    O1 8983   3.115   3.823   0.274 -0.4093 -0.4854 -0.7169
  602TMC3    O2 8984   3.579   4.292   0.163  0.2784 -0.2262  0.6114
  603TMC3    C1 8985   2.402   4.505  10.976 -0.2971 -0.0059  0.2537
  603TMC3    C2 8986   2.441   4.446  11.097  0.2211  0.1577 -0.1625
  603TMC3    C3 8987   2.489   4.535  11.188 -0.0567 -0.5839 -0.1415
  603TMC3    C4 8988   2.413   4.636  10.944  0.3535 -0.0586  0.6616
  603TMC3    C5 8989   2.466   4.715  11.045 -0.3065 -0.1319  1.1942
  603TMC3    C6 8990   2.524   4.663  11.158  0.3879  0.0506 -0.4480
  603TMC3     C 8991   2.344   4.416  10.877 -0.4482  0.3498  0.6968
  603TMC3     O 8992   2.356   4.296  10.903  0.1037 -0.0508  1.0223
  603TMC3     H 8993   2.418   4.340  11.108 -0.6846  0.4952  1.2013
  603TMC3    H1 8994   2.381   4.677  10.849  1.9084 -0.5780 -0.0858
  603TMC3    H2 8995   2.546   4.733  11.237  1.4484 -1.7241  0.8365
  603TMC3    C7 8996   2.515   0.108  10.995 -0.4271  0.3892 -1.1486
  603TMC3    C8 8997   2.478   4.490  11.323 -0.2200  0.8481 -0.6986
  603TMC3    O1 8998   2.619   0.155  11.041  0.2436  0.4060 -0.1075
  603TMC3    O2 8999   2.421   4.377  11.339  0.6538  0.1315 -0.1732
  604MPD2     C 9000   2.317   2.203  16.125 -0.2351 -0.2908 -0.8459
  604MPD2    C1 9001   2.275   2.329  16.078 -0.2486  0.5292  0.0827
  604MPD2    C2 9002   2.360   2.400  15.996 -1.0711  0.2051 -0.2121
  604MPD2    C3 9003   2.483   2.356  15.960 -0.5081 -1.0780  0.2783
  604MPD2    C4 9004   2.533   2.243  16.023 -0.9003 -0.3562 -0.3850
  604MPD2    C5 9005   2.446   2.166  16.098 -0.5351  0.1049  0.3110
  604MPD2     H 9006   2.331   2.494  15.953  0.4258  0.3522 -0.9085
  604MPD2    H1 9007   2.632   2.206  15.998  0.6411  1.3663  3.2302
  604MPD2    H2 9008   2.258   2.144  16.195  0.7275  2.5848  2.4053
  604MPD2    H3 9009   2.474   2.067  16.132 -0.6905 -0.7392 -2.0801
  604MPD2     N 9010   2.558   2.437  15.863  0.5247 -0.4092 -0.0226
  604MPD2    H5 9011   2.525   2.530  15.839  1.2700 -0.2893 -0.5982
  604MPD2    N1 9012   2.148   2.375  16.119 -0.4284 -0.0653  0.3133
  604MPD2    H7 9013   2.092   2.324  16.185 -0.8363  0.7003  0.5518
  605TMC3    C1 9014   1.990   2.537  16.184 -0.1443 -0.5903  0.1712
  605TMC3    C2 9015   2.021   2.513  16.314  0.2654  0.2853 -0.2788
  605TMC3    C3 9016   1.998   2.611  16.407 -0.3458  0.0147  0.1195
  605TMC3    C4 9017   1.928   2.655  16.140 -0.1434 -0.2494  0.2360
  605TMC3    C5 9018   1.899   2.746  16.236  0.1785  0.4043 -0.5605
  605TMC3    C6 9019   1.933   2.725  16.366  0.1044 -0.1083  0.1065
  605TMC3     C 9020   2.098   2.500  16.092  0.1122  0.4487 -1.0815
  605TMC3     O 9021   2.138   2.591  16.022  0.4965  0.0217 -0.4688
  605TMC3     H 9022   2.086   2.434  16.349  0.0820  0.0247 -0.5267
  605TMC3    H1 9023   1.920   2.680  16.035  3.0830  1.1055  0.2881
  605TMC3    H2 9024   1.935   2.813  16.429 -0.7678 -0.2682  0.3573
  605TMC3    C7 9025   1.853   2.883  16.208  0.4605  0.6085 -0.0458
  605TMC3    C8 9026   2.111   2.636  16.488  0.3750  0.0783  0.3066
  605TMC3    O1 9027   1.793   2.935  16.302  0.3416 -0.1671 -0.4801
  605TMC3    O2 9028   2.216   2.603  16.434 -0.2686  0.3093  0.4797
  606TMC3    C1 9029   3.504   1.555  17.248 -0.1572 -0.4498  0.0566
  606TMC3    C2 9030   3.482   1.582  17.379  0.1013  0.3602  0.7591
  606TMC3    C3 9031   3.425   1.478  17.451  0.2650  0.6642  0.4089
  606TMC3    C4 9032   3.475   1.436  17.189  0.0624  0.4895  0.2493
  606TMC3    C5 9033   3.420   1.339  17.267  0.2284  0.0942 -0.1897
  606TMC3    C6 9034   3.395   1.354  17.398 -0.4067  0.1350  0.5387
  606TMC3     C 9035   3.605   1.632  17.164  0.6258  0.4226 -0.0418
  606TMC3     O 9036   3.636   1.737  17.216 -0.3515  0.2029  0.1170
  606TMC3     H 9037   3.514   1.672  17.432 -2.1699  0.1090  2.6016
  606TMC3    H1 9038   3.457   1.429  17.082 -1.6247 -0.8542  0.6226
  606TMC3    H2 9039   3.383   1.269  17.463  0.5604 -0.3368  0.0872
  606TMC3    C7 9040   3.386   1.205  17.213 -0.0584  0.5432  0.7598
  606TMC3    C8 9041   3.464   1.487  17.592  0.8620  0.6345 -0.3132
  606TMC3    O1 9042   3.451   1.166  17.118 -0.2247  0.1372 -0.7047
  606TMC3    O2 9043   3.573   1.537  17.614 -0.1359  0.4783 -0.0360
  607MPD2     C 9044   1.555   4.144  11.263 -0.6925  0.2711  0.3622
  607MPD2    C1 9045   1.557   4.228  11.372  0.9196  0.0821 -0.4318
  607MPD2    C2 9046   1.509   4.176  11.493  0.2671  0.2739  0.6731
  607MPD2    C3 9047   1.472   4.047  11.508 -0.0991  0.0973 -0.9245
  607MPD2    C4 9048   1.472   3.966  11.402 -0.1363  0.2931  0.3911
  607MPD2    C5 9049   1.509   4.016  11.274  0.3580 -0.5942 -0.0772
  607MPD2     H 9050   1.514   4.237  11.582  1.1092  2.8406 -1.1557
  607MPD2    H1 9051   1.426   3.867  11.399 -0.7752  0.6314 -0.8521
  607MPD2    H2 9052   1.597   4.174  11.167  1.5482 -1.2489  0.8747
  607MPD2    H3 9053   1.513   3.948  11.190 -2.3091 -2.1658  1.0444
  607MPD2     N 9054   1.425   3.999  11.638  0.5457 -0.2537  0.1997
  607MPD2    H5 9055   1.430   4.069  11.711  1.9222  0.1732 -0.2971
  607MPD2    N1 9056   1.615   4.358  11.373 -0.4676 -0.1617  0.7857
  607MPD2    H7 9057   1.633   4.399  11.464 -1.6723 -0.0478  0.9782
  608TMC3    C1 9058   1.747   4.543  11.325 -0.2117 -0.2291 -0.5300
  608TMC3    C2 9059   1.735   4.568  11.457  0.3981 -0.5330  0.0771
  608TMC3    C3 9060   1.827   4.624  11.530 -0.6490  0.1374 -0.0401
  608TMC3    C4 9061   1.868   4.573  11.263 -0.0467 -0.4602 -0.3011
  608TMC3    C5 9062   1.966   4.638  11.332 -0.0441  0.1434  0.5795
  608TMC3    C6 9063   1.947   4.659  11.467  0.0382 -0.3536  0.7651
  608TMC3     C 9064   1.669   4.428  11.267  0.1741  0.5174  0.3875
  608TMC3     O 9065   1.679   4.398  11.149 -0.1543 -0.0678  0.2843
  608TMC3     H 9066   1.641   4.551  11.508  0.0673 -2.7040 -1.2107
  608TMC3    H1 9067   1.880   4.543  11.159 -1.0245 -0.5912 -0.3761
  608TMC3    H2 9068   2.019   4.710  11.530  0.6213 -0.2287 -0.0038
  608TMC3    C7 9069   2.064   4.711  11.259  0.2028 -0.2898  0.5152
  608TMC3    C8 9070   1.822   4.632  11.678  0.3903 -0.6831 -1.1968
  608TMC3    O1 9071   2.038   0.008  11.148  1.2667 -0.0814  0.4437
  608TMC3    O2 9072   1.892   4.709  11.742  0.0150  0.1410 -0.1444
  609TMC3    C1 9073   0.208   4.727   9.682 -0.4348  0.0261 -0.4015
  609TMC3    C2 9074   0.229   0.112   9.727  0.0386  0.8730  0.3931
  609TMC3    C3 9075   0.332   0.182   9.666 -0.4358  0.0581  0.2791
  609TMC3    C4 9076   0.288   4.672   9.585  0.4740  0.4337 -0.6935
  609TMC3    C5 9077   0.377   0.012   9.518 -0.0256  0.2056 -0.8723
  609TMC3    C6 9078   0.400   0.141   9.558 -0.6479 -0.4397 -0.6873
  609TMC3     C 9079   0.108   4.643   9.741 -0.0333  0.1307  0.2763
  609TMC3     O 9080   0.018   4.709   9.789  0.4721  0.3307  0.2003
  609TMC3     H 9081   0.177   0.147   9.816  0.0290  0.1889  0.6556
  609TMC3    H1 9082   0.288   4.566   9.561 -1.0698  0.1984  0.2977
  609TMC3    H2 9083   0.478   0.202   9.513 -1.6297  2.0605  1.0180
  609TMC3    C7 9084   0.444   4.708   9.402  0.5710  0.1007 -0.0621
  609TMC3    C8 9085   0.386   0.292   9.731  0.1200  0.3687 -0.3989
  609TMC3    O1 9086   0.560   0.004   9.381  0.3059 -0.1998 -0.3291
  609TMC3    O2 9087   0.495   0.337   9.698  0.2650 -0.5049  0.2082
  610TMC3    C1 9088   1.787   4.166  12.376 -0.5448 -0.0922 -0.1874
  610TMC3    C2 9089   1.817   4.165  12.249 -0.0105  0.9024 -0.0811
  610TMC3    C3 9090   1.952   4.170  12.209 -0.6008 -0.3001 -0.3476
  610TMC3    C4 9091   1.881   4.177  12.473 -0.1159 -0.3710 -0.3956
  610TMC3    C5 9092   2.010   4.195  12.430 -0.7741  0.3094  0.1851
  610TMC3    C6 9093   2.048   4.184  12.298  0.0706 -0.5684  0.5298
  610TMC3     C 9094   1.650   4.129  12.408  0.3835 -0.0887  0.4287
  610TMC3     O 9095   1.565   4.163  12.329 -0.1626 -0.0209  0.1711
  610TMC3     H 9096   1.732   4.152  12.184  0.4476 -0.3745 -0.4288
  610TMC3    H1 9097   1.853   4.168  12.578 -0.5347 -0.7355 -0.5404
  610TMC3    H2 9098   2.155   4.181  12.280  0.0381 -1.3508  0.4800
  610TMC3    C7 9099   2.117   4.178  12.529 -0.1841 -1.0980  0.4184
  610TMC3    C8 9100   1.983   4.210  12.077 -0.1759  0.4655  0.4858
  610TMC3    O1 9101   2.222   4.110  12.509 -0.4972 -0.4588 -0.1005
  610TMC3    O2 9102   2.079   4.289  12.051  0.3767  0.1220  0.0020
  611MPD2     C 9103   1.269   0.165  10.529 -0.2961 -0.3920  0.1222
  611MPD2    C1 9104   1.372   0.092  10.477 -0.1171  0.4121 -0.3842
  611MPD2    C2 9105   1.501   0.150  10.468 -0.1663 -0.7152 -0.3417
  611MPD2    C3 9106   1.522   0.287  10.479 -0.2134  0.1315 -0.1528
  611MPD2    C4 9107   1.412   0.363  10.526  0.6354 -0.1767 -0.0651
  611MPD2    C5 9108   1.290   0.304  10.550 -0.8319  0.3003 -0.4283
  611MPD2     H 9109   1.581   0.090  10.425 -0.8332 -0.0154 -2.5798
  611MPD2    H1 9110   1.424   0.469  10.545 -1.5123 -0.2335  1.5431
  611MPD2    H2 9111   1.180   0.111  10.557 -0.1217 -0.9396 -0.3756
  611MPD2    H3 9112   1.213   0.364  10.598 -0.9905  0.6647 -1.1372
  611MPD2     N 9113   1.645   0.366  10.456  0.3794  0.4629  0.0139
  611MPD2    H5 9114   1.636   0.467  10.456  1.8228  0.5956 -1.5325
  611MPD2    N1 9115   1.345   4.700  10.440  0.0208 -0.2920  0.0559
  611MPD2    H7 9116   1.249   4.670  10.448 -0.6356  2.1013  1.1563
  612TMC3    C1 9117   1.853   0.409  10.388 -0.8302 -0.4353 -0.1361
  612TMC3    C2 9118   1.984   0.397  10.429 -0.1700 -0.3737  0.1210
  612TMC3    C3 9119   2.075   0.498  10.404 -0.1849 -0.6850  0.2796
  612TMC3    C4 9120   1.812   0.516  10.314 -0.2058  1.1942 -0.2495
  612TMC3    C5 9121   1.906   0.617  10.291  0.0960 -0.2298  0.4283
  612TMC3    C6 9122   2.032   0.610  10.338  0.1214  0.5252 -0.0510
  612TMC3     C 9123   1.763   0.305  10.425 -0.1706 -0.0787  0.6235
  612TMC3     O 9124   1.799   0.189  10.446 -0.0194 -0.6351 -0.0210
  612TMC3     H 9125   2.017   0.309  10.483  1.9329 -0.9240 -2.0706
  612TMC3    H1 9126   1.713   0.526  10.270 -0.2385  0.0103 -0.4450
  612TMC3    H2 9127   2.095   0.698  10.330  2.0487 -0.9764 -1.5397
  612TMC3    C7 9128   1.862   0.726  10.188  0.2122  0.1560 -0.0193
  612TMC3    C8 9129   2.201   0.503  10.473  0.8253  0.3056  0.5111
  612TMC3    O1 9130   1.745   0.746  10.186 -0.1154  0.2718 -0.3256
  612TMC3    O2 9131   2.269   0.603  10.456 -0.2491 -0.1281  0.1058
  613MPD2     C 9132   0.470   2.269  17.187 -0.0721  0.0188  0.1165
  613MPD2    C1 9133   0.369   2.202  17.128  0.7696  1.2200  0.1243
  613MPD2    C2 9134   0.323   2.084  17.181 -0.1479  0.2860  0.7777
  613MPD2    C3 9135   0.378   2.038  17.298 -0.5305  0.5026 -0.3817
  613MPD2    C4 9136   0.468   2.114  17.371 -0.1949  0.0600  0.0988
  613MPD2    C5 9137   0.514   2.238  17.309  0.0810 -0.4628  0.5921
  613MPD2     H 9138   0.255   2.022  17.124  1.1775 -0.9962  0.5731
  613MPD2    H1 9139   0.501   2.080  17.468 -1.7669 -2.5112 -0.2722
  613MPD2    H2 9140   0.501   2.361  17.138 -1.2590  0.0132 -0.6420
  613MPD2    H3 9141   0.581   2.314  17.346 -1.0316  0.7289  0.1738
  613MPD2     N 9142   0.363   1.903  17.344 -0.4098 -0.2662  0.1568
  613MPD2    H5 9143   0.414   1.867  17.424  1.7597  1.4070 -0.4865
  613MPD2    N1 9144   0.319   2.241  16.999 -0.2839  0.3314  0.3340
  613MPD2    H7 9145   0.378   2.314  16.961 -3.2930  2.4481 -0.2974
  614TMC3    C1 9146   0.225   2.222  16.790  0.2433  0.3409  0.7847
  614TMC3    C2 9147   0.330   2.158  16.726 -0.1575  0.2059  0.1128
  614TMC3    C3 9148   0.313   2.107  16.598  0.2520  0.6112 -0.0390
  614TMC3    C4 9149   0.106   2.225  16.731 -0.4467 -0.3447 -0.2721
  614TMC3    C5 9150   0.098   2.178  16.606  0.2131  0.3184 -0.5787
  614TMC3    C6 9151   0.200   2.122  16.529 -0.8126  0.5231 -0.0569
  614TMC3     C 9152   0.214   2.192  16.928  0.6703 -0.3340 -0.0614
  614TMC3     O 9153   0.122   2.116  16.949  0.3657  0.4878  0.0606
  614TMC3     H 9154   0.426   2.149  16.775 -0.0540  1.4920  0.1584
  614TMC3    H1 9155   0.021   2.264  16.786  0.1244 -0.5948  0.7686
  614TMC3    H2 9156   0.186   2.089  16.427  0.4120 -1.2614  0.3540
  614TMC3    C7 9157   4.734   2.235  16.534 -0.2125  0.6338  0.1532
  614TMC3    C8 9158   0.402   1.997  16.551  0.0178  0.7988 -0.2898
  614TMC3    O1 9159   4.700   2.347  16.562 -0.3253 -0.0623 -0.0057
  614TMC3    O2 9160   0.386   1.967  16.436  0.6557  0.1664 -0.0171
  615MPD2     C 9161   4.678   3.391  16.453  0.0620 -0.1061  0.3034
  615MPD2    C1 9162   4.591   3.442  16.546 -0.2379  0.5577 -0.3287
  615MPD2    C2 9163   4.528   3.557  16.518 -0.2409  0.2260  0.1231
  615MPD2    C3 9164   4.544   3.619  16.393  0.1360  0.1518 -0.9033
  615MPD2    C4 9165   4.629   3.562  16.302  0.2900  0.2688 -0.1389
  615MPD2    C5 9166   4.695   3.447  16.328 -0.0230  0.7403 -0.1846
  615MPD2     H 9167   4.450   3.601  16.579 -0.4059 -1.1480  0.8980
  615MPD2    H1 9168   4.640   3.605  16.203  1.0428  0.0469 -0.1485
  615MPD2    H2 9169   4.736   3.304  16.483 -3.2338 -2.5451 -0.4750
  615MPD2    H3 9170   0.022   3.396  16.260  0.2642 -0.8065  1.2478
  615MPD2     N 9171   4.479   3.742  16.359 -0.3336 -0.3265  0.7787
  615MPD2    H5 9172   4.492   3.776  16.264  0.2639 -1.4423  0.4583
  615MPD2    N1 9173   4.568   3.387  16.675  0.5902  0.3832 -0.5829
  615MPD2    H7 9174   4.500   3.428  16.738  0.5013 -0.3742 -0.1817
  616TMC3    C1 9175   4.603   3.250  16.870  0.2676  0.3875 -0.0506
  616TMC3    C2 9176   4.674   3.145  16.929 -0.4471  0.1273 -1.0690
  616TMC3    C3 9177   4.677   3.131  17.066 -0.1413  0.0749 -0.0585
  616TMC3    C4 9178   4.526   3.339  16.946  0.4651  0.1227 -0.1921
  616TMC3    C5 9179   4.519   3.307  17.083 -0.6890 -0.1115  0.0637
  616TMC3    C6 9180   4.598   3.213  17.140  0.0547 -0.4519  0.2235
  616TMC3     C 9181   4.627   3.277  16.728 -0.5706  0.0218  0.4666
  616TMC3     O 9182   4.710   3.205  16.672 -0.6073 -0.4261  0.3569
  616TMC3     H 9183   4.715   3.070  16.863 -2.7188 -1.4873 -0.6270
  616TMC3    H1 9184   4.482   3.431  16.909  2.0642  1.3164  0.8792
  616TMC3    H2 9185   4.592   3.204  17.248 -0.3095 -0.6995  0.1803
  616TMC3    C7 9186   4.457   3.410  17.168 -0.5906  0.4674  0.1576
  616TMC3    C8 9187   0.064   3.107  17.132  0.3491  0.1700 -0.0536
  616TMC3    O1 9188   4.503   3.415  17.280  0.0384  0.3455  0.3464
  616TMC3    O2 9189   0.066   3.100  17.255 -0.2783 -0.0350 -0.3923
  617MPD2     C 9190   2.421   1.442  13.696 -0.3680  0.4255  0.6599
  617MPD2    C1 9191   2.492   1.387  13.797  0.0359  0.2908 -0.1013
  617MPD2    C2 9192   2.426   1.367  13.921 -0.6810  0.3570 -0.3784
  617MPD2    C3 9193   2.290   1.384  13.930  0.5817 -0.6009  0.1440
  617MPD2    C4 9194   2.220   1.416  13.823  0.2241 -0.5766  0.6456
  617MPD2    C5 9195   2.288   1.463  13.712 -0.7859  0.1642  0.1785
  617MPD2     H 9196   2.492   1.335  14.001 -0.7904  0.5764 -0.1983
  617MPD2    H1 9197   2.112   1.430  13.822  0.4517  1.0132 -1.4087
  617MPD2    H2 9198   2.458   1.488  13.604  1.3493 -1.0319  0.6177
  617MPD2    H3 9199   2.226   1.517  13.641 -1.2557  0.4193  0.7796
  617MPD2     N 9200   2.216   1.349  14.045 -0.1983 -0.5054 -0.1394
  617MPD2    H5 9201   2.117   1.369  14.049 -0.1965 -0.7055  0.9617
  617MPD2    N1 9202   2.633   1.391  13.788 -0.1863 -0.1466 -0.1822
  617MPD2    H7 9203   2.664   1.445  13.708  0.5484  1.3196  1.0999
  618TMC3    C1 9204   2.858   1.388  13.856  0.3976  0.0841 -0.4788
  618TMC3    C2 9205   2.936   1.284  13.826 -0.3923  0.1975  0.2421
  618TMC3    C3 9206   3.031   1.291  13.733 -0.4318 -0.1497 -0.1362
  618TMC3    C4 9207   2.876   1.501  13.783  0.0852 -0.4364 -0.0796
  618TMC3    C5 9208   2.980   1.515  13.698 -0.4936 -0.3976 -0.4157
  618TMC3    C6 9209   3.063   1.411  13.675  1.3056 -0.0604 -0.0751
  618TMC3     C 9210   2.723   1.344  13.881 -0.5031  0.2960  0.3067
  618TMC3     O 9211   2.703   1.258  13.968  0.4212  0.0734 -0.0394
  618TMC3     H 9212   2.920   1.186  13.867  0.0630  0.4415  1.0009
  618TMC3    H1 9213   2.805   1.583  13.792  1.1935  0.7442 -2.2418
  618TMC3    H2 9214   3.133   1.419  13.592 -0.2013 -1.2676 -1.4661
  618TMC3    C7 9215   2.931   1.588  13.584 -0.3398  0.8253 -0.4867
  618TMC3    C8 9216   3.003   1.195  13.631 -0.0318 -0.1571  0.5768
  618TMC3    O1 9217   2.811   1.585  13.566 -0.3560  0.4561  0.0315
  618TMC3    O2 9218   2.885   1.183  13.592 -0.9574  1.4189  0.7882
  619MPD2     C 9219   4.212   2.530  14.436  0.3325 -0.2927  0.1787
  619MPD2    C1 9220   4.200   2.513  14.299 -0.5399 -0.2397  0.7836
  619MPD2    C2 9221   4.077   2.490  14.240  0.0243 -0.5477  0.7090
  619MPD2    C3 9222   3.963   2.496  14.321 -0.0085 -0.0338 -0.4960
  619MPD2    C4 9223   3.972   2.514  14.457  0.4630  0.0650  0.2286
  619MPD2    C5 9224   4.097   2.530  14.506 -0.0197 -0.1558 -0.5213
  619MPD2     H 9225   4.058   2.468  14.136 -1.7581 -1.8620  1.3255
  619MPD2    H1 9226   3.886   2.510  14.522  1.6641  0.5709  1.8599
  619MPD2    H2 9227   4.298   2.557  14.496 -0.9952  2.1692  1.0088
  619MPD2    H3 9228   4.096   2.551  14.613 -1.2432  1.9648 -0.9546
  619MPD2     N 9229   3.835   2.480  14.276 -0.4233  0.7980 -0.2582
  619MPD2    H5 9230   3.756   2.490  14.338  0.2535  1.8617  0.4344
  619MPD2    N1 9231   4.307   2.509  14.214 -0.2203  0.0615 -0.1301
  619MPD2    H7 9232   4.290   2.519  14.114 -3.4362  0.3325  0.4359
  620TMC3    C1 9233   4.516   2.570  14.137 -0.2528  0.0846  0.2139
  620TMC3    C2 9234   4.480   2.530  14.013  0.1521 -0.0613 -0.2787
  620TMC3    C3 9235   4.477   2.622  13.909  0.0674 -0.1338  0.6161
  620TMC3    C4 9236   4.564   2.699  14.154 -0.3162 -0.4950 -0.5702
  620TMC3    C5 9237   4.563   2.783  14.046 -0.5551 -0.2110 -0.9137
  620TMC3    C6 9238   4.535   2.744  13.919  0.3495 -0.6713  0.3610
  620TMC3     C 9239   4.435   2.521  14.251  0.5294 -0.1337  0.1463
  620TMC3     O 9240   4.489   2.533  14.358  0.1300  0.2673  0.2750
  620TMC3     H 9241   4.428   2.436  13.995 -1.4230  0.3968  1.9007
  620TMC3    H1 9242   4.579   2.733  14.256  0.2407  0.8691 -1.1092
  620TMC3    H2 9243   4.553   2.811  13.836 -0.1529  0.0528  0.8350
  620TMC3    C7 9244   4.569   2.928  14.075 -0.0334  0.5918 -0.4272
  620TMC3    C8 9245   4.417   2.579  13.784  0.4122  0.0497  0.2045
  620TMC3    O1 9246   4.618   2.958  14.185 -0.0329 -0.3560  0.1515
  620TMC3    O2 9247   4.451   2.463  13.764  0.3534  0.2380 -0.6593
  621MPD2     C 9248   0.490   3.465   9.371  0.0843 -0.0831  0.4768
  621MPD2    C1 9249   0.387   3.552   9.359 -0.1729  0.8050 -0.5998
  621MPD2    C2 9250   0.406   3.688   9.332 -0.0068 -0.3797 -0.3028
  621MPD2    C3 9251   0.532   3.735   9.312  1.2502 -0.1379 -0.0324
  621MPD2    C4 9252   0.640   3.649   9.328  0.4381 -1.0110  0.0998
  621MPD2    C5 9253   0.614   3.519   9.350  0.6545  0.2290 -0.4101
  621MPD2     H 9254   0.322   3.756   9.324 -0.2234 -0.9665 -2.8894
  621MPD2    H1 9255   0.742   3.686   9.330 -0.0989  0.5590 -2.5438
  621MPD2    H2 9256   0.477   3.361   9.400  2.5007 -0.7727 -0.9429
  621MPD2    H3 9257   0.699   3.454   9.364 -0.9661 -1.7989  0.0897
  621MPD2     N 9258   0.565   3.873   9.309 -0.2448  0.5501  0.2115
  621MPD2    H5 9259   0.663   3.892   9.328 -0.1547  0.3601 -0.0708
  621MPD2    N1 9260   0.254   3.511   9.387  0.0128 -0.3253 -0.2102
  621MPD2    H7 9261   0.198   3.590   9.417  0.4150  0.6798 -2.1187
  622TMC3    C1 9262   0.091   3.344   9.446 -0.1833  0.0899 -0.4687
  622TMC3    C2 9263   0.068   3.404   9.566 -0.2175 -0.3241  0.0324
  622TMC3    C3 9264   4.678   3.401   9.618  0.1413  0.7766  0.2626
  622TMC3    C4 9265   0.003   3.249   9.396 -0.1281  0.2385 -0.5418
  622TMC3    C5 9266   4.619   3.246   9.458 -0.2800 -0.2395  0.3535
  622TMC3    C6 9267   4.577   3.338   9.547 -0.4316  0.0651  1.0059
  622TMC3     C 9268   0.205   3.380   9.374  0.7945  0.1249  0.2470
  622TMC3     O 9269   0.256   3.290   9.304  0.2970 -0.1019  0.0615
  622TMC3     H 9270   0.143   3.463   9.618 -0.4131 -0.6472  0.6878
  622TMC3    H1 9271   0.021   3.207   9.297  1.0735 -2.6088  0.8825
  622TMC3    H2 9272   4.475   3.335   9.583 -0.5541 -0.5827  0.6109
  622TMC3    C7 9273   4.517   3.166   9.399 -0.0157  0.0423 -0.7205
  622TMC3    C8 9274   4.644   3.515   9.705  0.1920 -0.5442  0.1459
  622TMC3    O1 9275   4.401   3.211   9.394  0.4055 -0.3818  0.0596
  622TMC3    O2 9276   4.721   3.612   9.714 -0.2468 -0.4123  0.1636
  623MPD2     C 9277   2.743   3.304  15.769  0.7244  0.0706 -0.1400
  623MPD2    C1 9278   2.635   3.230  15.812 -0.1047 -0.0768 -0.6428
  623MPD2    C2 9279   2.654   3.164  15.932 -0.1181  0.2616  0.0850
  623MPD2    C3 9280   2.771   3.185  16.014 -0.0744  0.1503  0.8680
  623MPD2    C4 9281   2.875   3.256  15.958 -0.5373 -0.6703  0.4407
  623MPD2    C5 9282   2.863   3.303  15.835 -0.2771  0.7444  0.4496
  623MPD2     H 9283   2.573   3.108  15.977  1.3999 -2.6685 -0.8162
  623MPD2    H1 9284   2.975   3.255  15.998 -0.8500 -4.3266  1.1490
  623MPD2    H2 9285   2.727   3.363  15.680  1.4211  0.2568 -0.1421
  623MPD2    H3 9286   2.939   3.362  15.786 -1.1267 -0.9920 -2.9378
  623MPD2     N 9287   2.772   3.117  16.138  0.4333 -0.2002 -0.1284
  623MPD2    H5 9288   2.695   3.054  16.157 -0.8713  0.5765 -2.8947
  623MPD2    N1 9289   2.510   3.216  15.740 -0.2701  0.1311  0.4882
  623MPD2    H7 9290   2.504   3.268  15.653 -0.2723  0.4827  0.6973
  624TMC3    C1 9291   2.896   3.078  16.592  0.0633  0.2259 -0.0929
  624TMC3    C2 9292   2.784   3.004  16.611  0.3241  0.3701 -0.1120
  624TMC3    C3 9293   2.701   2.968  16.507  0.3414 -0.6747 -0.1065
  624TMC3    C4 9294   2.930   3.125  16.468  0.3879 -0.5811  0.2461
  624TMC3    C5 9295   2.841   3.090  16.362 -0.5529 -0.1340  0.7009
  624TMC3    C6 9296   2.730   3.013  16.380  0.1705  0.2811 -0.1432
  624TMC3     C 9297   2.998   3.056  16.690 -0.3405 -0.3009  0.4094
  624TMC3     O 9298   2.975   2.964  16.769 -0.0645 -0.0123  1.1664
  624TMC3     H 9299   2.755   2.991  16.715 -1.4834 -0.6944 -0.7609
  624TMC3    H1 9300   3.024   3.178  16.453 -0.3841  0.9556  0.8754
  624TMC3    H2 9301   2.653   3.003  16.305 -0.4697 -1.4728  0.7561
  624TMC3    C7 9302   2.861   3.150  16.234  1.0772  0.1437 -0.2037
  624TMC3    C8 9303   2.576   2.895  16.543 -0.1885  0.7085 -0.2646
  624TMC3    O1 9304   2.967   3.212  16.221 -0.5493  0.1437 -0.2094
  624TMC3    O2 9305   2.506   2.868  16.447  0.3354  0.3790 -0.1323
  625MPD2     C 9306   3.843   4.255   0.535  0.8347 -0.3958  0.1729
  625MPD2    C1 9307   3.850   4.387   0.574  0.7223 -0.2613  0.7533
  625MPD2    C2 9308   3.969   4.454   0.585 -0.0735 -0.4520 -0.1171
  625MPD2    C3 9309   4.090   4.389   0.570 -0.7623 -0.4076  0.0639
  625MPD2    C4 9310   4.084   4.249   0.534 -0.2819  0.3622 -0.4729
  625MPD2    C5 9311   3.965   4.190   0.510 -0.5118  0.1069 -0.8632
  625MPD2     H 9312   3.975   4.559   0.611 -1.7717 -0.6884  1.2072
  625MPD2    H1 9313   4.171   4.185   0.530  0.2628  1.0916 -0.4199
  625MPD2    H2 9314   3.752   4.198   0.521  0.3506  0.2707  0.6541
  625MPD2    H3 9315   3.954   4.091   0.466 -0.4967 -0.3216  0.0979
  625MPD2     N 9316   4.207   4.463   0.586 -0.4290  0.1283 -0.1120
  625MPD2    H5 9317   4.209   4.564   0.593 -1.5222  0.1088  0.4289
  625MPD2    N1 9318   3.734   4.458   0.606  0.5021 -0.1623 -0.0516
  625MPD2    H7 9319   3.743   4.553   0.640  2.1796 -0.0402 -0.8352
  626TMC3    C1 9320   3.530   4.477   0.710  0.1709  0.2328 -0.1758
  626TMC3    C2 9321   3.404   4.449   0.681 -0.1901 -0.5785 -0.3282
  626TMC3    C3 9322   3.334   4.403   0.785  0.0101  0.5716  0.4346
  626TMC3    C4 9323   3.580   4.487   0.834  0.5456 -0.4716 -0.1966
  626TMC3    C5 9324   3.502   4.442   0.930 -0.0744  0.1392  0.1992
  626TMC3    C6 9325   3.379   4.393   0.913  0.4242 -0.2742 -0.1553
  626TMC3     C 9326   3.611   4.401   0.621 -0.5107  0.4754  0.0838
  626TMC3     O 9327   3.565   4.285   0.618 -0.2107 -0.4020 -0.2171
  626TMC3     H 9328   3.376   4.423   0.579  1.3120 -0.4851 -0.7616
  626TMC3    H1 9329   3.671   4.541   0.856  0.1545  0.3698 -0.6809
  626TMC3    H2 9330   3.314   4.398   0.999 -0.1634 -1.6633 -0.5121
  626TMC3    C7 9331   3.571   4.392   1.044  0.7164 -0.7531 -0.5181
  626TMC3    C8 9332   3.188   4.396   0.776 -0.5387 -0.3401 -0.8177
  626TMC3    O1 9333   3.683   4.443   1.064  0.2051 -0.9079 -0.0346
  626TMC3    O2 9334   3.123   4.357   0.871  0.6953 -0.1511  0.1281
  627MPD2     C 9335   2.560   0.370  14.566 -0.7008  0.3927  0.3421
  627MPD2    C1 9336   2.516   0.356  14.694 -0.2233  0.7850 -0.5487
  627MPD2    C2 9337   2.434   0.244  14.733 -0.2876 -0.1556  0.4022
  627MPD2    C3 9338   2.406   0.150  14.636 -0.1327 -0.4366  0.0910
  627MPD2    C4 9339   2.463   0.160  14.510 -0.3016 -0.0219  0.3032
  627MPD2    C5 9340   2.540   0.269  14.474 -0.6976 -0.6972 -0.1416
  627MPD2     H 9341   2.400   0.229  14.834  1.6020 -0.2943  1.0089
  627MPD2    H1 9342   2.447   0.088  14.430  2.0283  0.2545 -0.4185
  627MPD2    H2 9343   2.620   0.458  14.546 -1.2431  0.3934 -1.3437
  627MPD2    H3 9344   2.586   0.285  14.377  1.0814  2.8380  1.2484
  627MPD2     N 9345   2.310   0.049  14.668 -0.0167  0.3663  0.3026
  627MPD2    H5 9346   2.247   0.082  14.741  0.0230 -1.9365  1.3792
  627MPD2    N1 9347   2.560   0.459  14.779 -1.0776  1.3073  0.1237
  627MPD2    H7 9348   2.614   0.537  14.744  2.2381 -0.6353  0.9385
  628TMC3    C1 9349   2.615   0.561  14.976 -0.6095  0.3801  0.4414
  628TMC3    C2 9350   2.694   0.525  15.087  0.4623  0.6731 -0.0594
  628TMC3    C3 9351   2.744   0.624  15.173 -0.2892 -1.0974 -0.1029
  628TMC3    C4 9352   2.591   0.692  14.943 -0.3732  0.7113 -0.4978
  628TMC3    C5 9353   2.638   0.789  15.030 -0.2802 -0.1073 -0.6425
  628TMC3    C6 9354   2.714   0.755  15.140 -0.3861 -0.0924 -0.0707
  628TMC3     C 9355   2.540   0.454  14.912 -0.3646  0.5566  0.3078
  628TMC3     O 9356   2.505   0.360  14.982  0.0536  0.1973 -0.1001
  628TMC3     H 9357   2.712   0.418  15.092 -0.4348  0.4397 -1.5859
  628TMC3    H1 9358   2.523   0.710  14.861 -2.0557 -0.5749  0.6053
  628TMC3    H2 9359   2.794   0.820  15.175  0.2271 -1.8647  1.8320
  628TMC3    C7 9360   2.618   0.933  15.019 -0.8789  0.2707  0.8140
  628TMC3    C8 9361   2.834   0.604  15.282 -0.3969  0.1636  0.2668
  628TMC3    O1 9362   2.695   1.008  15.072 -0.6407 -0.2710 -0.0439
  628TMC3    O2 9363   2.872   0.702  15.343 -0.4470  0.0960 -0.1100
  629MPD2     C 9364   0.577   3.138  17.102 -0.6172 -0.7589 -0.3836
  629MPD2    C1 9365   0.520   3.211  17.000 -0.2937  0.0555  0.3027
  629MPD2    C2 9366   0.383   3.212  16.975 -0.4511  0.5149  0.4770
  629MPD2    C3 9367   0.301   3.153  17.076  0.3672  0.1606 -0.3026
  629MPD2    C4 9368   0.358   3.085  17.181 -0.2537 -0.1739 -0.1441
  629MPD2    C5 9369   0.497   3.073  17.192  0.7515 -0.5026 -0.0248
  629MPD2     H 9370   0.346   3.257  16.884  0.8574 -1.0500 -0.8374
  629MPD2    H1 9371   0.306   3.031  17.260  2.5473 -0.8614  1.2208
  629MPD2    H2 9372   0.684   3.126  17.102 -0.4193  1.0190  0.0473
  629MPD2    H3 9373   0.540   3.014  17.272  0.5851 -0.8380 -0.1850
  629MPD2     N 9374   0.159   3.149  17.047 -0.4447  0.3242  0.2942
  629MPD2    H5 9375   0.137   3.177  16.952 -1.7958 -0.9598  0.2461
  629MPD2    N1 9376   0.612   3.280  16.917  0.4415  0.3936 -0.7300
  629MPD2    H7 9377   0.710   3.282  16.944  0.6413  0.3371 -1.4380
  630TMC3    C1 9378   0.716   3.394  16.737  0.2715 -0.5605  0.3920
  630TMC3    C2 9379   0.710   3.508  16.651 -0.3036  0.3257  0.1724
  630TMC3    C3 9380   0.837   3.554  16.614 -0.4488 -0.4000 -0.2332
  630TMC3    C4 9381   0.827   3.320  16.762 -0.0878 -0.9549  0.2176
  630TMC3    C5 9382   0.944   3.370  16.706 -0.6398  0.5326  0.0436
  630TMC3    C6 9383   0.950   3.487  16.641  0.3187  0.3260 -0.2663
  630TMC3     C 9384   0.591   3.341  16.796  0.0548  0.0644 -0.0900
  630TMC3     O 9385   0.495   3.369  16.733 -0.1695 -0.2000  0.2421
  630TMC3     H 9386   0.620   3.569  16.646 -0.7587 -0.5015 -2.0214
  630TMC3    H1 9387   0.828   3.220  16.804  0.1490 -0.5874  1.0902
  630TMC3    H2 9388   1.042   3.529  16.602  0.6422 -1.1948 -1.1108
  630TMC3    C7 9389   1.045   3.358  16.802  0.4162  0.5381  0.4126
  630TMC3    C8 9390   0.868   3.693  16.631 -0.8374 -0.1010  0.3270
  630TMC3    O1 9391   1.042   3.254  16.861 -0.6301  0.8517 -0.0216
  630TMC3    O2 9392   0.954   3.726  16.705  0.0307 -0.3836 -0.8435
  631MPD2     C 9393   4.221   4.159  15.559 -1.2680  0.7498  1.0996
  631MPD2    C1 9394   4.101   4.150  15.626  0.2171 -0.2064 -0.1856
  631MPD2    C2 9395   4.120   4.143  15.763  0.4520  0.1457 -0.4760
  631MPD2    C3 9396   4.246   4.151  15.827  0.2418  0.1879  0.3896
  631MPD2    C4 9397   4.354   4.167  15.754  1.0004 -0.3377 -0.3065
  631MPD2    C5 9398   4.339   4.169  15.619 -0.1796 -0.3953 -0.2759
  631MPD2     H 9399   4.032   4.148  15.827 -0.8904 -0.5669 -2.2553
  631MPD2    H1 9400   4.453   4.182  15.796  0.6765  0.1013  0.3004
  631MPD2    H2 9401   4.226   4.161  15.451 -1.5088  0.3306  1.0825
  631MPD2    H3 9402   4.426   4.179  15.554  0.1983  0.9673  0.4448
  631MPD2     N 9403   4.251   4.116  15.962  0.6768 -0.4508 -0.2780
  631MPD2    H5 9404   4.162   4.078  15.993 -0.3867  1.5693 -0.8828
  631MPD2    N1 9405   3.977   4.152  15.558 -0.2969  0.2791 -0.5161
  631MPD2    H7 9406   3.985   4.150  15.456  1.8720  2.9453 -0.4051
  632TMC3    C1 9407   3.749   4.146  15.511 -0.2789 -0.6672  1.0666
  632TMC3    C2 9408   3.631   4.103  15.568  0.1825  0.4132 -0.3715
  632TMC3    C3 9409   3.546   4.019  15.500 -0.2751  0.0841 -0.3481
  632TMC3    C4 9410   3.772   4.114  15.387  0.3955 -0.4667 -0.1959
  632TMC3    C5 9411   3.697   4.020  15.325 -0.0117 -0.1566 -0.3211
  632TMC3    C6 9412   3.585   3.965  15.378  0.8336  0.1140  0.0235
  632TMC3     C 9413   3.852   4.141  15.619 -0.4996 -0.4383 -0.0834
  632TMC3     O 9414   3.818   4.149  15.736 -0.0033 -0.0897 -0.3341
  632TMC3     H 9415   3.606   4.113  15.673 -0.0288  2.3802 -0.6238
  632TMC3    H1 9416   3.860   4.159  15.342 -0.5828  0.7113 -0.9073
  632TMC3    H2 9417   3.516   3.912  15.313 -0.1395  3.1419 -1.4211
  632TMC3    C7 9418   3.689   4.030  15.182 -0.0536  0.7961  0.7742
  632TMC3    C8 9419   3.422   3.979  15.557  0.9169 -0.4185  0.1331
  632TMC3    O1 9420   3.658   3.932  15.115  0.3076  0.4567  0.1217
  632TMC3    O2 9421   3.372   4.062  15.624 -0.3249  0.4353 -0.3433
  633MPD2     C 9422   2.366   1.607  17.239 -0.7882 -0.0796 -0.6227
  633MPD2    C1 9423   2.486   1.564  17.198  0.6140  0.6022 -0.1162
  633MPD2    C2 9424   2.528   1.439  17.232 -0.2642 -0.0111 -0.1287
  633MPD2    C3 9425   2.436   1.353  17.290 -0.4566  0.2594  0.3543
  633MPD2    C4 9426   2.315   1.403  17.325 -0.5729  0.6877  0.1291
  633MPD2    C5 9427   2.279   1.525  17.299  0.2381  0.5181 -0.6820
  633MPD2     H 9428   2.628   1.410  17.201 -0.3827  2.1719 -2.5609
  633MPD2    H1 9429   2.242   1.346  17.381  0.5727 -2.4282 -1.4968
  633MPD2    H2 9430   2.324   1.703  17.211 -0.5073  0.2056 -0.0585
  633MPD2    H3 9431   2.179   1.553  17.331  0.1289 -2.1460  1.2564
  633MPD2     N 9432   2.465   1.213  17.311  0.2184  0.3207  0.4584
  633MPD2    H5 9433   2.397   1.161  17.365 -1.8484  1.9136 -0.5635
  633MPD2    N1 9434   2.584   1.644  17.129 -0.4750  0.4582 -0.0546
  633MPD2    H7 9435   2.672   1.599  17.104 -0.3892  0.1736  0.7596
  634TMC3    C1 9436   2.667   1.798  16.976 -0.4212  0.4388 -0.0414
  634TMC3    C2 9437   2.757   1.701  16.924  0.3510 -0.2097  0.0721
  634TMC3    C3 9438   2.858   1.749  16.845 -0.0389  0.4212  0.3857
  634TMC3    C4 9439   2.671   1.929  16.934 -0.0181  0.0496 -0.1376
  634TMC3    C5 9440   2.777   1.965  16.857  1.2492 -0.1470  0.5434
  634TMC3    C6 9441   2.880   1.884  16.815 -0.0707  0.1952  0.4824
  634TMC3     C 9442   2.557   1.762  17.071 -0.4870  0.0191 -0.0173
  634TMC3     O 9443   2.467   1.843  17.078  0.1367  0.0001 -0.0227
  634TMC3     H 9444   2.738   1.595  16.935 -3.4997  0.4831  0.0513
  634TMC3    H1 9445   2.599   1.999  16.975 -0.3193  0.7066 -1.7712
  634TMC3    H2 9446   2.968   1.916  16.760  0.4754 -0.7016  0.8320
  634TMC3    C7 9447   2.750   2.080  16.767  0.5699  0.3024 -0.1089
  634TMC3    C8 9448   2.935   1.653  16.770  0.4930  0.2678 -0.1421
  634TMC3    O1 9449   2.843   2.113  16.697 -0.0795 -0.3675 -0.0655
  634TMC3    O2 9450   2.913   1.535  16.798  0.1309  0.3652  0.1823
  635TMC3    C1 9451   2.494   2.605   0.321  0.3840 -0.7268  0.1523
  635TMC3    C2 9452   2.386   2.517   0.334  1.1378  0.2011 -0.9902
  635TMC3    C3 9453   2.278   2.549   0.414  0.1461 -0.0048 -0.0775
  635TMC3    C4 9454   2.490   2.731   0.378  0.1603 -0.0363  0.8512
  635TMC3    C5 9455   2.374   2.771   0.447 -0.3438 -0.5200  0.7718
  635TMC3    C6 9456   2.277   2.676   0.474 -0.2254  0.1591  0.0515
  635TMC3     C 9457   2.598   2.565   0.229 -0.3388  0.3237 -0.1409
  635TMC3     O 9458   2.582   2.477   0.150 -0.5290  0.3126  0.1634
  635TMC3     H 9459   2.394   2.418   0.291  1.5230  0.3215 -1.1931
  635TMC3    H1 9460   2.558   2.810   0.347  1.4084 -1.4593 -0.0177
  635TMC3    H2 9461   2.186   2.708   0.524 -0.4742  1.0290 -0.9533
  635TMC3    C7 9462   2.357   2.908   0.488 -0.4895 -0.3409  0.1779
  635TMC3    C8 9463   2.183   2.449   0.450 -0.6521 -0.3794  0.0247
  635TMC3    O1 9464   2.261   2.928   0.562 -0.1960  0.0573  0.2184
  635TMC3    O2 9465   2.125   2.446   0.557  0.0750  0.2142  0.3229
  636MPD2     C 9466   4.559   1.750  16.762 -0.6641  0.3231 -0.1810
  636MPD2    C1 9467   4.591   1.841  16.862  0.7368 -0.3843  0.2878
  636MPD2    C2 9468   4.684   1.793  16.955  0.9004 -0.1563 -1.0834
  636MPD2    C3 9469   4.721   1.658  16.949  0.5673 -0.7571 -0.6665
  636MPD2    C4 9470   4.683   1.569  16.850  0.1692 -0.0204  0.4191
  636MPD2    C5 9471   4.596   1.616  16.758  0.5355  0.3785  0.4000
  636MPD2     H 9472   4.718   1.853  17.039  0.2049 -0.3780 -0.6409
  636MPD2    H1 9473   4.709   1.464  16.860  3.1453  0.6253 -0.4620
  636MPD2    H2 9474   4.501   1.779  16.675 -1.0383 -1.4871 -0.5395
  636MPD2    H3 9475   4.549   1.550  16.686 -2.2761  1.2283  1.4521
  636MPD2     N 9476   0.081   1.625  17.041  0.2047 -0.7166 -0.7751
  636MPD2    H5 9477   0.100   1.696  17.111  0.3934 -0.2643 -1.2879
  636MPD2    N1 9478   4.554   1.977  16.864 -0.0169 -0.1884  0.2646
  636MPD2    H7 9479   4.604   2.041  16.924  2.0449 -0.5033 -1.1403
  637TMC3    C1 9480   0.244   1.521  17.154  0.1860 -0.0456 -0.7085
  637TMC3    C2 9481   0.216   1.597  17.266  0.1168 -0.0185  0.7305
  637TMC3    C3 9482   0.312   1.682  17.304 -0.6806 -0.3958 -0.1870
  637TMC3    C4 9483   0.364   1.514  17.093  0.3218 -0.2842 -0.0460
  637TMC3    C5 9484   0.462   1.599  17.141 -0.2484  0.6447 -0.9779
  637TMC3    C6 9485   0.437   1.677  17.247 -0.6808 -0.5248  0.0593
  637TMC3     C 9486   0.150   1.508  17.052  0.7443 -0.0955 -0.3414
  637TMC3     O 9487   0.163   1.412  16.979 -0.3047 -0.3461 -0.5123
  637TMC3     H 9488   0.114   1.617  17.294 -0.7360 -0.9105 -1.7419
  637TMC3    H1 9489   0.380   1.438  17.017 -1.8126 -0.9662  0.1618
  637TMC3    H2 9490   0.517   1.726  17.303 -1.0171  0.8892 -0.7194
  637TMC3    C7 9491   0.560   1.643  17.043  0.0524  0.3629  0.1861
  637TMC3    C8 9492   0.265   1.821  17.301 -0.2446  0.2677  0.2038
  637TMC3    O1 9493   0.610   1.750  17.072 -0.4927  0.3514  0.5705
  637TMC3    O2 9494   0.172   1.836  17.220 -0.0604 -0.5015  0.1421
  638MPD2     C 9495   4.663   0.709  15.139  0.0211  0.3849  0.0901
  638MPD2    C1 9496   4.611   0.638  15.034  0.2565  0.4683  0.7321
  638MPD2    C2 9497   4.628   0.506  15.041 -0.1640 -0.6409 -0.3039
  638MPD2    C3 9498   4.670   0.435  15.150 -0.1772 -0.2032  0.5503
  638MPD2    C4 9499   4.709   0.499  15.264 -0.2478 -0.2887  0.1775
  638MPD2    C5 9500   4.699   0.638  15.256  0.6237  0.4253 -0.0085
  638MPD2     H 9501   4.603   0.454  14.949  0.8593 -2.2232  0.3020
  638MPD2    H1 9502   0.001   0.455  15.358 -1.7127 -1.8544 -0.0503
  638MPD2    H2 9503   4.669   0.817  15.147  3.5807  0.1967 -0.0171
  638MPD2    H3 9504   4.726   0.702  15.340  0.9303 -1.2140  1.1359
  638MPD2     N 9505   4.658   0.294  15.148 -0.1695  0.2319 -0.1005
  638MPD2    H5 9506   4.633   0.245  15.062  1.6652 -1.9069  0.5752
  638MPD2    N1 9507   4.565   0.714  14.920 -0.2740 -0.0052 -0.0495
  638MPD2    H7 9508   4.583   0.814  14.925 -0.4475 -0.1667  3.8352
  639TMC3    C1 9509   4.677   0.064  15.207 -0.0213 -1.1550  0.4740
  639TMC3    C2 9510   4.556   0.051  15.146 -0.1907 -0.3926  0.5175
  639TMC3    C3 9511   4.553   4.688  15.057  0.2853 -0.7656  0.0151
  639TMC3    C4 9512   0.044   4.728  15.183 -0.0685 -0.1388  0.1847
  639TMC3    C5 9513   0.036   4.629  15.085  0.5600  0.3281 -0.1893
  639TMC3    C6 9514   4.660   4.615  15.016  0.0249  0.1061  0.1006
  639TMC3     C 9515   4.707   0.205  15.247 -0.4119 -0.5162  0.3415
  639TMC3     O 9516   0.048   0.229  15.336  0.0389 -0.6597 -0.5573
  639TMC3     H 9517   4.471   0.116  15.163  0.6122  0.6276  0.6498
  639TMC3    H1 9518   0.139   0.016  15.227 -0.1431 -0.0742  0.3016
  639TMC3    H2 9519   4.647   4.528  14.953  0.0845  0.3751 -0.2812
  639TMC3    C7 9520   0.127   4.513  15.094 -0.4640 -0.7273  0.4447
  639TMC3    C8 9521   4.434   4.685  14.976  0.1700  1.1633 -0.0444
  639TMC3    O1 9522   0.062   4.406  15.085 -0.2640 -0.0693  0.0351
  639TMC3    O2 9523   4.453   4.676  14.854  0.3257  0.6148  0.0737
  640MPD2     C 9524   1.028   0.256  10.281 -0.1415  0.9463  0.6322
  640MPD2    C1 9525   1.056   0.146  10.213 -0.1783  0.3765 -0.4335
  640MPD2    C2 9526   0.956   0.053  10.199 -0.5490 -0.2307  0.6941
  640MPD2    C3 9527   0.830   0.067  10.261  0.1119  0.0261 -0.2095
  640MPD2    C4 9528   0.808   0.183  10.335  0.1709  0.3427  0.7205
  640MPD2    C5 9529   0.914   0.277  10.342 -0.7695 -0.6564  0.3225
  640MPD2     H 9530   0.980   4.698  10.153  0.3175 -0.0608  0.7792
  640MPD2    H1 9531   0.717   0.191  10.393 -1.4931 -0.9399 -1.7287
  640MPD2    H2 9532   1.111   0.324  10.296  1.0010 -0.6922  1.7481
  640MPD2    H3 9533   0.903   0.357  10.415 -1.6160 -0.4024 -0.0763
  640MPD2     N 9534   0.723   4.717  10.243 -0.1188  0.0637  1.4074
  640MPD2    H5 9535   0.642   4.737  10.301  0.1363  2.1003  1.0738
  640MPD2    N1 9536   1.184   0.137  10.157  0.2818 -0.6240  0.2204
  640MPD2    H7 9537   1.244   0.218  10.167 -0.6448  0.2594 -1.2457
  641TMC3    C1 9538   1.338   0.041   9.992  0.6291 -0.0772 -0.0598
  641TMC3    C2 9539   1.399   4.666   9.940 -0.1171 -0.1856  0.1139
  641TMC3    C3 9540   1.473   4.678   9.825  0.8210 -0.2876 -0.4482
  641TMC3    C4 9541   1.338   0.159   9.934 -0.1490  0.2971 -0.0759
  641TMC3    C5 9542   1.403   0.167   9.815  0.1513  0.0767 -0.7551
  641TMC3    C6 9543   1.475   0.060   9.766 -0.2790  0.4383 -0.1076
  641TMC3     C 9544   1.230   0.026  10.089 -0.2723 -0.2477  0.1947
  641TMC3     O 9545   1.189   4.652  10.085  0.9173  0.3107 -0.9364
  641TMC3     H 9546   1.403   4.576  10.001 -1.1836  1.0166  1.9610
  641TMC3    H1 9547   1.294   0.246   9.982  0.2904  1.5148 -1.9066
  641TMC3    H2 9548   1.537   0.065   9.677  1.9448  0.0641  1.4380
  641TMC3    C7 9549   1.427   0.297   9.756 -0.3000  0.3760  0.4022
  641TMC3    C8 9550   1.441   4.583   9.728  0.4016 -0.2496 -0.2259
  641TMC3    O1 9551   1.529   0.311   9.688 -0.2549 -0.1671 -0.1847
  641TMC3    O2 9552   1.406   4.623   9.617  0.0490  0.7298 -0.5635
  642TMC3    C1 9553   1.409   4.682  12.710 -0.0974 -0.4026 -0.6039
  642TMC3    C2 9554   1.532   4.730  12.670 -0.9031 -0.3036  0.6217
  642TMC3    C3 9555   1.598   4.674  12.567  0.3533 -0.2768 -0.5069
  642TMC3    C4 9556   1.344   4.586  12.634 -0.4551  0.2748  0.4382
  642TMC3    C5 9557   1.411   4.537  12.520 -0.4367  0.0856 -0.1926
  642TMC3    C6 9558   1.545   4.568  12.496  0.2634 -0.4998  0.3218
  642TMC3     C 9559   1.342   0.022  12.813 -0.6502  0.5853 -0.4376
  642TMC3     O 9560   1.408   0.078  12.899  0.5909  0.8681  0.3320
  642TMC3     H 9561   1.559   0.084  12.716 -1.2563 -0.1098  0.4236
  642TMC3    H1 9562   1.249   4.548  12.669  0.0274 -3.6150 -2.5628
  642TMC3    H2 9563   1.593   4.552  12.400 -2.2657 -1.1990 -0.8442
  642TMC3    C7 9564   1.341   4.461  12.421 -0.3909 -0.5765 -0.0735
  642TMC3    C8 9565   1.719   0.008  12.520 -0.6873  0.1306 -0.1939
  642TMC3    O1 9566   1.371   4.479  12.306  0.1129  0.0998  0.1433
  642TMC3    O2 9567   1.750   4.738  12.400 -0.4328 -0.0863  0.6863
  643TMC3    C1 9568   0.235   3.943   0.096 -0.4280  0.4392 -0.1585
  643TMC3    C2 9569   0.105   3.930   0.041 -0.7086 -1.3514 -1.3798
  643TMC3    C3 9570   0.087   3.844  17.700 -0.0403 -0.0033 -0.7895
  643TMC3    C4 9571   0.344   3.881   0.035 -0.2471 -0.8719  0.7306
  643TMC3    C5 9572   0.318   3.803  17.681  0.0006  0.0226 -0.5893
  643TMC3    C6 9573   0.191   3.786  17.641 -0.0150 -0.1760  0.3408
  643TMC3     C 9574   0.264   4.052   0.184  0.8457  0.1142  0.0243
  643TMC3     O 9575   0.189   4.149   0.185  0.4367 -0.0042  0.3070
  643TMC3     H 9576   0.016   3.966   0.091 -1.0600 -0.4548 -2.6529
  643TMC3    H1 9577   0.448   3.892   0.062  0.2324 -0.7153 -1.1764
  643TMC3    H2 9578   0.164   3.706  17.573  0.8988 -0.8130  0.7192
  643TMC3    C7 9579   0.398   3.863  17.569 -0.6823  0.0186  0.2319
  643TMC3    C8 9580   0.029   3.919  17.585 -0.0487 -0.7291  0.5635
  643TMC3    O1 9581   0.480   3.948  17.600  0.3694  0.6598 -0.0668
  643TMC3    O2 9582   0.019   3.859  17.480  0.0502  0.3292  0.4284
  644MPD2     C 9583   1.454   1.157   9.690 -1.2053  0.1234  0.4126
  644MPD2    C1 9584   1.452   1.057   9.781  0.5126 -0.2829  0.0950
  644MPD2    C2 9585   1.370   1.079   9.890  0.7758  0.2248 -0.4610
  644MPD2    C3 9586   1.287   1.192   9.903  0.7852  0.1732 -0.1043
  644MPD2    C4 9587   1.300   1.294   9.808 -0.3863  0.3932  0.5938
  644MPD2    C5 9588   1.378   1.269   9.696 -0.6850  0.6300 -0.4523
  644MPD2     H 9589   1.352   0.999   9.962  0.9967 -0.1687 -0.8409
  644MPD2    H1 9590   1.244   1.386   9.816  1.9948  1.9456 -0.7158
  644MPD2    H2 9591   1.507   1.150   9.596 -0.2417 -0.4390  1.0015
  644MPD2    H3 9592   1.384   1.344   9.617  0.4933  0.6387 -0.3587
  644MPD2     N 9593   1.184   1.188  10.004  0.3884 -0.3986  0.4356
  644MPD2    H5 9594   1.178   1.098  10.051 -1.6973  0.0443  1.0229
  644MPD2    N1 9595   1.538   0.943   9.770 -0.3964  0.0040 -0.8077
  644MPD2    H7 9596   1.588   0.921   9.684  0.2698 -0.4724 -0.2925
  645TMC3    C1 9597   0.992   1.236  10.127  1.1041  0.2845 -0.4214
  645TMC3    C2 9598   0.974   1.101  10.138  0.5025  0.5895  0.8520
  645TMC3    C3 9599   0.881   1.063  10.227  0.0862 -0.0591 -0.4166
  645TMC3    C4 9600   0.923   1.329  10.198 -0.0319  0.0035  0.4247
  645TMC3    C5 9601   0.841   1.277  10.296  0.4931  0.0985  0.0412
  645TMC3    C6 9602   0.812   1.149  10.314 -0.1023  1.3498 -0.3711
  645TMC3     C 9603   1.089   1.286  10.037 -0.6529  0.2058  0.3735
  645TMC3     O 9604   1.080   1.400   9.991 -0.6509 -0.0433 -0.0245
  645TMC3     H 9605   1.021   1.033  10.068 -0.3609  1.6951 -0.7876
  645TMC3    H1 9606   0.933   1.437  10.188 -3.1962 -0.1026 -4.0180
  645TMC3    H2 9607   0.742   1.114  10.390 -1.6427 -1.6370 -3.1609
  645TMC3    C7 9608   0.767   1.371  10.378 -0.5638 -0.5540  0.3270
  645TMC3    C8 9609   0.837   0.930  10.216 -0.1656 -0.3120  0.1466
  645TMC3    O1 9610   0.768   1.488  10.337  0.3335 -0.4803 -0.2015
  645TMC3    O2 9611   0.792   0.889  10.321  0.4138 -0.1160 -0.0965
  646MPD2     C 9612   4.522   4.169  14.319  0.3899  0.1589 -0.3071
  646MPD2    C1 9613   4.450   4.160  14.440  0.3120 -0.4761 -0.4597
  646MPD2    C2 9614   4.325   4.215  14.443  0.1410  0.7007 -0.2923
  646MPD2    C3 9615   4.278   4.288  14.333  0.0185 -0.7436 -0.6134
  646MPD2    C4 9616   4.355   4.305  14.216  0.9196  0.4621  0.4168
  646MPD2    C5 9617   4.474   4.238  14.213 -0.2380  0.0141 -0.0069
  646MPD2     H 9618   4.264   4.205  14.532  1.9919 -0.3673  0.8368
  646MPD2    H1 9619   4.320   4.354  14.126  0.6381  0.8445  0.7343
  646MPD2    H2 9620   4.618   4.125  14.297  0.8543  0.5965  0.8302
  646MPD2    H3 9621   4.518   4.232  14.115  0.1335 -2.7328  0.3263
  646MPD2     N 9622   4.155   4.366  14.339 -0.2717 -0.4193  0.2147
  646MPD2    H5 9623   4.121   4.370  14.435 -1.1008  1.5762 -0.1573
  646MPD2    N1 9624   4.498   4.086  14.549  0.3497  0.0285 -0.1363
  646MPD2    H7 9625   4.441   4.050  14.626  1.5251  0.0703  0.7537
  647TMC3    C1 9626   4.655   3.996  14.691 -0.0102 -0.6766  0.7446
  647TMC3    C2 9627   4.568   3.978  14.796 -0.7127 -0.8412  0.0921
  647TMC3    C3 9628   4.610   3.885  14.893  0.1716 -0.3421  0.3987
  647TMC3    C4 9629   0.042   3.945  14.704 -0.4397  0.4898  0.0982
  647TMC3    C5 9630   0.078   3.855  14.797 -0.4596 -0.5161 -0.8966
  647TMC3    C6 9631   4.721   3.819  14.892  0.2300 -0.1120 -0.9267
  647TMC3     C 9632   4.626   4.068  14.569  0.0008 -0.2142  1.0675
  647TMC3     O 9633   4.714   4.108  14.501  0.5321 -0.1102 -0.0091
  647TMC3     H 9634   4.469   4.022  14.804 -0.6478 -0.5508 -0.6101
  647TMC3    H1 9635   0.098   3.959  14.613 -0.0020 -2.3038 -0.0459
  647TMC3    H2 9636   0.009   3.771  14.985 -0.0238 -2.4890 -2.0788
  647TMC3    C7 9637   0.211   3.799  14.823 -0.2234 -0.2413 -0.5819
  647TMC3    C8 9638   4.538   3.885  15.018  0.3913 -0.0182  0.3286
  647TMC3    O1 9639   0.220   3.706  14.903 -0.2098 -0.9534  0.0990
  647TMC3    O2 9640   4.611   3.881  15.117  0.0595  0.3980 -0.2761
  648TMC3    C1 9641   3.528   1.611  16.123 -0.0692 -0.2393 -1.0479
  648TMC3    C2 9642   3.536   1.493  16.051 -0.4119  0.2223  0.8246
  648TMC3    C3 9643   3.540   1.493  15.919  0.4181 -0.4349 -0.1132
  648TMC3    C4 9644   3.523   1.730  16.052 -0.2546  0.5484  0.1400
  648TMC3    C5 9645   3.536   1.725  15.915 -0.3959 -0.6055  0.9387
  648TMC3    C6 9646   3.536   1.606  15.847  0.1524 -0.7667 -0.4172
  648TMC3     C 9647   3.517   1.619  16.267  0.2925 -0.3957  0.6147
  648TMC3     O 9648   3.499   1.732  16.311 -0.0137 -0.2205 -0.4143
  648TMC3     H 9649   3.529   1.395  16.098  0.7640  0.3148  1.1895
  648TMC3    H1 9650   3.514   1.825  16.103 -0.5214  0.3936  0.3835
  648TMC3    H2 9651   3.557   1.598  15.741 -2.3930  0.9885 -1.0398
  648TMC3    C7 9652   3.492   1.838  15.846  0.6172 -0.1260  0.2708
  648TMC3    C8 9653   3.576   1.374  15.852 -0.0948  0.9243 -1.2187
  648TMC3    O1 9654   3.510   1.833  15.726  0.1559 -0.0588  0.1027
  648TMC3    O2 9655   3.551   1.378  15.733  0.7674  0.0500 -0.5163
  649TMC3    C1 9656   3.212   2.989  13.068 -0.3810  0.4237 -0.3287
  649TMC3    C2 9657   3.352   2.985  13.079 -0.0602 -0.8942 -0.4798
  649TMC3    C3 9658   3.398   2.950  13.200  0.0229 -0.3125  0.6559
  649TMC3    C4 9659   3.128   2.951  13.172 -0.0362  0.3423  0.3020
  649TMC3    C5 9660   3.182   2.903  13.289  0.5159  0.3342  0.4161
  649TMC3    C6 9661   3.319   2.905  13.304  0.3354 -0.0755 -0.7633
  649TMC3     C 9662   3.155   3.066  12.961  0.4069 -0.2576  0.1711
  649TMC3     O 9663   3.065   3.143  12.995 -0.1541  0.6082 -0.0639
  649TMC3     H 9664   3.408   3.052  13.015  2.0094 -2.4767 -0.3154
  649TMC3    H1 9665   3.021   2.962  13.155 -0.4267 -0.5024  2.2718
  649TMC3    H2 9666   3.356   2.900  13.406  0.5664  2.1569 -0.7264
  649TMC3    C7 9667   3.100   2.891  13.405 -0.1056  0.5016  0.5950
  649TMC3    C8 9668   3.542   2.955  13.237  0.9193  0.2731 -0.1909
  649TMC3    O1 9669   2.992   2.950  13.404  0.3761 -0.0436 -0.3992
  649TMC3    O2 9670   3.581   2.937  13.352  0.1967 -0.1967 -0.4725
  650TMC3    C1 9671   0.570   3.929  12.086  0.3738 -0.1620 -0.3313
  650TMC3    C2 9672   0.485   3.927  12.193 -0.8003  0.2005 -0.2105
  650TMC3    C3 9673   0.444   4.057  12.237  0.3257 -0.1860 -0.0682
  650TMC3    C4 9674   0.591   4.040  12.013 -0.0664  0.5376  0.2662
  650TMC3    C5 9675   0.556   4.159  12.061  0.2813 -0.2296  0.3791
  650TMC3    C6 9676   0.471   4.172  12.173 -0.8259 -0.3097 -0.8735
  650TMC3     C 9677   0.661   3.812  12.065  0.4040 -0.6290  0.3602
  650TMC3     O 9678   0.705   3.807  11.950  0.1759 -0.3856  0.4948
  650TMC3     H 9679   0.465   3.838  12.251 -1.9869  1.4085  1.2518
  650TMC3    H1 9680   0.664   4.045  11.932  1.0862  2.2176  1.4085
  650TMC3    H2 9681   0.423   4.266  12.196 -1.5912 -1.1292  0.8347
  650TMC3    C7 9682   0.591   4.272  11.993 -0.0138  0.1730 -0.2949
  650TMC3    C8 9683   0.353   4.082  12.353 -0.5272  0.7733 -0.1181
  650TMC3    O1 9684   0.613   4.258  11.876  0.3981 -0.1366  0.0497
  650TMC3    O2 9685   0.282   3.995  12.396  0.0578  0.4610 -0.0559
  651MPD2     C 9686   4.598   1.951  10.400 -0.3284 -0.0736 -0.7051
  651MPD2    C1 9687   4.599   2.071  10.466  0.2398 -0.7150 -0.0167
  651MPD2    C2 9688   4.711   2.154  10.470  0.0555 -0.6130 -0.1877
  651MPD2    C3 9689   0.085   2.115  10.405  0.2533  1.0361  0.0589
  651MPD2    C4 9690   0.083   1.987  10.347 -0.3332 -0.0584 -0.0146
  651MPD2    C5 9691   4.714   1.902  10.340 -0.8645  0.7751  0.0438
  651MPD2     H 9692   4.707   2.251  10.517  1.6163 -1.1955  1.1443
  651MPD2    H1 9693   0.167   1.948  10.290  0.3926 -0.9719  1.6739
  651MPD2    H2 9694   4.515   1.880  10.400 -0.5854  0.2303 -0.0574
  651MPD2    H3 9695   4.720   1.802  10.297 -0.6230 -0.2142  2.3909
  651MPD2     N 9696   0.190   2.200  10.403  0.1746  0.2183  0.3128
  651MPD2    H5 9697   0.173   2.292  10.444 -2.7213 -0.7259  1.2416
  651MPD2    N1 9698   4.484   2.120  10.543  0.4138 -0.2385  0.0294
  651MPD2    H7 9699   4.496   2.214  10.580 -0.0392 -0.6933  1.3479
  652TMC3    C1 9700   0.629   2.343  10.356  0.2861 -0.0582  0.0914
  652TMC3    C2 9701   0.538   2.253  10.391 -0.1089 -0.2805 -0.0403
  652TMC3    C3 9702   0.401   2.279  10.371 -0.2195  0.6168  0.5271
  652TMC3    C4 9703   0.593   2.456  10.292  0.6619 -0.0215 -0.1519
  652TMC3    C5 9704   0.456   2.476  10.260  0.2256 -0.6356  0.3794
  652TMC3    C6 9705   0.358   2.391  10.306  0.4387 -0.1157  0.0860
  652TMC3     C 9706   0.748   2.341  10.439  0.1558  0.1838 -0.1128
  652TMC3     O 9707   0.736   2.302  10.556  0.0830  0.7738 -0.2318
  652TMC3     H 9708   0.565   2.165  10.448 -1.1236 -0.3932  0.2660
  652TMC3    H1 9709   0.671   2.523  10.258  0.9084 -1.7434 -3.0082
  652TMC3    H2 9710   0.253   2.411  10.290  0.5318 -1.1623 -1.7669
  652TMC3    C7 9711   0.406   2.601  10.208 -0.0609 -0.0101 -0.0840
  652TMC3    C8 9712   0.308   2.166  10.344 -0.2383 -0.0981  0.8488
  652TMC3    O1 9713   0.285   2.608  10.183 -0.8074  0.5940 -0.2551
  652TMC3    O2 9714   0.348   2.063  10.296  0.3435 -0.3038 -0.3925
  653MPD2     C 9715   2.589   1.301  17.677  0.5347 -0.1636  0.1389
  653MPD2    C1 9716   2.467   1.359  17.647  0.0994 -0.5147 -0.2538
  653MPD2    C2 9717   2.361   1.272  17.623 -0.1643 -0.3860 -0.1075
  653MPD2    C3 9718   2.380   1.137  17.608 -0.1877  0.1930 -0.1244
  653MPD2    C4 9719   2.497   1.080  17.638  0.9798 -0.1979 -0.1206
  653MPD2    C5 9720   2.605   1.162  17.672 -0.0590  0.9735  0.1484
  653MPD2     H 9721   2.265   1.316  17.600 -0.0012  0.3488  0.5984
  653MPD2    H1 9722   2.513   0.973  17.632  2.4982  0.0868 -1.4160
  653MPD2    H2 9723   2.676   1.362  17.701  0.2215  0.2419  0.2343
  653MPD2    H3 9724   2.704   1.120  17.687 -0.8899 -1.2975 -0.7456
  653MPD2     N 9725   2.274   1.065  17.542  0.0864 -0.0410  0.4703
  653MPD2    H5 9726   2.185   1.110  17.520 -0.0178 -0.4010  0.1438
  653MPD2    N1 9727   2.456   1.497  17.644  0.3062 -0.4850 -0.9757
  653MPD2    H7 9728   2.361   1.531  17.649  0.5295  0.0441 -0.3331
  654TMC3    C1 9729   2.189   0.897  17.394  0.2342  0.2464 -0.1671
  654TMC3    C2 9730   2.181   0.988  17.293 -0.1696 -0.4368  0.6669
  654TMC3    C3 9731   2.172   0.942  17.158  0.4834 -0.0563 -0.0715
  654TMC3    C4 9732   2.196   0.765  17.365  0.8706 -0.1477  0.2371
  654TMC3    C5 9733   2.197   0.726  17.234 -0.8066  1.1872  0.7767
  654TMC3    C6 9734   2.181   0.811  17.129 -0.4497  0.4942 -0.2081
  654TMC3     C 9735   2.280   0.932  17.502 -0.7336  0.6628  0.0885
  654TMC3     O 9736   2.343   0.841  17.556  0.6793 -0.1690 -0.2871
  654TMC3     H 9737   2.197   1.093  17.317 -0.2732  0.0402 -1.2924
  654TMC3    H1 9738   2.194   0.695  17.448 -1.3817  0.4497  0.6730
  654TMC3    H2 9739   2.163   0.778  17.028  2.3637 -0.0682 -0.5450
  654TMC3    C7 9740   2.230   0.590  17.199 -0.4906 -0.2817 -0.4171
  654TMC3    C8 9741   2.189   1.037  17.046 -0.0995 -1.0587  0.3802
  654TMC3    O1 9742   2.226   0.557  17.082  0.1675 -0.0163  1.1654
  654TMC3    O2 9743   2.183   1.158  17.069  0.2173 -0.6534  0.1405
  655MPD2     C 9744   3.885   1.625  15.911 -0.0005  0.4748  0.2167
  655MPD2    C1 9745   3.884   1.735  15.833 -0.5569 -0.4387 -0.3532
  655MPD2    C2 9746   3.923   1.726  15.704 -0.3381 -0.3965 -0.0121
  655MPD2    C3 9747   3.964   1.606  15.642  0.5449  0.1919 -0.3083
  655MPD2    C4 9748   3.955   1.495  15.725 -0.0329 -0.0926  0.7379
  655MPD2    C5 9749   3.919   1.500  15.854 -0.0958 -0.7091  0.7377
  655MPD2     H 9750   3.914   1.818  15.648 -0.3011 -0.4264 -0.0676
  655MPD2    H1 9751   3.966   1.397  15.679 -0.9811 -0.2908  0.9304
  655MPD2    H2 9752   3.833   1.623  16.006 -0.3173 -0.3907  0.0216
  655MPD2    H3 9753   3.893   1.407  15.904 -1.6096 -0.8867 -0.3873
  655MPD2     N 9754   3.989   1.594  15.504  0.4258 -0.1019 -0.0276
  655MPD2    H5 9755   4.024   1.505  15.470  1.0889 -0.4159  1.4916
  655MPD2    N1 9756   3.843   1.863  15.875  0.8237 -0.5559 -0.3611
  655MPD2    H7 9757   3.840   1.930  15.799  1.4867 -0.0961  0.0125
  656TMC3    C1 9758   3.760   2.029  16.013 -0.5561 -1.1404  1.0324
  656TMC3    C2 9759   3.689   2.050  16.126  0.5921 -0.4005  0.0485
  656TMC3    C3 9760   3.630   2.169  16.143  0.2639 -0.2582  0.0591
  656TMC3    C4 9761   3.756   2.109  15.905  0.0744  0.2678  0.2750
  656TMC3    C5 9762   3.685   2.230  15.922 -0.2717  0.1201  0.0705
  656TMC3    C6 9763   3.625   2.260  16.042 -0.7319 -0.0720 -0.0655
  656TMC3     C 9764   3.824   1.900  16.006  0.1237 -0.2886  0.4628
  656TMC3     O 9765   3.828   1.826  16.102 -0.1011  0.4461  0.1055
  656TMC3     H 9766   3.680   1.971  16.200 -1.3233  0.3700  0.6323
  656TMC3    H1 9767   3.812   2.083  15.816 -0.7365 -1.9162  0.3847
  656TMC3    H2 9768   3.587   2.358  16.068 -1.8713 -0.5269 -0.0265
  656TMC3    C7 9769   3.649   2.303  15.802  0.1363  0.3134  0.9445
  656TMC3    C8 9770   3.505   2.161  16.212 -0.2580  0.4054 -0.5294
  656TMC3    O1 9771   3.737   2.304  15.712  0.2148 -0.5319  0.4205
  656TMC3    O2 9772   3.456   2.052  16.226  0.6093  0.1305 -0.3466
  657TMC3    C1 9773   3.061   0.818  15.016  0.1740 -0.3848  0.6596
  657TMC3    C2 9774   3.085   0.832  15.148 -0.6671 -0.1824  0.6178
  657TMC3    C3 9775   3.076   0.959  15.201  0.0978  0.4010 -0.3365
  657TMC3    C4 9776   3.013   0.915  14.929 -0.4857  0.1795  0.2319
  657TMC3    C5 9777   3.001   1.034  14.996  0.0167  0.1398  0.1471
  657TMC3    C6 9778   3.025   1.062  15.131  0.8609  0.0237 -0.6501
  657TMC3     C 9779   3.049   0.683  14.969  1.1032 -0.0018 -0.4497
  657TMC3     O 9780   2.968   0.657  14.877  0.2882 -0.1860  0.7593
  657TMC3     H 9781   3.098   0.740  15.205  1.1584  0.4826  1.2422
  657TMC3    H1 9782   2.992   0.891  14.825  0.3872 -0.5158  0.2241
  657TMC3    H2 9783   3.038   1.161  15.171  0.9591 -0.6154  0.8893
  657TMC3    C7 9784   2.978   1.146  14.910 -0.7726  0.5446  0.3530
  657TMC3    C8 9785   3.129   0.990  15.329  0.1476  0.2790 -0.3359
  657TMC3    O1 9786   3.028   1.138  14.798 -0.2477  0.1410 -0.1641
  657TMC3    O2 9787   3.098   1.098  15.376 -0.0864 -0.0307 -0.4827
  658MPD2     C 9788   4.456   1.726  14.992  0.9652 -0.6699 -0.0085
  658MPD2    C1 9789   4.346   1.783  14.937  0.0339  0.9269  0.6079
  658MPD2    C2 9790   4.345   1.823  14.806 -0.6402 -0.5593 -0.0344
  658MPD2    C3 9791   4.458   1.826  14.728  0.3588  0.5629 -0.8097
  658MPD2    C4 9792   4.573   1.779  14.789 -0.8432  0.3112  0.1613
  658MPD2    C5 9793   4.572   1.736  14.919  0.3274 -0.3968  0.4762
  658MPD2     H 9794   4.254   1.867  14.765 -0.5802 -1.1914 -0.8409
  658MPD2    H1 9795   4.665   1.776  14.733  0.2111 -0.3336  1.9296
  658MPD2    H2 9796   4.455   1.687  15.093  0.6196 -0.2960  0.1328
  658MPD2    H3 9797   4.658   1.687  14.963  0.2392 -0.7359  0.2714
  658MPD2     N 9798   4.437   1.841  14.585  0.4297  0.2480  0.5016
  658MPD2    H5 9799   4.342   1.864  14.557 -0.3226 -0.9004  2.1125
  658MPD2    N1 9800   4.229   1.776  15.011  0.4652  0.5936  0.7187
  658MPD2    H7 9801   4.235   1.740  15.106 -0.2351 -1.2050  0.0997
  659TMC3    C1 9802   4.002   1.743  15.063  0.2866  0.3825 -0.0282
  659TMC3    C2 9803   4.052   1.740  15.191  0.0326  0.5086  0.5250
  659TMC3    C3 9804   3.995   1.643  15.277 -0.2574  0.4670 -0.6789
  659TMC3    C4 9805   3.901   1.662  15.024  0.2607 -0.0783 -0.0079
  659TMC3    C5 9806   3.846   1.576  15.113  0.0496 -0.3017  0.0501
  659TMC3    C6 9807   3.892   1.557  15.236  0.0804 -0.7098 -0.0682
  659TMC3     C 9808   4.103   1.777  14.962  0.3190 -0.0150 -0.8603
  659TMC3     O 9809   4.060   1.789  14.850  0.1267  0.2111  0.3183
  659TMC3     H 9810   4.118   1.813  15.236  0.5968  0.2441  0.1282
  659TMC3    H1 9811   3.868   1.652  14.921  1.4042 -0.9504 -0.2915
  659TMC3    H2 9812   3.848   1.481  15.299 -0.7658  1.4332  1.9612
  659TMC3    C7 9813   3.725   1.518  15.077 -0.4473 -0.2701 -0.1121
  659TMC3    C8 9814   3.974   1.693  15.410 -0.3652 -0.0333  0.9269
  659TMC3    O1 9815   3.702   1.398  15.094  0.5898 -0.2726  0.4897
  659TMC3    O2 9816   3.939   1.807  15.422 -0.7634 -0.7789 -0.9215
  660MPD2     C 9817   2.415   0.887  13.397  0.2090 -0.2211 -0.5656
  660MPD2    C1 9818   2.289   0.827  13.383  0.0074  0.2148 -0.4527
  660MPD2    C2 9819   2.232   0.748  13.482  0.2953 -0.4013 -0.3380
  660MPD2    C3 9820   2.309   0.717  13.589 -0.0093  0.2731  0.5290
  660MPD2    C4 9821   2.439   0.760  13.601 -0.3265 -0.5385 -0.4236
  660MPD2    C5 9822   2.491   0.847  13.502  0.1864  0.4424  0.5064
  660MPD2     H 9823   2.131   0.711  13.465  0.1710 -2.0198  3.9117
  660MPD2    H1 9824   2.502   0.729  13.684 -1.4781 -1.0830  0.2479
  660MPD2    H2 9825   2.461   0.953  13.325  2.8160 -0.5584  0.7844
  660MPD2    H3 9826   2.590   0.888  13.519  0.0540  1.5874 -1.5034
  660MPD2     N 9827   2.272   0.628  13.692 -0.1218  0.0150  0.3217
  660MPD2    H5 9828   2.333   0.599  13.768  0.3840 -1.8946 -0.8250
  660MPD2    N1 9829   2.205   0.856  13.272  0.1433  0.2970  0.2125
  660MPD2    H7 9830   2.117   0.805  13.281  0.7854 -1.2392 -2.1830
  661TMC3    C1 9831   2.146   0.940  13.050  0.4849 -0.5218  0.3463
  661TMC3    C2 9832   2.181   1.022  12.946 -0.1116  0.3001 -0.1250
  661TMC3    C3 9833   2.110   1.000  12.832 -0.2300  0.6506  0.0568
  661TMC3    C4 9834   2.056   0.835  13.039 -0.3236 -0.0400 -0.6239
  661TMC3    C5 9835   1.999   0.818  12.922 -0.6771  0.1559 -0.0486
  661TMC3    C6 9836   2.019   0.897  12.817 -0.4644  0.4874 -0.3096
  661TMC3     C 9837   2.239   0.930  13.166 -0.1746 -0.1470 -0.4627
  661TMC3     O 9838   2.343   0.982  13.132  0.0843 -0.0603 -0.0230
  661TMC3     H 9839   2.236   1.114  12.960  2.4574 -0.9122 -2.2485
  661TMC3    H1 9840   2.051   0.764  13.121 -0.4161  0.1003 -0.5087
  661TMC3    H2 9841   1.954   0.897  12.729 -0.2241  1.7302 -0.4830
  661TMC3    C7 9842   1.904   0.703  12.910  0.0492 -0.5046  0.3363
  661TMC3    C8 9843   2.140   1.087  12.718 -0.1706  0.3044 -0.9785
  661TMC3    O1 9844   1.869   0.659  13.019  0.8443  0.1453  0.1869
  661TMC3    O2 9845   2.198   1.195  12.729 -0.3082 -0.4233  0.0545
  662MPD2     C 9846   1.866   0.558  17.019  0.5258  0.0866 -0.7381
  662MPD2    C1 9847   1.912   0.501  17.139 -0.0702 -0.5480  0.3497
  662MPD2    C2 9848   1.897   0.582  17.256  0.2976  0.5746 -0.1533
  662MPD2    C3 9849   1.854   0.716  17.250 -0.0652 -0.0759  0.0115
  662MPD2    C4 9850   1.823   0.772  17.124  0.0507  0.3539 -0.0957
  662MPD2    C5 9851   1.835   0.693  17.012 -0.4419 -0.1532  0.1450
  662MPD2     H 9852   1.925   0.545  17.354  0.1131  0.0044 -0.3193
  662MPD2    H1 9853   1.807   0.879  17.114 -1.9693  0.1300  0.7222
  662MPD2    H2 9854   1.871   0.500  16.927  2.2459 -0.4361 -0.3253
  662MPD2    H3 9855   1.809   0.733  16.915 -0.4024  0.9305  0.5775
  662MPD2     N 9856   1.833   0.801  17.360  0.0437 -0.1424 -0.4632
  662MPD2    H5 9857   1.789   0.891  17.342  0.4827  0.1943  0.1594
  662MPD2    N1 9858   1.956   0.366  17.148 -0.3855 -0.0412  0.3791
  662MPD2    H7 9859   1.984   0.327  17.238  1.7775 -0.1908 -0.3518
  663TMC3    C1 9860   1.919   0.140  17.127 -0.3662  0.1934 -0.7543
  663TMC3    C2 9861   1.871   0.123  17.254 -0.2752  0.0193 -0.3029
  663TMC3    C3 9862   1.839   4.735  17.284 -0.7715 -0.8138  0.3876
  663TMC3    C4 9863   1.950   0.032  17.052 -0.1494 -0.1264  0.0350
  663TMC3    C5 9864   1.937   4.642  17.094 -0.0845  0.3558  0.5034
  663TMC3    C6 9865   1.892   4.626  17.220 -0.3155  0.4982  0.4341
  663TMC3     C 9866   1.913   0.269  17.066 -0.5920  0.4892  0.6267
  663TMC3     O 9867   1.869   0.269  16.950  0.5074 -0.4578 -0.6654
  663TMC3     H 9868   1.818   0.205  17.300  0.8964  1.1016 -0.8885
  663TMC3    H1 9869   2.000   0.046  16.957 -0.7970  0.0627 -0.2707
  663TMC3    H2 9870   1.859   4.528  17.255  0.5498 -0.4140 -1.2806
  663TMC3    C7 9871   2.021   4.545  17.037  0.1720  0.0619 -0.0860
  663TMC3    C8 9872   1.822   4.716  17.429 -0.0140 -0.1048 -0.3356
  663TMC3    O1 9873   2.084   4.579  16.939  1.1611 -0.1050 -0.2908
  663TMC3    O2 9874   1.763   4.618  17.465  0.0739  0.3142 -0.4204
  664MPD2     C 9875   0.715   2.818  17.428  0.6046 -0.2673 -0.6671
  664MPD2    C1 9876   0.740   2.907  17.534  0.0656  0.1171 -0.0350
  664MPD2    C2 9877   0.646   2.922  17.636 -0.2605  0.0840  0.4460
  664MPD2    C3 9878   0.528   2.858  17.638  0.4159  0.0873 -0.5448
  664MPD2    C4 9879   0.496   2.779  17.527 -0.3624 -0.3868 -0.3450
  664MPD2    C5 9880   0.586   2.762  17.427  0.1053  0.4799  0.2761
  664MPD2     H 9881   0.664   2.982  17.724  0.1551 -0.7759  0.9425
  664MPD2    H1 9882   0.404   2.724  17.521 -0.8058  0.3410 -0.2477
  664MPD2    H2 9883   0.780   2.802  17.343 -0.1969 -0.5725 -1.2215
  664MPD2    H3 9884   0.566   2.699  17.340  0.3570  1.5470 -0.5566
  664MPD2     N 9885   0.445   2.877  17.758 -0.0398  0.9097 -0.4862
  664MPD2    H5 9886   0.492   2.931   0.070 -0.5036  1.3028 -0.4805
  664MPD2    N1 9887   0.860   2.978  17.554 -0.2398 -0.1990  0.7827
  664MPD2    H7 9888   0.871   3.027  17.642  0.6490  1.0848 -0.0535
  665TMC3    C1 9889   0.292   2.835   0.160  0.3312 -0.5865 -0.6478
  665TMC3    C2 9890   0.242   2.734   0.240  0.2659  0.2874 -0.1354
  665TMC3    C3 9891   0.188   2.773   0.361  0.2385  0.5589 -0.6604
  665TMC3    C4 9892   0.309   2.959   0.208 -0.7407  0.0433 -0.4123
  665TMC3    C5 9893   0.244   2.999   0.324  0.6866  0.3165 -0.2734
  665TMC3    C6 9894   0.182   2.901   0.403  0.3106  0.1330  0.1892
  665TMC3     C 9895   0.333   2.801   0.025  0.2267 -0.1373  0.3988
  665TMC3     O 9896   0.284   2.704  17.727  0.0161 -0.6135  0.5966
  665TMC3     H 9897   0.237   2.628   0.216  0.0219  0.0758  0.8300
  665TMC3    H1 9898   0.341   3.034   0.137  2.2249 -2.1396 -1.3847
  665TMC3    H2 9899   0.149   2.929   0.502  2.9457  1.9009  0.5727
  665TMC3    C7 9900   0.282   3.133   0.378 -0.1023  0.1259  0.5968
  665TMC3    C8 9901   0.138   2.665   0.448  0.5114  0.0197 -0.5314
  665TMC3    O1 9902   0.335   3.211   0.297  0.0537 -0.0548 -0.2615
  665TMC3    O2 9903   0.200   2.561   0.455 -0.0272 -0.3726 -0.2421
  666TMC3    C1 9904   0.541   4.110   9.302  0.8128 -0.3180 -0.3097
  666TMC3    C2 9905   0.681   4.090   9.295  1.2173 -0.3401 -0.0452
  666TMC3    C3 9906   0.750   4.155   9.397 -0.2544  0.3715 -0.3167
  666TMC3    C4 9907   0.476   4.207   9.379  0.0471  1.0310  0.3468
  666TMC3    C5 9908   0.555   4.272   9.474  0.2448  0.1848  0.6546
  666TMC3    C6 9909   0.687   4.243   9.483  0.0124  0.0642  0.2505
  666TMC3     C 9910   0.472   3.977   9.300 -0.1197  0.4480  0.4610
  666TMC3     O 9911   0.350   3.979   9.292 -0.1341  0.3314  0.0568
  666TMC3     H 9912   0.730   4.024   9.224  0.5385  0.1194 -0.9472
  666TMC3    H1 9913   0.369   4.224   9.375 -0.3116 -0.7690  2.5811
  666TMC3    H2 9914   0.732   4.294   9.567  1.5076 -2.5161  1.0372
  666TMC3    C7 9915   0.479   4.345   9.577  0.2263 -0.1978  0.1585
  666TMC3    C8 9916   0.828   4.062   9.469 -0.2224  0.2785  0.4951
  666TMC3    O1 9917   0.357   4.339   9.582  0.6097 -0.5699  0.3735
  666TMC3    O2 9918   0.803   3.948   9.441 -0.2722  0.7395 -0.4219
  667MPD2     C 9919   1.716   3.328  14.502  0.2695 -0.6847  0.3572
  667MPD2    C1 9920   1.631   3.298  14.606 -0.7473  0.2247 -0.2475
  667MPD2    C2 9921   1.545   3.196  14.583 -0.2702  0.5302  0.4907
  667MPD2    C3 9922   1.551   3.123  14.469  0.1071 -0.0311 -0.4322
  667MPD2    C4 9923   1.646   3.145  14.369 -0.4467 -0.2612  0.0583
  667MPD2    C5 9924   1.733   3.246  14.393  0.2497 -0.1142  0.4509
  667MPD2     H 9925   1.475   3.172  14.662 -3.0051 -0.0877 -2.1365
  667MPD2    H1 9926   1.671   3.086  14.282  1.0006  0.6254 -0.1242
  667MPD2    H2 9927   1.773   3.420  14.496  0.3281 -0.8017 -0.8801
  667MPD2    H3 9928   1.793   3.267  14.305  1.4112  1.2169  1.5610
  667MPD2     N 9929   1.466   3.009  14.462 -0.8992  0.3645  0.1862
  667MPD2    H5 9930   1.408   2.992  14.543  1.6025  1.3872  2.1553
  667MPD2    N1 9931   1.629   3.359  14.737 -0.3471  0.4357  0.3729
  667MPD2    H7 9932   1.551   3.339  14.798  0.1214 -0.1227  0.7972
  668TMC3    C1 9933   1.676   3.532  14.886 -0.0021 -0.4196 -0.1827
  668TMC3    C2 9934   1.694   3.665  14.883 -0.3206  0.1544  0.5303
  668TMC3    C3 9935   1.654   3.738  14.994 -0.4282 -0.2563 -0.0304
  668TMC3    C4 9936   1.592   3.472  14.984  0.1140  0.1747  0.5124
  668TMC3    C5 9937   1.559   3.550  15.096 -0.2972 -0.3090 -0.0264
  668TMC3    C6 9938   1.581   3.686  15.096 -0.4308 -0.0731  0.2907
  668TMC3     C 9939   1.706   3.464  14.766  0.4193 -0.4142 -0.0037
  668TMC3     O 9940   1.803   3.505  14.705  0.1239  0.1886 -0.0448
  668TMC3     H 9941   1.740   3.705  14.793 -0.5963 -1.2354 -0.2363
  668TMC3    H1 9942   1.595   3.364  14.982 -0.5922  0.1764 -1.4696
  668TMC3    H2 9943   1.564   3.752  15.180 -0.2366  0.2453  0.0782
  668TMC3    C7 9944   1.465   3.499  15.197 -0.3046  0.4208  0.0982
  668TMC3    C8 9945   1.710   3.874  15.006  0.4753 -0.4645 -0.5160
  668TMC3    O1 9946   1.456   3.560  15.299  0.1268  0.4693  0.3523
  668TMC3    O2 9947   1.684   3.935  15.108 -0.3923 -0.4446 -0.1657
  669TMC3    C1 9948   0.040   3.162  15.162 -0.0305  0.7027  0.2190
  669TMC3    C2 9949   4.682   3.192  15.076  0.3024 -0.4090  0.1088
  669TMC3    C3 9950   4.711   3.221  14.943 -0.0957  0.1175  0.0348
  669TMC3    C4 9951   0.172   3.141  15.117  0.7644  0.2039  0.6252
  669TMC3    C5 9952   0.203   3.164  14.986 -0.7406 -0.4034  0.1122
  669TMC3    C6 9953   0.098   3.209  14.901  0.6156 -0.6068 -0.0924
  669TMC3     C 9954   0.005   3.155  15.301  0.3172  0.3290 -0.0095
  669TMC3     O 9955   4.630   3.182  15.330  0.3215 -0.4024  0.1899
  669TMC3     H 9956   4.578   3.192  15.106  0.2496  0.7091 -0.0747
  669TMC3    H1 9957   0.251   3.104  15.181  0.7639 -0.6108  0.1521
  669TMC3    H2 9958   0.125   3.202  14.796 -0.6679  2.0972 -0.6044
  669TMC3    C7 9959   0.342   3.198  14.953  0.4924 -0.5234 -0.5920
  669TMC3    C8 9960   4.606   3.254  14.861 -0.5111 -0.2232 -0.5128
  669TMC3    O1 9961   0.425   3.161  15.039  0.7368  0.0223 -0.1636
  669TMC3    O2 9962   4.494   3.217  14.900 -0.1162 -0.3049  0.1493
  670MPD2     C 9963   2.088   1.252  13.231  0.7723  0.5160 -0.0737
  670MPD2    C1 9964   2.205   1.305  13.265  0.2356 -0.0819 -0.0920
  670MPD2    C2 9965   2.260   1.270  13.387 -0.2954 -0.3409  0.4443
  670MPD2    C3 9966   2.199   1.183  13.477 -0.2969  0.7343  0.1585
  670MPD2    C4 9967   2.082   1.123  13.438 -0.2782 -0.0438  0.3968
  670MPD2    C5 9968   2.028   1.163  13.321 -0.1021  0.5424  0.5378
  670MPD2     H 9969   2.351   1.320  13.417 -1.9147  2.8466  0.1729
  670MPD2    H1 9970   2.011   1.078  13.506 -0.5998  0.3621  0.3287
  670MPD2    H2 9971   2.041   1.255  13.133 -3.9728  0.7997  2.2244
  670MPD2    H3 9972   1.935   1.121  13.287  1.7961 -2.3562 -1.0551
  670MPD2     N 9973   2.257   1.147  13.601 -0.7042 -0.0310  0.7343
  670MPD2    H5 9974   2.351   1.185  13.611 -0.2948 -1.0876  0.9460
  670MPD2    N1 9975   2.280   1.390  13.188  0.4685  0.6864 -0.2343
  670MPD2    H7 9976   2.363   1.429  13.232 -0.4728  0.8361  1.3858
  671TMC3    C1 9977   2.298   1.047  13.808  0.6186  0.4084  1.4114
  671TMC3    C2 9978   2.425   1.047  13.781  0.1383  0.0851  0.5157
  671TMC3    C3 9979   2.507   1.014  13.878 -0.2965 -0.3638 -0.4314
  671TMC3    C4 9980   2.242   1.011  13.926  0.8484 -0.3495 -0.1797
  671TMC3    C5 9981   2.327   0.990  14.027 -0.6793  0.1424 -0.4108
  671TMC3    C6 9982   2.460   0.986  14.003  0.3935 -0.3267  0.0686
  671TMC3     C 9983   2.202   1.065  13.697 -0.1274  0.1189 -0.5514
  671TMC3     O 9984   2.086   1.031  13.717 -0.7236 -0.2324 -0.4219
  671TMC3     H 9985   2.448   1.023  13.678 -1.8978  0.1593  0.0410
  671TMC3    H1 9986   2.135   1.019  13.939  0.8361  1.6340 -1.5150
  671TMC3    H2 9987   2.535   0.977  14.081  0.6085 -0.3429 -0.1411
  671TMC3    C7 9988   2.275   0.896  14.118 -0.7350 -0.3768 -1.1704
  671TMC3    C8 9989   2.604   0.910  13.853 -0.1660 -0.5438  0.7136
  671TMC3    O1 9990   2.177   0.832  14.091 -0.2078 -0.2653  0.6223
  671TMC3    O2 9991   2.574   0.810  13.917 -0.5543 -0.1347 -0.2276
  672MPD2     C 9992   2.916   1.400   0.102  0.2953 -0.2145 -0.1894
  672MPD2    C1 9993   3.019   1.359   0.183  0.0580 -0.3226  0.3026
  672MPD2    C2 9994   3.126   1.441   0.207 -0.4286  0.0131 -0.5741
  672MPD2    C3 9995   3.136   1.558   0.136 -0.2943  0.5060 -0.3860
  672MPD2    C4 9996   3.039   1.595   0.052 -0.1333 -0.0170  0.1862
  672MPD2    C5 9997   2.924   1.519   0.037 -0.2267  0.0890 -0.6464
  672MPD2     H 9998   3.203   1.411   0.276 -0.4048  0.2056 -0.5147
  672MPD2    H1 9999   3.044   1.676  17.740 -0.6267 -1.7398 -1.7869
  672MPD2    H210000   2.828   1.340   0.082 -1.7987  3.2206 -1.2725
  672MPD2    H310001   2.845   1.549  17.730 -1.8840 -1.6163  0.5330
  672MPD2     N10002   3.246   1.641   0.141  0.2431 -0.3735 -0.5797
  672MPD2    H510003   3.248   1.706   0.063  2.1272  0.8015  0.4527
  672MPD2    N110004   3.012   1.237   0.261 -0.3251 -0.0531 -0.1710
  672MPD2    H710005   3.092   1.206   0.314 -0.0545  0.0959 -0.4899
  673TMC3    C110006   2.931   1.038   0.340  0.5471 -0.3766  0.0834
  673TMC3    C210007   3.055   1.012   0.386 -0.2668 -0.1155 -0.3022
  673TMC3    C310008   3.067   0.928   0.489  0.0472  0.1839 -0.0838
  673TMC3    C410009   2.823   0.984   0.403  0.4508  0.1308 -0.8825
  673TMC3    C510010   2.836   0.902   0.514  0.9219 -0.2941  0.8739
  673TMC3    C610011   2.962   0.867   0.558 -0.0019  0.4576 -0.0554
  673TMC3     C10012   2.900   1.156   0.275  0.1989  0.5296  0.5792
  673TMC3     O10013   2.789   1.195   0.246 -0.4097  0.4702 -0.0818
  673TMC3     H10014   3.145   1.049   0.338 -0.4336  0.7632  0.0720
  673TMC3    H110015   2.725   1.010   0.367  0.6238 -0.3428 -1.7019
  673TMC3    H210016   2.987   0.815   0.650 -0.5020  0.5865  0.1553
  673TMC3    C710017   2.755   0.937   0.630 -0.5811 -0.8805  0.0192
  673TMC3    C810018   3.193   0.908   0.550  0.4053  0.2442  0.2139
  673TMC3    O110019   2.786   0.895   0.740  0.2378  0.3573 -0.2152
  673TMC3    O210020   3.283   0.988   0.524 -0.3566  0.3757  0.3980
  674MPD2     C10021   3.150   0.116   0.654  0.7191 -0.1220  0.2349
  674MPD2    C110022   3.033   0.068   0.698  0.4400 -0.5434  0.5296
  674MPD2    C210023   2.918   0.097   0.624  0.3363  0.3551 -0.2219
  674MPD2    C310024   2.931   0.170   0.503  0.4179 -0.0674 -0.1778
  674MPD2    C410025   3.055   0.187   0.446  0.4414  0.1771 -0.4976
  674MPD2    C510026   3.166   0.162   0.526 -0.7861 -1.1442  0.7479
  674MPD2     H10027   2.821   0.087   0.670  0.6932 -0.6582  0.3120
  674MPD2    H110028   3.065   0.225   0.346 -0.0948  0.7620 -0.3295
  674MPD2    H210029   3.235   0.116   0.722  0.2371  0.1952  0.8458
  674MPD2    H310030   3.266   0.172   0.487 -1.0429 -0.2680  0.3182
  674MPD2     N10031   2.813   0.223   0.451 -0.5132  0.3931 -0.2653
  674MPD2    H510032   2.723   0.190   0.486 -0.9249  1.8837  0.1073
  674MPD2    N110033   3.026   0.014   0.828  0.0496  0.3463  0.3515
  674MPD2    H710034   3.111   0.025   0.882  1.6209  1.3287 -2.3475
  675TMC3    C110035   2.935   4.623   1.011  0.1808  0.1169 -0.8069
  675TMC3    C210036   2.859   4.515   1.054  0.2873 -0.4954 -0.8268
  675TMC3    C310037   2.894   4.454   1.178 -0.3415  0.1548  0.4145
  675TMC3    C410038   3.035   4.659   1.086  0.2550  0.8471  0.2684
  675TMC3    C510039   3.077   4.598   1.202 -0.2419 -0.3548 -0.0212
  675TMC3    C610040   3.010   4.486   1.250 -0.1755  0.1039 -0.5217
  675TMC3     C10041   2.922   4.677   0.876  0.0397  0.8042 -0.1342
  675TMC3     O10042   2.831   4.631   0.813  0.4513 -0.1828  0.4407
  675TMC3     H10043   2.776   4.480   0.993  0.5575 -2.2396 -0.2047
  675TMC3    H110044   3.083   0.013   1.063 -0.0440  1.2102  1.1244
  675TMC3    H210045   3.033   4.444   1.347 -0.0647 -0.1034 -0.6378
  675TMC3    C710046   3.215   4.638   1.246 -0.7876  0.2871 -0.2029
  675TMC3    C810047   2.812   4.347   1.235  1.0303  0.2035  0.1566
  675TMC3    O110048   3.266   0.006   1.213  0.0750 -0.6370 -0.2609
  675TMC3    O210049   2.691   4.353   1.232  0.4182 -0.0851  0.6383
  676MPD2     C10050   1.169   4.635  10.850  0.0667  0.2145  0.0693
  676MPD2    C110051   1.052   4.593  10.906  0.3250  0.5240 -0.3597
  676MPD2    C210052   1.020   4.461  10.884 -0.0706  0.0919  0.1482
  676MPD2    C310053   1.097   4.373  10.818  0.2898  0.3063 -0.3462
  676MPD2    C410054   1.220   4.416  10.773  0.2004 -0.3168  0.5889
  676MPD2    C510055   1.255   4.544  10.791  0.2567  0.5014  0.3539
  676MPD2     H10056   0.922   4.432  10.920 -0.3266  0.3859 -0.3005
  676MPD2    H110057   1.290   4.347  10.728  0.9382  1.0635 -0.3873
  676MPD2    H210058   1.209   4.735  10.861  1.8146 -0.4092 -0.5970
  676MPD2    H310059   1.347   4.586  10.752 -0.5806  2.1890  0.1676
  676MPD2     N10060   1.053   4.245  10.778  0.0958 -0.5852  0.7437
  676MPD2    H510061   1.093   4.205  10.693 -1.1454 -1.5837  0.6311
  676MPD2    N110062   0.964   4.678  10.988  0.2401  0.2522  0.5511
  676MPD2    H710063   0.879   4.632  11.018  1.0073  0.5610  3.1864
  677TMC3    C110064   0.866   0.130  11.078  0.1775 -0.3832  0.0221
  677TMC3    C210065   0.755   0.052  11.087 -0.2281  0.1020 -0.1578
  677TMC3    C310066   0.679   0.061  11.197 -0.0013 -0.8152 -0.3938
  677TMC3    C410067   0.890   0.229  11.172 -0.3657  0.4731 -0.1317
  677TMC3    C510068   0.796   0.246  11.269 -1.2910  0.4942  0.7055
  677TMC3    C610069   0.690   0.165  11.288  0.5207 -0.2535  0.6899
  677TMC3     C10070   0.983   0.070  11.015  0.1122 -0.1708 -0.2306
  677TMC3     O10071   1.073   0.153  10.998  0.1808 -0.6041  0.0979
  677TMC3     H10072   0.739   4.713  11.016 -0.6993 -0.6942  0.8426
  677TMC3    H110073   0.976   0.295  11.166  0.7113 -0.9400 -0.2026
  677TMC3    H210074   0.618   0.177  11.368 -0.0633  2.3023 -0.2301
  677TMC3    C710075   0.798   0.372  11.352 -0.1768 -0.1853 -0.1778
  677TMC3    C810076   0.651   4.676  11.259  0.0640  0.2046 -0.1500
  677TMC3    O110077   0.690   0.417  11.392  0.1568 -0.6899  0.2838
  677TMC3    O210078   0.722   4.587  11.216 -0.0936 -0.1273  0.0956
  678MPD2     C10079   1.343   3.834   1.561  0.2435 -0.0996 -0.4717
  678MPD2    C110080   1.349   3.875   1.432  0.3219 -0.1934  0.3661
  678MPD2    C210081   1.233   3.925   1.376  0.2130 -0.3363  0.0791
  678MPD2    C310082   1.119   3.945   1.453  0.4115  0.4662 -0.2128
  678MPD2    C410083   1.121   3.922   1.586  0.0678 -0.0528 -0.5254
  678MPD2    C510084   1.237   3.869   1.642  0.2183 -0.2593 -0.0695
  678MPD2     H10085   1.232   3.936   1.269 -1.1795  1.3918  0.2613
  678MPD2    H110086   1.025   3.926   1.637 -1.1366  1.9320 -2.9446
  678MPD2    H210087   1.415   3.768   1.607 -0.1404 -0.5718 -0.5365
  678MPD2    H310088   1.235   3.844   1.747  0.6130  1.7557  0.4029
  678MPD2     N10089   0.998   3.978   1.396 -0.4977 -0.0806 -0.0498
  678MPD2    H510090   0.995   3.986   1.295 -0.2507  0.2841 -0.0296
  678MPD2    N110091   1.470   3.877   1.357  0.2666  0.1446  0.4564
  678MPD2    H710092   1.460   3.893   1.257 -0.9854 -0.8419  0.4116
  679TMC3    C110093   1.942   3.853   1.280 -0.0796 -0.6267  0.9891
  679TMC3    C210094   1.834   3.836   1.357 -0.1366  0.0788 -0.1150
  679TMC3    C310095   1.709   3.872   1.321  0.0262  0.1771  0.1677
  679TMC3    C410096   1.928   3.906   1.153 -0.2417 -0.1387  0.0519
  679TMC3    C510097   1.798   3.937   1.114  0.1793 -0.3681 -0.2499
  679TMC3    C610098   1.687   3.926   1.197  0.0726  0.2652  0.1589
  679TMC3     C10099   2.042   3.746   1.301  0.6853  0.0275  0.2560
  679TMC3     O10100   2.086   3.701   1.193 -0.1114  0.0258 -0.1362
  679TMC3     H10101   1.828   3.772   1.444 -1.6282 -0.2503 -0.4508
  679TMC3    H110102   2.021   3.925   1.099 -0.5081  2.8832  0.6415
  679TMC3    H210103   1.590   3.966   1.170  1.3309  2.0513 -1.7116
  679TMC3    C710104   1.771   4.001   0.987  0.2156 -0.3189 -0.7960
  679TMC3    C810105   1.600   3.868   1.420  0.0908  0.5523 -0.4106
  679TMC3    O110106   1.664   4.055   0.971 -0.0807  0.4462 -0.1727
  679TMC3    O210107   1.637   3.844   1.536 -0.1357  0.5271  0.1781
  680MPD2     C10108   2.392   3.301  13.660  0.1389  0.0038 -0.0245
  680MPD2    C110109   2.483   3.248  13.751  0.6003  0.6929 -0.6053
  680MPD2    C210110   2.597   3.316  13.792  0.3791 -0.0422  0.1131
  680MPD2    C310111   2.617   3.446  13.749  0.2060 -0.3853  0.2837
  680MPD2    C410112   2.530   3.495  13.654 -0.9970  0.3266  0.4153
  680MPD2    C510113   2.419   3.422  13.612  0.1932  0.3921  0.7983
  680MPD2     H10114   2.653   3.277  13.876  2.3899 -1.0853 -1.7304
  680MPD2    H110115   2.549   3.591  13.608 -2.1550  1.0359  1.4074
  680MPD2    H210116   2.299   3.247  13.647  1.3705 -1.9417 -0.8545
  680MPD2    H310117   2.344   3.481  13.561  0.7847 -0.5629 -1.1849
  680MPD2     N10118   2.725   3.528  13.787  0.4882 -0.4894 -0.3379
  680MPD2    H510119   2.734   3.620  13.746 -3.9313 -1.4106 -3.4403
  680MPD2    N110120   2.469   3.115  13.800  0.1668  0.2831  0.3050
  680MPD2    H710121   2.538   3.092  13.871  0.4210 -0.1932 -0.1021
  681TMC3    C110122   2.374   2.935  13.883  0.0115 -0.3777 -0.5581
  681TMC3    C210123   2.329   2.958  14.009  0.0238 -0.8751 -0.0212
  681TMC3    C310124   2.409   2.908  14.110 -0.5122 -0.6919  0.1285
  681TMC3    C410125   2.495   2.879  13.860 -0.3623  0.6974 -0.2669
  681TMC3    C510126   2.566   2.817  13.960 -0.0363 -0.5161  0.0151
  681TMC3    C610127   2.521   2.827  14.088 -0.4220  0.3984 -0.6055
  681TMC3     C10128   2.351   3.044  13.794  0.4531  0.0385  0.8376
  681TMC3     O10129   2.241   3.091  13.790  0.1905  0.4136  0.1639
  681TMC3     H10130   2.245   3.021  14.034  2.2836  2.1533  0.0326
  681TMC3    H110131   2.531   2.875  13.758 -0.9460  0.5421 -0.4667
  681TMC3    H210132   2.571   2.785  14.175 -1.0406  2.4011  0.6979
  681TMC3    C710133   2.705   2.775  13.936  0.2392  0.6315  0.5543
  681TMC3    C810134   2.361   2.934  14.246 -0.6045  0.1702 -0.3943
  681TMC3    O110135   2.769   2.749  14.035  0.7141  0.7693  0.2610
  681TMC3    O210136   2.242   2.955  14.265 -0.0702 -0.4497 -0.1610
  682MPD2     C10137   4.379   4.661  10.610  0.0600  0.0616 -0.2546
  682MPD2    C110138   4.485   4.583  10.651 -0.1122 -0.0968  0.2826
  682MPD2    C210139   4.482   4.522  10.780  0.0490 -0.5561  0.5944
  682MPD2    C310140   4.370   4.524  10.857 -0.4554  0.1787 -0.2592
  682MPD2    C410141   4.261   4.599  10.813 -1.0401 -1.2422  0.1187
  682MPD2    C510142   4.275   4.674  10.701  0.1598 -0.2937  0.2092
  682MPD2     H10143   4.571   4.474  10.818  0.6344  0.7245  0.8535
  682MPD2    H110144   4.179   4.606  10.883 -2.2193  0.7404 -1.4648
  682MPD2    H210145   4.364   4.705  10.512  3.3940  2.6299  0.4179
  682MPD2    H310146   4.194   4.736  10.667  1.3540  2.1569  1.8225
  682MPD2     N10147   4.350   4.458  10.979  0.1330  0.4693 -0.9068
  682MPD2    H510148   4.257   4.457  11.017 -0.0551  2.1775 -1.3072
  682MPD2    N110149   4.594   4.550  10.567  0.5935 -0.4765 -0.0457
  682MPD2    H710150   4.645   4.473  10.608  0.1182 -0.4344  0.6136
  683TMC3    C110151   4.408   4.161  11.328 -0.5841  0.5734  0.1007
  683TMC3    C210152   4.276   4.139  11.337 -0.2047  0.3940 -0.5287
  683TMC3    C310153   4.198   4.210  11.257 -0.3625 -0.7457 -0.6821
  683TMC3    C410154   4.463   4.240  11.234 -0.0353  0.2126 -0.1493
  683TMC3    C510155   4.378   4.304  11.146 -0.2684 -0.6879  0.5927
  683TMC3    C610156   4.240   4.287  11.159  0.0044  0.0872 -0.1497
  683TMC3     C10157   4.484   4.095  11.431  0.1453  0.0662 -0.3906
  683TMC3     O10158   4.458   3.981  11.468  0.0252 -0.2928  0.1294
  683TMC3     H10159   4.246   4.083  11.425  0.5011 -0.6465 -0.9504
  683TMC3    H110160   4.570   4.251  11.224  0.1537  1.0422  2.7909
  683TMC3    H210161   4.165   4.340  11.101 -1.6142 -0.2949  1.5898
  683TMC3    C710162   4.440   4.370  11.038  0.3398  0.4817  0.0665
  683TMC3    C810163   4.055   4.193  11.275 -0.8785  0.0256 -0.2005
  683TMC3    O110164   4.560   4.353  11.022  0.3811  0.3129 -0.1613
  683TMC3    O210165   3.976   4.273  11.223 -0.3786 -0.5112 -0.6387
  684MPD2     C10166   2.136   3.353  16.372 -0.2395  0.0628 -0.0052
  684MPD2    C110167   2.131   3.422  16.251 -0.2076  0.3902  0.3026
  684MPD2    C210168   2.138   3.557  16.260 -0.1503 -0.3941  0.1617
  684MPD2    C310169   2.151   3.624  16.381  0.3079 -0.0310 -0.3104
  684MPD2    C410170   2.159   3.554  16.501  0.1670  0.3000  0.0689
  684MPD2    C510171   2.159   3.420  16.492 -0.3266 -0.2464 -0.1449
  684MPD2     H10172   2.142   3.603  16.163  1.0044  0.1489  0.4723
  684MPD2    H110173   2.171   3.603  16.597 -0.2820 -1.4154  1.0118
  684MPD2    H210174   2.147   3.246  16.381 -0.3585  0.2848  2.9100
  684MPD2    H310175   2.175   3.347  16.571  1.1203 -1.2123 -1.3137
  684MPD2     N10176   2.167   3.763  16.385 -0.2926 -1.1178 -0.4458
  684MPD2    H510177   2.177   3.807  16.476  0.6914 -0.1093 -1.0385
  684MPD2    N110178   2.121   3.369  16.121  0.0312  0.4523  0.6558
  684MPD2    H710179   2.132   3.431  16.041  2.4024  0.8980  1.3294
  685TMC3    C110180   2.138   3.235  15.947 -0.2520 -0.3076 -0.1767
  685TMC3    C210181   2.095   3.346  15.874 -0.7669  0.1466 -0.7239
  685TMC3    C310182   2.152   3.361  15.748 -0.2638 -0.4430 -0.3145
  685TMC3    C410183   2.245   3.154  15.907  0.5544  0.3599 -0.2922
  685TMC3    C510184   2.299   3.175  15.784  0.7266  0.0333  0.6111
  685TMC3    C610185   2.257   3.276  15.706 -0.0601  0.0773 -0.3844
  685TMC3     C10186   2.132   3.238  16.086  0.4996  0.1389 -0.6303
  685TMC3     O10187   2.161   3.137  16.146  0.0921  0.5601  0.1784
  685TMC3     H10188   2.005   3.397  15.904 -2.3132 -2.4476 -1.0205
  685TMC3    H110189   2.280   3.067  15.961 -0.5266 -0.6545 -1.2172
  685TMC3    H210190   2.284   3.274  15.601 -1.2538  0.5500 -0.6958
  685TMC3    C710191   2.425   3.111  15.762 -1.1636  0.2378  0.7992
  685TMC3    C810192   2.075   3.410  15.641 -0.1499  0.5640  0.0323
  685TMC3    O110193   2.456   3.004  15.812  0.2170 -0.1691  0.2143
  685TMC3    O210194   2.076   3.351  15.536 -0.0831  0.4632  0.3870
  686MPD2     C10195   3.591   4.048  16.058 -0.3319  0.5008  0.1021
  686MPD2    C110196   3.627   3.957  16.155 -0.3293 -0.5098  0.6753
  686MPD2    C210197   3.741   3.990  16.228  0.1001  0.9274 -0.3822
  686MPD2    C310198   3.812   4.105  16.209 -0.9828 -0.4965 -0.3617
  686MPD2    C410199   3.766   4.203  16.119 -0.1028  0.2041  0.2819
  686MPD2    C510200   3.663   4.170  16.040 -0.3210 -0.1177  0.4245
  686MPD2     H10201   3.768   3.919  16.305  2.1710 -0.7129 -2.5964
  686MPD2    H110202   3.818   4.297  16.104  1.9490 -0.8799  0.6640
  686MPD2    H210203   3.513   4.024  15.987  0.8728 -0.0329 -1.0458
  686MPD2    H310204   3.625   4.240  15.966  2.0308 -0.2549 -0.9175
  686MPD2     N10205   3.937   4.128  16.270  0.1879 -0.1933 -0.1335
  686MPD2    H510206   3.980   4.215  16.241 -0.5040  0.5766  1.1788
  686MPD2    N110207   3.556   3.841  16.168 -0.1998 -1.2969 -0.1437
  686MPD2    H710208   3.472   3.824  16.113 -1.1170  0.0713  0.8354
  687TMC3    C110209   4.149   4.066  16.342  0.6399 -0.1547  0.3600
  687TMC3    C210210   4.194   4.106  16.220 -0.2141 -0.1602  0.0078
  687TMC3    C310211   4.316   4.059  16.172 -0.3075  0.3147  0.0689
  687TMC3    C410212   4.217   3.976  16.408 -0.1905 -0.3377  0.1479
  687TMC3    C510213   4.347   3.939  16.365  0.1808 -0.1182  0.1415
  687TMC3    C610214   4.399   3.982  16.245  0.1437  0.4854 -0.1802
  687TMC3     C10215   4.006   4.046  16.351 -0.6723 -0.3188  0.4617
  687TMC3     O10216   3.975   3.938  16.401 -0.3068 -0.2567  0.0723
  687TMC3     H10217   4.135   4.171  16.156  0.3430  1.0367  0.6991
  687TMC3    H110218   4.175   3.936  16.499 -0.1414 -1.4664 -0.3286
  687TMC3    H210219   4.501   3.966  16.211 -0.6805 -0.4094 -2.2453
  687TMC3    C710220   4.403   3.824  16.437 -0.4020 -0.2189 -0.6259
  687TMC3    C810221   4.364   4.090  16.037 -0.4675  0.3797  0.0238
  687TMC3    O110222   4.370   3.810  16.557  0.2360 -0.2915 -0.1582
  687TMC3    O210223   4.486   4.094  16.019 -0.3937  0.5993  0.3298
  688MPD2     C10224   2.620   2.214  17.238 -0.6065  0.0125  0.3924
  688MPD2    C110225   2.668   2.088  17.263 -0.4954 -0.5624 -0.6205
  688MPD2    C210226   2.791   2.051  17.211 -0.6730 -0.2909 -0.2773
  688MPD2    C310227   2.870   2.141  17.134  0.2993  0.6458 -0.5480
  688MPD2    C410228   2.826   2.273  17.115 -0.6200  0.4684 -0.1090
  688MPD2    C510229   2.702   2.302  17.167  0.4879 -0.6756  0.4282
  688MPD2     H10230   2.830   1.958  17.249  3.2723  1.1533 -0.8188
  688MPD2    H110231   2.877   2.349  17.058  0.7560 -0.1473  0.3108
  688MPD2    H210232   2.529   2.249  17.285 -0.2094  2.1733 -0.4617
  688MPD2    H310233   2.663   2.403  17.165  3.8061  0.6234  0.7580
  688MPD2     N10234   2.997   2.098  17.084 -0.0245 -0.3678 -0.4563
  688MPD2    H510235   3.046   2.162  17.021 -1.6816  1.1386 -0.2107
  688MPD2    N110236   2.594   1.995  17.335  0.2352  0.7416 -0.4188
  688MPD2    H710237   2.643   1.920  17.384  0.2717 -0.2308 -1.9670
  689TMC3    C110238   2.424   1.908  17.469 -0.2302 -0.0021 -0.2447
  689TMC3    C210239   2.340   1.943  17.570  0.4711 -0.1572  0.6115
  689TMC3    C310240   2.340   1.877  17.689 -0.7018  0.6153 -0.0589
  689TMC3    C410241   2.499   1.796  17.487 -0.5458  0.1405  0.5207
  689TMC3    C510242   2.488   1.718  17.602 -0.3937 -0.0997  0.5317
  689TMC3    C610243   2.406   1.756  17.705 -0.9822  0.1705 -0.0056
  689TMC3     C10244   2.460   1.999  17.372 -0.6858 -0.4712 -0.2579
  689TMC3     O10245   2.376   2.087  17.356 -0.5684  1.2517  0.1739
  689TMC3     H10246   2.312   2.048  17.568 -0.0585 -0.2781  1.9460
  689TMC3    H110247   2.561   1.763  17.404  0.5640  0.1670  1.3423
  689TMC3    H210248   2.422   1.712   0.043 -5.0477 -0.0624  0.5603
  689TMC3    C710249   2.550   1.589  17.614  0.2741 -0.0761 -0.3170
  689TMC3    C810250   2.372   1.963   0.044 -0.1323 -0.6180 -0.8074
  689TMC3    O110251   2.659   1.572  17.564 -0.5542  0.6240  0.8977
  689TMC3    O210252   2.422   2.069   0.021 -0.1446  0.6504 -0.6720
  690MPD2     C10253   1.290   4.346  15.863 -0.5451 -0.8066  0.2174
  690MPD2    C110254   1.237   4.347  15.738 -0.8434  0.4900  0.2384
  690MPD2    C210255   1.284   4.438  15.643  0.6167 -0.1442 -0.6277
  690MPD2    C310256   1.394   4.518  15.668  0.0677 -0.4839  0.2640
  690MPD2    C410257   1.457   4.511  15.800  0.2108 -0.5028  0.3479
  690MPD2    C510258   1.393   4.427  15.892 -0.7346  0.1081  0.3463
  690MPD2     H10259   1.225   4.450  15.553  0.1511 -1.1313 -0.4542
  690MPD2    H110260   1.523   4.590  15.832 -1.2618  0.1331  1.8102
  690MPD2    H210261   1.252   4.283  15.943  0.8695  0.4708  1.9188
  690MPD2    H310262   1.422   4.432  15.996 -1.6019 -2.0327  0.6781
  690MPD2     N10263   1.433   4.618  15.570 -0.2705  0.1439  0.0585
  690MPD2    H510264   1.505   4.687  15.588 -2.1046  2.2219 -0.5727
  690MPD2    N110265   1.114   4.283  15.703  0.4688  0.2746  0.2300
  690MPD2    H710266   1.077   4.291  15.609 -0.3802  3.8214  0.8439
  691TMC3    C110267   0.905   4.186  15.756 -0.7494  0.1617 -0.2265
  691TMC3    C210268   0.843   4.256  15.656 -0.4816 -0.0476  0.2122
  691TMC3    C310269   0.704   4.256  15.643 -0.6255  0.2730 -0.3480
  691TMC3    C410270   0.835   4.109  15.839 -0.0889 -0.0902 -0.0717
  691TMC3    C510271   0.695   4.119  15.827  0.1473 -0.0187  0.3117
  691TMC3    C610272   0.626   4.196  15.738  0.0417  0.0425  0.4371
  691TMC3     C10273   1.041   4.212  15.796  0.1983 -0.3801 -0.9273
  691TMC3     O10274   1.061   4.194  15.917 -0.0505  0.4450 -0.5373
  691TMC3     H10275   0.903   4.318  15.590  0.4084 -1.8120 -0.6294
  691TMC3    H110276   0.880   4.053  15.919 -1.8516 -0.1414  0.8773
  691TMC3    H210277   0.519   4.209  15.740 -0.0572 -1.1100  2.2829
  691TMC3    C710278   0.615   4.013  15.901  1.2444  0.1226 -0.2169
  691TMC3    C810279   0.644   4.375  15.580 -0.5046 -0.2433 -0.2049
  691TMC3    O110280   0.680   3.945  15.984  0.9244  0.6448 -0.4926
  691TMC3    O210281   0.725   4.461  15.536  0.0395 -0.0966  0.4226
  692TMC3    C110282   2.315   0.432  15.855  0.0872 -0.3319  0.1804
  692TMC3    C210283   2.440   0.409  15.903 -0.1522  0.0928 -0.1538
  692TMC3    C310284   2.492   0.286  15.910 -0.2264  0.0188  0.0738
  692TMC3    C410285   2.247   0.325  15.801 -0.1349 -0.1141  0.5484
  692TMC3    C510286   2.293   0.200  15.827 -0.1015  0.3000 -0.0720
  692TMC3    C610287   2.413   0.179  15.891  0.4329  0.0492 -0.0304
  692TMC3     C10288   2.227   0.519  15.923  0.3239  0.2284  1.2124
  692TMC3     O10289   2.107   0.495  15.910 -0.0770 -0.0712  0.4872
  692TMC3     H10290   2.500   0.487  15.950 -1.1125 -0.2703  1.6421
  692TMC3    H110291   2.146   0.329  15.760 -0.1192  0.3303  0.5555
  692TMC3    H210292   2.458   0.081  15.900  2.2017  0.8237 -0.4002
  692TMC3    C710293   2.221   0.088  15.763 -0.2638 -0.1466 -0.7773
  692TMC3    C810294   2.569   0.286  16.026 -0.1313 -0.1344  0.4071
  692TMC3    O110295   2.173   0.094  15.648  0.2545  0.2987  0.6196
  692TMC3    O210296   2.680   0.344  16.022 -0.0132  0.3309  0.8440
  693MPD2     C10297   2.019   3.749  10.884  0.1124 -0.6555  0.4873
  693MPD2    C110298   1.996   3.626  10.947  0.1616 -0.2256  0.2860
  693MPD2    C210299   2.104   3.559  11.006  0.0673  0.7312  0.3464
  693MPD2    C310300   2.229   3.615  10.990 -0.3485  0.0692 -0.5094
  693MPD2    C410301   2.251   3.745  10.951 -0.0130  0.0747 -0.6056
  693MPD2    C510302   2.140   3.813  10.896 -0.1951 -0.2470 -0.0783
  693MPD2     H10303   2.083   3.464  11.053 -2.3802  0.4021 -1.3804
  693MPD2    H110304   2.345   3.792  10.923  1.1869 -2.1490 -0.3019
  693MPD2    H210305   1.934   3.802  10.843  0.6238 -1.3829 -1.4958
  693MPD2    H310306   2.148   3.917  10.867 -0.3049  0.4136  2.2648
  693MPD2     N10307   2.346   3.537  11.010  0.2929 -0.2378 -0.7179
  693MPD2    H510308   2.432   3.586  10.986  0.9478 -1.0767 -0.0680
  693MPD2    N110309   1.868   3.567  10.938  0.4272  0.4642 -0.0192
  693MPD2    H710310   1.796   3.607  10.879 -1.9463 -1.6297  1.4663
  694TMC3    C110311   1.692   3.433  10.999 -0.6423  0.3322 -0.3602
  694TMC3    C210312   1.655   3.393  10.873  0.3182  0.2581  0.6426
  694TMC3    C310313   1.529   3.338  10.857 -0.5230  0.3737  0.4037
  694TMC3    C410314   1.615   3.408  11.107  0.1950 -0.1911 -0.0518
  694TMC3    C510315   1.498   3.342  11.084 -0.1305  0.2144 -0.1569
  694TMC3    C610316   1.448   3.306  10.960  0.1083 -0.6989 -0.6939
  694TMC3     C10317   1.822   3.477  11.027 -0.2434 -0.1865  0.2327
  694TMC3     O10318   1.868   3.428  11.129  0.3315 -0.1514 -0.6530
  694TMC3     H10319   1.725   3.398  10.791  0.6641  1.2171  0.9927
  694TMC3    H110320   1.653   3.423  11.208  0.0612  0.0616 -0.0387
  694TMC3    H210321   1.343   3.280  10.951 -1.1442  3.5162  1.7712
  694TMC3    C710322   1.412   3.326  11.200  0.3312  0.8594  1.1571
  694TMC3    C810323   1.488   3.286  10.730  0.0911  0.6965  0.6789
  694TMC3    O110324   1.422   3.406  11.294 -0.3581 -0.1390  0.3288
  694TMC3    O210325   1.384   3.221  10.726 -0.4792  0.5106  0.7597
  695MPD2     C10326   2.452   4.600  14.119 -0.1121  0.1385  0.0915
  695MPD2    C110327   2.475   4.735  14.119  0.6362 -0.1148  0.2542
  695MPD2    C210328   2.383   0.082  14.179 -0.0375 -0.3562 -0.3255
  695MPD2    C310329   2.264   0.030  14.222 -0.1409 -0.0604 -0.5548
  695MPD2    C410330   2.242   4.642  14.217 -0.5293 -0.5491 -0.1964
  695MPD2    C510331   2.339   4.552  14.173  0.1413  0.6650 -0.8266
  695MPD2     H10332   2.404   0.187  14.193 -0.3464 -0.3450  0.0416
  695MPD2    H110333   2.149   4.596  14.250 -0.6595  0.9958  1.5916
  695MPD2    H210334   2.529   4.536  14.079  0.1389  0.9328 -0.6941
  695MPD2    H310335   2.316   4.447  14.166 -0.3328  0.6001  1.7553
  695MPD2     N10336   2.169   0.122  14.265 -0.1685  0.3005  0.5559
  695MPD2    H510337   2.199   0.219  14.267 -1.5826  0.6831  3.2188
  695MPD2    N110338   2.587   0.057  14.065 -0.0905  0.5308  0.3228
  695MPD2    H710339   2.600   0.156  14.083  2.3862  0.8306 -3.0693
  696TMC3    C110340   1.966   0.219  14.303  0.1567  0.3142 -0.0857
  696TMC3    C210341   2.015   0.298  14.400  0.0762  0.2309  1.1269
  696TMC3    C310342   1.935   0.402  14.451 -0.0943  0.5998 -0.3052
  696TMC3    C410343   1.846   0.245  14.247  0.0970 -1.1010  1.1424
  696TMC3    C510344   1.771   0.351  14.287 -0.6048 -0.3655 -0.3896
  696TMC3    C610345   1.812   0.426  14.394 -0.5197  0.9545 -0.0725
  696TMC3     C10346   2.040   0.106  14.253  0.4811 -0.1609  0.0598
  696TMC3     O10347   1.976   0.019  14.189 -0.0927 -0.4145  0.0272
  696TMC3     H10348   2.111   0.277  14.447  0.6752  1.0239  0.2457
  696TMC3    H110349   1.806   0.171  14.179 -0.0015 -0.7230  0.7909
  696TMC3    H210350   1.751   0.506  14.434 -0.7780  1.7935 -2.1649
  696TMC3    C710351   1.717   0.436  14.181  0.1719  0.2427 -0.0114
  696TMC3    C810352   1.997   0.529  14.461 -0.0502 -0.3270  0.5024
  696TMC3    O110353   1.670   0.377  14.080  0.2796 -0.2705  0.1797
  696TMC3    O210354   1.938   0.634  14.432 -0.3253  0.5751  0.3774
  697MPD2     C10355   1.766   2.307  15.612 -0.3414  0.0044 -0.0532
  697MPD2    C110356   1.883   2.251  15.574  0.0528 -0.3520  0.0367
  697MPD2    C210357   1.964   2.321  15.491 -0.1842 -0.1742  0.0091
  697MPD2    C310358   1.938   2.450  15.458  0.5262  0.5966 -0.3844
  697MPD2    C410359   1.820   2.510  15.493 -0.5432  0.6078 -0.2400
  697MPD2    C510360   1.738   2.439  15.577 -0.5678 -0.0539 -0.6300
  697MPD2     H10361   2.055   2.270  15.463  0.5318  1.0736  0.0833
  697MPD2    H110362   1.779   2.605  15.459 -4.9172 -1.1398  0.2111
  697MPD2    H210363   1.697   2.254  15.675 -0.6817  0.9952  0.4062
  697MPD2    H310364   1.642   2.474  15.612 -0.6593 -0.0298 -0.9006
  697MPD2     N10365   2.026   2.511  15.362 -0.1300  0.1907  0.1003
  697MPD2    H510366   2.123   2.481  15.357  0.0793  0.7827  0.6033
  697MPD2    N110367   1.916   2.120  15.604  0.6693 -0.4868  0.5137
  697MPD2    H710368   2.012   2.092  15.587  0.3795 -1.1065 -0.0925
  698TMC3    C110369   2.095   2.664  15.195 -0.4751  0.3819 -0.5821
  698TMC3    C210370   2.099   2.796  15.183  0.0210  0.4341 -0.4367
  698TMC3    C310371   2.212   2.860  15.150 -0.0059 -0.3346 -0.7766
  698TMC3    C410372   2.203   2.585  15.161  0.2744  0.0376 -0.4460
  698TMC3    C510373   2.318   2.648  15.128  0.0954 -0.4529  0.4000
  698TMC3    C610374   2.321   2.782  15.119  0.1031 -0.2713 -0.0524
  698TMC3     C10375   1.987   2.604  15.269 -0.3991  0.3218  0.5710
  698TMC3     O10376   1.875   2.655  15.258 -0.3201 -0.0728  0.6358
  698TMC3     H10377   2.014   2.860  15.203  1.1376  2.0716 -0.8841
  698TMC3    H110378   2.198   2.478  15.172 -0.4772  0.2457  1.2545
  698TMC3    H210379   2.410   2.836  15.089 -0.7058  1.2845  0.3333
  698TMC3    C710380   2.395   2.577  15.028  0.4471  0.4801 -0.2031
  698TMC3    C810381   2.189   2.985  15.078 -0.1281 -0.9078 -0.0343
  698TMC3    O110382   2.350   2.469  14.992  0.6923 -0.2018 -0.0890
  698TMC3    O210383   2.073   3.004  15.038 -0.0566 -0.0620  0.5829
  699TMC3    C110384   2.143   0.470  13.791 -0.0864 -0.7607 -0.6365
  699TMC3    C210385   2.252   0.387  13.783  0.3740 -0.4556  0.0130
  699TMC3    C310386   2.222   0.251  13.794 -0.2102  0.6084  0.1057
  699TMC3    C410387   2.015   0.420  13.809  0.1791 -0.1733  0.6160
  699TMC3    C510388   1.992   0.289  13.830 -0.0982 -0.1169  0.4509
  699TMC3    C610389   2.099   0.204  13.823  0.1630  0.8179  0.1163
  699TMC3     C10390   2.143   0.588  13.714  0.5783  0.3405 -0.4972
  699TMC3     O10391   2.036   0.621  13.661 -0.1869 -0.5685 -0.5767
  699TMC3     H10392   2.357   0.414  13.776  0.3072 -0.6836 -1.9562
  699TMC3    H110393   1.937   0.494  13.804  0.6442  0.1510 -2.0312
  699TMC3    H210394   2.088   0.096  13.820  0.3885  0.8314 -1.0516
  699TMC3    C710395   1.869   0.227  13.772 -0.0970  0.2179 -0.8135
  699TMC3    C810396   2.323   0.158  13.749 -0.1661 -0.1600  0.2454
  699TMC3    O110397   1.803   0.295  13.697 -0.6691  0.1228 -0.5182
  699TMC3    O210398   2.410   0.203  13.672  0.3088  0.3317  0.2305
  700TMC3    C110399   0.967   2.366  16.687  0.1417  0.0263  0.7685
  700TMC3    C210400   1.053   2.253  16.704 -0.1874 -0.1413  0.4182
  700TMC3    C310401   1.083   2.204  16.823 -0.9355  0.1166  0.1021
  700TMC3    C410402   0.912   2.422  16.799  0.3574  0.4266  0.0789
  700TMC3    C510403   0.939   2.365  16.922  0.2552 -0.7301 -0.5863
  700TMC3    C610404   1.029   2.260  16.937 -0.3568  0.4483  0.0787
  700TMC3     C10405   1.009   2.457  16.575  0.0280  0.7080 -0.4307
  700TMC3     O10406   1.016   2.417  16.458  0.3114  0.2374  0.5983
  700TMC3     H10407   1.099   2.217  16.613 -1.2097  0.2041 -0.2390
  700TMC3    H110408   0.843   2.505  16.786 -1.2797 -1.3052 -2.3404
  700TMC3    H210409   1.038   2.201  17.028  2.5682 -1.2362 -1.2965
  700TMC3    C710410   0.877   2.423  17.038  0.6941 -0.0162  0.2012
  700TMC3    C810411   1.168   2.084  16.828 -0.0500  0.2623 -1.4377
  700TMC3    O110412   0.759   2.450  17.035  0.3261  0.0131  0.2224
  700TMC3    O210413   1.206   2.035  16.722  0.0198  0.3940  0.6735
  701TMC3    C110414   1.062   1.312  15.654  0.0222  0.3952  0.1970
  701TMC3    C210415   1.048   1.266  15.533  0.5293  0.0444  0.1341
  701TMC3    C310416   1.100   1.344  15.428  0.4362 -0.4837 -0.7477
  701TMC3    C410417   1.123   1.422  15.691 -0.2508  0.0632  0.0919
  701TMC3    C510418   1.188   1.494  15.595 -0.7524 -0.2823 -0.2089
  701TMC3    C610419   1.167   1.459  15.460  0.3012  0.4462  0.4163
  701TMC3     C10420   0.995   1.227  15.748 -0.3088  0.7307  0.1533
  701TMC3     O10421   1.005   1.101  15.738  0.1108 -0.4018 -0.8950
  701TMC3     H10422   0.976   1.189  15.509 -0.3977  0.8328  0.3700
  701TMC3    H110423   1.118   1.454  15.795 -1.6301  0.1430  0.0060
  701TMC3    H210424   1.204   1.521  15.379  2.0232 -2.2490 -0.8279
  701TMC3    C710425   1.236   1.628  15.620  0.4275  0.8064 -0.0979
  701TMC3    C810426   1.022   1.365  15.305  0.0745 -0.0117 -0.2347
  701TMC3    O110427   1.252   1.705  15.524 -0.1179 -0.0009  0.1562
  701TMC3    O210428   1.006   1.478  15.273  0.2251  0.1656  0.6257
  702MPD2     C10429   1.163   3.779  10.259 -0.0776 -0.6618  0.8717
  702MPD2    C110430   1.178   3.889  10.344  0.1055  0.7926  0.1860
  702MPD2    C210431   1.278   3.979  10.316 -0.2510 -0.4361 -0.2186
  702MPD2    C310432   1.364   3.961  10.205 -0.3960 -0.4338  0.5584
  702MPD2    C410433   1.346   3.847  10.126 -0.0838 -0.3769  0.4683
  702MPD2    C510434   1.241   3.761  10.148 -0.0368 -0.4216  0.4192
  702MPD2     H10435   1.287   4.068  10.377 -1.6331 -0.2275 -0.3285
  702MPD2    H110436   1.409   3.823  10.041  1.0420  2.6959  0.4264
  702MPD2    H210437   1.088   3.701  10.265 -1.8660  0.9770 -0.1456
  702MPD2    H310438   1.227   3.675  10.084  0.5288 -0.0331 -0.2293
  702MPD2     N10439   1.467   4.058  10.166  0.1250  0.4690  0.0126
  702MPD2    H510440   1.524   4.019  10.092  1.1547 -0.7546  1.4512
  702MPD2    N110441   1.105   3.910  10.458  0.2727  0.0303 -0.3044
  702MPD2    H710442   1.120   3.998  10.507  3.5741  0.2541 -1.7047
  703TMC3    C110443   1.412   4.272  10.267  0.0388 -0.3376  1.2533
  703TMC3    C210444   1.292   4.285  10.211 -0.1089 -1.0142  0.0355
  703TMC3    C310445   1.202   4.380  10.244  0.8619  0.6020  0.2549
  703TMC3    C410446   1.457   4.377  10.346 -0.0554  0.6444  0.1280
  703TMC3    C510447   1.373   4.478  10.374 -0.8374 -0.3084 -0.0571
  703TMC3    C610448   1.240   4.475  10.333  0.6549 -0.1653 -0.0686
  703TMC3     C10449   1.513   4.176  10.221 -0.1364  0.4444  0.9084
  703TMC3     O10450   1.625   4.224  10.197  0.2406  0.0832 -0.2315
  703TMC3     H10451   1.267   4.227  10.122  0.9918 -2.2373  0.5196
  703TMC3    H110452   1.563   4.371  10.368 -0.5410 -0.4275  2.1807
  703TMC3    H210453   1.168   4.555  10.345  1.1098 -0.0875  2.0247
  703TMC3    C710454   1.433   4.602  10.412  0.1106 -0.4860 -0.6834
  703TMC3    C810455   1.063   4.332  10.261 -0.1131  0.0085  0.3860
  703TMC3    O110456   1.557   4.599  10.410 -0.5685  0.6670 -0.3726
  703TMC3    O210457   1.031   4.241  10.190  0.2992  0.0588  0.1773
  704TMC3    C110458   3.289   2.031  12.723  0.7683 -0.6398  0.8083
  704TMC3    C210459   3.410   2.057  12.661  0.3612  0.4942 -0.6741
  704TMC3    C310460   3.521   1.987  12.693  0.2734  0.1074  0.4731
  704TMC3    C410461   3.277   1.931  12.816  0.2525  0.5267 -0.2089
  704TMC3    C510462   3.389   1.853  12.831 -0.1442  0.1632 -0.2296
  704TMC3    C610463   3.515   1.886  12.779 -0.3579  0.9864 -0.3130
  704TMC3     C10464   3.175   2.119  12.699 -0.5473  0.7751  0.8341
  704TMC3     O10465   3.104   2.125  12.792  0.0143 -1.0366  0.0659
  704TMC3     H10466   3.411   2.139  12.589  0.4309 -0.2164 -1.4775
  704TMC3    H110467   3.180   1.890  12.841 -0.2668  0.1257 -2.9190
  704TMC3    H210468   3.589   1.808  12.787 -0.5376  0.5032 -3.5168
  704TMC3    C710469   3.369   1.710  12.820 -0.9286 -0.1587 -0.3913
  704TMC3    C810470   3.594   1.955  12.569 -0.0837  0.6258  0.3386
  704TMC3    O110471   3.435   1.657  12.729  0.1156 -0.3041 -0.0296
  704TMC3    O210472   3.535   1.974  12.462 -0.3664  0.1527 -0.3212
  705MPD2     C10473   2.371   0.260  16.720 -0.7725  0.2351 -0.4940
  705MPD2    C110474   2.333   0.161  16.630 -0.3193 -0.1760 -0.0638
  705MPD2    C210475   2.195   0.145  16.615  0.4281 -0.0503 -0.7225
  705MPD2    C310476   2.101   0.213  16.694  0.5506  0.5269  0.1589
  705MPD2    C410477   2.143   0.300  16.788  0.5511 -0.3637 -0.1881
  705MPD2    C510478   2.277   0.324  16.801  0.0528 -0.1340  0.0180
  705MPD2     H10479   2.167   0.079  16.533  2.2491  0.2923 -1.6140
  705MPD2    H110480   2.068   0.349  16.848  0.3168 -1.1750  0.1680
  705MPD2    H210481   2.475   0.284  16.741 -1.3431  2.0445  0.2542
  705MPD2    H310482   2.305   0.390  16.882  1.1301 -1.5742  0.8232
  705MPD2     N10483   1.966   0.184  16.695  0.1188  0.1866 -0.0382
  705MPD2    H510484   1.910   0.229  16.767 -1.2598 -0.4409 -0.7127
  705MPD2    N110485   2.428   0.107  16.543 -0.3454 -0.5467 -0.1450
  705MPD2    H710486   2.390   0.051  16.468 -0.1199  0.2789 -0.8752
  706TMC3    C110487   2.660   4.708  16.229  0.3086  0.4792 -0.9145
  706TMC3    C210488   2.789   0.016  16.214  0.0255 -0.1826 -0.8188
  706TMC3    C310489   2.852   0.080  16.322 -0.3835  0.3688  0.1698
  706TMC3    C410490   2.582   0.002  16.334  0.1425 -0.1966  0.3476
  706TMC3    C510491   2.643   0.064  16.443  0.0913 -0.3743 -0.2999
  706TMC3    C610492   2.775   0.097  16.440  0.3738  0.1392  0.0646
  706TMC3     C10493   2.604   4.652  16.111 -0.1326 -0.1037  0.4286
  706TMC3     O10494   2.487   4.683  16.084 -0.2706  0.4703  0.5037
  706TMC3     H10495   2.848   0.025  16.123 -0.6769 -1.4946 -1.4030
  706TMC3    H110496   2.477   4.718  16.333 -0.3779  1.9502  0.7750
  706TMC3    H210497   2.819   0.154  16.520  0.2946 -2.6216  2.0503
  706TMC3    C710498   2.565   0.113  16.557  0.0212  0.2576  0.2598
  706TMC3    C810499   2.914   0.210  16.283  0.2732  0.1973  0.3742
  706TMC3    O110500   2.631   0.154  16.654  0.6938  0.0535 -0.0474
  706TMC3    O210501   2.900   0.246  16.166  0.1728 -0.4308 -0.3567
  707TMC3    C110502   3.890   3.742   0.298  1.1064 -0.6601  0.1663
  707TMC3    C210503   3.833   3.620   0.311 -0.1291 -0.3332 -0.3753
  707TMC3    C310504   3.730   3.582   0.228 -0.0766 -0.1866 -0.5385
  707TMC3    C410505   3.856   3.834   0.202 -0.0883  0.2838  0.3583
  707TMC3    C510506   3.742   3.799   0.129  0.4960  0.6343 -0.4628
  707TMC3    C610507   3.687   3.673   0.137 -0.7390 -0.5152 -1.0138
  707TMC3     C10508   4.017   3.757   0.359  0.4728 -0.2073  0.1469
  707TMC3     O10509   4.047   3.665   0.434 -0.2221  0.7338 -1.0434
  707TMC3     H10510   3.863   3.555   0.393  1.5939 -1.6028 -2.0049
  707TMC3    H110511   3.896   3.935   0.191 -1.1057  0.7659  1.0333
  707TMC3    H210512   3.621   3.641   0.057 -1.3653 -1.3451 -0.1549
  707TMC3    C710513   3.709   3.897   0.020  0.2639 -0.5957 -0.2230
  707TMC3    C810514   3.727   3.445   0.178 -0.3742 -0.0982  0.0917
  707TMC3    O110515   3.786   3.988  17.757  0.1299 -0.2621  0.3829
  707TMC3    O210516   3.714   3.431   0.059 -0.2982 -0.5104 -0.2583
  708MPD2     C10517   1.158   3.692  13.683 -0.2422  0.5107  0.3358
  708MPD2    C110518   1.071   3.621  13.770 -0.3920 -1.0357  0.3050
  708MPD2    C210519   1.122   3.552  13.875  0.9186  0.1184 -0.4854
  708MPD2    C310520   1.256   3.559  13.908 -0.1583 -0.0879  0.0335
  708MPD2    C410521   1.346   3.634  13.828 -0.2960  0.2095 -0.3906
  708MPD2    C510522   1.288   3.700  13.717  0.6740 -0.2341  0.3319
  708MPD2     H10523   1.048   3.485  13.919 -2.0823  1.4519 -3.4781
  708MPD2    H110524   1.452   3.638  13.850 -0.3695 -0.4769  0.0989
  708MPD2    H210525   1.116   3.744  13.597 -0.0155 -0.3912 -0.3141
  708MPD2    H310526   1.358   3.750  13.651 -0.1254 -1.6643 -1.5921
  708MPD2     N10527   1.310   3.487  14.013 -0.4923 -0.1428  0.4402
  708MPD2    H510528   1.410   3.492  14.031  0.0196  1.9451 -2.9463
  708MPD2    N110529   0.936   3.625  13.735  0.6904 -0.1853  0.3435
  708MPD2    H710530   0.912   3.660  13.643 -1.4984  1.5313  1.5572
  709TMC3    C110531   0.699   3.577  13.766  0.1469 -0.0977 -0.0253
  709TMC3    C210532   0.687   3.537  13.630 -0.1257 -0.0636  0.3679
  709TMC3    C310533   0.600   3.435  13.599 -0.1341 -0.0650 -0.1043
  709TMC3    C410534   0.609   3.533  13.858  0.1292  0.2421  0.3445
  709TMC3    C510535   0.513   3.437  13.822  0.3121 -0.5255 -0.5286
  709TMC3    C610536   0.510   3.395  13.693 -0.2731  0.2698  0.7681
  709TMC3     C10537   0.832   3.595  13.826  0.3798 -0.1936 -0.1394
  709TMC3     O10538   0.835   3.570  13.941  0.1962 -0.4665  0.0408
  709TMC3     H10539   0.765   3.567  13.561 -1.1253 -1.3051 -1.2813
  709TMC3    H110540   0.615   3.571  13.959  0.3675 -1.9735  1.1669
  709TMC3    H210541   0.452   3.308  13.666 -2.5490  2.3045 -0.8886
  709TMC3    C710542   0.505   3.336  13.922  0.3899  0.8408  0.3783
  709TMC3    C810543   0.545   3.430  13.468  0.3855 -0.7095  0.1658
  709TMC3    O110544   0.419   3.248  13.915  0.6615 -0.0321 -0.2171
  709TMC3    O210545   0.423   3.427  13.463  0.2269 -0.2515  0.6214
  710TMC3    C110546   1.426   4.601   0.461  1.1418  0.1658 -0.0624
  710TMC3    C210547   1.470   4.619   0.330  0.0800  0.1508 -0.0359
  710TMC3    C310548   1.594   4.574   0.300  0.1457  0.2572  0.0528
  710TMC3    C410549   1.483   4.517   0.547  1.1708 -0.0162  0.1017
  710TMC3    C510550   1.611   4.465   0.506  0.5673 -0.3246  0.2920
  710TMC3    C610551   1.661   4.489   0.385  0.3858 -0.3609  0.0045
  710TMC3     C10552   1.343   4.708   0.517 -0.1294  0.4017  0.0706
  710TMC3     O10553   1.379   0.033   0.614  0.9538  0.0622 -0.1218
  710TMC3     H10554   1.420   4.696   0.271  1.2515  1.4816  0.6938
  710TMC3    H110555   1.454   4.501   0.650  0.4865 -5.2397 -0.8693
  710TMC3    H210556   1.752   4.442   0.349  0.0577 -1.7514  0.9768
  710TMC3    C710557   1.669   4.355   0.586 -0.1395  0.0361  0.5575
  710TMC3    C810558   1.647   4.616   0.169 -0.3489  0.8824 -0.2057
  710TMC3    O110559   1.590   4.305   0.657 -1.0885  0.0352  0.0909
  710TMC3    O210560   1.581   4.621   0.062 -0.2463  0.3486  0.2700
  711TMC3    C110561   2.040   1.343  15.200 -0.0133 -0.2672  0.1634
  711TMC3    C210562   2.076   1.383  15.323 -0.2225 -0.1960  0.4172
  711TMC3    C310563   2.188   1.327  15.375  0.0784  0.4264  0.3812
  711TMC3    C410564   2.123   1.269  15.119 -0.2145  0.1432  0.0787
  711TMC3    C510565   2.243   1.214  15.175 -0.3792 -0.7750  0.7470
  711TMC3    C610566   2.275   1.254  15.302  0.8962 -0.1661 -0.1484
  711TMC3     C10567   1.902   1.324  15.172 -0.6405 -0.3947 -0.0609
  711TMC3     O10568   1.881   1.224  15.106 -0.5410  0.2656 -0.3621
  711TMC3     H10569   2.002   1.432  15.385 -0.4237 -0.2827  0.2463
  711TMC3    H110570   2.092   1.221  15.028  0.5024  0.0960 -0.1363
  711TMC3    H210571   2.358   1.200  15.348 -0.3950 -1.1769  0.9935
  711TMC3    C710572   2.280   1.079  15.150 -0.1349  0.1751  0.0239
  711TMC3    C810573   2.191   1.314  15.520 -0.3569  0.0399 -0.3479
  711TMC3    O110574   2.366   1.020  15.218 -0.6277  0.7865  0.2438
  711TMC3    O210575   2.085   1.344  15.578  0.0100  0.5796 -0.7727
  712MPD2     C10576   3.112   1.882  14.038  0.4322 -0.5529 -0.4110
  712MPD2    C110577   3.108   1.978  13.943 -1.1621 -0.0941  0.5574
  712MPD2    C210578   3.205   2.078  13.949  0.3824  0.4718 -0.6994
  712MPD2    C310579   3.295   2.093  14.054  0.3300 -0.0976 -0.2352
  712MPD2    C410580   3.294   2.000  14.148  0.4178  0.3537  0.2978
  712MPD2    C510581   3.203   1.895  14.142  0.8685 -0.2669 -0.0351
  712MPD2     H10582   3.214   2.138  13.859  1.0675  2.8002  0.9127
  712MPD2    H110583   3.353   2.011  14.238 -0.8559  1.1671  1.0340
  712MPD2    H210584   3.050   1.793  14.039 -1.8055  1.0269  0.6957
  712MPD2    H310585   3.213   1.817  14.217 -0.8715 -2.4856 -2.1178
  712MPD2     N10586   3.385   2.206  14.057  0.1588  0.0449 -0.0126
  712MPD2    H510587   3.454   2.208  14.132 -0.4272  0.5780  0.5164
  712MPD2    N110588   3.013   1.962  13.835  0.3736 -0.4657  0.6896
  712MPD2    H710589   3.029   2.019  13.752  0.7928 -1.1727  0.2804
  713TMC3    C110590   3.469   2.416  14.018 -0.0777  0.1095 -0.3612
  713TMC3    C210591   3.583   2.372  14.074  0.2880  0.3842  0.0438
  713TMC3    C310592   3.664   2.473  14.128 -0.3812 -0.3218  0.5198
  713TMC3    C410593   3.430   2.547  14.009  0.2280  0.1341 -0.0489
  713TMC3    C510594   3.512   2.637  14.064 -0.2326  0.4374 -0.4000
  713TMC3    C610595   3.629   2.608  14.123 -0.3960 -0.1861 -0.3179
  713TMC3     C10596   3.362   2.319  13.984 -0.6310 -0.3332 -0.0948
  713TMC3     O10597   3.263   2.353  13.922 -0.1498 -0.3564 -0.0703
  713TMC3     H10598   3.618   2.270  14.083  0.7228  0.6392  1.2551
  713TMC3    H110599   3.333   2.576  13.970  0.4030 -0.3316 -0.8342
  713TMC3    H210600   3.700   2.677  14.166 -2.1827  2.8477 -2.2586
  713TMC3    C710601   3.500   2.779  14.027 -0.1539 -0.0666  0.0079
  713TMC3    C810602   3.807   2.452  14.147 -0.3224  0.4128  0.0381
  713TMC3    O110603   3.591   2.847  14.068 -0.3305  0.2279  0.0272
  713TMC3    O210604   3.864   2.387  14.061 -0.4084 -0.2818 -0.0691
  714MPD2     C10605   0.331   0.703   1.115  0.2804  0.3659  0.2892
  714MPD2    C110606   0.324   0.574   1.064  0.5672  0.2987 -0.5166
  714MPD2    C210607   0.203   0.521   1.010  0.4839  0.6037 -0.1781
  714MPD2    C310608   0.089   0.602   1.011 -0.0362 -0.3177 -0.2316
  714MPD2    C410609   0.097   0.725   1.063  0.2289 -0.1749  0.0716
  714MPD2    C510610   0.220   0.773   1.114 -0.6117 -0.1231 -0.1824
  714MPD2     H10611   0.201   0.416   0.982  0.5532  0.4757  0.3025
  714MPD2    H110612   0.012   0.789   1.083 -0.2853 -0.7549 -0.2812
  714MPD2    H210613   0.421   0.744   1.160 -0.9804  1.3810  1.8975
  714MPD2    H310614   0.221   0.872   1.158 -2.7914  0.7886 -2.2626
  714MPD2     N10615   4.714   0.535   0.972  0.5057 -0.1461  0.4381
  714MPD2    H510616   4.717   0.434   0.963 -1.1941 -0.2602  1.0636
  714MPD2    N110617   0.444   0.497   1.079  0.1622  0.7762 -0.0620
  714MPD2    H710618   0.526   0.545   1.115  0.9713 -0.9754  0.4665
  715TMC3    C110619   0.608   0.334   1.059 -0.1104  0.9758 -0.4672
  715TMC3    C210620   0.633   0.196   1.043  0.4772  0.0989 -0.7260
  715TMC3    C310621   0.746   0.147   1.108 -0.1188 -0.7872  0.0687
  715TMC3    C410622   0.688   0.414   1.142 -0.5672 -0.4551 -0.3588
  715TMC3    C510623   0.802   0.359   1.189  0.2157 -0.1092 -0.4513
  715TMC3    C610624   0.830   0.226   1.177 -0.0363  0.6682  0.7003
  715TMC3     C10625   0.471   0.372   1.029  0.2917 -0.0462  0.3033
  715TMC3     O10626   0.394   0.286   0.993  0.2237  0.1007  0.0203
  715TMC3     H10627   0.578   0.137   0.970 -0.4171  0.3603 -0.2565
  715TMC3    H110628   0.673   0.521   1.134  0.0873 -0.3153  0.2572
  715TMC3    H210629   0.922   0.191   1.222 -0.0672  0.2223  0.4228
  715TMC3    C710630   0.898   0.441   1.255 -0.6355 -0.2024 -0.2782
  715TMC3    C810631   0.773   4.740   1.104 -0.2759  0.2130  0.3842
  715TMC3    O110632   1.017   0.405   1.251  0.2600  0.2219 -0.2841
  715TMC3    O210633   0.718   4.682   1.012 -0.0669  0.3700  0.2038
  716MPD2     C10634   1.505   4.224   9.731 -0.0586  0.3379  0.5832
  716MPD2    C110635   1.435   4.342   9.696  0.3830 -0.1493 -0.9827
  716MPD2    C210636   1.346   4.340   9.588  0.3710  0.2466  0.0939
  716MPD2    C310637   1.329   4.232   9.499 -0.2898 -0.0231 -0.3108
  716MPD2    C410638   1.410   4.119   9.521 -1.2459 -0.1454 -0.0841
  716MPD2    C510639   1.489   4.123   9.638 -0.0179 -0.5964  0.3690
  716MPD2     H10640   1.283   4.424   9.563 -1.9539 -1.0131  1.6939
  716MPD2    H110641   1.393   4.029   9.462  0.5350 -0.6921  0.2490
  716MPD2    H210642   1.566   4.206   9.819 -0.0709  1.6851  0.8745
  716MPD2    H310643   1.543   4.029   9.648  2.2295  0.4482 -2.0590
  716MPD2     N10644   1.239   4.248   9.387 -0.1229 -0.4708  0.6234
  716MPD2    H510645   1.179   4.329   9.375 -1.1436 -1.4002 -0.6056
  716MPD2    N110646   1.455   4.454   9.776  0.0873 -0.0130 -0.6434
  716MPD2    H710647   1.486   4.438   9.872 -0.5021 -0.8718 -0.5972
  717TMC3    C110648   1.128   4.195   9.195 -0.1043 -0.0449  0.1317
  717TMC3    C210649   1.029   4.282   9.224 -0.3230 -0.1622  0.5920
  717TMC3    C310650   0.958   4.350   9.126  0.1045 -0.8405  0.0052
  717TMC3    C410651   1.140   4.153   9.067 -0.5957 -0.1125 -0.4156
  717TMC3    C510652   1.062   4.207   8.971 -0.0473 -0.8983 -0.1066
  717TMC3    C610653   0.968   4.313   8.997 -0.2372 -0.3373 -0.6489
  717TMC3     C10654   1.229   4.155   9.286 -0.2008 -0.7994 -0.2120
  717TMC3     O10655   1.297   4.055   9.258 -0.0717  0.1271 -0.3371
  717TMC3     H10656   1.004   4.304   9.327  1.9143 -0.0043  1.1100
  717TMC3    H110657   1.215   4.080   9.040  0.6415  0.2774  1.9444
  717TMC3    H210658   0.903   4.357   8.922 -0.1415 -1.4602 -1.3812
  717TMC3    C710659   1.087   4.175   8.833 -0.0881  0.7959  0.8715
  717TMC3    C810660   0.836   4.406   9.176 -0.1263 -0.0686  0.0843
  717TMC3    O110661   1.202   4.149   8.805 -0.4073  0.1529 -0.2555
  717TMC3    O210662   0.847   4.459   9.283  0.9575  0.0522 -0.0672
  718MPD2     C10663   0.367   1.920  12.809  0.0685  0.2449  0.5498
  718MPD2    C110664   0.343   1.889  12.678  0.5890  0.2182 -0.9228
  718MPD2    C210665   0.245   1.789  12.646 -0.5042  0.2834 -0.5227
  718MPD2    C310666   0.176   1.726  12.743 -0.0088 -0.6040 -0.5686
  718MPD2    C410667   0.207   1.756  12.873  0.2579 -0.2156 -0.3310
  718MPD2    C510668   0.294   1.853  12.901  0.2327  0.0035 -0.0400
  718MPD2     H10669   0.216   1.769  12.544 -0.5897 -1.5362 -0.1437
  718MPD2    H110670   0.163   1.713  12.962  2.5622  0.7602  1.2965
  718MPD2    H210671   0.439   1.988  12.852  2.3420 -1.3628 -0.7159
  718MPD2    H310672   0.317   1.877  13.004  0.1651  2.2519 -0.5432
  718MPD2     N10673   0.071   1.646  12.700  0.0408  0.1088 -0.1663
  718MPD2    H510674   0.061   1.639  12.599 -1.9384  0.7927 -0.0166
  718MPD2    N110675   0.412   1.955  12.574  0.3649  0.5387 -0.2163
  718MPD2    H710676   0.377   1.934  12.481 -1.6477  0.3886  0.5745
  719TMC3    C110677   0.520   2.129  12.450  0.5992 -0.2901  0.5706
  719TMC3    C210678   0.468   2.047  12.353  0.2369 -0.1335 -0.0677
  719TMC3    C310679   0.377   2.111  12.266 -0.0387 -0.0306 -0.1832
  719TMC3    C410680   0.493   2.264  12.448  0.4710 -0.1257  0.0981
  719TMC3    C510681   0.413   2.317  12.350  0.6547  0.0074 -0.1417
  719TMC3    C610682   0.354   2.242  12.259 -0.8292  0.4015  0.0000
  719TMC3     C10683   0.494   2.067  12.582  0.2602 -0.3680  0.1355
  719TMC3     O10684   0.533   2.129  12.686  0.3233  0.3766 -0.0139
  719TMC3     H10685   0.504   1.945  12.347  2.2262  0.6548 -1.4931
  719TMC3    H110686   0.546   2.321  12.523 -0.9438  1.2495  0.0522
  719TMC3    H210687   0.284   2.288  12.190  0.1044  1.2673 -0.3603
  719TMC3    C710688   0.429   2.460  12.318  0.2676  0.2200  0.2934
  719TMC3    C810689   0.274   2.018  12.224  0.7032  0.8525 -0.2055
  719TMC3    O110690   0.404   2.503  12.204 -0.2161  0.1170 -0.0505
  719TMC3    O210691   0.295   1.905  12.265 -0.1681 -0.7023  0.1568
  720MPD2     C10692   3.335   3.702  13.897 -0.0447 -0.6316 -0.4635
  720MPD2    C110693   3.428   3.783  13.836 -0.4085  0.2125  0.1299
  720MPD2    C210694   3.543   3.813  13.906 -0.2010  0.1476  0.2976
  720MPD2    C310695   3.562   3.765  14.033 -0.8481  0.7219  0.2201
  720MPD2    C410696   3.469   3.678  14.091 -0.8449 -0.3456 -0.5653
  720MPD2    C510697   3.353   3.651  14.026  0.0652  0.4238  0.2748
  720MPD2     H10698   3.613   3.874  13.851 -2.2336  2.2275  0.0053
  720MPD2    H110699   3.489   3.634  14.188 -2.6609 -0.8644 -0.4277
  720MPD2    H210700   3.246   3.672  13.844  0.3070  1.5119 -2.2314
  720MPD2    H310701   3.284   3.578  14.068  0.8066  1.3128  3.0211
  720MPD2     N10702   3.681   3.808  14.103 -0.2888  0.2050  0.6905
  720MPD2    H510703   3.747   3.867  14.055  0.7168 -1.2215  0.3190
  720MPD2    N110704   3.408   3.837  13.703 -0.7290 -0.3618  0.6662
  720MPD2    H710705   3.458   3.923  13.682  0.1875 -1.4745 -1.6772
  721TMC3    C110706   3.811   3.861  14.287  0.1812  0.4787  0.5100
  721TMC3    C210707   3.819   3.897  14.417 -0.8110 -0.3285  0.0423
  721TMC3    C310708   3.928   3.966  14.461 -0.0207 -0.1853  1.0158
  721TMC3    C410709   3.913   3.881  14.197  0.5111  0.3862  0.5537
  721TMC3    C510710   4.022   3.950  14.247  0.4641 -1.2643  0.6099
  721TMC3    C610711   4.031   3.996  14.376  0.3985 -1.1962  0.4977
  721TMC3     C10712   3.703   3.782  14.233 -0.1360  0.9314 -0.0644
  721TMC3     O10713   3.635   3.726  14.320 -0.1458 -0.5616 -0.2138
  721TMC3     H10714   3.729   3.887  14.476 -0.4326  3.1820  1.2442
  721TMC3    H110715   3.920   3.845  14.095 -0.7417  1.6622  0.0148
  721TMC3    H210716   4.110   4.063  14.408  0.3945 -0.8608 -0.2074
  721TMC3    C710717   4.153   3.925  14.189  0.2059 -0.4951 -0.1921
  721TMC3    C810718   3.901   4.079  14.550 -0.6903  0.0440  0.7099
  721TMC3    O110719   4.164   3.950  14.069  0.0218  0.1418  0.1646
  721TMC3    O210720   3.967   4.183  14.531  0.3295  0.4088  0.0460
  722MPD2     C10721   2.482   2.857  13.434 -0.6797  0.1044 -0.1218
  722MPD2    C110722   2.529   2.950  13.342  0.6342  0.5220  0.0338
  722MPD2    C210723   2.472   2.956  13.218  0.4693  0.6228  0.4799
  722MPD2    C310724   2.391   2.856  13.170 -0.3506  0.2306 -0.4198
  722MPD2    C410725   2.356   2.758  13.264  0.6303  0.5225 -0.0794
  722MPD2    C510726   2.396   2.763  13.392 -0.1963  1.1672  0.3500
  722MPD2     H10727   2.486   3.040  13.150 -3.0566  1.6757  1.0617
  722MPD2    H110728   2.285   2.681  13.238 -0.4121  1.4956 -0.1298
  722MPD2    H210729   2.500   2.854  13.541  0.4745  2.5534 -0.2591
  722MPD2    H310730   2.358   2.692  13.465  1.9589 -0.0212  0.3206
  722MPD2     N10731   2.348   2.855  13.034 -0.6597 -0.0748  0.1704
  722MPD2    H510732   2.374   2.936  12.979 -0.4637 -0.7829 -0.7813
  722MPD2    N110733   2.610   3.053  13.388  0.3632 -0.9392  0.7516
  722MPD2    H710734   2.625   3.131  13.325 -0.9613 -1.6514 -0.4677
  723TMC3    C110735   2.277   2.747  12.828  0.5631  0.2314  0.1264
  723TMC3    C210736   2.223   2.632  12.770 -0.3439  0.6551 -0.0922
  723TMC3    C310737   2.199   2.626  12.634  0.6076  0.8497 -0.2567
  723TMC3    C410738   2.306   2.862  12.757  0.1892 -0.1371 -0.5556
  723TMC3    C510739   2.275   2.851  12.625  1.2821 -0.2004  0.5190
  723TMC3    C610740   2.227   2.735  12.564 -0.6404 -0.2599  0.1136
  723TMC3     C10741   2.299   2.739  12.970 -0.0543  0.1610 -0.5322
  723TMC3     O10742   2.265   2.635  13.021  0.0879  0.6935 -0.2401
  723TMC3     H10743   2.211   2.540  12.827  0.3459  2.0346  2.2803
  723TMC3    H110744   2.340   2.956  12.800 -0.3953 -0.4673  0.6403
  723TMC3    H210745   2.202   2.743  12.459  1.6375 -3.5988 -0.6786
  723TMC3    C710746   2.269   2.963  12.535 -0.4461  0.1171 -0.1397
  723TMC3    C810747   2.199   2.503  12.556  0.4067  0.3695 -0.0744
  723TMC3    O110748   2.273   2.946  12.413 -0.1485  0.4100 -0.5267
  723TMC3    O210749   2.240   2.514  12.441 -0.3373 -0.3821 -0.0472
  724TMC3    C110750   2.951   1.285  10.265  0.6303  0.7623  0.2098
  724TMC3    C210751   2.866   1.279  10.158  0.0865 -0.3696 -0.4179
  724TMC3    C310752   2.862   1.384  10.073  0.7643 -0.2197 -0.3469
  724TMC3    C410753   3.046   1.380  10.280 -0.1714  0.3985  0.0487
  724TMC3    C510754   3.041   1.482  10.188 -0.1850  0.0871  0.1207
  724TMC3    C610755   2.941   1.493  10.095  0.1795 -0.0917 -0.1754
  724TMC3     C10756   2.942   1.174  10.350  0.8424  0.3374 -0.2232
  724TMC3     O10757   3.037   1.133  10.417 -0.4767  0.4516  0.3779
  724TMC3     H10758   2.827   1.187  10.115  4.3960 -1.1346 -2.7154
  724TMC3    H110759   3.104   1.375  10.371  1.5070  2.0182 -0.9442
  724TMC3    H210760   2.932   1.582  10.034  1.7411  0.6738  0.7097
  724TMC3    C710761   3.117   1.608  10.206  0.1230 -0.1420  0.1967
  724TMC3    C810762   2.741   1.378   9.986 -0.0448  0.0263  0.3460
  724TMC3    O110763   3.134   1.678  10.107  0.7114 -0.0150 -0.5905
  724TMC3    O210764   2.680   1.271   9.986 -0.2324 -0.0961 -0.4066
  725TMC3    C110765   4.183   4.090  12.670 -0.1837 -0.2675  0.5314
  725TMC3    C210766   4.084   4.141  12.585  0.3228  0.2531 -0.6447
  725TMC3    C310767   4.011   4.059  12.510  0.4110 -0.4904  0.1357
  725TMC3    C410768   4.210   3.956  12.679 -0.2170 -0.1542 -0.0820
  725TMC3    C510769   4.126   3.872  12.607 -0.2131  0.7839 -0.2407
  725TMC3    C610770   4.021   3.926  12.531 -0.2824 -0.1019 -0.1073
  725TMC3     C10771   4.269   4.189  12.735  0.6380 -0.0643  0.0072
  725TMC3     O10772   4.230   4.302  12.747  0.6364  0.0422  0.4988
  725TMC3     H10773   4.074   4.248  12.574  2.3954  0.2419 -2.4394
  725TMC3    H110774   4.281   3.916  12.751  0.9420 -0.4356 -1.3664
  725TMC3    H210775   3.970   3.858  12.464  0.5483 -1.1074  0.2927
  725TMC3    C710776   4.135   3.731  12.625 -0.7032 -0.1785 -0.1531
  725TMC3    C810777   3.993   4.101  12.372  0.0198  0.1202 -0.3581
  725TMC3    O110778   4.228   3.678  12.680 -0.0914  0.0076 -1.2966
  725TMC3    O210779   3.948   4.013  12.302  0.2396 -0.3398  0.3626
  726MPD2     C10780   2.460   1.424  10.824 -0.0995  0.7243 -0.2487
  726MPD2    C110781   2.361   1.380  10.748  0.2208  0.2255 -0.2898
  726MPD2    C210782   2.285   1.274  10.787 -0.1907 -0.3880 -0.6989
  726MPD2    C310783   2.305   1.207  10.905  0.6012 -0.3593  0.1303
  726MPD2    C410784   2.412   1.247  10.982 -0.0134 -0.4938 -0.1810
  726MPD2    C510785   2.488   1.352  10.940 -0.3252  0.0958  0.3972
  726MPD2     H10786   2.195   1.260  10.729  1.4151 -1.7520 -2.8265
  726MPD2    H110787   2.433   1.192  11.073  1.3406  1.0745  0.4492
  726MPD2    H210788   2.522   1.508  10.797  0.1666  1.6601  3.2736
  726MPD2    H310789   2.568   1.372  11.009 -1.9252  1.2447  1.9238
  726MPD2     N10790   2.218   1.105  10.950 -0.3225 -0.4316  0.0604
  726MPD2    H510791   2.129   1.094  10.903 -0.4395  0.2690  0.1141
  726MPD2    N110792   2.318   1.442  10.632  0.3311 -0.2297 -0.4834
  726MPD2    H710793   2.254   1.398  10.567  0.9184 -0.3410 -0.9885
  727TMC3    C110794   2.287   1.609  10.467 -1.1224 -0.1255  0.5093
  727TMC3    C210795   2.315   1.740  10.434  0.1476  0.3057  0.6849
  727TMC3    C310796   2.233   1.803  10.352  0.4137  0.1468  0.2292
  727TMC3    C410797   2.187   1.542  10.405 -0.8693  0.9594 -0.2116
  727TMC3    C510798   2.119   1.610  10.306 -0.7145  0.1624 -0.9155
  727TMC3    C610799   2.133   1.744  10.280 -0.1380 -0.9639  0.7108
  727TMC3     C10800   2.350   1.571  10.595  0.3788 -0.1757  0.1062
  727TMC3     O10801   2.411   1.651  10.659  0.4469  0.2484  0.0732
  727TMC3     H10802   2.402   1.792  10.474  1.5974 -1.0900 -0.6285
  727TMC3    H110803   2.159   1.440  10.430  0.9330  0.2735 -0.9792
  727TMC3    H210804   2.081   1.781  10.192 -1.8622 -1.1032  1.6643
  727TMC3    C710805   2.018   1.539  10.243 -0.3628  0.0812 -0.0965
  727TMC3    C810806   2.257   1.941  10.332  0.7963  0.2184 -0.2804
  727TMC3    O110807   1.956   1.452  10.299  0.3991  0.7360 -0.3000
  727TMC3    O210808   2.345   1.990  10.402  1.1926  0.2834  0.1266
  728TMC3    C110809   1.442   4.736  15.379 -0.2021 -0.5557  0.1592
  728TMC3    C210810   1.476   0.095  15.461  0.3428  0.5192 -0.2444
  728TMC3    C310811   1.531   0.208  15.408  1.9321  0.0214  1.0605
  728TMC3    C410812   1.476   4.732  15.246  1.1408  0.4162 -0.2571
  728TMC3    C510813   1.533   0.096  15.195 -0.0412 -0.4407  0.2499
  728TMC3    C610814   1.561   0.206  15.272 -0.6182  0.6806 -0.3362
  728TMC3     C10815   1.388   4.622  15.446  0.3657  0.3015  0.6048
  728TMC3     O10816   1.345   4.526  15.378 -0.3690  0.2631  0.1708
  728TMC3     H10817   1.422   0.109  15.554  1.2251 -1.1488  0.5311
  728TMC3    H110818   1.433   4.649  15.191 -3.0218  0.9005  2.3386
  728TMC3    H210819   1.611   0.291  15.226  0.4035  0.3306  0.1242
  728TMC3    C710820   1.521   0.115  15.057 -0.1068  0.2717 -0.0594
  728TMC3    C810821   1.581   0.326  15.479  0.2148  0.9009  0.7114
  728TMC3    O110822   1.520   0.020  14.978  0.1364 -0.1602 -0.4288
  728TMC3    O210823   1.658   0.397  15.416  0.1829 -0.4361 -0.0684
  729MPD2     C10824   2.716   0.835  16.467 -0.1482  0.2014  0.2538
  729MPD2    C110825   2.814   0.849  16.566 -0.7193  0.0133  0.1921
  729MPD2    C210826   2.761   0.833  16.695 -0.3378  0.2062  0.2120
  729MPD2    C310827   2.633   0.804  16.728 -0.5882  0.4062 -0.0184
  729MPD2    C410828   2.544   0.792  16.625 -0.7305  0.5708  0.7010
  729MPD2    C510829   2.587   0.810  16.498  0.8857  0.1032  1.1114
  729MPD2     H10830   2.825   0.852  16.780  0.3962  0.3670 -0.3704
  729MPD2    H110831   2.439   0.767  16.634 -0.0310 -2.8251 -0.6621
  729MPD2    H210832   2.756   0.859  16.369  1.6522  1.8281  1.3960
  729MPD2    H310833   2.518   0.810  16.414  1.1840  1.2506  0.8698
  729MPD2     N10834   2.579   0.802  16.860  0.3314 -0.6799  0.5120
  729MPD2    H510835   2.485   0.765  16.867  0.3178 -0.1196  3.5037
  729MPD2    N110836   2.946   0.896  16.533 -0.2562  0.3453  0.1455
  729MPD2    H710837   2.961   0.909  16.434 -1.4679 -1.8294 -0.3469
  730TMC3    C110838   2.570   0.821  17.106  0.4204 -0.0853  0.8472
  730TMC3    C210839   2.634   0.745  17.195 -0.3432 -0.3716 -0.3502
  730TMC3    C310840   2.667   0.804  17.317 -0.5372  0.3447 -0.2249
  730TMC3    C410841   2.521   0.949  17.125 -1.1992 -0.8923  0.1137
  730TMC3    C510842   2.541   0.999  17.258 -0.8198  0.5133  0.3524
  730TMC3    C610843   2.620   0.933  17.347  0.7341 -0.2778 -0.1782
  730TMC3     C10844   2.650   0.822  16.979  0.1837  0.5016  0.7606
  730TMC3     O10845   2.767   0.834  17.003  0.1522  0.0804 -0.0675
  730TMC3     H10846   2.695   0.662  17.161  3.3310  0.9090  3.0981
  730TMC3    H110847   2.484   1.001  17.038  0.3304 -1.6371 -0.9958
  730TMC3    H210848   2.647   0.972  17.445 -0.2973  0.2799 -0.1097
  730TMC3    C710849   2.570   1.141  17.253 -0.3986 -0.2047 -0.0352
  730TMC3    C810850   2.807   0.780  17.347  0.3579 -0.3332 -0.1447
  730TMC3    O110851   2.678   1.182  17.212  0.5677 -0.1359  0.0099
  730TMC3    O210852   2.833   0.663  17.329  0.3198 -0.9376 -0.0933
  731MPD2     C10853   3.430   4.079  12.475 -0.2859  0.2097  0.0727
  731MPD2    C110854   3.520   3.972  12.471  0.0531 -0.4644 -0.6285
  731MPD2    C210855   3.562   3.930  12.597 -0.0187 -1.0575  0.7659
  731MPD2    C310856   3.534   4.012  12.708 -0.1053  0.6633  0.2086
  731MPD2    C410857   3.459   4.133  12.705 -0.6410  0.7414  0.8169
  731MPD2    C510858   3.402   4.159  12.585  0.0677  0.3815 -0.0918
  731MPD2     H10859   3.619   3.839  12.614 -0.2361 -1.4656 -0.6748
  731MPD2    H110860   3.451   4.208  12.782 -0.1155  1.5848  0.0505
  731MPD2    H210861   3.393   4.116  12.380 -4.3449 -2.2838  0.6773
  731MPD2    H310862   3.335   4.244  12.573  0.9131  0.9346 -0.9098
  731MPD2     N10863   3.584   3.967  12.829  0.0583 -0.0629  0.2086
  731MPD2    H510864   3.649   3.889  12.837  1.1625  0.9812  1.6788
  731MPD2    N110865   3.569   3.920  12.344  0.1735  0.0349  0.3411
  731MPD2    H710866   3.546   3.972  12.259  1.7013  1.0617  0.5580
  732TMC3    C110867   3.710   3.781  12.204  0.2973 -0.8179  0.4626
  732TMC3    C210868   3.647   3.826  12.085  0.1402 -0.2757 -0.5581
  732TMC3    C310869   3.717   3.824  11.968 -0.4246  0.9597 -0.4671
  732TMC3    C410870   3.840   3.744  12.194  0.4229 -0.6036 -0.1189
  732TMC3    C510871   3.906   3.758  12.077  0.1462  0.3921 -1.3292
  732TMC3    C610872   3.847   3.801  11.960 -0.0751 -0.2571  0.0832
  732TMC3     C10873   3.657   3.814  12.335 -0.1232 -0.6926 -1.0790
  732TMC3     O10874   3.720   3.762  12.424 -0.1831 -0.2625 -0.0859
  732TMC3     H10875   3.541   3.844  12.089 -0.1004 -2.0319  0.8596
  732TMC3    H110876   3.887   3.715  12.288  1.2005 -1.2132 -0.6917
  732TMC3    H210877   3.899   3.819  11.866 -1.5029 -0.7925 -0.8122
  732TMC3    C710878   4.049   3.772  12.094 -0.1492  0.0185  0.3249
  732TMC3    C810879   3.673   3.927  11.869 -0.6842  0.5372  0.5124
  732TMC3    O110880   4.100   3.849  12.018 -0.3781  0.1439  0.0743
  732TMC3    O210881   3.758   3.985  11.803 -0.1015 -0.3412  0.9611
  733TMC3    C110882   4.365   1.516  12.639 -0.4814  0.1652  0.5530
  733TMC3    C210883   4.482   1.496  12.707  1.0031  0.0360 -0.6122
  733TMC3    C310884   4.590   1.568  12.668 -0.3172 -0.2667  0.7216
  733TMC3    C410885   4.354   1.582  12.515 -0.8188 -0.3168  0.0576
  733TMC3    C510886   4.471   1.638  12.480  0.1426  0.3559  0.4296
  733TMC3    C610887   4.588   1.641  12.556  0.2142 -0.0843 -0.4526
  733TMC3     C10888   4.245   1.530  12.723  0.3085 -0.7788  0.9991
  733TMC3     O10889   4.269   1.557  12.839 -0.0079  0.2070  0.0396
  733TMC3     H10890   4.487   1.450  12.805 -0.9506  0.4595 -0.3086
  733TMC3    H110891   4.255   1.586  12.472 -0.9309  2.5415  0.5378
  733TMC3    H210892   4.665   1.711  12.524  1.2859 -1.5370 -1.0384
  733TMC3    C710893   4.464   1.711  12.355  0.9373  0.3397  0.3927
  733TMC3    C810894   4.699   1.597  12.764 -0.1556  0.8767 -0.0502
  733TMC3    O110895   4.359   1.735  12.298  0.2641  0.4314  0.4882
  733TMC3    O210896   4.685   1.570  12.884  0.0725 -0.2085  0.1266
  734MPD2     C10897   1.656   4.405  12.115  0.5198 -0.8411  0.1957
  734MPD2    C110898   1.594   4.341  12.008 -0.2352 -0.0962 -0.4970
  734MPD2    C210899   1.618   4.393  11.883  0.3439 -0.0151  0.3903
  734MPD2    C310900   1.711   4.494  11.864 -0.6879 -0.5545  0.0176
  734MPD2    C410901   1.777   4.549  11.972  0.6179 -0.5409 -0.3529
  734MPD2    C510902   1.749   4.506  12.096  0.0827 -0.7332  0.1620
  734MPD2     H10903   1.572   4.342  11.799  1.0559  0.5233 -0.3156
  734MPD2    H110904   1.856   4.624  11.973 -0.0522  0.1450  0.3099
  734MPD2    H210905   1.637   4.370  12.215 -0.3748 -0.9282 -0.0064
  734MPD2    H310906   1.803   4.542  12.183 -0.6384 -1.4640  0.9123
  734MPD2     N10907   1.746   4.528  11.726 -0.4343  0.2838 -0.7454
  734MPD2    H510908   1.697   4.473  11.656  0.1729 -2.5394  1.0784
  734MPD2    N110909   1.502   4.241  12.047 -0.6328  0.2899  1.3093
  734MPD2    H710910   1.502   4.214  12.145  2.7855 -2.6854  0.4888
  735TMC3    C110911   1.383   4.045  11.981  0.2575 -0.2183  0.4994
  735TMC3    C210912   1.331   3.990  11.869 -0.0510  0.1159  0.2287
  735TMC3    C310913   1.378   3.873  11.823 -0.2524 -0.4672 -0.0341
  735TMC3    C410914   1.475   3.978  12.058  0.2172 -0.7883 -0.5201
  735TMC3    C510915   1.525   3.857  12.013  0.1010 -0.1642  0.3652
  735TMC3    C610916   1.479   3.806  11.890  0.6427 -0.1382 -0.0966
  735TMC3     C10917   1.431   4.182  11.954  0.3478  0.4140 -0.0276
  735TMC3     O10918   1.424   4.194  11.835 -0.0411  0.1845  0.7348
  735TMC3     H10919   1.253   4.035  11.809 -1.6561 -1.9118  0.8356
  735TMC3    H110920   1.511   4.021  12.150 -0.1279 -0.3083 -0.6110
  735TMC3    H210921   1.519   3.720  11.838  1.6400 -0.0967  0.6159
  735TMC3    C710922   1.664   3.828  12.047 -0.3502  0.4709 -0.4953
  735TMC3    C810923   1.397   3.872  11.680 -0.3472  0.3356  0.3392
  735TMC3    O110924   1.724   3.929  12.087  0.6823 -0.1539 -0.0026
  735TMC3    O210925   1.420   3.773  11.610  0.4180 -0.1298 -0.0023
  736MPD2     C10926   1.838   3.499  12.059 -0.9926  0.3328 -0.9873
  736MPD2    C110927   1.834   3.636  12.049  0.7000 -0.4042 -0.1737
  736MPD2    C210928   1.953   3.719  12.054 -0.6384  0.1931 -0.0325
  736MPD2    C310929   2.068   3.648  12.069  0.4115 -0.1608 -0.6163
  736MPD2    C410930   2.074   3.512  12.082  0.5535 -0.0497 -0.1148
  736MPD2    C510931   1.960   3.432  12.076 -0.8001 -0.3381 -0.2881
  736MPD2     H10932   1.957   3.827  12.055  2.2814  0.1147 -1.9376
  736MPD2    H110933   2.170   3.462  12.080  0.2928 -0.5167 -1.2153
  736MPD2    H210934   1.747   3.439  12.063 -1.1801  0.5723 -1.5902
  736MPD2    H310935   1.965   3.324  12.079 -3.1838 -0.4897 -1.4860
  736MPD2     N10936   2.195   3.708  12.046 -0.2329  0.1722  0.1076
  736MPD2    H510937   2.273   3.642  12.043 -1.6879 -1.5337 -0.5053
  736MPD2    N110938   1.701   3.699  12.032 -0.8419 -0.4422 -0.0744
  736MPD2    H710939   1.625   3.635  12.016 -1.8230  0.9163 -0.8574
  737TMC3    C110940   2.348   3.894  12.016  0.5117 -0.8066 -0.2410
  737TMC3    C210941   2.367   4.034  12.022 -0.0589  0.3149 -0.3266
  737TMC3    C310942   2.456   4.090  11.936 -0.8999  0.2820  0.0719
  737TMC3    C410943   2.424   3.812  11.931 -0.4351 -0.4667 -0.4738
  737TMC3    C510944   2.514   3.875  11.842 -0.1312 -0.3210  0.2604
  737TMC3    C610945   2.529   4.015  11.849 -0.4765 -0.1177  0.2031
  737TMC3     C10946   2.223   3.840  12.079  0.7400 -0.5166  0.0643
  737TMC3     O10947   2.159   3.918  12.157 -0.3286 -0.0679  0.4753
  737TMC3     H10948   2.313   4.100  12.090  1.8128  2.4713 -0.9579
  737TMC3    H110949   2.422   3.706  11.951  1.4370 -0.8555 -2.4218
  737TMC3    H210950   2.588   4.073  11.780 -3.7143  1.1086 -1.5112
  737TMC3    C710951   2.595   3.802  11.747 -0.4885  0.1638  0.2446
  737TMC3    C810952   2.456   4.242  11.929 -0.1315 -0.4655 -0.5425
  737TMC3    O110953   2.612   3.684  11.771 -0.0355 -0.0979 -0.0787
  737TMC3    O210954   2.441   4.308  12.029  0.1179 -0.6673  0.3525
  738MPD2     C10955   2.234   3.249  14.941  0.1707 -0.9123  0.0556
  738MPD2    C110956   2.330   3.179  15.010  0.0922 -0.5705 -0.1067
  738MPD2    C210957   2.449   3.241  15.039  0.6106  0.3367  0.2518
  738MPD2    C310958   2.468   3.374  14.992 -0.0541 -0.6115 -0.2784
  738MPD2    C410959   2.372   3.437  14.919  0.4982  0.2871 -0.2030
  738MPD2    C510960   2.252   3.377  14.893 -0.4337 -0.3518  0.5314
  738MPD2     H10961   2.528   3.192  15.095  1.0628  0.6598 -0.0996
  738MPD2    H110962   2.390   3.532  14.870 -1.3866  1.5337  1.5042
  738MPD2    H210963   2.137   3.211  14.911 -0.5124  0.1666  0.8660
  738MPD2    H310964   2.173   3.427  14.837  0.5165  2.0395  1.3402
  738MPD2     N10965   2.587   3.449  15.000 -1.0202 -0.1324 -0.1443
  738MPD2    H510966   2.595   3.539  14.953 -0.6803  0.6963  1.5108
  738MPD2    N110967   2.307   3.057  15.069  1.2241 -0.3645  0.2412
  738MPD2    H710968   2.385   3.023  15.125  1.5202  1.4261  0.9174
  739TMC3    C110969   2.807   3.506  15.073  0.4891  0.2811 -0.8375
  739TMC3    C210970   2.841   3.560  14.949 -0.2371 -0.3066  0.5277
  739TMC3    C310971   2.973   3.585  14.919 -0.4697  0.6903 -0.4201
  739TMC3    C410972   2.908   3.475  15.163  0.2111  0.5741  0.2581
  739TMC3    C510973   3.036   3.506  15.137  0.5513  0.0851 -0.8403
  739TMC3    C610974   3.074   3.565  15.017  0.5287 -0.0774  0.4054
  739TMC3     C10975   2.693   3.417  15.083 -0.3243 -0.5089  0.1130
  739TMC3     O10976   2.702   3.338  15.175  0.7147 -0.2023  0.6237
  739TMC3     H10977   2.763   3.573  14.874 -0.7416 -0.2201  1.0632
  739TMC3    H110978   2.885   3.439  15.262  0.5440 -0.8205 -0.1790
  739TMC3    H210979   3.173   3.608  15.011  0.0888  0.4986 -2.6227
  739TMC3    C710980   3.136   3.441  15.222  0.1278  0.3074  0.4138
  739TMC3    C810981   3.000   3.617  14.783  0.1363  0.5017  0.1267
  739TMC3    O110982   3.098   3.411  15.335 -0.0383 -0.6316 -0.6292
  739TMC3    O210983   2.913   3.589  14.700 -0.8673  0.2537 -0.4057
  740TMC3    C110984   3.486   0.008  14.605  1.0338  0.2716 -0.0624
  740TMC3    C210985   3.487   4.718  14.735 -0.5834 -0.0499  0.4983
  740TMC3    C310986   3.499   4.593  14.775  1.1340 -0.2543  0.5799
  740TMC3    C410987   3.510   4.651  14.510  0.6514 -1.2534 -0.5226
  740TMC3    C510988   3.513   4.520  14.552  0.3145  0.1438 -0.0451
  740TMC3    C610989   3.518   4.485  14.683 -0.1496  0.1455  0.2416
  740TMC3     C10990   3.381   0.084  14.561  0.0926  0.3065  0.1163
  740TMC3     O10991   3.390   0.145  14.455  0.4137 -0.2103 -0.4009
  740TMC3     H10992   3.481   0.060  14.805 -1.8741  1.3061 -1.2198
  740TMC3    H110993   3.506   4.681  14.406  0.0820 -1.1339 -0.4609
  740TMC3    H210994   3.532   4.384  14.720 -1.1337  0.2159  0.7961
  740TMC3    C710995   3.565   4.418  14.467 -0.1997  0.3589 -0.4535
  740TMC3    C810996   3.474   4.556  14.916 -0.1692 -0.2464 -1.4191
  740TMC3    O110997   3.623   4.324  14.518 -0.2003  0.3455  0.1200
  740TMC3    O210998   3.485   4.650  14.993 -0.2817 -0.2985 -0.1466
  741TMC3    C110999   2.854   4.070  14.397 -1.0211 -0.1345  0.3339
  741TMC3    C211000   2.789   3.955  14.379 -0.1015  0.4748 -0.8941
  741TMC3    C311001   2.781   3.874  14.491  0.4497  0.6647 -0.0102
  741TMC3    C411002   2.903   4.110  14.516 -0.4533  0.5619 -0.0253
  741TMC3    C511003   2.892   4.027  14.625  0.3509 -0.1976  0.2490
  741TMC3    C611004   2.841   3.897  14.615  0.4078 -0.3145  1.1157
  741TMC3     C11005   2.947   4.076  14.292  0.0286  0.1038  0.6153
  741TMC3     O11006   2.921   4.052  14.174 -0.5500 -0.3432 -0.0707
  741TMC3     H11007   2.748   3.927  14.283 -2.0068  0.3348 -0.0374
  741TMC3    H111008   2.942   4.211  14.522 -0.3001  0.3829  2.0505
  741TMC3    H211009   2.814   3.832  14.697 -2.7241  1.8297  1.7953
  741TMC3    C711010   3.000   4.051  14.712 -0.5882 -0.7230 -0.3785
  741TMC3    C811011   2.658   3.809  14.497 -0.5151 -0.0211 -0.3187
  741TMC3    O111012   3.086   4.122  14.663  0.3752 -0.0184 -0.2139
  741TMC3    O211013   2.580   3.834  14.411  0.3418  0.3956 -0.2958
  742TMC3    C111014   3.284   2.180  14.981 -0.0924  0.2826 -0.7214
  742TMC3    C211015   3.188   2.167  14.886  0.0114  0.4352 -0.9407
  742TMC3    C311016   3.090   2.064  14.903  0.5961 -0.0527 -0.6612
  742TMC3    C411017   3.276   2.112  15.101 -0.0718 -0.2572 -0.4165
  742TMC3    C511018   3.186   2.007  15.105  0.6495  0.3014 -0.0057
  742TMC3    C611019   3.087   1.985  15.015 -0.4958  0.6865  0.0853
  742TMC3     C11020   3.366   2.297  14.979  0.3729  0.0607 -1.1304
  742TMC3     O11021   3.339   2.394  14.912  0.3211 -0.3004 -0.5574
  742TMC3     H11022   3.196   2.218  14.791  0.0755  1.3439 -0.4588
  742TMC3    H111023   3.342   2.126  15.186  2.4646 -1.2686 -2.2190
  742TMC3    H211024   3.018   1.901  15.018  1.8498 -1.1847  1.9374
  742TMC3    C711025   3.223   1.884  15.179 -0.1409 -0.5351 -0.1990
  742TMC3    C811026   2.986   2.046  14.799  0.1381  0.4078  0.8348
  742TMC3    O111027   3.146   1.794  15.182  0.8486  0.1347  0.0147
  742TMC3    O211028   2.958   1.928  14.771 -0.7908 -0.5299 -0.5375
  743MPD2     C11029   3.977   3.141   1.255 -0.5574  0.5842  0.2090
  743MPD2    C111030   4.070   3.062   1.196  0.1416  0.3825  0.3636
  743MPD2    C211031   4.196   3.066   1.246  0.1067  0.0990  0.3868
  743MPD2    C311032   4.227   3.130   1.363 -0.2395  0.2977 -0.5219
  743MPD2    C411033   4.131   3.212   1.417 -0.3071 -0.4527  0.0728
  743MPD2    C511034   4.007   3.212   1.361 -0.3874 -0.2934 -1.0928
  743MPD2     H11035   4.275   3.009   1.197 -0.6409  0.7830 -1.6249
  743MPD2    H111036   4.146   3.264   1.511  0.4995  1.2174 -0.9746
  743MPD2    H211037   3.872   3.137   1.228 -0.7390  0.4663  0.9254
  743MPD2    H311038   3.931   3.267   1.415  0.5808  0.4021 -0.4439
  743MPD2     N11039   4.354   3.108   1.421  0.7410  0.4842 -0.1619
  743MPD2    H511040   4.408   3.030   1.384 -1.6642 -0.0455 -2.6257
  743MPD2    N111041   4.033   2.989   1.080  0.3034  0.7771  0.1783
  743MPD2    H711042   3.941   3.006   1.041  1.8745  1.7270 -3.0986
  744TMC3    C111043   4.051   2.853   0.896  0.5729  0.4069  0.1939
  744TMC3    C211044   3.962   2.930   0.820  0.0830 -0.2785 -0.4670
  744TMC3    C311045   3.949   2.889   0.684 -0.0892 -0.0329  0.0939
  744TMC3    C411046   4.125   2.756   0.829  0.1652 -0.2950  0.3329
  744TMC3    C511047   4.116   2.726   0.695 -0.5682 -0.2098 -0.2092
  744TMC3    C611048   4.026   2.795   0.616 -0.3602 -0.3329  0.4405
  744TMC3     C11049   4.115   2.901   1.017  0.6092 -0.3487 -0.2959
  744TMC3     O11050   4.228   2.866   1.035 -0.8329  0.0378  0.0812
  744TMC3     H11051   3.919   3.023   0.856 -0.3143 -1.0721  1.0884
  744TMC3    H111052   4.198   2.709   0.893  0.0010  0.5812  1.1713
  744TMC3    H211053   4.026   2.777   0.509  1.7888 -0.6341  0.4877
  744TMC3    C711054   4.248   2.706   0.634 -0.3988  0.2031 -0.7259
  744TMC3    C811055   3.869   2.974   0.601  0.6383  0.5320  0.7356
  744TMC3    O111056   4.276   2.769   0.528  0.2088  0.5812 -0.3738
  744TMC3    O211057   3.829   3.081   0.648  0.1064  0.2064  0.2412
  745TMC3    C111058   2.806   1.915  13.737 -0.3435 -0.3663 -0.6911
  745TMC3    C211059   2.671   1.922  13.759 -0.3789  0.2533  0.4468
  745TMC3    C311060   2.592   2.005  13.683  0.6762  0.4286  0.2318
  745TMC3    C411061   2.858   1.988  13.634  0.0543  0.0631  0.2270
  745TMC3    C511062   2.778   2.057  13.553 -0.3055 -0.6036  0.1507
  745TMC3    C611063   2.645   2.062  13.570  0.0865  0.8638 -0.6013
  745TMC3     C11064   2.890   1.897  13.851  0.3427 -0.2861 -0.1341
  745TMC3     O11065   2.836   1.872  13.957  0.1430 -0.6792  0.8126
  745TMC3     H11066   2.633   1.862  13.841  0.7602 -0.7116  0.2602
  745TMC3    H111067   2.958   1.975  13.594 -0.3677 -0.1303 -0.7552
  745TMC3    H211068   2.585   2.142  13.529 -2.2052 -0.1339  0.7923
  745TMC3    C711069   2.828   2.120  13.431 -0.1375 -0.5520  0.4291
  745TMC3    C811070   2.511   2.090  13.766  0.3346 -0.2921 -0.4270
  745TMC3    O111071   2.740   2.168  13.359 -0.1326 -0.6698 -0.0891
  745TMC3    O211072   2.425   2.161  13.719  0.8874  0.4942  0.8087
  746TMC3    C111073   0.890   4.060  10.756  0.0366  0.3210 -0.1759
  746TMC3    C211074   0.975   3.989  10.677 -0.4089  0.3630  0.3292
  746TMC3    C311075   0.932   3.875  10.614 -0.5976 -0.0391  0.4755
  746TMC3    C411076   0.761   4.012  10.790  0.7378  0.0005 -0.1777
  746TMC3    C511077   0.725   3.898  10.725 -0.0693  0.0698  0.0996
  746TMC3    C611078   0.805   3.831  10.637 -0.4991  0.7606  0.4864
  746TMC3     C11079   0.934   4.189  10.824  0.1088 -0.0199 -0.1313
  746TMC3     O11080   0.889   4.189  10.936 -0.4017 -0.6774 -0.3254
  746TMC3     H11081   1.076   4.022  10.657 -1.4550  3.4239  0.1061
  746TMC3    H111082   0.700   4.069  10.859 -0.3073 -0.6922 -0.5348
  746TMC3    H211083   0.760   3.755  10.574  2.2376  0.1171 -0.6713
  746TMC3    C711084   0.591   3.840  10.736  0.5471  0.2394  0.2393
  746TMC3    C811085   1.007   3.830  10.510 -0.6592  0.4724  0.1848
  746TMC3    O111086   0.547   3.758  10.660  0.0062 -0.5119  0.0100
  746TMC3    O211087   0.959   3.730  10.458  0.4531  0.2286  0.4888
  747TMC3    C111088   2.953   4.419  11.104 -0.0349 -0.0143 -0.0641
  747TMC3    C211089   2.937   4.293  11.158 -0.0864 -0.4769  0.6632
  747TMC3    C311090   3.047   4.237  11.208 -0.1506  0.6997 -0.0480
  747TMC3    C411091   3.075   4.487  11.104 -0.2384  0.1715  0.5332
  747TMC3    C511092   3.185   4.405  11.128  0.0200  0.4297 -0.7545
  747TMC3    C611093   3.171   4.290  11.204  0.1308  0.2158 -0.4689
  747TMC3     C11094   2.834   4.490  11.043 -0.0122 -0.5950  0.8700
  747TMC3     O11095   2.828   4.607  11.062  0.5173  0.0861  0.0970
  747TMC3     H11096   2.838   4.252  11.175 -0.2536 -0.2323  0.2602
  747TMC3    H111097   3.077   4.571  11.036 -3.0540 -0.7335 -0.6628
  747TMC3    H211098   3.256   4.238  11.248  0.7771  0.0014 -1.9617
  747TMC3    C711099   3.322   4.457  11.113  0.7496 -0.5920  0.5461
  747TMC3    C811100   3.037   4.106  11.271  0.5895 -0.3142 -0.2775
  747TMC3    O111101   3.410   4.405  11.182 -0.2426  0.3343  0.4448
  747TMC3    O211102   3.135   4.030  11.267  0.3596  0.6573 -0.3720
  748MPD2     C11103   3.945   4.282   0.924  0.3143  0.6767 -0.0378
  748MPD2    C111104   4.009   4.164   0.962 -0.2596 -1.3327 -0.2292
  748MPD2    C211105   4.144   4.171   0.988 -0.5193 -0.2428  0.6095
  748MPD2    C311106   4.213   4.283   0.969 -0.7229  0.2219  0.0718
  748MPD2    C411107   4.146   4.399   0.924 -0.3025 -0.3036  0.4886
  748MPD2    C511108   4.006   4.396   0.915 -0.3066  0.0305  0.6543
  748MPD2     H11109   4.201   4.079   1.000  0.5857  0.3752  0.1126
  748MPD2    H111110   4.194   4.493   0.902 -1.0412 -0.6479 -2.6591
  748MPD2    H211111   3.841   4.282   0.893  0.5507 -0.3432 -0.8320
  748MPD2    H311112   3.950   4.480   0.874  0.7906 -0.5258 -1.9466
  748MPD2     N11113   4.355   4.284   0.997  0.7614  0.0400 -0.2669
  748MPD2    H511114   4.390   4.193   1.025 -0.6395 -0.8861 -1.5000
  748MPD2    N111115   3.931   4.054   0.966 -0.2952 -0.1871 -0.4461
  748MPD2    H711116   3.833   4.066   0.943 -0.3928  2.2504  1.2342
  749TMC3    C111117   4.580   4.337   0.965 -0.1812 -0.3350 -0.3670
  749TMC3    C211118   4.639   4.294   1.078 -0.3055 -0.1084 -0.4287
  749TMC3    C311119   0.031   4.310   1.093  0.6800 -1.0424  0.5738
  749TMC3    C411120   4.652   4.403   0.875  0.4055 -0.1619  0.5734
  749TMC3    C511121   0.051   4.405   0.883  0.4369  0.5332  0.2900
  749TMC3    C611122   0.113   4.364   1.000  0.9905 -0.3120  0.9965
  749TMC3     C11123   4.444   4.389   0.981  0.0832 -0.1102  0.1115
  749TMC3     O11124   4.418   4.504   0.946 -0.1728  0.4809 -0.2353
  749TMC3     H11125   4.577   4.263   1.162 -0.9846  3.6058  0.4134
  749TMC3    H111126   4.595   4.446   0.794 -0.9198 -0.5155  1.3230
  749TMC3    H211127   0.220   4.365   1.017  1.1204 -1.5308  0.2746
  749TMC3    C711128   0.123   4.501   0.805  0.5242  0.6910  0.2478
  749TMC3    C811129   0.093   4.274   1.221 -0.5318  0.2323  0.2567
  749TMC3    O111130   0.202   4.582   0.858 -0.5527  0.2439  0.1378
  749TMC3    O211131   0.071   4.344   1.318  0.1774 -0.4149  0.1139
  750MPD2     C11132   1.091   1.222  11.707 -0.8834 -0.1209  0.3522
  750MPD2    C111133   0.971   1.163  11.693  0.1685 -0.0449 -0.2980
  750MPD2    C211134   0.950   1.062  11.598 -0.4667 -0.3245 -0.2330
  750MPD2    C311135   1.057   1.023  11.522 -0.4036 -0.3922  0.1486
  750MPD2    C411136   1.186   1.070  11.544 -0.5500  0.3295 -0.7635
  750MPD2    C511137   1.198   1.166  11.644 -0.2149 -0.4320  0.1289
  750MPD2     H11138   0.850   1.032  11.571  0.5917 -1.2810 -3.0929
  750MPD2    H111139   1.267   1.050  11.474  0.4889  0.9411  0.2667
  750MPD2    H211140   1.109   1.304  11.776  0.1663 -0.7963  0.8804
  750MPD2    H311141   1.295   1.212  11.659 -1.2494  0.8635  2.7873
  750MPD2     N11142   1.049   0.946  11.406 -0.3192  0.2530  0.3922
  750MPD2    H511143   1.140   0.927  11.366 -1.5670  0.5487 -2.5774
  750MPD2    N111144   0.863   1.217  11.772  0.0657  0.2189  0.1685
  750MPD2    H711145   0.889   1.297  11.828  1.2656 -0.2551  0.2872
  751TMC3    C111146   0.940   0.807  11.236 -0.2444  0.4383  0.1674
  751TMC3    C211147   0.832   0.721  11.211  0.6651  0.1632 -0.2098
  751TMC3    C311148   0.837   0.646  11.098 -0.0697 -0.4154  0.2867
  751TMC3    C411149   1.022   0.845  11.132 -0.1156 -1.0732 -0.3194
  751TMC3    C511150   1.022   0.779  11.014 -0.2879  0.0561  0.1313
  751TMC3    C611151   0.932   0.672  11.001  0.4079  0.2410 -0.5761
  751TMC3     C11152   0.928   0.886  11.350  0.2158 -0.2246 -0.1421
  751TMC3     O11153   0.817   0.900  11.396 -0.4619  1.1289  0.4486
  751TMC3     H11154   0.763   0.696  11.291 -0.9001 -1.5957 -2.1123
  751TMC3    H111155   1.084   0.932  11.152 -0.3737 -1.1773  0.9135
  751TMC3    H211156   0.942   0.599  10.921 -0.0122  1.0949 -1.4073
  751TMC3    C711157   1.106   0.824  10.902  0.0933  0.9620  0.0975
  751TMC3    C811158   0.724   0.565  11.063 -0.1594 -0.4833  0.2775
  751TMC3    O111159   1.127   0.948  10.900 -0.4466  0.1449  0.0068
  751TMC3    O211160   0.746   0.481  10.976  0.1913 -0.2828 -0.7461
  752TMC3    C111161   3.675   0.780  17.379 -0.1422  0.1254  0.6210
  752TMC3    C211162   3.721   0.672  17.450  0.5376 -0.2268 -0.0421
  752TMC3    C311163   3.652   0.636  17.566 -0.4335 -0.6624  0.1721
  752TMC3    C411164   3.569   0.852  17.429 -0.2263  0.5009 -0.5853
  752TMC3    C511165   3.497   0.805  17.536 -0.4346  0.2859  0.4893
  752TMC3    C611166   3.544   0.706  17.610  0.3476  0.2184 -0.8250
  752TMC3     C11167   3.732   0.812  17.249  0.2898 -0.6874  0.3608
  752TMC3     O11168   3.828   0.744  17.212 -0.1921 -0.0942  0.8068
  752TMC3     H11169   3.800   0.611  17.409  1.8111  2.0892 -1.0480
  752TMC3    H111170   3.538   0.943  17.379 -0.9283  1.1289  0.9774
  752TMC3    H211171   3.501   0.689  17.708  1.0146  0.5740 -0.4659
  752TMC3    C711172   3.385   0.886  17.583 -0.7990 -0.4773  0.3676
  752TMC3    C811173   3.683   0.507  17.614  0.4645 -0.0536  1.0015
  752TMC3    O111174   3.392   1.002  17.549 -0.4323  0.4116  0.0556
  752TMC3    O211175   3.791   0.465  17.581  0.6100  0.4326  0.2432
  753TMC3    C111176   1.652   1.696  13.858  0.0445 -0.0121 -0.1538
  753TMC3    C211177   1.754   1.713  13.951 -0.2784  0.2576  0.3374
  753TMC3    C311178   1.815   1.601  14.000  0.0076  0.3627  0.2554
  753TMC3    C411179   1.606   1.571  13.826  1.2097 -0.2375 -0.3411
  753TMC3    C511180   1.668   1.471  13.884  0.2131 -0.3574 -0.4342
  753TMC3    C611181   1.771   1.477  13.968 -1.1707 -0.0285  0.5095
  753TMC3     C11182   1.578   1.807  13.803  0.0796 -0.3100 -0.3950
  753TMC3     O11183   1.506   1.787  13.708  0.3715  0.2267 -0.0782
  753TMC3     H11184   1.804   1.809  13.953 -3.1938  1.7822 -0.7889
  753TMC3    H111185   1.529   1.563  13.750 -0.4609  0.9925  1.2001
  753TMC3    H211186   1.808   1.382  14.004 -0.3384  0.4012  0.7889
  753TMC3    C711187   1.629   1.342  13.839 -0.7040  0.2654 -0.4361
  753TMC3    C811188   1.924   1.616  14.094  0.2038  0.2313  0.3520
  753TMC3    O111189   1.721   1.269  13.813 -0.3398  0.4824 -0.1224
  753TMC3    O211190   1.995   1.521  14.126 -0.2667  0.3039 -0.4279
  754MPD2     C11191   0.540   0.453  13.171 -0.3073  0.1318 -0.0552
  754MPD2    C111192   0.523   0.323  13.135 -0.1784  0.4357  0.5833
  754MPD2    C211193   0.399   0.283  13.090 -0.4314 -0.1755 -0.0010
  754MPD2    C311194   0.300   0.375  13.058  0.4097  0.0399 -1.0710
  754MPD2    C411195   0.325   0.504  13.068 -0.1420  0.6150  0.0942
  754MPD2    C511196   0.446   0.542  13.130  0.4311 -0.1511 -0.6892
  754MPD2     H11197   0.386   0.176  13.079  0.7392 -0.3067 -0.0689
  754MPD2    H111198   0.242   0.573  13.067 -0.4191  0.2812  0.0540
  754MPD2    H211199   0.624   0.490  13.228 -1.4994  0.9417  1.1814
  754MPD2    H311200   0.460   0.647  13.157 -0.4677 -0.4283  0.8900
  754MPD2     N11201   0.168   0.331  13.038  0.1654 -0.4606 -0.5223
  754MPD2    H511202   0.097   0.397  13.011  0.1628  0.0725  0.7942
  754MPD2    N111203   0.613   0.234  13.208  0.3082  0.0211 -0.3937
  754MPD2    H711204   0.671   0.273  13.281 -0.3230 -0.4258  0.3438
  755MPD2     C11205   4.262   0.841  13.180 -0.3270  0.3695 -0.7168
  755MPD2    C111206   4.183   0.728  13.159  0.2240  0.6655 -0.1014
  755MPD2    C211207   4.246   0.613  13.134 -0.3977  0.8474 -0.0422
  755MPD2    C311208   4.390   0.608  13.125 -0.0819 -0.7918  0.4491
  755MPD2    C411209   4.464   0.717  13.152 -0.2505  0.3187 -0.1187
  755MPD2    C511210   4.399   0.833  13.178 -0.2934  0.3538 -0.1953
  755MPD2     H11211   4.180   0.530  13.113 -0.0324 -0.2464  3.1554
  755MPD2    H111212   4.572   0.722  13.156 -0.1780 -1.0897 -0.2933
  755MPD2    H211213   4.226   0.938  13.212 -0.5613 -0.3254  1.1249
  755MPD2    H311214   4.453   0.925  13.197 -2.9050  1.7976  0.2252
  755MPD2     N11215   4.459   0.486  13.101  0.0913  0.4771  0.4952
  755MPD2    H511216   4.560   0.487  13.113  0.2094  0.7117 -0.5757
  755MPD2    N111217   4.042   0.730  13.161 -0.0641  0.7793 -0.0088
  755MPD2    H711218   3.989   0.643  13.158  2.6114 -0.8230 -0.1794
  756MPD2     C11219   0.917   2.069  10.136  0.6511  0.3383  0.1561
  756MPD2    C111220   0.827   2.049  10.239  0.3162 -0.5009  0.5519
  756MPD2    C211221   0.692   2.017  10.213  0.0782  0.7259  0.4006
  756MPD2    C311222   0.642   2.032  10.083  0.1552  0.6595  0.3809
  756MPD2    C411223   0.736   2.073   9.983  0.1127  0.4900 -0.4293
  756MPD2    C511224   0.871   2.079  10.010 -0.4248 -0.0573  0.2244
  756MPD2     H11225   0.629   2.005  10.301 -3.0119  0.2502 -1.8803
  756MPD2    H111226   0.706   2.080   9.879  0.0723 -0.2034 -0.4682
  756MPD2    H211227   1.022   2.086  10.158  0.0685  2.1410  1.5887
  756MPD2    H311228   0.943   2.087   9.929 -1.2653  0.4572 -0.4634
  756MPD2     N11229   0.503   2.012  10.062  0.0429  0.3222  0.7050
  756MPD2    H511230   0.441   2.010  10.142 -0.4799 -0.5112  0.2840
  756MPD2    N111231   0.861   2.034  10.374  0.5524  0.4423 -0.1990
  756MPD2    H711232   0.784   2.006  10.434  0.2016  0.4085 -0.6656
  757MPD2     C11233   4.668   1.291  10.405  0.3507 -0.1665 -0.3713
  757MPD2    C111234   4.614   1.292  10.279  0.1351  0.0958 -0.8686
  757MPD2    C211235   4.666   1.378  10.181 -0.4207  0.8486  0.5443
  757MPD2    C311236   0.025   1.468  10.211 -0.0141 -0.4293  0.2140
  757MPD2    C411237   0.079   1.459  10.337  0.2634  0.0312 -0.3363
  757MPD2    C511238   0.038   1.365  10.432 -0.3165 -0.0946  0.7167
  757MPD2     H11239   4.619   1.383  10.084  0.0378 -2.9678  0.1477
  757MPD2    H111240   0.163   1.517  10.374 -1.4091  0.7551  2.3651
  757MPD2    H211241   4.621   1.237  10.487  0.5963  0.5053  0.2150
  757MPD2    H311242   0.081   1.352  10.531 -1.0979  0.6525  1.1427
  757MPD2     N11243   0.076   1.561  10.111  0.0622  0.2159 -0.1311
  757MPD2    H511244   0.020   1.558  10.026 -0.2389 -1.0911  0.1024
  757MPD2    N111245   4.496   1.214  10.267  0.0929 -0.4855 -0.1417
  757MPD2    H711246   4.468   1.170  10.354  0.1720 -0.5973 -0.1719
  758MPD2     C11247   4.480   4.474  16.006 -0.1003  0.2617  0.6200
  758MPD2    C111248   4.607   4.534  16.010 -0.0133  0.1224 -0.3331
  758MPD2    C211249   4.629   4.653  16.079  0.0114  0.0210  0.3792
  758MPD2    C311250   4.522   4.703  16.155 -0.4610  0.1038 -0.2877
  758MPD2    C411251   4.402   4.635  16.156 -0.2486 -0.0944 -0.0065
  758MPD2    C511252   4.377   4.521  16.083  0.0026 -0.0591 -0.2316
  758MPD2     H11253   4.725   4.704  16.079  0.3310 -0.5809  0.2263
  758MPD2    H111254   4.314   4.682  16.198 -0.8258 -0.7015 -0.5257
  758MPD2    H211255   4.460   4.389  15.941 -1.2789  0.9934  0.0246
  758MPD2    H311256   4.278   4.476  16.083 -0.5250  1.1183  0.5489
  758MPD2     N11257   4.517   0.088  16.221 -0.4657  0.1993  1.0196
  758MPD2    H511258   4.431   0.118  16.266 -1.5721 -1.4464 -0.0075
  758MPD2    N111259   4.724   4.462  15.972  0.1377  0.3119 -0.0941
  758MPD2    H711260   4.722   4.362  15.955  0.5026 -0.0694  2.1009
  759MPD2     C11261   3.765   3.931  10.529  0.0927 -0.2849  0.1768
  759MPD2    C111262   3.848   3.907  10.417 -1.3434 -0.1955  0.6473
  759MPD2    C211263   3.946   4.006  10.386 -0.3667 -0.1177  0.6648
  759MPD2    C311264   3.966   4.119  10.455 -1.3868 -0.0712 -0.4857
  759MPD2    C411265   3.894   4.135  10.571 -0.1184  0.3486  0.5769
  759MPD2    C511266   3.797   4.042  10.603 -0.4289  0.1669  0.5105
  759MPD2     H11267   4.015   3.973  10.309  0.3986 -0.7648  1.6309
  759MPD2    H111268   3.909   4.220  10.636 -1.5352 -0.0040  1.3420
  759MPD2    H211269   3.687   3.863  10.560 -0.2546  0.5944  1.1989
  759MPD2    H311270   3.732   4.061  10.687 -0.4138  0.8591  0.3633
  759MPD2     N11271   4.067   4.198  10.407 -0.2992  0.5462 -0.9709
  759MPD2    H511272   4.107   4.158  10.322  2.2793 -0.6181  0.7965
  759MPD2    N111273   3.848   3.782  10.350  0.1759 -0.1769 -0.2703
  759MPD2    H711274   3.937   3.765  10.306  1.1293  0.8823  1.2275
  760MPD2     C11275   3.593   0.502  11.758  0.1789 -0.2730 -0.2688
  760MPD2    C111276   3.689   0.574  11.821 -0.0189  0.5430  0.4562
  760MPD2    C211277   3.788   0.508  11.901  0.3545 -0.4949 -0.0672
  760MPD2    C311278   3.799   0.370  11.894  1.0879  0.1627  0.0158
  760MPD2    C411279   3.708   0.303  11.825 -0.0383  0.3921 -0.0573
  760MPD2    C511280   3.600   0.368  11.765  0.3977  0.0062  0.0149
  760MPD2     H11281   3.855   0.571  11.958  1.6061 -1.5933 -0.3444
  760MPD2    H111282   3.714   0.195  11.823  0.7795  0.4538 -1.0768
  760MPD2    H211283   3.506   0.539  11.704 -0.8858  1.5570  2.7262
  760MPD2    H311284   3.529   0.300  11.719  0.7658 -0.6949  0.4937
  760MPD2     N11285   3.901   0.296  11.946  0.3182  0.2727 -0.6507
  760MPD2    H511286   3.924   0.212  11.895  0.6739 -1.0788  1.7325
  760MPD2    N111287   3.692   0.710  11.830 -0.8387  0.3188 -0.2659
  760MPD2    H711288   3.752   0.742  11.906 -0.7838 -0.2856 -0.0531
  761MPD2     C11289   0.250   0.395  11.120 -0.2791  0.2617 -0.3802
  761MPD2    C111290   0.357   0.336  11.054  0.4628  0.2569  0.1824
  761MPD2    C211291   0.478   0.404  11.057 -0.2268  0.5472 -0.4020
  761MPD2    C311292   0.499   0.523  11.123  0.4741  0.0398 -0.3366
  761MPD2    C411293   0.389   0.584  11.188  0.9095  0.4328  0.1163
  761MPD2    C511294   0.268   0.516  11.187 -0.2694  0.1695  0.0524
  761MPD2     H11295   0.571   0.356  11.028  0.6341  2.1704 -0.3702
  761MPD2    H111296   0.409   0.677  11.240  1.7492 -0.5312  1.5298
  761MPD2    H211297   0.154   0.345  11.117  0.3675 -0.9501 -0.5912
  761MPD2    H311298   0.186   0.565  11.238  0.8545  0.0151  1.9747
  761MPD2     N11299   0.612   0.601  11.126  0.0636 -0.4730 -0.0996
  761MPD2    H511300   0.609   0.687  11.179  0.6703  0.6626 -1.9219
  761MPD2    N111301   0.341   0.203  11.008  0.1623 -0.1763  0.5746
  761MPD2    H711302   0.259   0.146  11.026  0.4544 -0.6551  0.3930
  762MPD2     C11303   0.679   4.191  10.553 -0.0292 -0.2927  0.9220
  762MPD2    C111304   0.707   4.322  10.591  0.1920  0.1031  0.1524
  762MPD2    C211305   0.825   4.380  10.539 -0.6132  0.6870 -0.4157
  762MPD2    C311306   0.885   4.321  10.426  0.0148 -0.3811  0.5200
  762MPD2    C411307   0.842   4.197  10.388  0.5774  0.4541  0.1919
  762MPD2    C511308   0.746   4.131  10.454 -0.5282 -0.5928 -0.0463
  762MPD2     H11309   0.859   4.478  10.571 -1.1669  1.0329 -0.8886
  762MPD2    H111310   0.873   4.140  10.302 -0.1799  1.4831 -0.7593
  762MPD2    H211311   0.589   4.145  10.591 -2.5578  1.7917 -2.5556
  762MPD2    H311312   0.708   4.041  10.407 -0.6149 -2.2401  3.1899
  762MPD2     N11313   1.008   4.378  10.378  0.0942 -0.1291  0.4517
  762MPD2    H511314   1.037   4.465  10.420 -0.5653  0.4911 -0.3900
  762MPD2    N111315   0.635   4.374  10.698  0.1664  0.6008 -0.0172
  762MPD2    H711316   0.570   4.311  10.743  0.4027 -0.3772 -1.0425
  763MPD2     C11317   1.545   0.141  16.000  0.7446 -0.0244 -0.1496
  763MPD2    C111318   1.663   0.204  15.982  0.3542 -0.3796  0.3990
  763MPD2    C211319   1.720   0.274  16.085 -0.5006  0.6805 -0.2341
  763MPD2    C311320   1.655   0.293  16.206 -0.5175 -0.8612 -0.2945
  763MPD2    C411321   1.523   0.237  16.220  0.5926 -0.0750 -0.3409
  763MPD2    C511322   1.475   0.154  16.120  0.3439  0.2060 -0.5897
  763MPD2     H11323   1.824   0.298  16.072  0.1021 -0.7877  1.6806
  763MPD2    H111324   1.461   0.252  16.308  1.7107 -0.6865  0.5624
  763MPD2    H211325   1.495   0.083  15.923 -0.8821  0.9244  0.1884
  763MPD2    H311326   1.373   0.119  16.124 -0.6698  3.2675  0.6075
  763MPD2     N11327   1.708   0.375  16.305  0.4711 -0.2571  0.3075
  763MPD2    H511328   1.646   0.405  16.380  2.8638  0.9606  1.8064
  763MPD2    N111329   1.730   0.206  15.859  0.2627  0.0238  0.1011
  763MPD2    H711330   1.808   0.270  15.849 -2.2871  2.6318 -2.9136
  764MPD2     C11331   4.570   1.596  17.736  0.3553  0.2326 -0.3912
  764MPD2    C111332   4.458   1.542  17.675  0.2593 -0.3798 -0.2047
  764MPD2    C211333   4.368   1.472  17.751 -0.2439 -0.7307 -0.0582
  764MPD2    C311334   4.378   1.467   0.127 -0.1974  0.3475  0.2589
  764MPD2    C411335   4.482   1.530   0.198  0.1152 -0.7039  0.0309
  764MPD2    C511336   4.578   1.580   0.112  0.2129  0.6140  0.4394
  764MPD2     H11337   4.284   1.421  17.705 -0.1160 -0.5686 -0.4803
  764MPD2    H111338   4.501   1.541   0.304  1.2889 -1.6256 -0.0952
  764MPD2    H211339   4.660   1.631  17.686  2.4750 -0.8550  2.6396
  764MPD2    H311340   4.669   1.618   0.157  0.8157 -1.3580  0.8616
  764MPD2     N11341   4.273   1.412   0.202  0.0186  0.1484 -0.5568
  764MPD2    H511342   4.190   1.393   0.146 -0.2384 -0.8299  0.1577
  764MPD2    N111343   4.438   1.548  17.536 -0.1250  0.3847 -0.2487
  764MPD2    H711344   4.365   1.491  17.494  0.6501  2.3595 -4.3204
  765MPD2     C11345   0.264   4.699  15.483 -0.1792 -0.0079 -0.6753
  765MPD2    C111346   0.204   4.585  15.542 -0.1529  0.1072 -0.0050
  765MPD2    C211347   0.284   4.476  15.576 -0.4856 -0.0800 -0.5186
  765MPD2    C311348   0.423   4.483  15.551 -0.1307 -1.1487 -0.2253
  765MPD2    C411349   0.474   4.590  15.486 -0.5017  0.4176  0.2349
  765MPD2    C511350   0.399   4.700  15.463 -0.2389  0.9611 -0.4592
  765MPD2     H11351   0.235   4.388  15.618  0.8470 -0.3320  0.5132
  765MPD2    H111352   0.577   4.609  15.458 -0.5724 -0.5786 -0.7039
  765MPD2    H211353   0.211   0.051  15.462 -3.6965 -2.1900 -1.3634
  765MPD2    H311354   0.440   0.048  15.417 -0.3363  1.9273  1.3446
  765MPD2     N11355   0.507   4.374  15.584 -0.2215 -0.1546 -0.2059
  765MPD2    H511356   0.461   4.285  15.597  1.4032 -0.7500  1.4665
  765MPD2    N111357   0.064   4.586  15.574  0.0851  0.2819 -0.0592
  765MPD2    H711358   0.026   4.680  15.562 -1.1769 -0.1889  0.2339
  766MPD2     C11359   4.125   4.335  15.226  0.1775 -0.0957  0.0948
  766MPD2    C111360   4.266   4.350  15.220  0.1548 -0.0207 -0.0127
  766MPD2    C211361   4.339   4.337  15.101  0.5843 -0.1183  0.0660
  766MPD2    C311362   4.274   4.299  14.986 -0.3425 -0.2367 -0.2623
  766MPD2    C411363   4.138   4.269  14.993 -0.1355  0.0507 -0.2957
  766MPD2    C511364   4.071   4.289  15.108  0.2788 -0.1471  0.3081
  766MPD2     H11365   4.445   4.357  15.110  0.8217 -2.2855  1.9548
  766MPD2    H111366   4.079   4.224  14.914  2.1320  0.0739 -2.0116
  766MPD2    H211367   4.060   4.346  15.312 -1.6516 -0.6064 -1.2439
  766MPD2    H311368   3.966   4.265  15.095  0.8187 -0.3049 -3.7277
  766MPD2     N11369   4.337   4.285  14.864 -0.1692 -0.2224 -0.2691
  766MPD2    H511370   4.274   4.271  14.786  1.8182  2.3704 -2.3400
  766MPD2    N111371   4.338   4.393  15.335  0.1495  0.3719  1.1384
  766MPD2    H711372   4.440   4.389  15.334  0.0517 -0.5396 -3.3224
  767MPD2     C11373   4.077   4.696  15.090 -0.2770  0.9824 -0.1158
  767MPD2    C111374   4.181   4.683  14.999  0.1062 -0.3469 -0.6920
  767MPD2    C211375   4.150   4.673  14.865  0.1947  0.0290  0.2613
  767MPD2    C311376   4.021   4.689  14.820  0.1096 -0.5974  0.0731
  767MPD2    C411377   3.924   4.726  14.907 -1.1302 -0.2010  0.2477
  767MPD2    C511378   3.946   4.722  15.044  0.0688  0.2625  0.2328
  767MPD2     H11379   4.232   4.658  14.796 -1.8130  0.2866 -2.1939
  767MPD2    H111380   3.818   4.731  14.882 -1.1071  0.6361  0.3300
  767MPD2    H211381   4.095   4.699  15.197  1.0012  1.3160 -0.3356
  767MPD2    H311382   3.869   4.725  15.121 -1.4155 -1.5455 -1.1792
  767MPD2     N11383   4.001   4.671  14.678  0.1422  0.3200 -0.1947
  767MPD2    H511384   4.083   4.638  14.628 -1.3843 -0.5098 -2.1760
  767MPD2    N111385   4.314   4.687  15.051 -0.2057 -0.1040 -0.3462
  767MPD2    H711386   4.319   4.689  15.153 -3.9722 -0.5528 -0.1721
  768MPD2     C11387   0.267   3.126  10.408 -0.5079  0.0561 -0.1111
  768MPD2    C111388   0.235   3.163  10.535  0.1079  0.0275  0.1542
  768MPD2    C211389   0.313   3.117  10.640 -0.5199 -0.7503  0.1137
  768MPD2    C311390   0.423   3.034  10.615 -0.4119  0.1929  0.5597
  768MPD2    C411391   0.441   2.994  10.481 -0.3462 -0.2259  0.0964
  768MPD2    C511392   0.366   3.041  10.378  0.0504  0.2115 -0.0119
  768MPD2     H11393   0.296   3.156  10.740 -0.0256  1.3188 -0.6025
  768MPD2    H111394   0.520   2.926  10.451 -0.1229 -0.5402  1.3946
  768MPD2    H211395   0.221   3.169  10.320  0.6830 -1.0509 -1.2849
  768MPD2    H311396   0.374   3.018  10.272 -1.5168  0.8986 -0.2739
  768MPD2     N11397   0.521   2.996  10.711  0.5743  0.0824 -0.1642
  768MPD2    H511398   0.613   2.965  10.681  0.0549 -0.7028 -0.9660
  768MPD2    N111399   0.130   3.251  10.559  0.2756  0.3876  0.0229
  768MPD2    H711400   0.116   3.282  10.655 -1.5970  1.5255 -0.6305
  769MPD2     C11401   0.685   1.212  14.970  0.5150 -0.0446 -0.1443
  769MPD2    C111402   0.786   1.121  14.976 -0.4474  0.0411  0.2819
  769MPD2    C211403   0.884   1.131  15.076  0.1725  0.2430 -0.1138
  769MPD2    C311404   0.893   1.243  15.149 -0.2384 -0.8199 -0.5308
  769MPD2    C411405   0.795   1.343  15.142 -0.1306  0.0419  0.2512
  769MPD2    C511406   0.704   1.328  15.040  0.3579  0.1863 -0.6375
  769MPD2     H11407   0.959   1.054  15.091 -1.1363 -0.9348  0.3739
  769MPD2    H111408   0.785   1.437  15.194  3.4230  1.5167 -1.7586
  769MPD2    H211409   0.604   1.193  14.901  2.0123  0.3020 -2.0107
  769MPD2    H311410   0.631   1.407  15.035  1.7694  1.4861 -0.7475
  769MPD2     N11411   0.993   1.252  15.242 -0.1800  0.8403  0.1164
  769MPD2    H511412   1.045   1.168  15.267 -0.7293 -0.2647 -2.4027
  769MPD2    N111413   0.783   1.013  14.874  0.0469  1.3911  0.6891
  769MPD2    H711414   0.711   1.030  14.805 -0.1953 -1.6061  0.2206
  770MPD2     C11415   1.212   0.077  14.777  0.1300 -0.3119  0.7716
  770MPD2    C111416   1.151   0.145  14.875  0.4462 -1.0025  0.5007
  770MPD2    C211417   1.110   0.280  14.871  0.4579 -0.2383 -0.1555
  770MPD2    C311418   1.104   0.333  14.741 -0.4100 -0.0937 -1.1844
  770MPD2    C411419   1.168   0.267  14.637  0.9887 -0.2783  0.2998
  770MPD2    C511420   1.227   0.143  14.656 -0.0378  0.0547 -0.6868
  770MPD2     H11421   1.058   0.323  14.956 -0.8424 -2.5427  0.2297
  770MPD2    H111422   1.194   0.321  14.547 -0.0869 -0.3918 -0.0778
  770MPD2    H211423   1.261   4.722  14.794 -0.8194 -0.8640  0.4149
  770MPD2    H311424   1.289   0.102  14.577  0.5840 -1.2499  0.4679
  770MPD2     N11425   1.041   0.458  14.729 -0.3250 -0.3823 -0.0259
  770MPD2    H511426   1.000   0.498  14.813  1.6267  1.0512  0.2267
  770MPD2    N111427   1.128   0.061  14.992  0.2137  0.1144 -0.0945
  770MPD2    H711428   1.145   4.702  14.984  1.7255  0.3085  0.8997
  771MPD2     C11429   2.006   3.654  13.567  0.5127 -0.3662 -0.1190
  771MPD2    C111430   2.079   3.773  13.544  0.2481  0.7904  0.3317
  771MPD2    C211431   2.136   3.796  13.417  0.1817 -0.6158  0.4667
  771MPD2    C311432   2.104   3.710  13.314 -0.5192 -0.6317 -0.5148
  771MPD2    C411433   2.038   3.595  13.338  0.2029 -0.4868  0.0020
  771MPD2    C511434   1.990   3.560  13.464  0.6061  0.0940  0.0840
  771MPD2     H11435   2.208   3.874  13.398 -0.8486  0.2839  0.2080
  771MPD2    H111436   2.013   3.531  13.254  0.7360 -1.7060  0.7601
  771MPD2    H211437   1.965   3.623  13.662  0.5665 -0.7020 -0.2059
  771MPD2    H311438   1.933   3.471  13.489  2.0257 -0.4053  1.5612
  771MPD2     N11439   2.136   3.755  13.183 -0.5801  0.5521 -0.3735
  771MPD2    H511440   2.149   3.854  13.165 -2.4179  0.7061 -0.8427
  771MPD2    N111441   2.127   3.857  13.646  0.2695 -0.3593  0.5558
  771MPD2    H711442   2.189   3.932  13.616 -1.9349  2.4567  3.0017
  772MPD2     C11443   1.801   4.450  14.108  0.2747  0.2006  0.4837
  772MPD2    C111444   1.777   4.330  14.050  0.3492  0.6147  0.2806
  772MPD2    C211445   1.651   4.288  14.040 -0.4650 -0.1616 -0.2933
  772MPD2    C311446   1.535   4.367  14.068  0.9222  0.1225 -0.5345
  772MPD2    C411447   1.565   4.489  14.123 -0.4260  1.4758  0.3701
  772MPD2    C511448   1.693   4.521  14.153  1.2746  0.1885 -0.9666
  772MPD2     H11449   1.639   4.190  13.994  1.3568 -0.5784  0.1116
  772MPD2    H111450   1.487   4.559  14.151 -0.0076  1.3179  1.9499
  772MPD2    H211451   1.897   4.497  14.128  1.0806  0.1131 -3.1693
  772MPD2    H311452   1.715   4.615  14.204  0.7887 -1.6767  2.7152
  772MPD2     N11453   1.402   4.315  14.048 -0.5095 -0.5372  0.2644
  772MPD2    H511454   1.329   4.378  14.080  0.6013 -0.7636  3.2213
  772MPD2    N111455   1.878   4.239  14.026 -0.5572 -0.1779  0.1006
  772MPD2    H711456   1.849   4.143  14.007  0.0295 -0.3868  0.2464
  773MPD2     C11457   0.582   4.708   0.319  0.1557  0.1072  0.3950
  773MPD2    C111458   0.539   4.622   0.221  0.1701 -0.4343 -0.3608
  773MPD2    C211459   0.601   4.498   0.211 -0.4405 -0.1208 -0.6653
  773MPD2    C311460   0.702   4.459   0.296 -0.4713 -1.0373 -0.4578
  773MPD2    C411461   0.741   4.543   0.396  0.2429 -0.1720 -0.0052
  773MPD2    C511462   0.674   4.663   0.407  0.2915  0.8006  0.2175
  773MPD2     H11463   0.562   4.434   0.133  2.8800 -2.5086 -0.3613
  773MPD2    H111464   0.829   4.524   0.457  0.9505  0.2621 -0.8806
  773MPD2    H211465   0.544   0.066   0.342  1.2061  0.8193 -0.9329
  773MPD2    H311466   0.704   4.732   0.486 -0.2196  1.1800  0.0808
  773MPD2     N11467   0.765   4.341   0.251 -0.2436 -0.6584 -0.4459
  773MPD2    H511468   0.730   4.308   0.162  2.4733  0.3004 -1.8391
  773MPD2    N111469   0.439   4.656   0.128 -0.1126  0.1543  0.1611
  773MPD2    H711470   0.393   4.579   0.081 -0.6379  0.7761 -0.3404
  774MPD2     C11471   0.264   4.047  13.262 -0.4792  0.5319 -0.3133
  774MPD2    C111472   0.226   4.114  13.373  0.3775 -0.2413 -0.8233
  774MPD2    C211473   0.297   4.230  13.411  0.4755  0.0122 -0.8333
  774MPD2    C311474   0.398   4.278  13.329 -0.2784 -0.1147 -0.0323
  774MPD2    C411475   0.437   4.203  13.216 -0.3925 -0.2955  0.4287
  774MPD2    C511476   0.362   4.088  13.187 -0.9477  0.1131  0.4291
  774MPD2     H11477   0.295   4.267  13.513 -0.0603 -0.7035 -0.5839
  774MPD2    H111478   0.521   4.232  13.153 -0.5334 -2.2016 -0.6182
  774MPD2    H211479   0.218   3.954  13.231 -0.8325  0.5359  0.2045
  774MPD2    H311480   0.390   4.030  13.101  1.6084  0.2568  1.1636
  774MPD2     N11481   0.464   4.391  13.369  0.6438 -0.0147 -0.2170
  774MPD2    H511482   0.427   4.440  13.451 -3.0484 -0.2395 -1.7570
  774MPD2    N111483   0.135   4.041  13.455  0.2882 -0.2336 -0.3558
  774MPD2    H711484   0.118   3.947  13.419  0.5059 -0.1643 -0.6366
  775MPD2     C11485   1.427   1.161  15.700 -0.0598  0.6286 -1.0602
  775MPD2    C111486   1.420   1.254  15.797 -0.5732 -0.3375 -0.3259
  775MPD2    C211487   1.506   1.363  15.787  0.1681 -0.8697 -0.4448
  775MPD2    C311488   1.587   1.385  15.675 -0.4953  0.2321  0.1261
  775MPD2    C411489   1.588   1.288  15.586  0.6650  0.2865  0.1311
  775MPD2    C511490   1.511   1.179  15.594 -0.2548 -0.7231  0.1459
  775MPD2     H11491   1.516   1.438  15.865  2.7603 -1.6141 -0.0546
  775MPD2    H111492   1.654   1.288  15.500  1.5005  3.8100  0.7889
  775MPD2    H211493   1.361   1.076  15.710 -0.6043  1.2237  0.3187
  775MPD2    H311494   1.517   1.115  15.507 -3.1455 -0.2262 -0.4146
  775MPD2     N11495   1.678   1.495  15.662 -0.9141  0.5801  0.2546
  775MPD2    H511496   1.727   1.488  15.573  2.3178 -0.1837  2.0768
  775MPD2    N111497   1.340   1.233  15.915  0.2002  0.3468  0.3757
  775MPD2    H711498   1.299   1.141  15.923 -2.2860  1.4633  0.5526
  776MPD2     C11499   0.184   1.522  11.530  0.0039  0.6036 -0.0144
  776MPD2    C111500   0.290   1.557  11.597  0.2027 -0.5536  0.3622
  776MPD2    C211501   0.349   1.684  11.573  0.3342  0.0578 -0.3284
  776MPD2    C311502   0.296   1.770  11.478 -0.4114 -0.1353 -0.4833
  776MPD2    C411503   0.176   1.736  11.425  0.8172 -0.5205  0.0534
  776MPD2    C511504   0.124   1.609  11.440 -1.0221  0.0254 -0.6325
  776MPD2     H11505   0.439   1.714  11.625  0.5947 -1.0059 -0.1535
  776MPD2    H111506   0.126   1.803  11.354  2.6636 -0.2880 -1.0176
  776MPD2    H211507   0.142   1.425  11.553 -1.8698  1.7591  1.4465
  776MPD2    H311508   0.033   1.580  11.388 -1.4080 -1.9720  1.1890
  776MPD2     N11509   0.371   1.880  11.425  0.2959  0.6821  0.3876
  776MPD2    H511510   0.332   1.928  11.345  0.3518 -2.1359 -1.3515
  776MPD2    N111511   0.334   1.467  11.703 -0.0603 -0.5686 -0.2791
  776MPD2    H711512   0.293   1.373  11.703  0.1638 -0.6626  1.9627
  777MPD2     C11513   0.266   3.499   0.722 -0.9569 -0.6231 -0.1347
  777MPD2    C111514   0.285   3.383   0.799 -0.1308  0.5044  0.1914
  777MPD2    C211515   0.297   3.265   0.725  0.5549 -0.4224 -0.1925
  777MPD2    C311516   0.300   3.265   0.591  0.0887  0.3141 -0.2458
  777MPD2    C411517   0.275   3.387   0.521  0.0448  0.0699  0.7691
  777MPD2    C511518   0.258   3.498   0.589 -0.4759  0.8168  0.1306
  777MPD2     H11519   0.309   3.171   0.778  4.5883  0.1462 -0.0949
  777MPD2    H111520   0.267   3.389   0.413  3.6870  0.2951  0.5166
  777MPD2    H211521   0.278   3.598   0.764 -0.9765 -0.1696 -1.1837
  777MPD2    H311522   0.248   3.591   0.534 -2.0063 -0.5049 -1.8243
  777MPD2     N11523   0.288   3.138   0.521  0.0384 -0.2740 -0.3951
  777MPD2    H511524   0.274   3.050   0.570 -0.3994  0.2079  0.3353
  777MPD2    N111525   0.292   3.396   0.942  0.0254  0.0410 -0.3652
  777MPD2    H711526   0.280   3.487   0.986 -1.5766  0.8528 -2.5411
  778MPD2     C11527   1.914   4.090  15.010  0.0887 -0.4957 -0.3825
  778MPD2    C111528   1.895   4.003  14.904 -0.3741 -0.1509 -0.1913
  778MPD2    C211529   1.970   4.024  14.791  0.4602 -0.2630 -0.4866
  778MPD2    C311530   2.071   4.120  14.786  0.0793  0.1294 -0.8632
  778MPD2    C411531   2.083   4.201  14.895  0.2557 -0.1456 -0.3909
  778MPD2    C511532   2.007   4.187  15.005  0.2941  0.3903 -0.7754
  778MPD2     H11533   1.955   3.952  14.712  0.2731  0.4267 -1.0770
  778MPD2    H111534   2.161   4.277  14.894  0.7569 -0.6539  1.3355
  778MPD2    H211535   1.866   4.085  15.107  0.5577  1.7025 -0.0250
  778MPD2    H311536   2.027   4.250  15.091 -0.2013  0.8413 -0.9893
  778MPD2     N11537   2.150   4.136  14.673 -0.0886  0.7802  0.3519
  778MPD2    H511538   2.132   4.070  14.598 -0.7145 -1.5663  2.5571
  778MPD2    N111539   1.801   3.901  14.910  0.2111 -0.0210  0.4909
  778MPD2    H711540   1.796   3.852  14.821  0.4019  2.6132 -0.9721
  779MPD2     C11541   1.933   2.866  13.880 -0.1286  0.3253  0.4132
  779MPD2    C111542   1.981   2.876  14.011  0.0934 -0.2833 -0.2606
  779MPD2    C211543   2.002   3.000  14.060  0.2685  0.4675  0.0202
  779MPD2    C311544   1.970   3.113  13.988  0.1023 -0.2711  0.3593
  779MPD2    C411545   1.920   3.099  13.859 -0.2411  0.6945  0.0393
  779MPD2    C511546   1.897   2.978  13.806 -0.1029 -0.4131 -0.4029
  779MPD2     H11547   2.032   3.011  14.164  0.0447  1.9012 -0.0746
  779MPD2    H111548   1.897   3.178  13.788 -2.0293  0.8206  0.7609
  779MPD2    H211549   1.921   2.772  13.828 -2.8165  0.3275  1.0712
  779MPD2    H311550   1.866   2.968  13.702 -0.9808  1.6197 -0.3451
  779MPD2     N11551   1.987   3.232  14.053  0.4827  0.2456 -0.2867
  779MPD2    H511552   2.032   3.230  14.144  2.3952 -1.5919 -1.2824
  779MPD2    N111553   2.014   2.772  14.094  0.8593  0.3587 -0.4601
  779MPD2    H711554   2.030   2.804  14.189 -0.1424  1.3763 -0.6255
  780MPD2     C11555   0.875   2.427   1.296  0.2880  0.1191 -0.5731
  780MPD2    C111556   0.776   2.387   1.203 -0.7410  0.3712 -0.4220
  780MPD2    C211557   0.773   2.446   1.078  0.1177  0.5522 -0.1226
  780MPD2    C311558   0.873   2.535   1.043  0.1930  0.1301 -0.2180
  780MPD2    C411559   0.961   2.579   1.135  0.2677  0.3118 -0.7658
  780MPD2    C511560   0.968   2.528   1.262 -0.6647  0.9489 -0.5376
  780MPD2     H11561   0.708   2.416   0.996  0.4006 -0.1575 -0.0780
  780MPD2    H111562   1.034   2.658   1.122 -0.3581  1.0962  0.5632
  780MPD2    H211563   0.872   2.394   1.399 -0.1671  0.4127 -0.4914
  780MPD2    H311564   1.032   2.585   1.328 -0.1261  1.0623 -1.1557
  780MPD2     N11565   0.879   2.572   0.910 -0.0440 -0.0369 -0.3752
  780MPD2    H511566   0.809   2.533   0.848  1.2954 -0.3108 -1.7024
  780MPD2    N111567   0.672   2.299   1.243  0.1307  0.7471 -0.1887
  780MPD2    H711568   0.690   2.247   1.328  0.8214  1.1532 -0.0903
  781MPD2     C11569   3.735   4.403  11.920  0.4087 -0.2541 -0.0392
  781MPD2    C111570   3.728   4.541  11.943  0.3322 -0.4810  0.3207
  781MPD2    C211571   3.799   4.621  11.847  0.4863  0.4227  0.0236
  781MPD2    C311572   3.850   4.567  11.731 -1.0816  0.3830 -0.2489
  781MPD2    C411573   3.836   4.430  11.700  0.3430  0.4150 -0.5791
  781MPD2    C511574   3.776   4.352  11.796 -0.9446 -0.1581  0.4000
  781MPD2     H11575   3.793   4.729  11.860  0.9284  0.5624 -0.9433
  781MPD2    H111576   3.870   4.385  11.608 -2.6837 -0.4375 -1.2826
  781MPD2    H211577   3.694   4.326  11.984  1.7154 -0.9006  0.0270
  781MPD2    H311578   3.763   4.247  11.775  0.5266 -0.0403 -1.2208
  781MPD2     N11579   3.900   4.647  11.626  0.5937  0.0962 -0.3673
  781MPD2    H511580   3.921   4.599  11.540  0.2405 -0.4659 -0.1398
  781MPD2    N111581   3.681   4.593  12.066  0.7425  0.5758 -0.0077
  781MPD2    H711582   3.675   4.693  12.077  0.0879  0.4145  1.1738
  782MPD2     C11583   1.419   1.186  10.835 -0.2923  0.2005 -0.2942
  782MPD2    C111584   1.528   1.202  10.762 -0.0034 -0.3457 -0.1643
  782MPD2    C211585   1.640   1.132  10.796  0.9062 -0.4582 -0.3116
  782MPD2    C311586   1.643   1.040  10.900 -0.4201  0.2070 -0.2451
  782MPD2    C411587   1.525   1.023  10.960 -0.3372 -0.0579  0.0948
  782MPD2    C511588   1.412   1.091  10.930  0.2937  0.2627  0.5579
  782MPD2     H11589   1.730   1.149  10.739  0.6339 -1.4730 -1.0390
  782MPD2    H111590   1.505   0.942  11.030 -0.3350 -1.4901 -1.5579
  782MPD2    H211591   1.330   1.248  10.827  1.4537  2.9955  2.1725
  782MPD2    H311592   1.325   1.069  10.990 -0.0491  2.8123  0.9948
  782MPD2     N11593   1.766   0.969  10.924 -0.4475 -0.7343 -0.1283
  782MPD2    H511594   1.853   1.005  10.885 -0.2602 -0.2138  0.7623
  782MPD2    N111595   1.518   1.290  10.654 -0.2344 -0.0391  0.5826
  782MPD2    H711596   1.426   1.325  10.628 -0.0429  0.3274  0.3980
  783MPD2     C11597   1.154   0.661  10.592  0.1863 -0.3263 -0.3173
  783MPD2    C111598   1.183   0.761  10.680  1.4446 -0.2880 -0.2885
  783MPD2    C211599   1.232   0.887  10.631 -0.7263  0.4230 -0.0284
  783MPD2    C311600   1.245   0.910  10.494  0.2863  0.8100 -0.0814
  783MPD2    C411601   1.207   0.808  10.408 -0.3952 -0.3965 -0.0455
  783MPD2    C511602   1.166   0.687  10.460  0.4465  0.1175 -0.6170
  783MPD2     H11603   1.248   0.977  10.688 -0.5349 -1.0983  2.3372
  783MPD2    H111604   1.220   0.801  10.300  2.6196  1.3072  0.2083
  783MPD2    H211605   1.111   0.566  10.622  1.2941 -0.3317  1.2433
  783MPD2    H311606   1.138   0.609  10.391  1.6630  0.0317 -1.0177
  783MPD2     N11607   1.289   1.038  10.455 -0.3091 -0.3901  0.0531
  783MPD2    H511608   1.335   1.094  10.527 -0.3732 -0.3142  0.0354
  783MPD2    N111609   1.138   0.731  10.812 -0.0446 -0.0939 -0.3901
  783MPD2    H711610   1.117   0.633  10.828  1.1727 -0.4102 -0.7650
  784MPD2     C11611   3.549   0.635   0.786  0.4621  0.2675 -0.5375
  784MPD2    C111612   3.518   0.771   0.794 -0.0161 -0.5167 -0.1816
  784MPD2    C211613   3.401   0.823   0.731  0.3705 -0.1606 -0.0682
  784MPD2    C311614   3.321   0.734   0.661  0.3226  0.6386 -0.5946
  784MPD2    C411615   3.342   0.596   0.662  0.4400  0.3513 -0.4617
  784MPD2    C511616   3.458   0.550   0.726  0.0711  0.3899  0.6562
  784MPD2     H11617   3.383   0.930   0.725  0.0285 -0.1793  0.5588
  784MPD2    H111618   3.267   0.529   0.622 -0.8630  0.0124  2.5369
  784MPD2    H211619   3.643   0.594   0.819  0.4574 -0.0027 -0.8545
  784MPD2    H311620   3.486   0.446   0.743  0.5227  0.0889 -1.9541
  784MPD2     N11621   3.210   0.781   0.601  0.5111 -0.0789 -0.3308
  784MPD2    H511622   3.133   0.716   0.588  0.2022  0.0516  0.7906
  784MPD2    N111623   3.612   0.863   0.854 -1.1105  0.3364 -0.4567
  784MPD2    H711624   3.586   0.961   0.850  0.4745  0.7514 -0.3577
  785MPD2     C11625   3.119   3.720  10.090 -0.4046  0.3467 -0.4745
  785MPD2    C111626   3.054   3.821  10.160 -0.3854 -0.7512  0.7093
  785MPD2    C211627   2.988   3.916  10.082  0.4161 -0.1671  0.2573
  785MPD2    C311628   2.987   3.910   9.941 -0.6934  0.5853 -0.2135
  785MPD2    C411629   3.044   3.803   9.874  0.5094  0.3940 -0.8782
  785MPD2    C511630   3.105   3.706   9.949 -0.1342  1.0288 -0.0885
  785MPD2     H11631   2.946   4.003  10.131  1.8059  0.7185 -0.1116
  785MPD2    H111632   3.049   3.796   9.766  0.3113 -1.0493 -0.7957
  785MPD2    H211633   3.171   3.639  10.140 -0.3205  0.3243 -0.5985
  785MPD2    H311634   3.135   3.616   9.896  3.3918  3.0745 -1.5660
  785MPD2     N11635   2.930   4.017   9.879 -0.4491  0.2208 -0.2645
  785MPD2    H511636   2.910   4.091   9.945 -0.0388  1.0633 -1.0945
  785MPD2    N111637   3.064   3.828  10.303  0.4727 -0.1044 -0.2975
  785MPD2    H711638   3.125   3.766  10.354 -0.5988 -2.3410 -1.7459
  786MPD2     C11639   2.669   2.257  14.449  0.1006  0.1580 -0.2370
  786MPD2    C111640   2.680   2.130  14.488  0.1301  0.5446 -0.0525
  786MPD2    C211641   2.779   2.098  14.577 -0.7480 -0.1978  0.0504
  786MPD2    C311642   2.857   2.196  14.644  0.8506 -0.4049 -0.3448
  786MPD2    C411643   2.837   2.329  14.612  0.2731  0.7286  0.1001
  786MPD2    C511644   2.742   2.353  14.517 -0.4604  0.1430  0.3003
  786MPD2     H11645   2.806   1.995  14.594  1.8210  0.3882 -0.4369
  786MPD2    H111646   2.904   2.404  14.652 -0.9978  3.0057 -2.0393
  786MPD2    H211647   2.610   2.286  14.363 -1.3594  0.6095  0.9137
  786MPD2    H311648   2.727   2.451  14.474  0.8549  0.4791  0.6166
  786MPD2     N11649   2.944   2.168  14.753 -0.2250  0.2988 -0.4002
  786MPD2    H511650   2.969   2.254  14.801 -0.1963  0.4420 -0.6681
  786MPD2    N111651   2.617   2.022  14.430 -0.1520 -0.1953 -0.5428
  786MPD2    H711652   2.656   1.930  14.448  0.8900  0.5329  0.9575
  787MPD2     C11653   2.611   1.328  14.482 -0.5225 -0.8489  0.3853
  787MPD2    C111654   2.666   1.388  14.369  0.2601  0.2707 -0.6339
  787MPD2    C211655   2.799   1.352  14.336  0.5018  0.2217  0.0507
  787MPD2    C311656   2.873   1.261  14.407  0.8300  0.3581  0.1140
  787MPD2    C411657   2.818   1.205  14.520  0.1651  0.1168  0.1099
  787MPD2    C511658   2.692   1.241  14.553  0.5320 -0.0231 -0.9690
  787MPD2     H11659   2.837   1.400  14.247  2.2171 -1.5931 -0.2065
  787MPD2    H111660   2.864   1.123  14.574  1.2405 -0.7952 -2.1746
  787MPD2    H211661   2.512   1.350  14.520 -0.9596 -0.5835 -0.9008
  787MPD2    H311662   2.645   1.190  14.636  2.2671 -0.9191 -0.5277
  787MPD2     N11663   3.003   1.228  14.377 -0.2235  0.1659 -0.3778
  787MPD2    H511664   3.057   1.171  14.441  0.5527 -1.4390 -2.4700
  787MPD2    N111665   2.609   1.489  14.299  0.3177  0.0643 -0.9256
  787MPD2    H711666   2.660   1.515  14.216  2.5659 -0.0192  0.4131
  788MPD2     C11667   4.564   0.397   0.602  0.4616  0.4144  0.8951
  788MPD2    C111668   4.467   0.348   0.525  0.9462  0.3088 -0.1150
  788MPD2    C211669   4.387   0.428   0.450 -0.3473  0.5788 -0.0025
  788MPD2    C311670   4.400   0.560   0.462  0.1102  0.7693  0.0781
  788MPD2    C411671   4.490   0.611   0.544 -0.1200  0.6667  0.8564
  788MPD2    C511672   4.576   0.529   0.613  0.4294 -0.2642 -0.1535
  788MPD2     H11673   4.333   0.383   0.368  0.4906 -0.1623 -0.1579
  788MPD2    H111674   4.510   0.718   0.550  1.2988  0.3415  1.8055
  788MPD2    H211675   4.638   0.339   0.655 -0.4547 -0.6469  1.0286
  788MPD2    H311676   4.653   0.566   0.681 -0.1459 -0.4982  0.6273
  788MPD2     N11677   4.325   0.637   0.377 -0.4729 -0.4289  0.7424
  788MPD2    H511678   4.262   0.583   0.319 -1.2707  0.3493  0.8782
  788MPD2    N111679   4.456   0.204   0.498  0.3993 -0.5221  0.2789
  788MPD2    H711680   4.392   0.177   0.425  1.7511 -1.7365 -0.4521
  789MPD2     C11681   3.953   4.410  17.505  0.0869 -0.7849 -0.4066
  789MPD2    C111682   3.910   4.380  17.379 -0.2942  0.4333 -0.3258
  789MPD2    C211683   3.831   4.465  17.308  0.1856 -0.2191 -0.8983
  789MPD2    C311684   3.796   4.587  17.365 -0.0108 -0.1851 -0.0566
  789MPD2    C411685   3.845   4.618  17.491  0.6259  0.1802  0.0694
  789MPD2    C511686   3.909   4.519  17.565  1.0061  0.7832 -0.8050
  789MPD2     H11687   3.800   4.439  17.208 -0.5667  0.7035 -0.9051
  789MPD2    H111688   3.831   4.712  17.543  1.1843  0.6281 -0.5850
  789MPD2    H211689   4.007   4.337  17.564  0.5471  0.0953  0.2392
  789MPD2    H311690   3.933   4.543  17.668 -1.4744 -1.0756  0.1833
  789MPD2     N11691   3.714   4.680  17.302 -0.6434 -0.5324 -0.1182
  789MPD2    H511692   3.706   0.031  17.345 -1.6432 -1.9407  2.6984
  789MPD2    N111693   3.949   4.261  17.308  0.5016 -0.0023  1.5111
  789MPD2    H711694   3.925   4.253  17.209  1.1287 -0.9919  1.4411
  790MPD2     C11695   0.516   1.676  13.699 -0.8398  0.5246 -0.1628
  790MPD2    C111696   0.636   1.606  13.696 -0.1309  0.2853 -0.5692
  790MPD2    C211697   0.669   1.529  13.588  0.0155  0.1065  0.4736
  790MPD2    C311698   0.586   1.527  13.472  0.2398 -0.5200  0.0469
  790MPD2    C411699   0.469   1.593  13.483 -0.2724  0.1899  0.6361
  790MPD2    C511700   0.427   1.658  13.598 -0.6279 -0.0731 -0.5104
  790MPD2     H11701   0.771   1.491  13.589 -0.3525 -0.8505  0.9777
  790MPD2    H111702   0.392   1.581  13.408  0.6087 -1.2986 -0.0273
  790MPD2    H211703   0.495   1.743  13.782 -0.7741 -0.2990  0.5265
  790MPD2    H311704   0.335   1.716  13.599 -2.1033 -2.3954 -0.8716
  790MPD2     N11705   0.627   1.462  13.351  0.3680  0.0493  0.3195
  790MPD2    H511706   0.551   1.452  13.285  2.9147 -1.7437 -2.3616
  790MPD2    N111707   0.723   1.629  13.807  0.0111 -0.0313 -0.9587
  790MPD2    H711708   0.682   1.685  13.881 -0.0222  2.0050 -2.4862
  791MPD2     C11709   0.242   1.362  12.713 -0.2540 -0.7663 -0.2809
  791MPD2    C111710   0.287   1.276  12.809 -0.1027 -0.2704  0.1075
  791MPD2    C211711   0.204   1.169  12.852  0.1924  0.4219  0.5088
  791MPD2    C311712   0.084   1.145  12.791 -0.5174 -0.1171  0.6461
  791MPD2    C411713   0.043   1.241  12.698 -0.5348  0.0616 -0.1730
  791MPD2    C511714   0.119   1.346  12.659  0.1693 -0.1521  0.0124
  791MPD2     H11715   0.230   1.096  12.928 -0.8623  0.4398  0.8844
  791MPD2    H111716   4.696   1.217  12.639  0.7158 -1.6157 -1.3519
  791MPD2    H211717   0.303   1.443  12.674 -0.4766  0.6512  2.3620
  791MPD2    H311718   0.085   1.405  12.575 -1.1781  0.0415  0.7044
  791MPD2     N11719   0.008   1.028  12.814  0.2593  0.3445 -0.2741
  791MPD2    H511720   0.049   0.952  12.866  0.6254  0.9083  0.2592
  791MPD2    N111721   0.410   1.305  12.863 -0.6489 -0.1013 -0.2195
  791MPD2    H711722   0.462   1.383  12.825 -2.6149  0.4486 -1.7515
  792MPD2     C11723   1.338   1.607  11.331 -0.6326  0.0031  0.6930
  792MPD2    C111724   1.218   1.666  11.285  0.5487  0.1310  0.2924
  792MPD2    C211725   1.096   1.608  11.306  0.0173 -0.0208 -0.0438
  792MPD2    C311726   1.093   1.494  11.385 -1.3196 -0.0210  0.2869
  792MPD2    C411727   1.216   1.435  11.419 -1.2793  0.3288 -0.1472
  792MPD2    C511728   1.338   1.485  11.395  0.2404 -0.3995 -0.6129
  792MPD2     H11729   1.004   1.647  11.265 -0.2322 -0.2565  0.2882
  792MPD2    H111730   1.228   1.342  11.474 -1.1284  1.7103  2.1434
  792MPD2    H211731   1.429   1.664  11.318 -1.4415  0.8027 -1.5506
  792MPD2    H311732   1.431   1.437  11.425 -0.1396 -1.8370 -1.7554
  792MPD2     N11733   0.972   1.425  11.427 -0.2095  0.1839 -1.0090
  792MPD2    H511734   0.987   1.344  11.485 -0.7109  1.5803  1.0842
  792MPD2    N111735   1.237   1.789  11.217  0.2100  0.3812 -0.0234
  792MPD2    H711736   1.332   1.823  11.209  0.7950 -0.8010  1.7941
  793MPD2     C11737   0.476   1.846  10.935  0.4658  0.7844 -0.3836
  793MPD2    C111738   0.602   1.808  10.979  0.0706  0.4662 -1.1488
  793MPD2    C211739   0.618   1.734  11.095  0.0299 -0.0049 -0.7819
  793MPD2    C311740   0.512   1.677  11.148 -0.4041 -0.2363 -0.2269
  793MPD2    C411741   0.390   1.706  11.101 -0.4425  0.4824 -0.6263
  793MPD2    C511742   0.367   1.799  10.999  0.3855  0.4236 -0.9381
  793MPD2     H11743   0.719   1.710  11.128 -0.6842  0.0079  1.3997
  793MPD2    H111744   0.303   1.664  11.150  0.9114 -0.8187  0.6317
  793MPD2    H211745   0.455   1.903  10.845  1.4039  0.2921 -0.9074
  793MPD2    H311746   0.275   1.829  10.951  0.7115 -0.1598 -1.9129
  793MPD2     N11747   0.534   1.581  11.248  0.7771 -0.7824  0.3534
  793MPD2    H511748   0.624   1.568  11.294  1.4081  1.2051 -0.3330
  793MPD2    N111749   0.717   1.837  10.908 -0.0182  0.1961  0.5681
  793MPD2    H711750   0.807   1.802  10.941  0.9286  2.4216  0.3298
  794MPD2     C11751   0.027   0.588  17.568  0.5558 -0.1445  1.2369
  794MPD2    C111752   0.081   0.497  17.490  0.1672 -0.1481  0.1026
  794MPD2    C211753   0.128   0.527  17.362  0.2970  0.7787  0.1264
  794MPD2    C311754   0.129   0.658  17.319  0.7822 -0.5273  0.4193
  794MPD2    C411755   0.091   0.756  17.414  0.2727 -0.2868  0.0535
  794MPD2    C511756   0.041   0.718  17.531  0.2839  0.1278 -0.1996
  794MPD2     H11757   0.169   0.448  17.299 -0.2422  1.6999 -1.3580
  794MPD2    H111758   0.090   0.863  17.395 -0.0482 -0.1119  1.0926
  794MPD2    H211759   4.720   0.562  17.662  2.9486  0.6585  2.6627
  794MPD2    H311760   0.011   0.797  17.598  1.1967 -1.6012  2.2382
  794MPD2     N11761   0.170   0.705  17.197  0.3257 -0.6989 -0.2078
  794MPD2    H511762   0.182   0.806  17.198  0.5962 -0.7172 -1.6282
  794MPD2    N111763   0.087   0.359  17.529 -0.1962  0.2800  0.5063
  794MPD2    H711764   0.124   0.297  17.457 -1.5310  1.7298 -1.4295
  795MPD2     C11765   3.236   3.209  13.939  0.2914 -0.3548 -0.2531
  795MPD2    C111766   3.184   3.115  13.856 -0.0336  0.0374 -0.0584
  795MPD2    C211767   3.233   2.984  13.857  0.4886 -0.1715 -0.9579
  795MPD2    C311768   3.344   2.952  13.936  0.2237  0.0810  0.4842
  795MPD2    C411769   3.399   3.051  14.018 -0.3566  0.3668 -0.0165
  795MPD2    C511770   3.340   3.174  14.015  0.1639 -0.2411  0.1918
  795MPD2     H11771   3.190   2.915  13.784 -0.2732  0.9587 -1.5741
  795MPD2    H111772   3.481   3.027  14.086 -1.0116  0.5924  0.8595
  795MPD2    H211773   3.205   3.313  13.944 -2.2599 -1.1703  1.1196
  795MPD2    H311774   3.377   3.257  14.074 -0.2500  2.8289 -3.8633
  795MPD2     N11775   3.391   2.818  13.950  0.1771  0.1053 -0.5134
  795MPD2    H511776   3.330   2.747  13.912  0.9644 -1.4396  1.1040
  795MPD2    N111777   3.085   3.141  13.756  0.2535 -0.6288  0.3385
  795MPD2    H711778   3.049   3.067  13.698  0.9365 -0.9733  0.3564
  796MPD2     C11779   2.047   4.354  15.834 -0.0943  0.1463  0.7299
  796MPD2    C111780   2.146   4.379  15.927  0.0209 -0.7007  0.1074
  796MPD2    C211781   2.208   4.501  15.922  0.2343 -0.0377  0.8523
  796MPD2    C311782   2.172   4.595  15.828  0.0207  0.4526  0.4766
  796MPD2    C411783   2.091   4.562  15.725  0.3110  0.2378  0.0310
  796MPD2    C511784   2.026   4.440  15.728  0.5810  0.2460 -0.7197
  796MPD2     H11785   2.275   4.537  16.000  0.2040 -0.0377  0.8785
  796MPD2    H111786   2.079   4.632  15.642  0.7185 -0.1697 -0.3726
  796MPD2    H211787   1.992   4.261  15.842  0.8596 -0.4109  0.8103
  796MPD2    H311788   1.964   4.420  15.641  0.1207  2.3364 -0.8851
  796MPD2     N11789   2.234   4.721  15.844 -0.2619 -0.2499  0.3006
  796MPD2    H511790   2.282   4.734  15.933 -1.7136  0.1108  1.0277
  796MPD2    N111791   2.177   4.277  16.021 -0.0760  0.0198  0.0731
  796MPD2    H711792   2.113   4.198  16.014  0.9788 -0.7243 -1.0700
  797MPD2     C11793   2.908   3.831   0.038  0.1490 -0.6023  0.1058
  797MPD2    C111794   2.984   3.945   0.020 -0.4159 -0.5255 -0.2452
  797MPD2    C211795   2.944   4.028  17.680  0.0867  0.5006  0.8573
  797MPD2    C311796   2.849   3.998  17.587  0.5977 -0.1332  0.5389
  797MPD2    C411797   2.770   3.891  17.604  0.0020  0.2515 -0.5083
  797MPD2    C511798   2.804   3.806  17.711 -0.2620 -0.6308  0.0116
  797MPD2     H11799   3.012   4.109  17.654 -1.5273  2.0021  1.2653
  797MPD2    H111800   2.702   3.853  17.528 -2.2403  0.4736  1.4035
  797MPD2    H211801   2.922   3.762   0.120  1.3830  0.0182  0.4017
  797MPD2    H311802   2.761   3.707  17.720 -1.6129 -0.2462 -2.0206
  797MPD2     N11803   2.831   4.086  17.479 -0.0312 -0.4600  0.1653
  797MPD2    H511804   2.898   4.162  17.485 -1.4643  1.0259 -2.2689
  797MPD2    N111805   3.090   3.993   0.107  0.4144  0.0940 -0.2239
  797MPD2    H711806   3.110   4.092   0.099  0.5813 -0.0761 -1.8160
  798MPD2     C11807   3.409   4.468  17.429 -0.4446 -0.0526 -0.7429
  798MPD2    C111808   3.289   4.415  17.466 -0.6880 -0.2443  1.0147
  798MPD2    C211809   3.281   4.365  17.594 -0.3965  0.5609 -0.0526
  798MPD2    C311810   3.387   4.360  17.680  0.5617  0.3152 -0.3343
  798MPD2    C411811   3.504   4.420  17.651  0.3781 -1.1495  0.6839
  798MPD2    C511812   3.514   4.472  17.521  0.5777  0.3973 -0.2525
  798MPD2     H11813   3.184   4.333  17.630  0.8290 -2.1790  0.8242
  798MPD2    H111814   3.586   4.416  17.721  1.4480  2.0745 -0.3807
  798MPD2    H211815   3.431   4.494  17.326 -1.9442  0.2253 -0.9970
  798MPD2    H311816   3.614   4.498  17.489  0.2129 -0.5315 -2.1491
  798MPD2     N11817   3.367   4.293   0.042 -0.0009 -1.0415  0.9096
  798MPD2    H511818   3.269   4.266   0.051 -1.2615  2.5075 -1.9940
  798MPD2    N111819   3.184   4.394  17.367  0.5604 -0.4281  0.4088
  798MPD2    H711820   3.208   4.430  17.275  1.5020 -1.5974  0.1803
  799MPD2     C11821   2.562   1.221  14.917  0.2266  0.4740 -0.3303
  799MPD2    C111822   2.494   1.108  14.881 -0.1445  0.0203 -0.4456
  799MPD2    C211823   2.385   1.122  14.800 -0.0375  0.1203  0.4134
  799MPD2    C311824   2.349   1.249  14.752  0.3586 -0.7346 -0.3999
  799MPD2    C411825   2.426   1.355  14.804 -0.6348  0.1138 -0.0544
  799MPD2    C511826   2.526   1.347  14.891 -0.3552  0.2908  0.1641
  799MPD2     H11827   2.330   1.035  14.766  2.3725 -1.2036 -0.1347
  799MPD2    H111828   2.397   1.457  14.784  1.0101  1.3561  3.9864
  799MPD2    H211829   2.641   1.204  14.989  0.6274 -0.7059 -1.0489
  799MPD2    H311830   2.586   1.435  14.913  2.2005 -0.4677 -3.6597
  799MPD2     N11831   2.248   1.271  14.659 -0.8393 -0.0645 -0.1236
  799MPD2    H511832   2.230   1.367  14.629 -1.8659  0.3635  1.9016
  799MPD2    N111833   2.525   0.975  14.927 -0.4389  0.0568  0.3846
  799MPD2    H711834   2.467   0.903  14.885 -0.6299  1.0479 -1.0492
  800MPD2     C11835   2.590   2.465  14.124 -0.7101  0.1800 -0.2254
  800MPD2    C111836   2.689   2.367  14.124  0.7623  0.3432 -0.1644
  800MPD2    C211837   2.669   2.248  14.054  0.0360 -0.3257  0.1813
  800MPD2    C311838   2.567   2.221  13.970 -0.1473  0.5237 -0.4526
  800MPD2    C411839   2.466   2.312  13.981 -0.4086 -0.1213  0.5739
  800MPD2    C511840   2.472   2.432  14.054 -1.2184  0.1569  0.5847
  800MPD2     H11841   2.736   2.164  14.067  1.3509  1.0757  2.4973
  800MPD2    H111842   2.371   2.294  13.933  0.7179 -0.4603 -1.5194
  800MPD2    H211843   2.586   2.551  14.190  2.9282  0.1446  0.0552
  800MPD2    H311844   2.380   2.485  14.076 -0.6617  1.1406  0.5194
  800MPD2     N11845   2.583   2.111  13.880  0.6510  0.0870  0.1171
  800MPD2    H511846   2.674   2.067  13.881  0.3095 -0.6194 -1.8324
  800MPD2    N111847   2.802   2.401  14.198 -0.7990  0.3230  0.5102
  800MPD2    H711848   2.815   2.497  14.230 -1.9846  0.7997 -0.4551
  801MPD2     C11849   3.219   2.997  14.326 -0.6019 -0.3216 -0.2975
  801MPD2    C111850   3.230   2.897  14.419  0.8147 -1.0562 -0.2343
  801MPD2    C211851   3.239   2.937  14.547 -0.1527 -0.3623 -0.7060
  801MPD2    C311852   3.228   3.069  14.587  0.0313  0.0460 -0.1170
  801MPD2    C411853   3.236   3.171  14.489 -0.5236 -0.3375  1.1263
  801MPD2    C511854   3.230   3.132  14.359  0.2692  0.3953 -0.1605
  801MPD2     H11855   3.237   2.866  14.629  0.6406 -0.0634 -0.4276
  801MPD2    H111856   3.236   3.277  14.512  2.2438  0.0039 -0.4112
  801MPD2    H211857   3.214   2.979  14.219 -1.5017 -0.3078 -0.2598
  801MPD2    H311858   3.222   3.204  14.279  2.9989  0.2284 -0.5881
  801MPD2     N11859   3.197   3.101  14.724 -0.0547 -0.6643 -0.1494
  801MPD2    H511860   3.191   3.023  14.789 -2.3734 -0.7803 -0.4713
  801MPD2    N111861   3.224   2.757  14.401 -0.4458 -0.0547  0.4038
  801MPD2    H711862   3.249   2.696  14.478  0.6865  0.0981  0.1578
  802MPD2     C11863   2.026   3.639   0.652  0.0181 -0.9653 -0.0476
  802MPD2    C111864   1.986   3.510   0.643  0.6027 -0.4849 -0.0126
  802MPD2    C211865   2.011   3.440   0.524 -0.2569 -1.0201 -0.1340
  802MPD2    C311866   2.098   3.487   0.428 -0.3529  0.2351 -0.2393
  802MPD2    C411867   2.147   3.614   0.442 -0.1137 -0.1983  0.0788
  802MPD2    C511868   2.108   3.686   0.549 -1.6351  0.7398 -0.4540
  802MPD2     H11869   1.977   3.337   0.517  2.3106 -1.8004 -1.0655
  802MPD2    H111870   2.207   3.655   0.361 -0.6693 -0.6319 -0.5542
  802MPD2    H211871   1.991   3.700   0.735 -0.8158  1.3112 -2.0820
  802MPD2    H311872   2.132   3.791   0.558  0.7603  0.1514  0.2476
  802MPD2     N11873   2.136   3.400   0.324  0.2999 -0.0802 -0.1279
  802MPD2    H511874   2.080   3.316   0.318 -1.1649  0.8820  0.0415
  802MPD2    N111875   1.913   3.447   0.748  0.6182  0.3273  0.7331
  802MPD2    H711876   1.892   3.347   0.745  0.8770  0.2662  0.9492
  803MPD2     C11877   3.443   1.165  11.922 -0.1883 -0.1184 -0.3746
  803MPD2    C111878   3.506   1.263  11.998 -0.3448 -0.7396  0.2992
  803MPD2    C211879   3.536   1.229  12.134 -0.3588  0.0707  0.3842
  803MPD2    C311880   3.496   1.107  12.191  0.0665  0.1747 -0.1432
  803MPD2    C411881   3.431   1.018  12.107 -0.2782  1.0283 -0.0117
  803MPD2    C511882   3.392   1.054  11.985  0.2574  0.2300 -0.0066
  803MPD2     H11883   3.579   1.302  12.202  0.3783 -0.7403  0.7879
  803MPD2    H111884   3.388   0.923  12.138  2.9215  0.0866  1.5055
  803MPD2    H211885   3.431   1.172  11.814 -0.3610  0.4764 -0.3179
  803MPD2    H311886   3.328   0.987  11.928 -1.8063  1.1973  1.1898
  803MPD2     N11887   3.515   1.090  12.332 -0.0177  0.7361  0.1672
  803MPD2    H511888   3.547   1.170  12.384  2.2094  0.0776 -0.1770
  803MPD2    N111889   3.557   1.394  11.960  0.1419  0.1210  0.0476
  803MPD2    H711890   3.605   1.453  12.026 -2.8273  1.1169  1.3307
  804MPD2     C11891   2.097   2.480  17.273  0.0273  0.6348 -0.1393
  804MPD2    C111892   2.189   2.387  17.313 -0.4096  0.3105 -0.3842
  804MPD2    C211893   2.294   2.431  17.387 -0.0893 -0.0473 -0.1910
  804MPD2    C311894   2.306   2.560  17.436 -0.2300  0.3293  0.2467
  804MPD2    C411895   2.216   2.652  17.397 -0.3583  0.3696  0.3291
  804MPD2    C511896   2.114   2.614  17.314 -0.1296  0.5587  0.1564
  804MPD2     H11897   2.370   2.359  17.418  0.5321  0.0526 -1.4785
  804MPD2    H111898   2.234   2.757  17.417  1.2462  0.0624  0.4930
  804MPD2    H211899   2.012   2.455  17.209 -0.4948 -0.7102  1.0802
  804MPD2    H311900   2.048   2.694  17.282  0.2774  1.1299  0.7375
  804MPD2     N11901   2.413   2.590  17.523  0.2893 -0.4849  0.1668
  804MPD2    H511902   2.485   2.519  17.531  1.3376  0.2610 -2.4797
  804MPD2    N111903   2.175   2.252  17.286 -0.1631 -0.4888 -0.1620
  804MPD2    H711904   2.233   2.184  17.335  0.7353  1.0106  0.8428
  805MPD2     C11905   2.223   1.208  15.791 -0.0489 -0.0272  0.3420
  805MPD2    C111906   2.329   1.241  15.707 -0.4883  0.4850 -0.8378
  805MPD2    C211907   2.457   1.203  15.750 -0.1182 -1.0843  0.1191
  805MPD2    C311908   2.488   1.144  15.876 -0.6180  0.7062  0.9065
  805MPD2    C411909   2.380   1.127  15.960  1.0098  0.2072 -0.6861
  805MPD2    C511910   2.254   1.158  15.912  0.0755 -0.0504 -0.9127
  805MPD2     H11911   2.543   1.237  15.693 -0.1873  1.8178  1.7135
  805MPD2    H111912   2.397   1.102  16.064  0.1868  1.8404 -0.1533
  805MPD2    H211913   2.121   1.228  15.761 -0.0384 -0.6543 -0.1059
  805MPD2    H311914   2.170   1.149  15.980  0.1149  3.1592 -0.4299
  805MPD2     N11915   2.621   1.115  15.905  0.5833 -0.4253  0.9524
  805MPD2    H511916   2.696   1.153  15.848  1.4999 -0.7006  1.9825
  805MPD2    N111917   2.314   1.278  15.574 -0.3046  0.5090  0.6504
  805MPD2    H711918   2.390   1.288  15.507 -0.8814 -2.5061 -0.4716
  806MPD2     C11919   2.792   3.892   1.460 -0.4868  0.2584 -0.2443
  806MPD2    C111920   2.914   3.905   1.397  0.5128  0.1745 -0.0440
  806MPD2    C211921   2.944   4.026   1.335  0.0858  0.3260  0.1663
  806MPD2    C311922   2.850   4.126   1.332 -0.0757 -0.8080 -0.0298
  806MPD2    C411923   2.720   4.104   1.384 -0.1235 -0.0399  0.4197
  806MPD2    C511924   2.691   3.981   1.448 -0.8367 -0.2834  0.1206
  806MPD2     H11925   3.041   4.050   1.292  1.4296 -0.0394  3.0230
  806MPD2    H111926   2.641   4.178   1.393  1.1838  1.3641  0.2193
  806MPD2    H211927   2.770   3.792   1.495 -1.7556  1.4018  2.2258
  806MPD2    H311928   2.593   3.963   1.489 -0.3530  2.1439  2.3325
  806MPD2     N11929   2.889   4.247   1.276  1.1616  0.3801  0.2657
  806MPD2    H511930   2.986   4.263   1.253  0.4112  0.6192 -2.8034
  806MPD2    N111931   2.999   3.798   1.402 -0.4122 -0.0978  0.1706
  806MPD2    H711932   2.976   3.730   1.474 -0.0201 -0.4693 -0.0533
  807MPD2     C11933   3.178   3.325   1.910 -0.1344  0.6370 -0.2820
  807MPD2    C111934   3.080   3.397   1.840  0.4345 -0.9376  0.2691
  807MPD2    C211935   2.945   3.353   1.852  0.7203 -0.1219 -0.2313
  807MPD2    C311936   2.915   3.228   1.925  0.0146  0.5945 -0.5268
  807MPD2    C411937   3.018   3.167   1.997  0.3495  0.2886 -0.2784
  807MPD2    C511938   3.143   3.216   1.990  0.0012 -0.2635 -0.3032
  807MPD2     H11939   2.871   3.412   1.800  2.2181  1.0647 -1.0316
  807MPD2    H111940   3.004   3.066   2.035 -0.1442  1.2012  1.9345
  807MPD2    H211941   3.286   3.336   1.914 -0.2596  1.6611  0.0659
  807MPD2    H311942   3.227   3.164   2.034  0.0180 -0.9482 -1.1508
  807MPD2     N11943   2.776   3.184   1.922  0.0665  0.5515  0.2314
  807MPD2    H511944   2.714   3.239   1.864 -2.8834 -0.3614  2.5466
  807MPD2    N111945   3.106   3.503   1.758  0.3759  0.5415 -0.3266
  807MPD2    H711946   3.025   3.521   1.699  0.6053 -2.0663 -1.4520
  808MPD2     C11947   2.671   2.615   9.501 -0.3069  0.5873  0.4899
  808MPD2    C111948   2.733   2.503   9.551  0.7110  0.5244  0.1357
  808MPD2    C211949   2.870   2.511   9.578 -0.4744  0.0389  0.7870
  808MPD2    C311950   2.935   2.639   9.572 -0.9059  0.4216 -0.5776
  808MPD2    C411951   2.860   2.746   9.534  0.2394  0.4338  0.0116
  808MPD2    C511952   2.733   2.733   9.495  0.4264  0.6379 -0.3861
  808MPD2     H11953   2.920   2.419   9.607  1.3702  0.5955 -0.6428
  808MPD2    H111954   2.903   2.845   9.541 -1.2508  1.2524 -2.7283
  808MPD2    H211955   2.568   2.613   9.466  0.3756  3.2337 -1.6868
  808MPD2    H311956   2.681   2.816   9.448 -1.8639 -1.0013 -0.7379
  808MPD2     N11957   3.073   2.661   9.588  0.5662  0.0058  0.2425
  808MPD2    H511958   3.105   2.757   9.590  2.5952 -0.7061  1.4245
  808MPD2    N111959   2.674   2.373   9.547  0.2491 -0.5359  0.7562
  808MPD2    H711960   2.732   2.290   9.558 -0.9935 -1.4111  0.7275
  809MPD2     C11961   3.940   2.105   9.440 -0.2151  0.4336 -0.1582
  809MPD2    C111962   3.978   2.228   9.490  0.2741  0.1465 -0.3187
  809MPD2    C211963   3.878   2.323   9.517  0.0693  0.2399  0.3797
  809MPD2    C311964   3.745   2.285   9.508  0.6098  0.0036 -0.8610
  809MPD2    C411965   3.705   2.157   9.475  0.0284  0.4133 -1.0374
  809MPD2    C511966   3.811   2.072   9.429 -0.1842 -0.5625 -0.0444
  809MPD2     H11967   3.909   2.425   9.540  0.9021  0.3205 -1.0459
  809MPD2    H111968   3.603   2.125   9.458 -0.2225 -0.0711  1.2946
  809MPD2    H211969   4.016   2.040   9.398  0.5312 -0.6493  2.8582
  809MPD2    H311970   3.775   1.980   9.386 -1.0893 -0.4698  0.4964
  809MPD2     N11971   3.635   2.367   9.550  0.4236  0.3476 -0.1707
  809MPD2    H511972   3.548   2.316   9.555  0.2525  0.7580  0.9561
  809MPD2    N111973   4.109   2.266   9.510 -0.1750 -0.7767 -0.6706
  809MPD2    H711974   4.125   2.366   9.505 -0.6809 -0.6168  0.7399
  810MPD2     C11975   2.974   2.027  10.755 -0.1809 -0.6060  0.5035
  810MPD2    C111976   2.890   2.014  10.646  0.1333  0.8632  0.4636
  810MPD2    C211977   2.833   2.130  10.590  0.6070 -0.4759  0.1543
  810MPD2    C311978   2.860   2.259  10.633 -0.4525  0.4382 -0.3104
  810MPD2    C411979   2.942   2.262  10.749  0.2241 -0.5858 -0.0940
  810MPD2    C511980   2.994   2.153  10.808 -0.7715  0.5010 -0.0620
  810MPD2     H11981   2.780   2.107  10.498  0.3151  0.1801  0.1603
  810MPD2    H111982   2.970   2.363  10.775 -1.9129 -0.5737  2.1619
  810MPD2    H211983   3.030   1.943  10.796 -0.6178 -1.7664 -1.2688
  810MPD2    H311984   3.061   2.166  10.893 -2.1238  2.0898  0.7632
  810MPD2     N11985   2.813   2.374  10.561 -0.8810  0.3257  0.0667
  810MPD2    H511986   2.849   2.463  10.592 -0.4810 -0.6726  2.4096
  810MPD2    N111987   2.864   1.891  10.587  1.2445 -0.2198 -0.4629
  810MPD2    H711988   2.802   1.891  10.507  1.2409 -0.2467 -0.4602
  811MPD2     C11989   2.369   1.568  10.045  0.4934 -0.2772 -0.4065
  811MPD2    C111990   2.470   1.647  10.091  0.3897 -0.1739 -0.1851
  811MPD2    C211991   2.469   1.783  10.051  0.5966 -0.6568  0.4205
  811MPD2    C311992   2.367   1.844   9.979 -0.1581  0.5946  0.6439
  811MPD2    C411993   2.274   1.757   9.932  0.4953  0.8727  0.5704
  811MPD2    C511994   2.280   1.622   9.963 -0.2353  0.3999 -0.0327
  811MPD2     H11995   2.550   1.847  10.083 -0.2317 -0.4097  2.0549
  811MPD2    H111996   2.185   1.794   9.883  1.0607  0.3790 -0.8230
  811MPD2    H211997   2.362   1.462  10.070 -0.2949 -0.2681 -0.5874
  811MPD2    H311998   2.206   1.549   9.931  0.6335  0.1595 -1.4845
  811MPD2     N11999   2.370   1.982   9.963  0.4752  0.3273 -0.1698
  811MPD2    H512000   2.444   2.033  10.009  1.0076 -0.0708 -0.5946
  811MPD2    N112001   2.558   1.593  10.186 -0.2379  0.9055 -0.0539
  811MPD2    H712002   2.547   1.497  10.219 -1.2406  0.3787 -1.9272
  812MPD2     C12003   0.831   1.561  12.111 -0.4593  0.2099 -0.2593
  812MPD2    C112004   0.964   1.591  12.143 -0.1101 -0.0919 -0.6963
  812MPD2    C212005   1.019   1.509  12.238  0.7091  0.1040  0.4240
  812MPD2    C312006   0.946   1.420  12.323  1.1699  0.0284  0.4722
  812MPD2    C412007   0.811   1.396  12.286  0.3418 -0.0244  0.1078
  812MPD2    C512008   0.761   1.468  12.188 -0.0656 -0.0573  0.2156
  812MPD2     H12009   1.117   1.545  12.269  1.5086 -3.6448  2.2187
  812MPD2    H112010   0.746   1.329  12.341  0.3527 -0.7592 -0.7712
  812MPD2    H212011   0.778   1.614  12.033  0.7085 -0.2410 -1.3615
  812MPD2    H312012   0.658   1.448  12.162  0.0400  0.6707 -0.7806
  812MPD2     N12013   1.011   1.360  12.434  0.1629  0.4537  0.1815
  812MPD2    H512014   1.103   1.396  12.456 -0.1187  2.5465 -2.1552
  812MPD2    N112015   1.026   1.700  12.079  0.3322 -0.0988  0.0740
  812MPD2    H712016   0.972   1.761  12.018 -0.9714 -1.3440 -0.0122
  813MPD2     C12017   0.756   2.702  12.863 -0.4617 -0.0358  0.9377
  813MPD2    C112018   0.733   2.834  12.892  0.7541 -0.5327  0.2502
  813MPD2    C212019   0.615   2.869  12.954 -0.8249 -0.4170  0.0034
  813MPD2    C312020   0.532   2.766  12.991 -0.7499 -0.0652 -0.3695
  813MPD2    C412021   0.571   2.637  12.990  0.6564 -0.4937  0.0146
  813MPD2    C512022   0.687   2.606  12.924  0.4416  0.1707  0.0452
  813MPD2     H12023   0.588   2.973  12.962  0.4935 -0.2941  2.7066
  813MPD2    H112024   0.504   2.563  13.032 -1.1453 -0.0568 -2.1371
  813MPD2    H212025   0.842   2.666  12.808 -1.8419  0.8879 -1.8566
  813MPD2    H312026   0.722   2.503  12.915 -0.3165 -0.2005  1.3530
  813MPD2     N12027   0.398   2.805  13.027  0.1546  0.0567  0.1956
  813MPD2    H512028   0.377   2.904  13.024 -0.4489 -0.1090 -0.8482
  813MPD2    N112029   0.813   2.940  12.843 -0.2075  0.2060 -0.2166
  813MPD2    H712030   0.772   3.032  12.858  0.4815  0.5432 -0.4347
  814MPD2     C12031   0.970   4.148  12.240  0.2956  0.2417  0.0966
  814MPD2    C112032   1.063   4.229  12.174 -0.0824 -0.2841 -0.0642
  814MPD2    C212033   1.147   4.308  12.245 -0.5641  0.7593  0.4180
  814MPD2    C312034   1.140   4.315  12.386  0.1717 -0.4524 -0.6260
  814MPD2    C412035   1.049   4.234  12.447 -0.4300  0.0500 -0.1981
  814MPD2    C512036   0.965   4.153  12.377 -0.1880  0.3306 -0.5387
  814MPD2     H12037   1.225   4.365  12.196  0.4230 -0.0470  1.0459
  814MPD2    H112038   1.029   4.240  12.553 -1.4796 -0.0688 -0.3874
  814MPD2    H212039   0.893   4.086  12.196  0.1817  1.1234 -0.9531
  814MPD2    H312040   0.881   4.107  12.429  1.2120  1.2371  2.4917
  814MPD2     N12041   1.227   4.391  12.469 -0.1687  0.7287  0.1812
  814MPD2    H512042   1.216   4.375  12.569 -1.7647 -0.3034 -0.1603
  814MPD2    N112043   1.073   4.236  12.034 -0.6942 -0.1246 -0.2622
  814MPD2    H712044   1.126   4.316  11.999  1.0079 -1.5160 -0.8280
  815MPD2     C12045   1.514   3.344  11.595  0.2181  0.3445 -0.6576
  815MPD2    C112046   1.525   3.212  11.591  0.1455  0.1001 -0.4087
  815MPD2    C212047   1.449   3.128  11.672 -0.2344  1.0131 -0.2567
  815MPD2    C312048   1.346   3.190  11.748 -0.4273  0.2998  0.0581
  815MPD2    C412049   1.327   3.329  11.741  0.3070  0.1237  0.0038
  815MPD2    C512050   1.413   3.408  11.669  0.2116 -1.0322 -0.2734
  815MPD2     H12051   1.472   3.023  11.669 -1.0279  0.8534 -0.8393
  815MPD2    H112052   1.245   3.374  11.795 -0.1302 -0.2724 -0.3302
  815MPD2    H212053   1.579   3.399  11.527 -0.1154  0.6480 -0.7301
  815MPD2    H312054   1.404   3.516  11.666  0.5249 -1.0316 -1.4257
  815MPD2     N12055   1.262   3.109  11.822  0.6880  0.2977 -0.5082
  815MPD2    H512056   1.282   3.010  11.817 -0.4676  0.0101  0.6561
  815MPD2    N112057   1.626   3.169  11.499 -0.6077  0.7299  0.1515
  815MPD2    H712058   1.687   3.238  11.456 -1.9430  2.4639  1.0096
  816MPD2     C12059   1.260   1.852  17.092  0.0565 -0.5139 -0.0998
  816MPD2    C112060   1.273   1.913  16.971  0.0604 -0.6634  0.1404
  816MPD2    C212061   1.380   1.881  16.885  0.3261  0.3076  0.2866
  816MPD2    C312062   1.445   1.764  16.908 -0.3798  0.1098  0.4556
  816MPD2    C412063   1.417   1.684  17.014 -0.2211  0.4980  0.0914
  816MPD2    C512064   1.328   1.739  17.106  0.7796  0.0560 -0.5516
  816MPD2     H12065   1.400   1.947  16.801 -1.4871  0.2823 -0.1623
  816MPD2    H112066   1.465   1.588  17.030  0.8748  1.7301  4.2278
  816MPD2    H212067   1.187   1.878  17.168  0.3398 -0.8201  0.2742
  816MPD2    H312068   1.312   1.680  17.196  0.0970  1.4220  0.2267
  816MPD2     N12069   1.542   1.722  16.810  0.7066  0.0848 -0.2627
  816MPD2    H512070   1.568   1.798  16.748  0.3556  1.6024  1.4475
  816MPD2    N112071   1.184   2.023  16.951 -0.6004 -0.3600 -0.0255
  816MPD2    H712072   1.140   2.058  17.035  0.9891  3.1839 -0.6773
  817MPD2     C12073   1.752   4.674  10.118 -0.3141 -0.2384  0.0598
  817MPD2    C112074   1.851   4.700  10.028  1.0205  0.6398  0.3100
  817MPD2    C212075   1.854   0.087   9.965 -0.8422 -0.2897 -0.1007
  817MPD2    C312076   1.776   0.191  10.009 -0.9855 -0.2771 -0.0665
  817MPD2    C412077   1.677   0.165  10.099  0.4435 -0.0839  0.3878
  817MPD2    C512078   1.665   0.037  10.151 -0.0854  1.0155  0.0588
  817MPD2     H12079   1.934   0.104   9.894  0.0025 -0.9386  0.6895
  817MPD2    H112080   1.611   0.233  10.151 -2.4227 -0.5878 -2.5614
  817MPD2    H212081   1.756   4.580  10.172  0.9330 -2.6639 -4.2858
  817MPD2    H312082   1.593   0.028  10.232  1.6294 -0.8114  1.3787
  817MPD2     N12083   1.791   0.314   9.950 -0.0224  0.0470 -0.0759
  817MPD2    H512084   1.864   0.326   9.880 -0.0510 -1.1930 -0.3170
  817MPD2    N112085   1.952   4.609   9.985 -0.3796  0.2958 -0.1625
  817MPD2    H712086   2.022   4.636   9.917  3.9196 -2.4402  3.1355
  818MPD2     C12087   0.447   4.699   9.937  0.0012  0.0166 -0.2826
  818MPD2    C112088   0.381   4.573   9.929 -0.2664 -0.0490 -0.2945
  818MPD2    C212089   0.424   4.487   9.826  0.2579 -0.1121  0.2456
  818MPD2    C312090   0.532   4.523   9.747  0.5247  0.0455  0.2558
  818MPD2    C412091   0.603   4.637   9.771 -0.0425  0.2225  0.3411
  818MPD2    C512092   0.560   4.733   9.861 -0.1731 -0.7277 -0.6426
  818MPD2     H12093   0.372   4.392   9.819 -2.3591  1.5510 -3.1052
  818MPD2    H112094   0.690   4.664   9.712  0.6004 -0.4198  0.9887
  818MPD2    H212095   0.414   0.039  10.003 -2.1615  1.5140 -3.1766
  818MPD2    H312096   0.600   0.093   9.871 -1.2477 -0.5563  2.0508
  818MPD2     N12097   0.564   4.433   9.639 -0.5556  0.2723  0.1905
  818MPD2    H512098   0.659   4.441   9.604 -0.7558 -2.9379 -1.0722
  818MPD2    N112099   0.273   4.524  10.012 -0.6175  0.4032 -0.2378
  818MPD2    H712100   0.255   4.425  10.001 -1.6900  0.3595  2.1041
  819MPD2     C12101   2.815   0.710  15.710 -1.1092 -0.2614 -0.1800
  819MPD2    C112102   2.789   0.575  15.702  0.1432 -0.2260  0.1873
  819MPD2    C212103   2.873   0.488  15.772 -1.0662 -0.2547 -0.0546
  819MPD2    C312104   2.986   0.533  15.843 -0.1579  0.4786  0.1693
  819MPD2    C412105   3.001   0.675  15.843 -0.4542 -0.3949  0.5328
  819MPD2    C512106   2.916   0.762  15.783  0.1383  0.1700  0.0727
  819MPD2     H12107   2.858   0.380  15.775 -0.8514 -0.3147 -1.1175
  819MPD2    H112108   3.083   0.715  15.903 -1.0463  2.4011 -0.5295
  819MPD2    H212109   2.753   0.785  15.661 -0.9253 -1.0405 -1.5782
  819MPD2    H312110   2.932   0.869  15.783 -0.9357  0.3259  0.6405
  819MPD2     N12111   3.065   0.442  15.906  0.9480  0.3299 -0.1940
  819MPD2    H512112   3.027   0.348  15.903 -1.2611  1.3230 -2.2429
  819MPD2    N112113   2.671   0.535  15.637 -0.0583  0.1865  0.4691
  819MPD2    H712114   2.613   0.599  15.585  0.5721  2.6521  2.8087
  820MPD2     C12115   2.121   0.848  14.921  0.1137 -0.4820  0.6552
  820MPD2    C112116   2.198   0.886  15.018  0.4381  0.7003  0.1429
  820MPD2    C212117   2.247   0.789  15.100  0.4489 -0.6510 -0.1849
  820MPD2    C312118   2.224   0.659  15.075  0.6342 -0.3553  0.4119
  820MPD2    C412119   2.147   0.616  14.967 -0.3076 -1.1902  0.1099
  820MPD2    C512120   2.112   0.713  14.880  1.0479 -0.8049  0.2536
  820MPD2     H12121   2.306   0.814  15.188 -0.3038 -0.6619  0.3245
  820MPD2    H112122   2.134   0.514  14.935  1.0425 -1.3065 -0.0683
  820MPD2    H212123   2.064   0.914  14.856 -1.6083 -1.4239  1.2302
  820MPD2    H312124   2.049   0.674  14.800  1.1248 -3.2943  1.4080
  820MPD2     N12125   2.277   0.555  15.155 -0.0469 -0.2460 -0.8358
  820MPD2    H512126   2.235   0.463  15.142  0.9274 -0.8389  0.2315
  820MPD2    N112127   2.201   1.022  15.049 -0.8254  0.0212  0.6622
  820MPD2    H712128   2.136   1.081  14.998 -1.5628 -1.5658 -0.2447
  821MPD2     C12129   2.970   2.264  13.215 -0.6829  0.6755  0.1721
  821MPD2    C112130   3.029   2.168  13.300  0.2036 -0.1365 -0.6743
  821MPD2    C212131   3.166   2.142  13.287 -0.3507  0.1889  0.5842
  821MPD2    C312132   3.246   2.197  13.189  0.7103  0.5262  0.1893
  821MPD2    C412133   3.188   2.290  13.110  0.1658 -0.2634 -0.8716
  821MPD2    C512134   3.053   2.332  13.127 -0.1802 -0.0116  0.4194
  821MPD2     H12135   3.199   2.061  13.351 -2.2190 -1.1390 -0.1067
  821MPD2    H112136   3.234   2.333  13.022  2.5950 -1.7367 -0.2970
  821MPD2    H212137   2.871   2.304  13.231 -0.5051  0.0990  2.7424
  821MPD2    H312138   3.005   2.409  13.067  0.7279  1.0263  1.0082
  821MPD2     N12139   3.381   2.155  13.170  0.3280 -0.7176 -0.3204
  821MPD2    H512140   3.429   2.194  13.089  0.4005  1.5119  0.8011
  821MPD2    N112141   2.956   2.106  13.401 -0.5452 -0.1234  0.3373
  821MPD2    H712142   3.016   2.063  13.471  1.4349  2.8956  0.4867
  822MPD2     C12143   3.327   2.048  15.732 -0.1796  0.4952  0.1319
  822MPD2    C112144   3.332   2.020  15.871  0.0301 -0.2457  0.5277
  822MPD2    C212145   3.250   2.093  15.956  1.0378 -0.1698  0.9077
  822MPD2    C312146   3.155   2.186  15.908 -0.7716 -0.4640  0.0980
  822MPD2    C412147   3.159   2.215  15.774  0.0584  0.2531  0.1267
  822MPD2    C512148   3.242   2.151  15.688 -0.1569  0.9704  0.0055
  822MPD2     H12149   3.260   2.082  16.064 -1.8170  1.0365  1.3099
  822MPD2    H112150   3.089   2.289  15.738 -0.3686 -1.0824 -1.7913
  822MPD2    H212151   3.379   2.001  15.649  0.6710 -1.1227  1.5763
  822MPD2    H312152   3.247   2.171  15.581  1.0537  1.4217  0.1521
  822MPD2     N12153   3.082   2.257  16.003  0.2792 -0.4846 -0.0468
  822MPD2    H512154   3.066   2.210  16.092 -0.3224  3.4026  1.9367
  822MPD2    N112155   3.404   1.910  15.919  0.3366  0.7257 -0.5663
  822MPD2    H712156   3.401   1.881  16.016 -1.5645 -2.3137 -1.5551
  823MPD2     C12157   2.482   2.469  16.597 -0.1519  0.5588  0.2464
  823MPD2    C112158   2.575   2.394  16.531 -0.1078  0.3558 -0.2292
  823MPD2    C212159   2.634   2.286  16.588 -0.3727 -0.3102  0.3241
  823MPD2    C312160   2.583   2.246  16.711 -0.0909  0.1884  0.2009
  823MPD2    C412161   2.474   2.319  16.769  0.0874 -0.0053  0.2072
  823MPD2    C512162   2.428   2.427  16.707 -0.3841 -0.2179  0.0488
  823MPD2     H12163   2.726   2.238  16.555 -1.0847 -0.2183 -1.7978
  823MPD2    H112164   2.432   2.292  16.865 -0.5944  1.0697  0.2013
  823MPD2    H212165   2.444   2.563  16.558 -0.1140  0.8690  0.9466
  823MPD2    H312166   2.351   2.490  16.752  0.0284 -0.6561  1.3723
  823MPD2     N12167   2.629   2.134  16.785  0.0829 -0.3448  0.2457
  823MPD2    H512168   2.568   2.113  16.864 -0.6653  1.6435  0.1990
  823MPD2    N112169   2.623   2.441  16.409 -0.2241 -0.0398 -0.4354
  823MPD2    H712170   2.580   2.525  16.371 -0.2781  0.5780  0.9876
  824MPD2     C12171   3.770   1.180  15.742  0.3678  0.7546 -0.4346
  824MPD2    C112172   3.728   1.192  15.872  0.3951 -0.3252 -0.1581
  824MPD2    C212173   3.762   1.087  15.958  0.5216 -0.0183 -0.0226
  824MPD2    C312174   3.829   0.974  15.915  0.0311 -0.1152 -0.2235
  824MPD2    C412175   3.872   0.972  15.786 -0.0435 -0.2617 -0.0112
  824MPD2    C512176   3.851   1.080  15.700 -0.2334 -0.9144  0.0453
  824MPD2     H12177   3.723   1.083  16.059 -1.5189 -0.9579 -0.8286
  824MPD2    H112178   3.929   0.891  15.741 -0.7803 -0.1305 -1.1929
  824MPD2    H212179   3.750   1.262  15.674 -1.5213 -0.2786 -1.1134
  824MPD2    H312180   3.898   1.086  15.603  0.5363 -0.8880  0.4248
  824MPD2     N12181   3.859   0.872  16.010  0.1585  0.5451 -0.1567
  824MPD2    H512182   3.811   0.880  16.099 -1.2438 -0.0183 -0.8518
  824MPD2    N112183   3.652   1.293  15.930  0.8994 -0.1587 -0.2067
  824MPD2    H712184   3.646   1.295  16.031 -0.3863 -1.4893 -0.2574
  825MPD2     C12185   4.148   1.187  16.497 -0.5768 -0.1801  0.0104
  825MPD2    C112186   4.168   1.149  16.360 -0.4686 -0.5465  0.1154
  825MPD2    C212187   4.205   1.250  16.269 -0.9670 -0.4517  0.9576
  825MPD2    C312188   4.205   1.381  16.312  0.8229  0.0405  0.2196
  825MPD2    C412189   4.205   1.416  16.441 -0.3201  0.0826  0.0386
  825MPD2    C512190   4.170   1.320  16.531 -0.2495  0.7834 -0.3636
  825MPD2     H12191   4.218   1.233  16.162 -0.8007 -1.3711  1.1206
  825MPD2    H112192   4.216   1.518  16.476  0.4913 -0.7686  2.2372
  825MPD2    H212193   4.116   1.115  16.572 -1.2611 -0.3458 -0.4439
  825MPD2    H312194   4.163   1.360  16.632  0.5649 -1.4720  0.5775
  825MPD2     N12195   4.205   1.496  16.224 -0.3625 -0.1555 -0.9517
  825MPD2    H512196   4.185   1.587  16.266  0.8701  0.3845 -1.5304
  825MPD2    N112197   4.149   1.017  16.309 -0.1707 -0.8350 -0.6366
  825MPD2    H712198   4.135   1.003  16.210  3.8685 -1.0604 -1.1673
  826MPD2     C12199   4.318   0.684  13.545  0.4459 -0.0176 -0.4224
  826MPD2    C112200   4.349   0.763  13.654  0.3388 -0.5813 -0.7876
  826MPD2    C212201   4.245   0.830  13.710 -0.0537 -0.2102 -0.5765
  826MPD2    C312202   4.116   0.826  13.653 -0.3486 -0.1882 -0.4587
  826MPD2    C412203   4.091   0.758  13.538 -0.0314 -0.1111 -0.0486
  826MPD2    C512204   4.198   0.685  13.494  0.1347  0.6290 -0.5027
  826MPD2     H12205   4.268   0.875  13.806  1.8917 -0.8504 -0.7462
  826MPD2    H112206   3.997   0.752  13.485 -0.3355  3.1500  0.1295
  826MPD2    H212207   4.389   0.623  13.492  0.2465 -0.4347 -0.2081
  826MPD2    H312208   4.176   0.615  13.414  2.2538 -0.5829 -0.0215
  826MPD2     N12209   4.003   0.905  13.702 -0.1712 -0.0998  0.0760
  826MPD2    H512210   3.919   0.916  13.646  0.0541  2.6101  0.2256
  826MPD2    N112211   4.482   0.767  13.698  0.1835 -0.0489 -0.2651
  826MPD2    H712212   4.535   0.709  13.634  1.1557 -0.7618  1.1830
  827MPD2     C12213   1.039   3.147   9.709 -0.5811 -0.2237 -0.2723
  827MPD2    C112214   0.956   3.051   9.765 -0.5288  0.0467  0.7000
  827MPD2    C212215   0.834   3.021   9.707 -0.4005 -0.3775  0.4432
  827MPD2    C312216   0.791   3.076   9.590 -0.8279  0.2259  0.0558
  827MPD2    C412217   0.868   3.182   9.537  0.4713 -0.1842  0.3944
  827MPD2    C512218   0.987   3.218   9.607  0.5551 -0.3271 -0.3570
  827MPD2     H12219   0.763   2.955   9.758  0.0784  1.0443  2.9477
  827MPD2    H112220   0.837   3.240   9.451 -1.1011 -1.2577  0.2204
  827MPD2    H212221   1.138   3.169   9.748 -0.6309 -3.1420  1.4981
  827MPD2    H312222   1.048   3.302   9.574 -0.0698  0.6065  0.8356
  827MPD2     N12223   0.668   3.033   9.543  0.3038  0.0547 -0.0896
  827MPD2    H512224   0.623   2.966   9.605  0.3036  0.5057  0.4021
  827MPD2    N112225   1.002   2.994   9.885  0.7872 -0.4708  0.5924
  827MPD2    H712226   1.091   3.030   9.917 -0.9676  2.0161  2.7265
  828MPD2     C12227   3.797   2.258  12.569 -0.6549 -0.0195 -0.1543
  828MPD2    C112228   3.730   2.300  12.456  0.5363 -1.0511  0.1619
  828MPD2    C212229   3.790   2.279  12.332 -0.2159 -0.0931 -0.2100
  828MPD2    C312230   3.878   2.176  12.321 -0.1977 -0.1785 -0.4591
  828MPD2    C412231   3.945   2.129  12.425  0.3281 -0.2212 -0.3325
  828MPD2    C512232   3.902   2.171  12.548  0.3421 -0.3327  0.9518
  828MPD2     H12233   3.744   2.328  12.247 -3.1039 -0.2096  1.2644
  828MPD2    H112234   4.031   2.064  12.413 -0.0049 -0.6916 -0.1925
  828MPD2    H212235   3.771   2.282  12.672  2.4561  2.3986  0.0939
  828MPD2    H312236   3.955   2.149  12.641  1.7331 -0.6437  0.0843
  828MPD2     N12237   3.918   2.123  12.195  0.3492  0.1158 -0.0295
  828MPD2    H512238   4.008   2.076  12.191 -0.7729 -1.8927 -1.6719
  828MPD2    N112239   3.618   2.379  12.459  0.5050 -0.1206 -0.0229
  828MPD2    H712240   3.589   2.434  12.378 -2.0955 -2.1639 -0.4768
  829MPD2     C12241   3.293   2.734  11.783  0.0930  0.3818  0.4873
  829MPD2    C112242   3.249   2.825  11.877 -0.1282 -0.1807  0.1073
  829MPD2    C212243   3.256   2.791  12.010  0.1456  0.6049  0.3307
  829MPD2    C312244   3.306   2.660  12.051  0.4774  0.0474  0.1313
  829MPD2    C412245   3.351   2.573  11.950  0.0672 -0.4421  0.0778
  829MPD2    C512246   3.345   2.613  11.816  0.2377  0.3686 -0.0134
  829MPD2     H12247   3.215   2.862  12.080 -0.9478 -0.1726  0.4894
  829MPD2    H112248   3.400   2.478  11.970 -1.5440 -1.3392 -0.1960
  829MPD2    H212249   3.282   2.746  11.676 -3.0446 -0.4020  0.7404
  829MPD2    H312250   3.377   2.549  11.735 -1.8731 -0.4734 -0.1753
  829MPD2     N12251   3.298   2.605  12.183  0.8988  0.2137 -0.5680
  829MPD2    H512252   3.335   2.510  12.184 -2.4437 -1.0771  1.6597
  829MPD2    N112253   3.197   2.946  11.829  0.1284 -0.3455 -0.3532
  829MPD2    H712254   3.171   2.934  11.731 -1.5507 -3.1179  0.4211
  830MPD2     C12255   3.611   4.556  15.949  0.7749 -0.1091  0.1712
  830MPD2    C112256   3.503   4.611  15.893 -0.1204 -0.4355 -0.2616
  830MPD2    C212257   3.497   4.617  15.755 -0.1755  0.9920 -0.0894
  830MPD2    C312258   3.608   4.582  15.679 -0.1061  0.7397 -0.5810
  830MPD2    C412259   3.722   4.526  15.736 -0.7544  0.7102  0.0491
  830MPD2    C512260   3.715   4.505  15.875  0.5421  0.2752  0.7456
  830MPD2     H12261   3.417   4.671  15.705 -1.5248 -0.5174  0.4128
  830MPD2    H112262   3.812   4.505  15.680 -0.0419  1.2734  0.9741
  830MPD2    H212263   3.615   4.549  16.057  1.5901  0.2078  0.1637
  830MPD2    H312264   3.807   4.478  15.928  0.6702  0.9233  0.8495
  830MPD2     N12265   3.638   4.635  15.547  0.5541  0.5693 -0.3721
  830MPD2    H512266   3.735   4.623  15.519  0.7945  0.1689  0.6637
  830MPD2    N112267   3.408   4.672  15.979 -0.7406  0.0710  0.8343
  830MPD2    H712268   3.419   4.658  16.079 -0.4378 -2.9543  0.3841
  831MPD2     C12269   3.324   2.413  16.413  0.2934 -0.4124 -0.2597
  831MPD2    C112270   3.341   2.297  16.330  1.0081 -0.1959  1.0319
  831MPD2    C212271   3.229   2.213  16.322 -0.4374 -0.5621 -0.5491
  831MPD2    C312272   3.107   2.239  16.381 -0.3367  0.2837  0.3543
  831MPD2    C412273   3.103   2.345  16.468 -0.4060  1.2079 -0.0890
  831MPD2    C512274   3.203   2.432  16.477 -0.0902  0.3618  0.5034
  831MPD2     H12275   3.242   2.119  16.270 -1.7016 -0.0503 -1.7887
  831MPD2    H112276   3.019   2.356  16.536 -1.0941  1.4121 -0.9707
  831MPD2    H212277   3.402   2.488  16.418 -1.6148  1.5755 -0.4879
  831MPD2    H312278   3.192   2.514  16.547 -0.1787 -1.2902  2.4295
  831MPD2     N12279   2.995   2.150  16.367 -0.1942  0.2267 -0.4154
  831MPD2    H512280   2.910   2.178  16.415  0.6018  1.3054  0.3525
  831MPD2    N112281   3.468   2.283  16.261 -0.2147 -0.0366  0.6817
  831MPD2    H712282   3.540   2.354  16.264 -1.0845  0.9229 -1.3060
  832MPD2     C12283   1.971   3.143  17.411  0.1789 -0.5062 -0.0225
  832MPD2    C112284   1.943   3.262  17.344 -0.5492 -0.7498  0.5163
  832MPD2    C212285   1.835   3.263  17.253 -0.3999  0.4649  0.5458
  832MPD2    C312286   1.761   3.147  17.226  0.4524 -0.1907 -0.1943
  832MPD2    C412287   1.785   3.033  17.291  0.0811  0.2357 -0.4767
  832MPD2    C512288   1.891   3.033  17.384 -0.3947 -0.3663  0.0724
  832MPD2     H12289   1.836   3.342  17.178  1.7002 -0.1365 -0.0456
  832MPD2    H112290   1.736   2.939  17.272  1.1839 -0.6916  1.2640
  832MPD2    H212291   2.061   3.132  17.470  0.2257 -1.7108 -0.3231
  832MPD2    H312292   1.911   2.936  17.427  1.7438 -0.0181 -0.1364
  832MPD2     N12293   1.659   3.151  17.130 -0.5042  0.0881  0.4157
  832MPD2    H512294   1.621   3.060  17.106  0.2779  0.0072 -0.5017
  832MPD2    N112295   2.018   3.375  17.377  0.2567 -0.5847  0.7934
  832MPD2    H712296   2.071   3.379  17.463  0.5314 -0.2642  0.6079
  833MPD2     C12297   4.495   4.610  12.553 -0.0701 -0.5800  0.3418
  833MPD2    C112298   4.549   4.733  12.510 -0.0437 -0.3700 -0.0510
  833MPD2    C212299   4.668   4.732  12.443  0.3906  0.5457  0.2052
  833MPD2    C312300   4.725   4.612  12.400 -0.0215 -0.2734  0.6224
  833MPD2    C412301   4.666   4.491  12.434  0.1424  0.0599  0.2854
  833MPD2    C512302   4.553   4.493  12.516 -0.4717 -0.3536 -0.0804
  833MPD2     H12303   4.718   0.084  12.415  0.2220  0.8101  0.7641
  833MPD2    H112304   4.700   4.396  12.394 -1.6049  0.1774 -1.4716
  833MPD2    H212305   4.404   4.607  12.611  0.0734  4.0161  0.8216
  833MPD2    H312306   4.520   4.393  12.541 -0.4950 -0.0402  1.1348
  833MPD2     N12307   0.101   4.597  12.327 -0.3988 -0.5421 -0.5809
  833MPD2    H512308   0.131   4.507  12.292  1.1560 -0.4965  0.6225
  833MPD2    N112309   4.480   0.110  12.550 -0.1751  0.3049  0.1604
  833MPD2    H712310   4.404   0.099  12.616 -0.1934  3.4928  0.7099
  834MPD2     C12311   4.680   4.034  11.646 -0.4135 -0.5374 -1.0969
  834MPD2    C112312   4.660   4.158  11.589 -0.7430  0.6517 -0.1566
  834MPD2    C212313   4.722   4.264  11.657  0.2634 -0.4344 -0.0301
  834MPD2    C312314   0.060   4.250  11.774  0.4192 -0.3108  0.5140
  834MPD2    C412315   0.091   4.123  11.817 -0.6500 -0.2441 -0.3788
  834MPD2    C512316   0.026   4.018  11.755 -0.2583  0.3170  0.2380
  834MPD2     H12317   4.705   4.363  11.616  0.4462 -0.3598  0.0761
  834MPD2    H112318   0.161   4.102  11.897 -2.0298 -2.0731  0.3540
  834MPD2    H212319   4.632   3.944  11.611 -4.3831 -0.0962  3.1827
  834MPD2    H312320   0.039   3.924  11.807  0.5471  1.5703  2.3180
  834MPD2     N12321   0.109   4.372  11.828  0.4741 -0.0794 -0.0086
  834MPD2    H512322   0.073   4.459  11.790  1.8600 -0.0226 -1.1805
  834MPD2    N112323   4.576   4.180  11.477 -0.0528 -0.3845  0.5621
  834MPD2    H712324   4.572   4.274  11.438 -0.7748 -1.3896 -1.8041
  835MPD2     C12325   4.474   3.275  11.385 -0.4085  0.0373 -0.2021
  835MPD2    C112326   4.405   3.159  11.348 -0.2544 -0.2770 -0.2696
  835MPD2    C212327   4.448   3.041  11.408  0.2123  0.2804 -0.5518
  835MPD2    C312328   4.567   3.030  11.482 -0.0085  1.3580 -0.4429
  835MPD2    C412329   4.630   3.149  11.509 -0.2191 -0.2649 -0.2264
  835MPD2    C512330   4.586   3.265  11.462 -0.1878  0.6970  0.3883
  835MPD2     H12331   4.391   2.949  11.395  1.2430  0.0101 -3.1662
  835MPD2    H112332   4.718   3.148  11.571  0.1434 -3.0280 -0.7985
  835MPD2    H212333   4.445   3.373  11.349  0.8554  1.1781  1.8774
  835MPD2    H312334   4.633   3.359  11.488 -0.0792  0.7393  0.0498
  835MPD2     N12335   4.613   2.910  11.542 -0.7935  0.3477 -0.7641
  835MPD2    H512336   4.675   2.920  11.622 -2.1196  0.7756  0.1999
  835MPD2    N112337   4.283   3.157  11.277  0.2631  0.0211 -0.7064
  835MPD2    H712338   4.239   3.065  11.270  0.6306 -0.2365  0.4726
  836MPD2     C12339   4.055   2.511  11.680  0.1306 -0.4575  0.3569
  836MPD2    C112340   4.157   2.471  11.765 -0.8578 -0.3516  0.7390
  836MPD2    C212341   4.126   2.454  11.900 -0.1707  0.5697  0.3404
  836MPD2    C312342   3.994   2.473  11.947 -0.2351  0.2299  0.2055
  836MPD2    C412343   3.889   2.490  11.851  0.0991  0.0235  0.0888
  836MPD2    C512344   3.921   2.506  11.718  0.2020 -0.9201 -0.7132
  836MPD2     H12345   4.208   2.433  11.968  0.1714 -0.8518 -0.5184
  836MPD2    H112346   3.783   2.497  11.872  0.3094 -0.2377  1.2680
  836MPD2    H212347   4.087   2.535  11.579  2.0090  0.1941  1.1204
  836MPD2    H312348   3.842   2.524  11.646 -0.0344  1.8102  0.2331
  836MPD2     N12349   3.958   2.469  12.084 -0.5966 -0.4716  0.7154
  836MPD2    H512350   3.871   2.513  12.111 -1.6618 -2.3829  0.3556
  836MPD2    N112351   4.288   2.465  11.713  0.5048  0.2650 -0.2693
  836MPD2    H712352   4.301   2.491  11.616 -2.4204 -2.3021 -1.3344
  837MPD2     C12353   2.833   2.590  10.051 -0.5966  0.9323 -0.1998
  837MPD2    C112354   2.732   2.624   9.965 -0.1042  0.2820  0.6593
  837MPD2    C212355   2.692   2.753   9.947  0.1791 -0.9015 -0.0703
  837MPD2    C312356   2.734   2.854  10.030 -0.0053 -0.8956 -0.2176
  837MPD2    C412357   2.835   2.829  10.121 -0.1598  0.3205  0.2083
  837MPD2    C512358   2.884   2.698  10.126 -0.2181 -0.3329 -0.6775
  837MPD2     H12359   2.605   2.763   9.883 -0.4155  0.3705  0.9476
  837MPD2    H112360   2.888   2.907  10.174  0.8981 -0.0807 -0.2563
  837MPD2    H212361   2.866   2.488  10.069  1.3034  1.4847 -0.5826
  837MPD2    H312362   2.966   2.679  10.195 -1.1816 -0.1968  0.5003
  837MPD2     N12363   2.689   2.981   9.978  0.5803 -0.5403  0.2245
  837MPD2    H512364   2.632   2.986   9.894  0.6969 -0.3862  0.1539
  837MPD2    N112365   2.645   2.532   9.892 -0.0219  0.5892  0.3127
  837MPD2    H712366   2.575   2.580   9.836  0.5964 -0.9535 -1.7631
  838MPD2     C12367   1.359   0.546  12.468 -0.4799 -0.0902  0.2642
  838MPD2    C112368   1.303   0.486  12.351 -0.5695 -0.0846 -0.6488
  838MPD2    C212369   1.190   0.416  12.362 -0.2163  0.3658  0.5909
  838MPD2    C312370   1.126   0.418  12.487 -0.6036 -0.0020  0.3438
  838MPD2    C412371   1.180   0.472  12.598 -0.3295  0.2970 -0.5134
  838MPD2    C512372   1.299   0.537  12.590  0.2579 -0.1416  0.0682
  838MPD2     H12373   1.133   0.379  12.278  0.4372  2.5536 -0.7935
  838MPD2    H112374   1.138   0.454  12.696  0.3605  2.3320  0.1561
  838MPD2    H212375   1.450   0.604  12.457 -1.0881  0.4869 -1.8425
  838MPD2    H312376   1.344   0.580  12.678  0.1909  3.2496 -1.5568
  838MPD2     N12377   0.996   0.368  12.490 -0.1720  1.0573 -0.4636
  838MPD2    H512378   0.975   0.306  12.413 -0.2393  0.5913 -0.0645
  838MPD2    N112379   1.359   0.493  12.221  0.2784 -0.3134  1.0018
  838MPD2    H712380   1.313   0.436  12.150  0.8326 -0.4050  0.7172
  839MPD2     C12381   0.864   0.585  11.551 -0.0913  0.4533  0.3040
  839MPD2    C112382   0.943   0.478  11.517 -0.0307 -0.2595  0.6699
  839MPD2    C212383   1.052   0.452  11.596  0.2695 -0.0347 -0.5872
  839MPD2    C312384   1.093   0.534  11.705  1.1320  0.8303  0.0174
  839MPD2    C412385   1.003   0.632  11.740  0.9271  0.4519 -0.4107
  839MPD2    C512386   0.889   0.657  11.664 -0.5218  0.0938  0.1286
  839MPD2     H12387   1.120   0.371  11.573 -1.0950 -0.6304 -2.4539
  839MPD2    H112388   1.028   0.704  11.817  2.6953 -0.6687  0.0401
  839MPD2    H212389   0.777   0.620  11.495 -1.3332 -1.4080  1.0540
  839MPD2    H312390   0.829   0.747  11.670 -0.8680 -0.1121 -0.2442
  839MPD2     N12391   1.207   0.519  11.778  0.9523  0.5978 -0.1542
  839MPD2    H512392   1.199   0.565  11.868  0.8003  0.2728 -0.0005
  839MPD2    N112393   0.916   0.386  11.409  0.0655 -0.1793 -0.0529
  839MPD2    H712394   0.987   0.319  11.384  2.2104  1.3487  1.9259
  840MPD2     C12395   1.568   3.174  10.239  0.0542 -0.7465 -0.4586
  840MPD2    C112396   1.472   3.116  10.322 -0.4466  0.4022  0.5815
  840MPD2    C212397   1.471   3.156  10.455 -0.3254 -0.1803  0.3332
  840MPD2    C312398   1.575   3.242  10.504 -0.8914  0.0945 -0.0437
  840MPD2    C412399   1.677   3.287  10.415  0.2832  0.1236 -0.2395
  840MPD2    C512400   1.670   3.249  10.283  0.2528  0.1164 -0.1223
  840MPD2     H12401   1.393   3.125  10.523 -0.2525  0.9007  0.9069
  840MPD2    H112402   1.743   3.371  10.432 -2.1195  1.4103  2.7159
  840MPD2    H212403   1.561   3.153  10.133 -1.6656  1.3779 -0.7578
  840MPD2    H312404   1.730   3.297  10.206 -1.1523  1.8386 -0.1438
  840MPD2     N12405   1.575   3.311  10.627  0.2266 -0.1455  0.7858
  840MPD2    H512406   1.644   3.384  10.643  0.2928  0.0468 -0.3847
  840MPD2    N112407   1.369   3.032  10.265 -0.5578  0.2903 -0.4353
  840MPD2    H712408   1.356   3.041  10.165  1.8429  0.1164 -0.7604
  841MPD2     C12409   0.530   2.832  14.138  0.5451  0.4809  0.6022
  841MPD2    C112410   0.552   2.731  14.233 -0.2058 -0.0194 -0.6204
  841MPD2    C212411   0.679   2.699  14.260  0.0276 -0.0693  0.2828
  841MPD2    C312412   0.782   2.772  14.205 -0.0982 -0.1643  0.4901
  841MPD2    C412413   0.763   2.859  14.106  0.7413 -0.5145  0.1380
  841MPD2    C512414   0.634   2.881  14.064 -0.0654  0.2846  0.6869
  841MPD2     H12415   0.707   2.620  14.329 -1.1363  0.8748  1.8278
  841MPD2    H112416   0.844   2.923  14.073  0.5259 -0.6741 -0.6851
  841MPD2    H212417   0.430   2.860  14.107 -0.8488 -0.8402  3.8390
  841MPD2    H312418   0.626   2.935  13.970 -0.5353 -0.4769  0.2884
  841MPD2     N12419   0.911   2.742  14.262  0.2758  0.1732 -0.0468
  841MPD2    H512420   0.925   2.670  14.332 -2.2468  0.1534  0.4447
  841MPD2    N112421   0.447   2.644  14.287  0.0440  0.0417  0.2227
  841MPD2    H712422   0.480   2.561  14.335  2.5311  0.2944 -1.0388
  842MPD2     C12423   1.240   3.634  16.957  0.7502 -0.1034 -0.4803
  842MPD2    C112424   1.196   3.506  16.944 -0.0778 -0.3118 -0.0623
  842MPD2    C212425   1.224   3.412  17.043 -0.0127 -0.3861  0.1755
  842MPD2    C312426   1.297   3.459  17.150 -0.1061  0.2134  0.4946
  842MPD2    C412427   1.357   3.580  17.151  0.2914 -0.4182 -0.0150
  842MPD2    C512428   1.336   3.658  17.046  0.1642 -0.9527  0.2659
  842MPD2     H12429   1.170   3.318  17.041  0.7182 -0.8097  0.3173
  842MPD2    H112430   1.432   3.601  17.226  2.7307 -2.8962 -1.7459
  842MPD2    H212431   1.209   3.715  16.891 -0.2806  2.4828  3.1590
  842MPD2    H312432   1.383   3.755  17.034 -0.6500 -0.6715 -0.6679
  842MPD2     N12433   1.305   3.381  17.267 -0.5020 -0.0250 -0.2225
  842MPD2    H512434   1.351   3.431  17.343  0.9668 -2.6559  0.5896
  842MPD2    N112435   1.114   3.478  16.825  0.2411  0.1191  0.1499
  842MPD2    H712436   1.090   3.557  16.766  1.9573  0.8755  0.4464
  843MPD2     C12437   2.888   4.379   0.029 -0.6629 -0.3579 -0.2627
  843MPD2    C112438   2.941   4.335   0.147  0.0258 -0.1723  0.0336
  843MPD2    C212439   3.055   4.391   0.199 -0.2336 -0.2816 -0.9181
  843MPD2    C312440   3.109   4.499   0.119  0.4598 -0.8593  0.2382
  843MPD2    C412441   3.045   4.544   0.007  0.7387  0.6258 -0.2273
  843MPD2    C512442   2.935   4.483  17.726  0.3539  0.2981 -0.1165
  843MPD2     H12443   3.094   4.359   0.294 -0.1895 -0.6184 -1.0515
  843MPD2    H112444   3.083   4.631  17.714 -2.0486  2.0468  0.0936
  843MPD2    H212445   2.792   4.344  17.751  0.6493 -0.1938 -3.6840
  843MPD2    H312446   2.875   4.519  17.643 -2.2783  1.1578  2.1469
  843MPD2     N12447   3.218   4.575   0.161  0.1984 -0.1977  0.3941
  843MPD2    H512448   3.253   4.640   0.091 -0.2350 -0.2341  0.1442
  843MPD2    N112449   2.866   4.234   0.212 -0.5144 -0.2058 -0.6109
  843MPD2    H712450   2.779   4.210   0.166 -0.1603 -3.1075  0.2013
  844MPD2     C12451   1.523   2.652  16.634  0.3293  0.0228 -0.0148
  844MPD2    C112452   1.575   2.726  16.535 -0.8390  0.0185 -0.1001
  844MPD2    C212453   1.647   2.836  16.571  0.0311 -0.2779 -0.4068
  844MPD2    C312454   1.659   2.870  16.702  0.5727  1.1505  0.1356
  844MPD2    C412455   1.602   2.796  16.806  0.1695  0.3690 -0.3962
  844MPD2    C512456   1.535   2.683  16.765 -1.2056  0.3526  0.1122
  844MPD2     H12457   1.703   2.900  16.503  0.0410 -0.0791 -0.2101
  844MPD2    H112458   1.621   2.806  16.912 -0.1881 -0.6528 -0.2337
  844MPD2    H212459   1.466   2.562  16.616 -2.0940  1.5878 -0.2481
  844MPD2    H312460   1.500   2.613  16.841 -0.8824  0.0503 -0.0186
  844MPD2     N12461   1.747   2.977  16.738  0.2957 -0.7011  0.0592
  844MPD2    H512462   1.775   3.038  16.662 -2.8905  1.6070  0.7610
  844MPD2    N112463   1.579   2.676  16.401 -0.1352  0.2640  0.7030
  844MPD2    H712464   1.604   2.740  16.326 -0.4667 -1.0725 -0.5619
  845MPD2     C12465   1.622   3.861  17.070  0.4956 -1.3242  0.0704
  845MPD2    C112466   1.683   3.784  17.167 -0.2824 -0.3008 -0.1506
  845MPD2    C212467   1.755   3.673  17.128 -0.3075  0.3278 -0.2836
  845MPD2    C312468   1.763   3.636  16.993 -0.9444  0.5082 -0.6277
  845MPD2    C412469   1.707   3.715  16.891 -0.5515  0.4417 -0.1174
  845MPD2    C512470   1.633   3.816  16.935 -0.5177  0.6095  0.9095
  845MPD2     H12471   1.802   3.608  17.201 -0.8185 -1.5478 -1.6029
  845MPD2    H112472   1.725   3.705  16.785 -3.9650  0.2216 -0.6752
  845MPD2    H212473   1.563   3.950  17.090  1.3544 -0.6281 -0.4943
  845MPD2    H312474   1.598   3.887  16.861  1.4978 -0.8539 -1.4554
  845MPD2     N12475   1.829   3.524  16.960  0.3842 -0.2559 -0.4614
  845MPD2    H512476   1.875   3.472  17.034  0.7250 -0.2033 -0.6354
  845MPD2    N112477   1.675   3.828  17.302 -0.0945 -0.0991 -0.4604
  845MPD2    H712478   1.632   3.919  17.317  2.8417  1.5050 -1.7772
  846MPD2     C12479   3.771   4.301  14.009  0.0557 -0.9600 -0.2042
  846MPD2    C112480   3.656   4.373  13.981  0.3396 -0.3083 -0.2752
  846MPD2    C212481   3.578   4.419  14.086  0.1481  0.2905 -0.0156
  846MPD2    C312482   3.620   4.383  14.217  0.5218 -0.1302 -0.3700
  846MPD2    C412483   3.726   4.299  14.243 -0.3015 -0.7479  0.6032
  846MPD2    C512484   3.804   4.265  14.136 -0.3965  0.2246  0.2494
  846MPD2     H12485   3.498   4.489  14.062  0.7636  1.5270  1.5720
  846MPD2    H112486   3.761   4.274  14.342  0.5294 -0.5810  0.3501
  846MPD2    H212487   3.830   4.263  13.927 -2.0316 -1.7296 -1.3656
  846MPD2    H312488   3.890   4.203  14.156  0.1712  0.7808 -0.4678
  846MPD2     N12489   3.554   4.447  14.329  0.0769 -0.5435 -0.2756
  846MPD2    H512490   3.473   4.502  14.302  1.0472 -1.0908 -4.2010
  846MPD2    N112491   3.611   4.410  13.846  0.6141  0.2140  0.1060
  846MPD2    H712492   3.529   4.468  13.836  0.4237  0.2633  1.8350
  847MPD2     C12493   4.113   0.558  15.051  0.2562  0.0961 -0.2728
  847MPD2    C112494   4.193   0.658  15.098  0.1985  0.0004  0.3521
  847MPD2    C212495   4.285   0.623  15.190  0.2871 -0.0403  0.1677
  847MPD2    C312496   4.285   0.495  15.248 -1.0283  0.1432 -0.6872
  847MPD2    C412497   4.207   0.395  15.201 -0.3715  0.0065 -0.4986
  847MPD2    C512498   4.121   0.433  15.100 -0.0431  0.2184  0.3895
  847MPD2     H12499   4.348   0.698  15.236  0.0364 -0.7979  1.7324
  847MPD2    H112500   4.197   0.297  15.245 -0.2654  0.5260  0.6759
  847MPD2    H212501   4.030   0.568  14.982 -2.2660  2.7607  3.1126
  847MPD2    H312502   4.058   0.351  15.066 -0.9083  1.4477 -1.0031
  847MPD2     N12503   4.374   0.486  15.357  0.0894  0.7320 -0.0070
  847MPD2    H512504   4.407   0.576  15.389 -2.2439  1.9992 -1.1939
  847MPD2    N112505   4.182   0.800  15.066  0.4233 -0.0548  0.3584
  847MPD2    H712506   4.253   0.865  15.097  0.1063  0.0622  0.8416
  848MPD2     C12507   1.465   3.692  16.482 -0.1200 -0.4690  0.3606
  848MPD2    C112508   1.452   3.696  16.619  0.3356 -0.0513 -0.5715
  848MPD2    C212509   1.432   3.819  16.679 -0.0031  0.7304  0.3071
  848MPD2    C312510   1.418   3.932  16.602 -0.0768 -0.1408  0.3953
  848MPD2    C412511   1.427   3.921  16.465  0.2486 -0.6046 -0.0951
  848MPD2    C512512   1.446   3.795  16.399  0.5496 -0.1334  0.6758
  848MPD2     H12513   1.419   3.835  16.785 -1.3945 -0.7495  0.3446
  848MPD2    H112514   1.415   4.007  16.400  1.5857 -2.0217 -2.2235
  848MPD2    H212515   1.499   3.606  16.425 -2.4248 -1.7264  0.8845
  848MPD2    H312516   1.459   3.796  16.292 -0.0433  0.7956  0.6059
  848MPD2     N12517   1.383   4.061  16.653 -0.0392  0.5430 -0.9777
  848MPD2    H512518   1.384   4.137  16.586  1.2202  1.9734  0.6748
  848MPD2    N112519   1.462   3.579  16.705 -0.8948 -0.0814  0.4913
  848MPD2    H712520   1.457   3.599  16.804 -2.2376  0.2765  0.3479
  849MPD2     C12521   0.567   3.194  14.187 -0.4283 -0.0205  0.3015
  849MPD2    C112522   0.662   3.248  14.101 -0.5908  0.8404  0.0864
  849MPD2    C212523   0.796   3.262  14.135 -0.2599 -0.5898  0.1890
  849MPD2    C312524   0.844   3.205  14.251 -0.2238  0.1265 -0.0541
  849MPD2    C412525   0.748   3.148  14.345 -0.1024 -0.1280  0.3363
  849MPD2    C512526   0.617   3.150  14.310 -0.7861  0.5580 -0.9082
  849MPD2     H12527   0.866   3.317  14.073  1.1927  0.0287  2.4125
  849MPD2    H112528   0.779   3.102  14.438 -2.1181 -0.1628  0.9809
  849MPD2    H212529   0.461   3.202  14.165 -0.7394 -0.7623  1.5333
  849MPD2    H312530   0.552   3.109  14.387 -0.4117  1.5390 -0.0784
  849MPD2     N12531   0.984   3.217  14.277 -1.0598  0.0815 -0.1820
  849MPD2    H512532   1.041   3.263  14.207 -0.1854  1.4492  1.4337
  849MPD2    N112533   0.630   3.314  13.980 -0.0359 -0.3267  0.2152
  849MPD2    H712534   0.708   3.366  13.942  0.7346 -0.8627  1.0861
  850MPD2     C12535   3.263   1.535  14.895  0.1758  0.2555 -0.0048
  850MPD2    C112536   3.351   1.425  14.905  0.6460  0.6851 -0.9234
  850MPD2    C212537   3.484   1.442  14.930  0.4558 -0.6619  0.0476
  850MPD2    C312538   3.518   1.573  14.967  0.0330 -0.7013  0.3322
  850MPD2    C412539   3.433   1.679  14.945 -0.0175 -0.4405 -0.9074
  850MPD2    C512540   3.306   1.656  14.907 -0.0691 -0.4212 -0.2379
  850MPD2     H12541   3.555   1.361  14.941 -2.3948 -3.0485  0.7351
  850MPD2    H112542   3.461   1.780  14.973 -1.2024 -0.3929  0.0837
  850MPD2    H212543   3.156   1.521  14.897  0.2211 -0.1683 -0.5656
  850MPD2    H312544   3.234   1.733  14.879  0.0619 -0.4019 -0.5183
  850MPD2     N12545   3.645   1.612  15.016 -0.6557 -0.5089 -0.0494
  850MPD2    H512546   3.672   1.710  15.014 -1.2353 -0.3457  0.0642
  850MPD2    N112547   3.293   1.295  14.884  0.3381  0.4839  0.0101
  850MPD2    H712548   3.201   1.285  14.842  0.7593  0.5721 -0.9389
  851MPD2     C12549   3.921   0.805  15.383  0.1289  0.0038 -0.0104
  851MPD2    C112550   3.807   0.779  15.306  0.5600 -0.7303 -0.0200
  851MPD2    C212551   3.776   0.653  15.262 -0.6870  0.4744 -0.7114
  851MPD2    C312552   3.853   0.545  15.305 -0.7222 -0.3338  0.4762
  851MPD2    C412553   3.962   0.569  15.384 -0.0179 -0.2920 -0.4135
  851MPD2    C512554   3.997   0.697  15.420 -0.1024 -0.6717  0.5916
  851MPD2     H12555   3.684   0.636  15.207 -2.5065  0.6749  2.2771
  851MPD2    H112556   4.013   0.490  15.437  0.3732  0.3515  0.1718
  851MPD2    H212557   3.943   0.905  15.421 -1.9992 -0.1194  1.5816
  851MPD2    H312558   4.082   0.711  15.486 -0.1296  3.3776 -0.1920
  851MPD2     N12559   3.820   0.414  15.263  0.6557  0.3761 -0.5889
  851MPD2    H512560   3.743   0.396  15.199 -0.1380 -1.6033  0.9588
  851MPD2    N112561   3.734   0.895  15.274 -0.2043 -0.1553  0.5611
  851MPD2    H712562   3.758   0.988  15.307  0.6355 -0.7382  1.6040
  852MPD2     C12563   3.498   4.560   9.741  0.0567 -0.5681 -0.2125
  852MPD2    C112564   3.431   4.526   9.850 -0.0193  0.6749  0.3237
  852MPD2    C212565   3.498   4.543   9.967  0.0794 -0.1595 -0.0995
  852MPD2    C312566   3.632   4.589   9.975 -0.6903  0.6892  0.5570
  852MPD2    C412567   3.692   4.632   9.860  0.3896  0.0410 -0.3151
  852MPD2    C512568   3.618   4.617   9.745  0.4521 -0.2425 -0.8560
  852MPD2     H12569   3.447   4.518  10.059 -1.6279 -1.3140 -1.3514
  852MPD2    H112570   3.791   4.676   9.861  0.2675  0.3582 -2.3856
  852MPD2    H212571   3.453   4.553   9.642 -2.3319 -0.5953  0.8605
  852MPD2    H312572   3.669   4.633   9.651  1.0746 -1.5041 -0.7303
  852MPD2     N12573   3.693   4.607  10.101  0.1717  0.1685 -0.0711
  852MPD2    H512574   3.653   4.568  10.185 -0.6389 -1.1538 -1.0800
  852MPD2    N112575   3.303   4.471   9.840  0.2029  0.4499  0.0281
  852MPD2    H712576   3.263   4.444   9.929  0.1352  0.9302  0.1485
  853MPD2     C12577   0.482   3.301  12.254  0.1223 -0.1530 -0.6615
  853MPD2    C112578   0.419   3.423  12.225 -0.9444  0.5143  0.4258
  853MPD2    C212579   0.417   3.475  12.090 -0.1228 -0.1445 -0.5908
  853MPD2    C312580   0.502   3.416  11.991 -0.0263 -0.2269  0.0476
  853MPD2    C412581   0.573   3.300  12.028 -0.6269 -0.0167 -0.4006
  853MPD2    C512582   0.563   3.244  12.155 -0.0035 -0.6094 -0.7322
  853MPD2     H12583   0.369   3.567  12.060  2.8371  1.4450 -0.3891
  853MPD2    H112584   0.639   3.249  11.959 -0.2992 -1.8804  1.2844
  853MPD2    H212585   0.479   3.262  12.355  0.3386  0.4489 -0.4266
  853MPD2    H312586   0.617   3.152  12.173  2.0129  0.7437  0.1526
  853MPD2     N12587   0.532   3.474  11.861  0.1235 -0.3704 -0.8199
  853MPD2    H512588   0.613   3.434  11.814  0.8914 -0.3010  0.4332
  853MPD2    N112589   0.346   3.492  12.330  0.4734  0.0774 -0.0060
  853MPD2    H712590   0.360   3.459  12.425  3.1767  1.2123 -0.0037
  854MPD2     C12591   2.111   4.339  12.867  0.6558  0.1335  0.2780
  854MPD2    C112592   2.155   4.252  12.767  0.1364  0.4661 -0.1233
  854MPD2    C212593   2.280   4.192  12.783  0.1144  0.1332 -0.0493
  854MPD2    C312594   2.362   4.225  12.892 -0.5910  0.0070 -0.7630
  854MPD2    C412595   2.315   4.313  12.984 -0.5146 -0.0312  0.2293
  854MPD2    C512596   2.195   4.370  12.973  0.3158  0.1228  0.0712
  854MPD2     H12597   2.315   4.119  12.711  0.2804 -0.2946  0.4681
  854MPD2    H112598   2.381   4.351  13.061  1.6284 -1.1160 -1.0645
  854MPD2    H212599   2.025   4.404  12.851 -1.2756 -2.0282  1.9683
  854MPD2    H312600   2.169   4.454  13.037  1.0716  0.9303 -0.6889
  854MPD2     N12601   2.491   4.170  12.921  0.9834 -0.5481  0.0007
  854MPD2    H512602   2.524   4.187  13.015  1.9527  1.0245 -0.6200
  854MPD2    N112603   2.083   4.245  12.640 -0.0575 -0.2740 -0.1212
  854MPD2    H712604   2.004   4.307  12.629  0.1734 -0.5083 -2.9625
  855MPD2     C12605   2.909   4.158  13.638  0.3574 -0.2717 -0.0247
  855MPD2    C112606   2.927   4.024  13.595  0.4287  0.7472 -1.1413
  855MPD2    C212607   2.900   3.996  13.466  0.3488  0.0309 -0.4432
  855MPD2    C312608   2.874   4.093  13.374 -0.1795 -0.0696  0.0466
  855MPD2    C412609   2.859   4.222  13.421 -0.6403 -0.3441 -0.5709
  855MPD2    C512610   2.870   4.256  13.554  0.1596 -0.0937  0.0167
  855MPD2     H12611   2.903   3.892  13.437  1.2783  0.0229 -0.3243
  855MPD2    H112612   2.831   4.305  13.357 -0.0539 -0.5376 -1.0827
  855MPD2    H212613   2.927   4.190  13.740 -1.0236 -1.1244  0.4856
  855MPD2    H312614   2.848   4.358  13.585  0.1235 -0.4238  1.0741
  855MPD2     N12615   2.857   4.072  13.239  1.0434 -0.2366  0.1566
  855MPD2    H512616   2.817   4.148  13.185  0.1572 -0.5995  0.3067
  855MPD2    N112617   2.970   3.920  13.681 -0.1607 -0.2595  0.1432
  855MPD2    H712618   2.967   3.829  13.637  0.3428 -0.8049  1.2243
  856MPD2     C12619   4.500   4.662  14.119  0.3365 -0.4630 -0.0384
  856MPD2    C112620   4.577   0.033  14.118 -0.0011 -0.2950 -0.4589
  856MPD2    C212621   4.522   0.149  14.075  0.7170 -0.0127  0.0701
  856MPD2    C312622   4.397   0.156  14.022  0.7965 -0.4313  0.1866
  856MPD2    C412623   4.323   0.044  14.018 -0.5695 -1.1574  0.3563
  856MPD2    C512624   4.371   4.666  14.075 -0.3935  0.1916  0.3570
  856MPD2     H12625   4.585   0.235  14.099 -1.6582  1.3006  1.5806
  856MPD2    H112626   4.229   0.034  13.964 -0.6585  0.4722  0.2133
  856MPD2    H212627   4.531   4.571  14.168  0.0900 -0.1516  0.6955
  856MPD2    H312628   4.315   4.573  14.077  0.9184 -0.6098 -0.4182
  856MPD2     N12629   4.331   0.279  13.979 -0.3409 -0.5497  0.4586
  856MPD2    H512630   4.236   0.265  13.945 -0.7326 -2.3711  2.3373
  856MPD2    N112631   4.710   0.033  14.174  0.2641 -0.1141 -0.1354
  856MPD2    H712632   0.013   0.123  14.192 -1.8574  1.1776 -1.3467
  857MPD2     C12633   2.141   2.000  12.491 -0.1003  0.4330  0.4214
  857MPD2    C112634   2.056   2.032  12.596 -0.0346 -0.1420 -0.1322
  857MPD2    C212635   2.053   2.169  12.637  0.0656 -0.2295 -0.0170
  857MPD2    C312636   2.132   2.265  12.574 -0.8876 -0.2249  0.2373
  857MPD2    C412637   2.219   2.223  12.470 -0.0539  0.0481  0.7900
  857MPD2    C512638   2.208   2.099  12.426 -0.2302 -0.3714 -0.6268
  857MPD2     H12639   1.975   2.204  12.705  0.8685  2.1487 -0.3446
  857MPD2    H112640   2.284   2.291  12.415 -1.4103  0.6856 -0.0244
  857MPD2    H212641   2.139   1.899  12.452 -1.6796  0.6196  0.0167
  857MPD2    H312642   2.271   2.073  12.341 -0.1720  0.0612 -0.7142
  857MPD2     N12643   2.131   2.403  12.622 -0.7223 -0.1499 -0.2118
  857MPD2    H512644   2.084   2.423  12.710  3.1215 -1.9405  2.2398
  857MPD2    N112645   1.978   1.927  12.646  0.6328  0.1042  1.1596
  857MPD2    H712646   2.000   1.835  12.608 -0.7545 -0.4803  1.7714
  858MPD2     C12647   1.616   1.044  16.632 -0.0246  0.5595  0.4682
  858MPD2    C112648   1.727   1.001  16.703 -0.3627  0.8501  0.1609
  858MPD2    C212649   1.768   1.066  16.815  0.7246  0.4376 -0.4428
  858MPD2    C312650   1.708   1.188  16.854 -0.2058 -0.2684  0.5316
  858MPD2    C412651   1.595   1.227  16.783  0.8034 -0.1845  0.2492
  858MPD2    C512652   1.552   1.157  16.671 -0.1497 -0.3126  0.0865
  858MPD2     H12653   1.863   1.043  16.862 -0.7037 -3.1960  0.6959
  858MPD2    H112654   1.542   1.319  16.807  2.4404  0.1315  2.6404
  858MPD2    H212655   1.573   0.990  16.549 -0.6192  0.3755  0.8951
  858MPD2    H312656   1.462   1.192  16.621  0.9314  1.2064 -0.7972
  858MPD2     N12657   1.739   1.268  16.969 -0.2092  0.3739  0.0021
  858MPD2    H512658   1.686   1.352  16.991  0.4086  0.9625 -0.7663
  858MPD2    N112659   1.783   0.875  16.668  0.0448  0.2776  0.0738
  858MPD2    H712660   1.864   0.855  16.726  1.6680  1.0115 -1.9238
  859MPD2     C12661   0.647   3.176  15.550 -0.7354  0.5555  0.4798
  859MPD2    C112662   0.733   3.157  15.447  0.6669  0.1149 -0.0303
  859MPD2    C212663   0.789   3.028  15.439  0.1159  0.0017  0.5170
  859MPD2    C312664   0.762   2.934  15.536 -0.3758 -0.5077 -1.0362
  859MPD2    C412665   0.676   2.954  15.637  0.0559  0.4390 -0.6889
  859MPD2    C512666   0.612   3.076  15.639  0.0330  0.6222  0.0119
  859MPD2     H12667   0.866   3.012  15.364 -0.9801  1.3205 -0.9133
  859MPD2    H112668   0.646   2.881  15.711  2.7868 -0.5908 -0.5881
  859MPD2    H212669   0.600   3.271  15.571  2.1833  2.0167  0.3404
  859MPD2    H312670   0.548   3.100  15.723 -1.3308  1.9577 -1.4032
  859MPD2     N12671   0.818   2.804  15.527  0.1203 -0.2472 -0.3188
  859MPD2    H512672   0.788   2.744  15.603  0.6856 -0.0513  0.0519
  859MPD2    N112673   0.789   3.274  15.394  0.3880 -0.2539  0.0510
  859MPD2    H712674   0.776   3.363  15.442  1.4374 -0.4549  0.7040
  860MPD2     C12675   3.520   4.076  11.659 -0.0910  0.3857  0.6442
  860MPD2    C112676   3.462   4.027  11.772  0.0794 -0.1469  0.8689
  860MPD2    C212677   3.323   4.034  11.786  0.8118 -0.5359 -0.2620
  860MPD2    C312678   3.245   4.103  11.700 -0.4013  0.2746 -1.0801
  860MPD2    C412679   3.308   4.148  11.583 -0.7573 -0.3851  0.6459
  860MPD2    C512680   3.439   4.136  11.569  0.6624  0.3710  0.0655
  860MPD2     H12681   3.274   3.979  11.866  1.2619 -1.1677 -0.4226
  860MPD2    H112682   3.250   4.202  11.509  0.8385 -0.2168 -0.4869
  860MPD2    H212683   3.625   4.060  11.641 -0.1711 -0.0026  0.5260
  860MPD2    H312684   3.486   4.166  11.476  1.3857 -1.3514 -0.1240
  860MPD2     N12685   3.107   4.113  11.727  0.4001  0.5314  0.0508
  860MPD2    H512686   3.070   4.050  11.797  2.1359 -1.6185 -0.9704
  860MPD2    N112687   3.536   3.947  11.867 -0.0101 -0.7128 -0.2355
  860MPD2    H712688   3.483   3.900  11.941 -2.7998  1.0347 -1.1060
  861MPD2     C12689   2.662   1.937  10.906  0.3615  0.5140  0.1050
  861MPD2    C112690   2.649   2.076  10.917 -0.6111 -0.2636  0.3052
  861MPD2    C212691   2.591   2.155  10.816  0.6358 -0.3372  0.9843
  861MPD2    C312692   2.537   2.090  10.708 -1.0315  0.7462  0.2293
  861MPD2    C412693   2.537   1.956  10.704  0.3271  0.6636 -0.1346
  861MPD2    C512694   2.590   1.879  10.801 -0.1438 -0.1077 -0.5384
  861MPD2     H12695   2.577   2.262  10.830  1.4852 -0.2465  1.1409
  861MPD2    H112696   2.482   1.903  10.627 -0.8697  3.0001 -0.8927
  861MPD2    H212697   2.700   1.872  10.984 -0.5823  0.6122  0.6490
  861MPD2    H312698   2.568   1.773  10.805 -1.3467  0.2017  1.2803
  861MPD2     N12699   2.444   2.154  10.624  0.5534  0.3468 -0.3065
  861MPD2    H512700   2.396   2.094  10.559 -1.2726  1.5164 -0.0249
  861MPD2    N112701   2.681   2.140  11.039 -0.1282  0.2003 -0.6190
  861MPD2    H712702   2.655   2.237  11.052  0.3883  0.2233  0.2151
  862MPD2     C12703   1.812   1.894  10.415  0.5032 -0.0739 -0.3110
  862MPD2    C112704   1.891   1.907  10.520 -0.0164  0.0296 -0.4200
  862MPD2    C212705   1.906   1.798  10.606  0.2620 -0.0793  0.9764
  862MPD2    C312706   1.859   1.672  10.575  0.3031  0.5470 -1.0866
  862MPD2    C412707   1.782   1.656  10.459 -0.5529 -0.2953  0.3149
  862MPD2    C512708   1.760   1.766  10.381 -0.5342 -0.1720 -0.9589
  862MPD2     H12709   1.961   1.816  10.698 -0.6168 -1.2120  1.7306
  862MPD2    H112710   1.734   1.561  10.440  1.9935 -1.6854  0.8485
  862MPD2    H212711   1.787   1.968  10.340 -1.4922  0.5254  0.9450
  862MPD2    H312712   1.686   1.755  10.303 -1.1016 -3.6130  0.0860
  862MPD2     N12713   1.884   1.560  10.655  0.2808 -0.2965  0.2485
  862MPD2    H512714   1.826   1.478  10.638  1.5990 -0.9737 -0.9413
  862MPD2    N112715   1.966   2.031  10.542 -1.1290 -0.3707 -0.6207
  862MPD2    H712716   2.045   2.029  10.606 -1.4011 -2.4691 -0.3403
  863MPD2     C12717   4.549   0.072  16.915  0.4216  0.4539 -0.5684
  863MPD2    C112718   4.671   0.123  16.869  0.9778  0.1877 -0.3229
  863MPD2    C212719   0.055   0.086  16.923  0.1733 -0.0391 -0.1528
  863MPD2    C312720   0.055   4.733  17.023  0.9444  0.0945 -0.6262
  863MPD2    C412721   4.677   4.678  17.067  0.1749  0.3717  0.7609
  863MPD2    C512722   4.554   4.722  17.016 -0.2599 -0.4346  0.2136
  863MPD2     H12723   0.148   0.113  16.874  0.5027 -0.6326  0.1382
  863MPD2    H112724   4.679   4.610  17.152  1.9481 -0.8093 -0.2131
  863MPD2    H212725   4.450   0.093  16.877  0.4026  1.5225  0.0597
  863MPD2    H312726   4.462   4.676  17.049  0.6195 -0.4944  2.5693
  863MPD2     N12727   0.173   4.676  17.077 -0.0397 -0.4483  0.0220
  863MPD2    H512728   0.167   4.613  17.156 -0.4335  0.7983  0.9843
  863MPD2    N112729   4.663   0.197  16.748 -1.0252  0.0620 -0.2216
  863MPD2    H712730   4.570   0.202  16.707 -0.9552  0.6704 -0.2942
  864MPD2     C12731   0.859   1.294  17.354 -0.4840 -0.1740 -0.5891
  864MPD2    C112732   0.938   1.229  17.268 -0.0163  0.3149 -0.4917
  864MPD2    C212733   0.991   1.306  17.161 -0.2515  0.4464  0.4020
  864MPD2    C312734   0.966   1.440  17.154 -0.6644  0.5690  0.3249
  864MPD2    C412735   0.889   1.497  17.258 -0.6479  0.4977 -0.1537
  864MPD2    C512736   0.851   1.425  17.366  0.4548  0.1384  0.1055
  864MPD2     H12737   1.039   1.246  17.084  0.1017  1.4171 -0.1368
  864MPD2    H112738   0.850   1.598  17.257 -1.2503  0.2825  1.0854
  864MPD2    H212739   0.812   1.234  17.431 -0.2860  1.0975  0.5412
  864MPD2    H312740   0.783   1.461  17.443 -0.3310 -1.0171 -0.0501
  864MPD2     N12741   1.005   1.520  17.042  0.6360 -0.4946 -0.1609
  864MPD2    H512742   0.968   1.615  17.046  1.3375 -0.3784  3.6522
  864MPD2    N112743   0.952   1.087  17.273  0.4820  0.0663  0.0392
  864MPD2    H712744   0.889   1.030  17.328  2.1683 -0.6875  1.1999
  865MPD2     C12745   0.928   1.854  16.201 -0.7591  0.1770  0.2474
  865MPD2    C112746   0.924   1.751  16.295  0.3942 -0.3863 -0.1307
  865MPD2    C212747   0.889   1.781  16.429 -0.2225  0.4536  0.4639
  865MPD2    C312748   0.891   1.908  16.474 -0.2581 -0.3321 -0.3355
  865MPD2    C412749   0.911   2.012  16.385  0.5222 -0.1010 -0.1065
  865MPD2    C512750   0.922   1.981  16.249 -0.3210  0.0508  0.0355
  865MPD2     H12751   0.876   1.697  16.496  1.5421  1.2644  1.8328
  865MPD2    H112752   0.902   2.116  16.415  0.5854  0.1328 -0.8797
  865MPD2    H212753   0.930   1.839  16.094  2.2020  0.9458  0.1787
  865MPD2    H312754   0.916   2.064  16.179  1.4261 -1.1125 -1.4765
  865MPD2     N12755   0.871   1.942  16.609 -0.1911  0.4993  0.5503
  865MPD2    H512756   0.835   2.036  16.621 -0.0791  0.3202  2.1848
  865MPD2    N112757   0.966   1.626  16.248 -0.0400 -0.2277 -0.0691
  865MPD2    H712758   0.995   1.615  16.151  2.2199  1.2258  0.4384
  866MPD2     C12759   3.073   2.687  10.953 -0.4600  0.7995  0.2846
  866MPD2    C112760   3.027   2.562  10.994  0.1337  0.9448  0.8779
  866MPD2    C212761   2.891   2.532  10.987  0.3606  0.1077  0.1914
  866MPD2    C312762   2.797   2.634  10.946 -0.3581 -0.2994 -0.0241
  866MPD2    C412763   2.849   2.757  10.903  0.3196 -0.7179  0.6914
  866MPD2    C512764   2.980   2.786  10.923  0.0650  0.0821 -0.3730
  866MPD2     H12765   2.856   2.436  11.024 -2.0124 -0.2852 -3.1157
  866MPD2    H112766   2.780   2.833  10.871 -0.3443 -0.5447  2.5675
  866MPD2    H212767   3.172   2.716  10.984  0.4104 -2.5884  0.7332
  866MPD2    H312768   3.013   2.886  10.897  0.3437  0.8930  3.0847
  866MPD2     N12769   2.654   2.619  10.928 -0.6700 -0.2556  0.2723
  866MPD2    H512770   2.602   2.704  10.907 -0.3339 -0.2551 -0.5825
  866MPD2    N112771   3.122   2.461  11.039 -0.3817 -0.4699 -0.1577
  866MPD2    H712772   3.218   2.482  11.013 -0.5815  0.0392 -0.4596
  867MPD2     C12773   4.587   1.066  16.684  0.1137 -0.1872  0.2464
  867MPD2    C112774   4.667   1.098  16.786  0.5656 -0.1412  0.5367
  867MPD2    C212775   4.619   1.175  16.888  0.1336  0.2880  0.2683
  867MPD2    C312776   4.491   1.234  16.878 -0.2302  0.4390 -0.0031
  867MPD2    C412777   4.416   1.212  16.770 -0.6461  0.2274  0.5879
  867MPD2    C512778   4.466   1.123  16.672  0.2485  0.4490  0.2555
  867MPD2     H12779   4.683   1.202  16.972  0.9440  0.0721 -0.2874
  867MPD2    H112780   4.313   1.246  16.771 -0.2133  1.5998 -1.4851
  867MPD2    H212781   4.618   1.000  16.604 -1.1690 -0.2575 -0.1810
  867MPD2    H312782   4.397   1.102  16.591  2.2130  0.0133 -1.3097
  867MPD2     N12783   4.440   1.324  16.967 -0.0240  0.5115  0.7349
  867MPD2    H512784   4.356   1.372  16.939 -1.2270 -1.4204  1.0422
  867MPD2    N112785   0.052   1.032  16.789 -0.1566 -0.7056 -0.7199
  867MPD2    H712786   0.084   0.981  16.708  0.6191 -1.3832  0.0145
  868MPD2     C12787   1.773   4.612  13.767 -0.6053  0.3514  0.4990
  868MPD2    C112788   1.757   0.001  13.742 -0.3147  0.6246 -0.0809
  868MPD2    C212789   1.664   0.040  13.640  0.3512  0.0316  0.2510
  868MPD2    C312790   1.587   4.688  13.573  0.5852  0.3603  1.1296
  868MPD2    C412791   1.616   4.552  13.593 -0.4690  0.1258 -0.4972
  868MPD2    C512792   1.704   4.514  13.696  0.5572 -0.0555 -0.9823
  868MPD2     H12793   1.657   0.142  13.607  0.8972 -0.8024 -2.4647
  868MPD2    H112794   1.574   4.468  13.538 -1.7987 -0.9193  2.0927
  868MPD2    H212795   1.840   4.574  13.844  1.6885  2.0829 -0.6722
  868MPD2    H312796   1.724   4.409  13.714  0.9559  0.4206  1.3532
  868MPD2     N12797   1.494   4.732  13.472  0.3252 -0.4430  0.4646
  868MPD2    H512798   1.483   0.091  13.457 -0.8540 -0.3864  1.7083
  868MPD2    N112799   1.849   0.091  13.806  0.1852 -1.4199  0.0808
  868MPD2    H712800   1.918   0.051  13.868  0.3385  1.0819  1.4953
  869MPD2     C12801   3.099   2.664   1.302 -0.3513  0.4451  0.2690
  869MPD2    C112802   3.023   2.731   1.395  0.3722 -0.2162  0.1459
  869MPD2    C212803   2.944   2.839   1.359  0.3287 -0.0005 -0.4398
  869MPD2    C312804   2.929   2.876   1.222 -0.8273  0.3098  1.0198
  869MPD2    C412805   3.011   2.808   1.129 -0.4251  0.4816  0.1807
  869MPD2    C512806   3.094   2.706   1.174 -0.1428  0.1445  0.4838
  869MPD2     H12807   2.889   2.890   1.437 -0.0865 -1.2935  0.1000
  869MPD2    H112808   3.009   2.839   1.025 -0.8585  0.5335  0.2046
  869MPD2    H212809   3.152   2.571   1.324  0.5974  1.2552  1.4375
  869MPD2    H312810   3.156   2.651   1.104 -0.3973 -1.7685  1.7632
  869MPD2     N12811   2.850   2.984   1.177 -0.2061 -0.4811  0.5591
  869MPD2    H512812   2.847   3.019   1.082  0.2977  1.4447  1.2365
  869MPD2    N112813   3.029   2.694   1.532 -0.2085 -0.4518  0.1593
  869MPD2    H712814   2.986   2.756   1.599 -0.8079 -0.9483  0.2307
  870MPD2     C12815   2.327   2.557   0.844 -0.5292 -0.1374  0.7091
  870MPD2    C112816   2.299   2.441   0.921  0.3783  0.0620 -0.0017
  870MPD2    C212817   2.182   2.447   0.998  0.0188  0.5035 -0.2836
  870MPD2    C312818   2.079   2.542   0.977 -0.6894 -0.0219  0.1230
  870MPD2    C412819   2.103   2.642   0.886 -0.2628  0.1844  0.0218
  870MPD2    C512820   2.226   2.656   0.831  0.1950  0.1385 -0.9343
  870MPD2     H12821   2.153   2.363   1.061  0.7172  1.0053  0.6886
  870MPD2    H112822   2.035   2.726   0.874  1.4169  1.5080 -0.2470
  870MPD2    H212823   2.416   2.566   0.784  0.3942 -0.2662  2.0565
  870MPD2    H312824   2.244   2.742   0.767  0.3080  2.2939  2.0239
  870MPD2     N12825   1.959   2.524   1.041  0.9560 -0.7823  0.2968
  870MPD2    H512826   1.952   2.447   1.107  0.0889 -2.4136 -1.7112
  870MPD2    N112827   2.397   2.341   0.921  0.2481  0.6346  0.9761
  870MPD2    H712828   2.483   2.362   0.872  0.1832  1.0738  1.0508
  871MPD2     C12829   3.078   1.735  16.439  0.1189  0.3548 -0.2255
  871MPD2    C112830   3.050   1.652  16.546 -0.7170 -0.6761 -0.1502
  871MPD2    C212831   3.093   1.523  16.547 -0.5604 -0.1775  1.1471
  871MPD2    C312832   3.140   1.471  16.431  0.5175  0.2215  0.9181
  871MPD2    C412833   3.164   1.551  16.318  0.8222  0.4213 -0.8973
  871MPD2    C512834   3.134   1.686  16.329 -0.2191 -0.0119  0.0092
  871MPD2     H12835   3.078   1.456  16.631  2.4158  1.5470  3.0370
  871MPD2    H112836   3.209   1.517  16.225  0.9542 -0.1796 -0.6124
  871MPD2    H212837   3.065   1.842  16.452  0.1946  0.6040 -2.3260
  871MPD2    H312838   3.150   1.752  16.244 -3.0482 -0.1795 -0.6439
  871MPD2     N12839   3.159   1.335  16.436  1.3011  0.1825 -0.8377
  871MPD2    H512840   3.124   1.279  16.512  0.9358  0.9940 -0.4078
  871MPD2    N112841   3.002   1.712  16.662 -0.3399 -0.2834  0.0734
  871MPD2    H712842   3.001   1.813  16.649  2.5968 -0.2880 -0.2607
  872MPD2     C12843   4.652   3.807  14.263 -0.1274  0.4507  0.3863
  872MPD2    C112844   4.589   3.863  14.156 -0.0012 -0.0172  0.0992
  872MPD2    C212845   4.452   3.883  14.162  0.1460 -0.6102  0.0739
  872MPD2    C312846   4.375   3.852  14.274  0.1890 -0.6659  0.7228
  872MPD2    C412847   4.438   3.790  14.379 -0.1402 -0.1897  0.4592
  872MPD2    C512848   4.576   3.781  14.379  0.6766 -0.6032  0.1471
  872MPD2     H12849   4.409   3.936  14.078 -1.6031 -1.6536  0.3219
  872MPD2    H112850   4.389   3.762  14.471 -1.7284  0.2381 -0.2507
  872MPD2    H212851   0.017   3.789  14.252 -0.3621 -1.1899  0.9452
  872MPD2    H312852   4.620   3.722  14.458  0.2110 -1.1488 -0.0057
  872MPD2     N12853   4.235   3.882  14.284 -0.4428 -0.0796 -0.1709
  872MPD2    H512854   4.195   3.862  14.375 -0.2499  2.7755  0.5592
  872MPD2    N112855   4.656   3.889  14.036 -0.3213  0.3991  0.0743
  872MPD2    H712856   4.598   3.910  13.956 -0.1166  1.3842  0.1809
  873MPD2     C12857   0.545   3.862   0.730  0.2732 -0.3299  0.1285
  873MPD2    C112858   0.594   3.808   0.840 -0.8781  0.5093  0.1677
  873MPD2    C212859   0.617   3.668   0.840 -0.7162  0.7650  0.6094
  873MPD2    C312860   0.592   3.588   0.724  0.3540 -0.7629 -0.4368
  873MPD2    C412861   0.549   3.653   0.609  0.0530  0.2490  0.1443
  873MPD2    C512862   0.522   3.785   0.614 -0.5740 -0.0588  0.6563
  873MPD2     H12863   0.659   3.624   0.930 -3.4856 -1.7403  0.6933
  873MPD2    H112864   0.520   3.595   0.522 -3.4061  0.0173  1.4505
  873MPD2    H212865   0.522   3.968   0.731  1.5090 -0.0480 -1.3156
  873MPD2    H312866   0.461   3.834   0.538  1.5903  1.0271 -0.3862
  873MPD2     N12867   0.617   3.448   0.717 -0.2565  0.3317 -0.3636
  873MPD2    H512868   0.612   3.399   0.629 -1.9103 -1.1344  0.5557
  873MPD2    N112869   0.614   3.896   0.956 -0.4153  0.6629  0.5437
  873MPD2    H712870   0.580   3.991   0.945 -1.3104  0.3051  0.1411
  874MPD2     C12871   0.672   3.967  16.488  0.2285  0.2178 -0.5175
  874MPD2    C112872   0.768   3.910  16.564  0.2053  0.3919  0.0957
  874MPD2    C212873   0.861   3.990  16.625  0.4150 -0.5731  0.9220
  874MPD2    C312874   0.873   4.127  16.592  0.2683  0.1356 -0.1049
  874MPD2    C412875   0.778   4.179  16.510 -0.0154  0.1766 -0.2450
  874MPD2    C512876   0.675   4.103  16.461 -0.0604 -0.4523  0.2401
  874MPD2     H12877   0.936   3.945  16.688  0.4089 -1.3422  0.3781
  874MPD2    H112878   0.784   4.285  16.489 -1.3833  0.3995  0.5092
  874MPD2    H212879   0.613   3.905  16.422 -1.4666  0.2899  0.9440
  874MPD2    H312880   0.605   4.160  16.401 -0.0992  0.2431  0.9403
  874MPD2     N12881   0.976   4.198  16.663 -0.1613  0.1444  0.4556
  874MPD2    H512882   1.034   4.139  16.722 -1.3551 -3.2814 -1.8413
  874MPD2    N112883   0.770   3.771  16.576  0.1485 -0.0725  0.0907
  874MPD2    H712884   0.695   3.719  16.531  2.0276 -0.2488 -2.8550
  875MPD2     C12885   2.595   2.647  14.568 -1.1618  0.2321 -0.0827
  875MPD2    C112886   2.483   2.581  14.608  0.3541 -0.1516 -0.0140
  875MPD2    C212887   2.451   2.569  14.743  0.3317 -0.4044  0.7191
  875MPD2    C312888   2.529   2.639  14.837 -0.2874 -0.5782  0.2374
  875MPD2    C412889   2.642   2.698  14.792  0.0030  0.0920  0.2051
  875MPD2    C512890   2.679   2.702  14.665  0.3141 -0.0978 -0.4790
  875MPD2     H12891   2.362   2.518  14.776  1.3494 -1.3547  2.0130
  875MPD2    H112892   2.702   2.743  14.870 -1.6925  0.0555  1.5335
  875MPD2    H212893   2.625   2.662  14.465  1.7471  2.4728  1.0705
  875MPD2    H312894   2.759   2.771  14.640 -0.1418  1.5286  2.4849
  875MPD2     N12895   2.496   2.650  14.971 -0.0323 -0.2651  0.7689
  875MPD2    H512896   2.534   2.729  15.022  0.3138  0.5621 -0.7909
  875MPD2    N112897   2.392   2.523  14.517 -0.8596  0.6551  0.7602
  875MPD2    H712898   2.316   2.467  14.553 -1.8551  1.0486 -0.7498
  876MPD2     C12899   0.601   3.565  16.179 -0.6066  0.5871 -0.3170
  876MPD2    C112900   0.732   3.542  16.163 -0.3121  0.4114 -0.5883
  876MPD2    C212901   0.790   3.433  16.236 -0.4399 -0.3131 -0.1911
  876MPD2    C312902   0.708   3.345  16.310 -0.3668 -0.2956  0.2885
  876MPD2    C412903   0.575   3.376  16.330  0.3897 -0.0357  0.4545
  876MPD2    C512904   0.524   3.489  16.262  0.6881  0.8164 -0.3754
  876MPD2     H12905   0.894   3.408  16.219  0.1117  1.6188  0.3848
  876MPD2    H112906   0.512   3.319  16.396  0.7222  0.8676  1.5423
  876MPD2    H212907   0.557   3.645  16.122  2.0816  0.1034 -3.1011
  876MPD2    H312908   0.433   3.540  16.292 -0.4861 -0.4490 -1.7452
  876MPD2     N12909   0.778   3.237  16.367 -0.3045  0.8903  0.1078
  876MPD2    H512910   0.875   3.227  16.337 -0.6032 -1.1058 -0.1918
  876MPD2    N112911   0.790   3.624  16.066  0.2661  0.6734  0.4837
  876MPD2    H712912   0.734   3.693  16.017  1.4190  0.1009 -1.6034
  877MPD2     C12913   0.660   3.871  15.352  0.0458 -0.8122  0.1906
  877MPD2    C112914   0.792   3.899  15.369 -0.0902 -0.6133 -0.0147
  877MPD2    C212915   0.878   3.939  15.264 -0.1182 -0.0869 -0.1876
  877MPD2    C312916   0.824   3.964  15.137  0.0353 -0.6498 -0.1965
  877MPD2    C412917   0.694   3.937  15.121 -0.6235 -0.3427 -0.3883
  877MPD2    C512918   0.619   3.888  15.225 -0.4880  0.3041 -0.0825
  877MPD2     H12919   0.974   3.976  15.297 -0.3374 -0.7908  1.2484
  877MPD2    H112920   0.649   3.944  15.022  2.4289  1.0510 -1.6597
  877MPD2    H212921   0.602   3.820  15.428 -0.6829  0.0787  0.2302
  877MPD2    H312922   0.523   3.846  15.198  0.0591 -1.0263  0.0742
  877MPD2     N12923   0.899   4.000  15.024  0.2405  0.6565  0.1688
  877MPD2    H512924   0.848   4.012  14.937 -1.6851  0.6420  1.2971
  877MPD2    N112925   0.846   3.880  15.498 -0.4031  0.5069  0.0913
  877MPD2    H712926   0.947   3.875  15.496 -0.3387  2.0625 -0.6128
  878MPD2     C12927   0.595   3.447  12.964  0.4632  0.2518 -0.2500
  878MPD2    C112928   0.718   3.434  13.016 -0.0391 -0.1637 -0.3502
  878MPD2    C212929   0.732   3.419  13.157 -0.4795 -0.3230 -0.1274
  878MPD2    C312930   0.623   3.431  13.238  0.3311  1.2742 -0.7970
  878MPD2    C412931   0.497   3.434  13.180 -0.1021 -0.2901  0.3215
  878MPD2    C512932   0.484   3.447  13.040  0.0554  0.2702 -0.0623
  878MPD2     H12933   0.836   3.414  13.187 -0.7156 -0.6692  0.6360
  878MPD2    H112934   0.403   3.442  13.235  0.3312  1.1558  0.8483
  878MPD2    H212935   0.576   3.445  12.857  0.9852  0.0193 -0.3412
  878MPD2    H312936   0.394   3.480  12.990 -0.0178 -1.1458 -0.8574
  878MPD2     N12937   0.643   3.422  13.375 -0.1544  0.0948 -0.0875
  878MPD2    H512938   0.739   3.415  13.406 -0.7829 -1.2561  1.5760
  878MPD2    N112939   0.813   3.418  12.916 -0.9003  0.3460  1.0730
  878MPD2    H712940   0.776   3.416  12.822 -0.4886  1.7912  0.8865
  879MPD2     C12941   0.925   4.687  17.085 -0.6208  0.0318  0.0140
  879MPD2    C112942   0.938   4.598  17.188 -0.5593 -0.0637  0.5052
  879MPD2    C212943   0.884   4.475  17.164 -0.1853 -0.5495 -0.1767
  879MPD2    C312944   0.824   4.438  17.046  0.1745 -0.5520  1.4743
  879MPD2    C412945   0.811   4.532  16.948  0.3300  0.8256 -0.2992
  879MPD2    C512946   0.853   4.660  16.971  0.3115 -0.1075  0.0569
  879MPD2     H12947   0.889   4.408  17.250  1.3007 -1.6557 -1.1289
  879MPD2    H112948   0.767   4.500  16.854  1.8992 -0.4363 -0.5988
  879MPD2    H212949   0.954   0.051  17.094  2.2389 -0.6307 -1.6472
  879MPD2    H312950   0.847   0.001  16.900 -2.8655  0.1709  0.6519
  879MPD2     N12951   0.766   4.314  17.010  0.1802  0.1399 -0.2626
  879MPD2    H512952   0.742   4.304  16.912  1.6673  1.2299 -0.7464
  879MPD2    N112953   0.998   4.631  17.313 -0.0774 -1.0052  0.5142
  879MPD2    H712954   1.052   4.717  17.317  0.6037 -1.5198  2.1804
  880MPD2     C12955   2.453   1.268   0.856  0.3227 -0.1363 -0.0403
  880MPD2    C112956   2.447   1.299   0.727  0.0265  0.5364  0.0187
  880MPD2    C212957   2.524   1.219   0.642  0.3139 -0.2286  0.2847
  880MPD2    C312958   2.591   1.107   0.688 -0.1148 -0.3693  0.7001
  880MPD2    C412959   2.579   1.070   0.820 -0.8287  0.3476  0.0275
  880MPD2    C512960   2.521   1.157   0.903 -0.3626 -0.3854 -0.2604
  880MPD2     H12961   2.529   1.248   0.537 -0.7925 -2.1299 -0.3050
  880MPD2    H112962   2.629   0.985   0.866 -0.4189  0.1889 -0.6974
  880MPD2    H212963   2.392   1.323   0.927  0.5536 -1.1118  0.9266
  880MPD2    H312964   2.512   1.128   1.006 -0.8761  0.0804 -0.1726
  880MPD2     N12965   2.662   1.028   0.593 -0.6331  0.0707  0.0085
  880MPD2    H512966   2.669   1.065   0.499  0.2877 -0.4512 -0.1309
  880MPD2    N112967   2.375   1.415   0.685 -0.4137 -0.6506 -0.1067
  880MPD2    H712968   2.318   1.460   0.756 -1.5961  1.6936 -2.5470
  881MPD2     C12969   1.741   1.908  17.684  0.2035 -0.5262  0.4282
  881MPD2    C112970   1.856   1.849  17.653  0.0384  0.4726 -0.4438
  881MPD2    C212971   1.920   1.787   0.000  0.4874  0.7008 -0.2990
  881MPD2    C312972   1.863   1.771   0.127  0.0584  0.0061 -0.6785
  881MPD2    C412973   1.733   1.809   0.139  0.2748  0.1765 -0.3835
  881MPD2    C512974   1.674   1.885   0.042  0.2653 -0.0405 -0.1280
  881MPD2     H12975   2.026   1.768  17.749  0.3658 -0.1526  0.0337
  881MPD2    H112976   1.673   1.787   0.227 -1.4659  3.7350 -0.6759
  881MPD2    H212977   1.690   1.963  17.606 -0.4171  0.7076  1.6961
  881MPD2    H312978   1.572   1.919   0.044  0.0264 -0.8476  2.0409
  881MPD2     N12979   1.919   1.708   0.238  0.1210 -0.1085  0.2780
  881MPD2    H512980   1.856   1.706   0.317 -1.4751  2.2984 -0.9478
  881MPD2    N112981   1.920   1.892  17.535  0.4279  0.1556 -0.1357
  881MPD2    H712982   1.884   1.974  17.486  0.6110 -0.2921 -1.0312
  882MPD2     C12983   1.244   3.897  14.340  0.0999  0.0280 -0.0737
  882MPD2    C112984   1.131   3.966  14.377  0.8135  0.2755  0.2850
  882MPD2    C212985   1.015   3.937  14.318 -0.2258  0.3891 -0.7554
  882MPD2    C312986   1.009   3.852  14.209  0.0355 -0.3978 -0.2073
  882MPD2    C412987   1.127   3.780  14.175  0.1795 -0.9881  0.2909
  882MPD2    C512988   1.244   3.801  14.240 -0.8512 -0.3364  0.6966
  882MPD2     H12989   0.920   3.979  14.350 -0.6895 -0.5423 -0.9304
  882MPD2    H112990   1.127   3.697  14.105  2.6876 -1.5803  1.0176
  882MPD2    H212991   1.342   3.920  14.382  0.3329  0.7808 -1.0144
  882MPD2    H312992   1.334   3.752  14.204 -1.9626 -1.1030 -1.0306
  882MPD2     N12993   0.887   3.825  14.138 -0.6027 -0.2013  0.3094
  882MPD2    H512994   0.892   3.751  14.068 -0.5905 -0.5838  0.7137
  882MPD2    N112995   1.143   4.050  14.487 -0.3449 -0.7368  0.1552
  882MPD2    H712996   1.237   4.084  14.501 -0.7695  0.5160  0.0057
  883MPD2     C12997   2.524   3.807  16.271  0.0020  0.3120  0.6307
  883MPD2    C112998   2.635   3.882  16.255  0.2503 -0.4733 -0.2453
  883MPD2    C212999   2.729   3.890  16.355  0.3809  0.3756  0.2884
  883MPD2    C313000   2.715   3.830  16.476 -0.2232  0.3517 -0.3532
  883MPD2    C413001   2.612   3.747  16.497  0.1611 -0.5850  0.2626
  883MPD2    C513002   2.519   3.736  16.390 -0.3627  0.9995 -0.1973
  883MPD2     H13003   2.814   3.953  16.337  0.0778  0.1191 -2.1011
  883MPD2    H113004   2.592   3.698  16.591  1.5674  0.6165  1.1764
  883MPD2    H213005   2.442   3.799  16.201 -0.4809  0.2335  1.1977
  883MPD2    H313006   2.443   3.659  16.399  1.6163 -0.9998 -0.5879
  883MPD2     N13007   2.816   3.843  16.575  0.5566  0.4547  0.3215
  883MPD2    H513008   2.899   3.891  16.541 -1.4698  2.3669 -1.9294
  883MPD2    N113009   2.649   3.954  16.135  0.1378 -0.2891 -0.2562
  883MPD2    H713010   2.738   4.001  16.119  0.5474 -0.8308  0.4290
  884MPD2     C13011   0.579   4.305  15.227 -0.3292 -0.3085 -0.8251
  884MPD2    C113012   0.599   4.429  15.173  0.4657 -0.5437 -0.6708
  884MPD2    C213013   0.492   4.500  15.137 -0.4747  0.2609  0.0152
  884MPD2    C313014   0.364   4.451  15.133  0.1942  0.1035 -0.5149
  884MPD2    C413015   0.339   4.324  15.179  0.2966 -0.3700 -0.0229
  884MPD2    C513016   0.452   4.251  15.228  0.1795 -0.5873  0.3173
  884MPD2     H13017   0.503   4.605  15.110 -1.6979  1.1849  3.0944
  884MPD2    H113018   0.242   4.277  15.190  0.7629 -1.4179 -0.3492
  884MPD2    H213019   0.657   4.246  15.273 -2.0331 -0.0103  2.4475
  884MPD2    H313020   0.436   4.150  15.265  0.2882 -1.5720 -2.3352
  884MPD2     N13021   0.260   4.549  15.115 -0.0775 -0.1938  0.2959
  884MPD2    H513022   0.293   4.645  15.111  0.4472 -0.4569 -1.7322
  884MPD2    N113023   0.729   4.499  15.177  0.3797  0.3233 -0.0379
  884MPD2    H713024   0.724   4.598  15.156  1.2144  0.7052  1.6378
  885MPD2     C13025   2.924   4.371   0.653 -0.3309 -0.2581  0.2571
  885MPD2    C113026   3.021   4.450   0.599  0.3680 -0.2325  0.0566
  885MPD2    C213027   2.988   4.528   0.490 -0.3757  0.0875  0.4354
  885MPD2    C313028   2.866   4.527   0.432  0.5516 -0.9897  0.2914
  885MPD2    C413029   2.765   4.445   0.479 -0.2773  0.0582  0.2430
  885MPD2    C513030   2.797   4.373   0.593  0.0164  0.0301 -0.8660
  885MPD2     H13031   3.066   4.592   0.450  0.6653 -0.5635  1.3898
  885MPD2    H113032   2.663   4.460   0.444  0.0395  1.8560  0.0827
  885MPD2    H213033   2.950   4.304   0.734  0.9689  0.6356  0.5878
  885MPD2    H313034   2.717   4.309   0.628  0.7808 -1.1785 -1.3418
  885MPD2     N13035   2.846   4.605   0.315  0.2747 -0.4313  0.0080
  885MPD2    H513036   2.927   4.649   0.272 -1.8251  2.4467 -1.0617
  885MPD2    N113037   3.153   4.444   0.652  0.3885  0.4675  0.2051
  885MPD2    H713038   3.221   4.485   0.589  0.8863  0.4046  0.6967
  886MPD2     C13039   4.138   3.925  15.337 -0.1550  0.5545  0.1970
  886MPD2    C113040   4.268   3.890  15.364  0.0875  0.2907 -0.1399
  886MPD2    C213041   4.360   3.889  15.259 -0.2356  0.4656  0.3240
  886MPD2    C313042   4.318   3.913  15.128 -0.2018  0.5475 -0.2004
  886MPD2    C413043   4.188   3.939  15.107  0.0966  0.8081 -0.1389
  886MPD2    C513044   4.096   3.947  15.212  0.2841 -0.3760 -0.3442
  886MPD2     H13045   4.463   3.861  15.281  0.2864  1.8024 -0.3929
  886MPD2    H113046   4.148   3.953  15.007  0.8010 -0.7519 -0.6551
  886MPD2    H213047   4.072   3.923  15.423 -1.7760 -1.2954 -1.0894
  886MPD2    H313048   3.993   3.968  15.185 -0.4710 -2.3411  0.9653
  886MPD2     N13049   4.406   3.915  15.020 -0.3040 -0.2028 -0.1326
  886MPD2    H513050   4.354   3.918  14.933  0.2122 -0.9754 -0.4663
  886MPD2    N113051   4.289   3.835  15.494  0.3304 -0.3250 -0.1256
  886MPD2    H713052   4.212   3.816  15.557  0.7018  0.9654  0.6939
  887MPD2     C13053   0.183   3.823  16.088 -0.4815 -0.0835  0.6137
  887MPD2    C113054   0.165   3.852  15.952 -0.3641  0.2548  0.1946
  887MPD2    C213055   0.272   3.902  15.881 -0.3107 -0.5909  0.3916
  887MPD2    C313056   0.386   3.938  15.943 -0.0341 -0.5307 -0.4458
  887MPD2    C413057   0.405   3.912  16.077  0.3621  0.5854 -0.2265
  887MPD2    C513058   0.305   3.852  16.146 -0.5199  0.1258 -0.4564
  887MPD2     H13059   0.268   3.912  15.773  3.5580  0.5941  0.3632
  887MPD2    H113060   0.498   3.924  16.132 -0.8200  0.2680  1.8268
  887MPD2    H213061   0.108   3.775  16.151 -1.1831  0.8359  0.4738
  887MPD2    H313062   0.315   3.838  16.253  1.5913  1.6790 -0.4561
  887MPD2     N13063   0.481   4.005  15.864 -0.2663  0.5227 -0.3428
  887MPD2    H513064   0.446   4.049  15.780  0.2277  0.3336 -0.6488
  887MPD2    N113065   0.036   3.833  15.888 -1.3525 -0.4053  0.1695
  887MPD2    H713066   0.030   3.840  15.787  2.3665 -1.6594 -0.1170
  888MPD2     C13067   2.281   3.795  14.789  0.8656  0.5427  0.0179
  888MPD2    C113068   2.281   3.846  14.915 -0.3436  0.6507 -0.1306
  888MPD2    C213069   2.355   3.955  14.936 -0.4432  0.5836 -0.7874
  888MPD2    C313070   2.439   4.007  14.836  0.0620  0.4348 -0.3623
  888MPD2    C413071   2.435   3.950  14.711  0.4823  0.4605 -0.4880
  888MPD2    C513072   2.359   3.840  14.689 -0.9631  0.3832 -0.4272
  888MPD2     H13073   2.362   4.007  15.031 -1.9278  1.8700 -1.3777
  888MPD2    H113074   2.486   3.986  14.623  0.4884 -0.3994 -0.8416
  888MPD2    H213075   2.236   3.700  14.762 -1.7402  0.8008  3.4640
  888MPD2    H313076   2.356   3.801  14.588  0.4461  0.8629 -0.6577
  888MPD2     N13077   2.518   4.120  14.868 -0.6871 -0.5784 -0.3344
  888MPD2    H513078   2.503   4.162  14.959  0.8608 -0.1685 -0.2730
  888MPD2    N113079   2.195   3.807  15.022  0.7886  0.1567 -0.2374
  888MPD2    H713080   2.204   3.859  15.109  0.8070 -0.5870  0.2082
  889MPD2     C13081   2.267   3.221  12.402  0.2574  0.6141 -0.5780
  889MPD2    C113082   2.245   3.206  12.535  0.0995 -0.6540 -0.7004
  889MPD2    C213083   2.252   3.315  12.612 -0.1988 -0.5677  0.1245
  889MPD2    C313084   2.257   3.446  12.561 -0.7132  0.7116  0.0516
  889MPD2    C413085   2.265   3.459  12.427 -0.1398  0.1273  0.3936
  889MPD2    C513086   2.274   3.348  12.349  0.0135 -0.1414  0.8343
  889MPD2     H13087   2.265   3.295  12.718 -0.6668  1.2092  0.5092
  889MPD2    H113088   2.262   3.554  12.374 -3.8789  0.1911  0.7051
  889MPD2    H213089   2.258   3.140  12.330 -0.6378  0.3674 -0.1898
  889MPD2    H313090   2.261   3.358  12.241 -3.9094 -0.6635  1.2759
  889MPD2     N13091   2.247   3.556  12.647  0.3247  0.3107 -0.1355
  889MPD2    H513092   2.224   3.540  12.744  2.8219 -1.9538  0.1050
  889MPD2    N113093   2.247   3.084  12.602  0.1493  0.4999  0.1596
  889MPD2    H713094   2.206   3.089  12.694 -0.4397  1.9222 -0.1879
  890MPD2     C13095   1.529   0.455  14.684 -0.5741  0.6280 -0.7631
  890MPD2    C113096   1.460   0.525  14.785 -0.0751 -0.5268 -0.7333
  890MPD2    C213097   1.453   0.448  14.900 -0.0041 -0.3182  0.4667
  890MPD2    C313098   1.503   0.320  14.910  0.6483  0.1794 -0.0569
  890MPD2    C413099   1.565   0.267  14.805 -0.1365 -0.7325  0.5684
  890MPD2    C513100   1.571   0.331  14.690  0.2686 -0.0396 -0.1353
  890MPD2     H13101   1.390   0.478  14.983  2.7318  4.0671  1.0146
  890MPD2    H113102   1.611   0.169  14.810 -1.8029 -1.5050  0.6335
  890MPD2    H213103   1.542   0.496  14.584  2.8514  1.5399  0.0228
  890MPD2    H313104   1.618   0.288  14.602  1.0913 -0.4461  0.5017
  890MPD2     N13105   1.497   0.249  15.032 -0.6235 -0.0632  0.1110
  890MPD2    H513106   1.472   0.297  15.118  1.3098 -1.0749  1.2355
  890MPD2    N113107   1.412   0.657  14.769  0.6154 -0.0636 -0.5467
  890MPD2    H713108   1.417   0.680  14.670 -1.0898 -1.2305 -0.8918
  891MPD2     C13109   3.306   3.234  16.759 -0.0571  0.0074  0.5342
  891MPD2    C113110   3.219   3.131  16.771 -0.1649 -0.5712 -0.8567
  891MPD2    C213111   3.258   3.020  16.844 -0.0895  0.2140 -0.1277
  891MPD2    C313112   3.386   3.008  16.899 -0.3194 -0.3594  0.2358
  891MPD2    C413113   3.471   3.118  16.884 -0.3709  0.1407 -0.7272
  891MPD2    C513114   3.424   3.231  16.820 -0.3533  0.9467  0.1675
  891MPD2     H13115   3.195   2.931  16.845  2.3821 -1.4959  2.3917
  891MPD2    H113116   3.573   3.127  16.920 -0.9525 -0.0305  0.9341
  891MPD2    H213117   3.288   3.330  16.711 -0.2534 -0.2355  0.1192
  891MPD2    H313118   3.494   3.312  16.802  1.2523 -0.6318 -0.7220
  891MPD2     N13119   3.430   2.890  16.960 -0.3091 -0.6890 -0.0728
  891MPD2    H513120   3.360   2.817  16.969 -0.1311 -0.9485 -0.8074
  891MPD2    N113121   3.101   3.145  16.696  0.5818 -0.1686  0.4677
  891MPD2    H713122   3.096   3.222  16.629  0.4578  0.4306  1.1712
  892MPD2     C13123   0.363   4.437  14.531 -0.3527  0.8448  0.4137
  892MPD2    C113124   0.265   4.341  14.509 -0.0211 -0.1398  0.3830
  892MPD2    C213125   0.289   4.214  14.452 -0.1455  0.1520 -0.0721
  892MPD2    C313126   0.416   4.190  14.400  0.1972 -0.1681 -0.2634
  892MPD2    C413127   0.514   4.289  14.419  0.0495 -0.0485 -0.5616
  892MPD2    C513128   0.489   4.403  14.489  0.0123 -0.7843 -0.2081
  892MPD2     H13129   0.207   4.144  14.454 -0.5843  0.6685  0.2256
  892MPD2    H113130   0.614   4.271  14.381  1.9968  2.5648  3.3767
  892MPD2    H213131   0.346   4.530  14.584 -1.3829  0.5475  0.6155
  892MPD2    H313132   0.570   4.474  14.499 -0.8985  0.3213 -0.6958
  892MPD2     N13133   0.453   4.071  14.337  0.4331  0.2981 -0.8911
  892MPD2    H513134   0.546   4.074  14.297  0.4130 -0.7061 -1.0284
  892MPD2    N113135   0.124   4.366  14.537  0.2122 -0.4260 -0.8235
  892MPD2    H713136   0.061   4.287  14.526  0.6437 -0.5130 -2.7145
  893MPD2     C13137   1.625   2.620   1.569 -1.4838 -0.2360 -0.5485
  893MPD2    C113138   1.653   2.695   1.457 -0.6396 -0.2898  0.7046
  893MPD2    C213139   1.550   2.749   1.382 -0.5040 -0.7234  0.0262
  893MPD2    C313140   1.414   2.739   1.429 -0.9486 -0.4596  0.0716
  893MPD2    C413141   1.393   2.667   1.542 -0.0727 -0.3869  0.4579
  893MPD2    C513142   1.500   2.605   1.610  0.1417 -0.4496  0.3978
  893MPD2     H13143   1.580   2.813   1.300 -2.2403  0.8839  0.6191
  893MPD2    H113144   1.294   2.656   1.587 -0.1329 -1.0735  0.1687
  893MPD2    H213145   1.697   2.564   1.628 -2.6121 -0.3564  0.7019
  893MPD2    H313146   1.481   2.551   1.702  0.6353  1.6661  1.7555
  893MPD2     N13147   1.304   2.797   1.367 -0.1267 -0.2164 -0.0409
  893MPD2    H513148   1.213   2.789   1.411  0.3010 -1.1134  0.7038
  893MPD2    N113149   1.786   2.711   1.426 -0.2112  0.9943 -0.8746
  893MPD2    H713150   1.846   2.696   1.506 -2.2779 -0.8529  0.3200
  894MPD2     C13151   4.333   0.354   1.665  0.3443  0.7669  0.2213
  894MPD2    C113152   4.353   0.473   1.597 -0.2062  0.4381 -0.4606
  894MPD2    C213153   4.341   0.480   1.459 -0.2550  0.3547 -0.5868
  894MPD2    C313154   4.329   0.360   1.387  0.3833  0.9622  0.2741
  894MPD2    C413155   4.320   0.241   1.454 -0.3103  0.3059  0.1225
  894MPD2    C513156   4.308   0.236   1.595  0.0066 -0.1864 -0.3051
  894MPD2     H13157   4.350   0.576   1.411 -0.7029  0.8970  0.4075
  894MPD2    H113158   4.300   0.145   1.408 -0.5215  0.5768 -0.3585
  894MPD2    H213159   4.330   0.349   1.773  0.4759  2.6902  0.3259
  894MPD2    H313160   4.287   0.138   1.636 -0.2885 -0.3431 -0.8394
  894MPD2     N13161   4.339   0.370   1.245  1.0041 -0.8443 -0.3966
  894MPD2    H513162   4.352   0.464   1.207 -0.4780 -0.0685  1.0050
  894MPD2    N113163   4.389   0.594   1.671 -0.2163 -0.0066  0.2933
  894MPD2    H713164   4.411   0.680   1.621 -1.4992  0.7498  1.0378
  895MPD2     C13165   4.578   3.428  13.986 -0.3395  0.3873  0.0613
  895MPD2    C113166   4.543   3.368  13.865 -0.7295 -0.0331 -0.1625
  895MPD2    C213167   4.523   3.227  13.866 -0.1931 -0.2854  0.2259
  895MPD2    C313168   4.539   3.157  13.982 -0.3627  0.2813  0.2209
  895MPD2    C413169   4.573   3.223  14.097 -0.0594 -0.6652  0.3498
  895MPD2    C513170   4.595   3.354  14.099  0.2115 -0.0025  0.2945
  895MPD2     H13171   4.492   3.176  13.775  0.5903  1.6459 -1.1312
  895MPD2    H113172   4.577   3.181  14.197  1.0191 -0.9681  0.1807
  895MPD2    H213173   4.595   3.534  13.995  0.7448  0.2404 -0.1940
  895MPD2    H313174   4.600   3.413  14.190 -0.0676 -0.1757  0.4237
  895MPD2     N13175   4.527   3.011  13.976 -0.3549  0.1314 -0.4715
  895MPD2    H513176   4.504   2.971  13.886  3.5351 -0.3795 -1.2386
  895MPD2    N113177   4.519   3.432  13.740  0.2847 -0.1464 -0.2943
  895MPD2    H713178   4.487   3.374  13.663 -2.0061  1.1939 -0.3486
  896MPD2     C13179   1.709   1.115   1.399  0.3237  0.1929 -0.0470
  896MPD2    C113180   1.687   1.097   1.261 -0.0255 -0.2294 -0.0107
  896MPD2    C213181   1.557   1.059   1.228  0.0903 -1.1339  0.0097
  896MPD2    C313182   1.463   1.030   1.323 -0.0952 -0.7546 -0.2205
  896MPD2    C413183   1.489   1.043   1.459  0.2880  0.2835 -0.3269
  896MPD2    C513184   1.616   1.074   1.491 -0.0480 -0.2522  0.3811
  896MPD2     H13185   1.522   1.042   1.127 -0.8768  1.1501 -0.0359
  896MPD2    H113186   1.417   1.032   1.539  0.4569  0.1851 -0.1872
  896MPD2    H213187   1.807   1.144   1.434  1.4945 -2.0483 -1.4521
  896MPD2    H313188   1.641   1.093   1.595  2.6965 -0.7707 -0.1733
  896MPD2     N13189   1.338   0.995   1.272 -0.2696 -0.3459 -0.4721
  896MPD2    H513190   1.325   0.983   1.172 -2.3763 -1.9703  0.0071
  896MPD2    N113191   1.791   1.118   1.168  0.4659 -0.5613 -0.4566
  896MPD2    H713192   1.888   1.115   1.197  0.6596  3.3473 -0.7929
  897MPD2     C13193   2.843   3.541  10.344  0.1617 -0.3032  0.1014
  897MPD2    C113194   2.730   3.605  10.396  0.4275  0.1845  0.1912
  897MPD2    C213195   2.658   3.551  10.497  0.1535  0.0494  0.0852
  897MPD2    C313196   2.677   3.423  10.539 -0.2076  0.2318 -0.5726
  897MPD2    C413197   2.780   3.354  10.473  0.2507 -0.7088 -0.5214
  897MPD2    C513198   2.861   3.419  10.385 -0.1400  0.0531  0.0246
  897MPD2     H13199   2.560   3.592  10.520  0.1880  0.5288 -0.6204
  897MPD2    H113200   2.798   3.249  10.490 -1.0449 -0.8498  0.0063
  897MPD2    H213201   2.910   3.584  10.271  0.9853  0.0313  1.0710
  897MPD2    H313202   2.941   3.361  10.341 -0.5877 -0.3452 -0.2607
  897MPD2     N13203   2.598   3.376  10.644 -0.8177  0.1066 -0.3134
  897MPD2    H513204   2.523   3.439  10.671  0.2582  2.8922 -3.6749
  897MPD2    N113205   2.700   3.735  10.343 -0.1659  0.2618 -0.4589
  897MPD2    H713206   2.756   3.774  10.268  0.0058  1.0616  0.0800
  898MPD2     C13207   4.438   3.664  17.756 -0.0985 -0.8305 -0.0111
  898MPD2    C113208   4.480   3.672  17.621 -0.3021  0.3288 -0.6217
  898MPD2    C213209   4.467   3.794  17.555  0.0732  0.7315 -0.0849
  898MPD2    C313210   4.418   3.907  17.621 -0.2371  0.2603 -0.1702
  898MPD2    C413211   4.366   3.896  17.744 -0.5972  0.3503 -0.1885
  898MPD2    C513212   4.380   3.778   0.050  0.0043 -0.8028 -0.0158
  898MPD2     H13213   4.505   3.799  17.454  1.7897  3.4714  0.6745
  898MPD2    H113214   4.314   3.976   0.035 -3.2928 -0.3532 -1.8683
  898MPD2    H213215   4.454   3.567   0.042 -1.4811 -1.1507 -0.2013
  898MPD2    H313216   4.347   3.766   0.152  0.0756  0.7734  0.2000
  898MPD2     N13217   4.413   4.028  17.542  0.0374  0.2014 -0.6018
  898MPD2    H513218   4.425   4.021  17.442  1.3015 -0.8478 -0.3724
  898MPD2    N113219   4.553   3.568  17.561  0.3445 -0.0630  0.2087
  898MPD2    H713220   4.586   3.591  17.467  1.8752 -3.4323 -0.0652
  899MPD2     C13221   0.320   4.051  17.093  0.2029 -0.5289 -0.0727
  899MPD2    C113222   0.382   4.115  17.204  0.1087  0.2875 -0.7100
  899MPD2    C213223   0.391   4.039  17.316  0.0794  0.4434 -0.2116
  899MPD2    C313224   0.345   3.906  17.322  0.8413 -0.1110 -0.5256
  899MPD2    C413225   0.291   3.843  17.208 -0.4906  0.2731 -0.5142
  899MPD2    C513226   0.277   3.921  17.093 -0.1500  0.1963 -0.0318
  899MPD2     H13227   0.423   4.085  17.409 -1.2657  0.1465  0.3975
  899MPD2    H113228   0.257   3.740  17.210  1.3864 -0.2882  2.9951
  899MPD2    H213229   0.306   4.114  17.006 -2.1083  0.2254  0.8422
  899MPD2    H313230   0.222   3.875  17.011 -2.6823 -0.8613  2.2606
  899MPD2     N13231   0.344   3.834  17.446  0.2291  0.2292 -0.1618
  899MPD2    H513232   0.291   3.748  17.435  0.5520 -0.1007  0.9306
  899MPD2    N113233   0.424   4.250  17.191 -0.2121  0.2029  0.0702
  899MPD2    H713234   0.412   4.288  17.098  0.7705  1.9430  0.6540
  900MPD2     C13235   0.445   0.771  12.778  0.5333  0.7852  0.0031
  900MPD2    C113236   0.366   0.677  12.719  0.7590  0.1940 -0.3928
  900MPD2    C213237   0.273   0.718  12.625  0.0111 -0.4305  0.4037
  900MPD2    C313238   0.268   0.847  12.585 -0.3469  0.4264  0.1375
  900MPD2    C413239   0.347   0.940  12.649 -0.0282  0.8334  0.0964
  900MPD2    C513240   0.432   0.903  12.747 -0.0365 -0.3854 -0.2268
  900MPD2     H13241   0.216   0.644  12.570 -0.2213  0.1022 -0.0781
  900MPD2    H113242   0.352   1.045  12.621  1.9678  0.4072 -1.1385
  900MPD2    H213243   0.509   0.738  12.858  0.1420  0.5055  0.2006
  900MPD2    H313244   0.497   0.976  12.795 -0.7218  0.4713 -0.6057
  900MPD2     N13245   0.174   0.882  12.488 -0.5013  0.3086 -0.4890
  900MPD2    H513246   0.110   0.814  12.449  0.9956 -1.0428 -0.5846
  900MPD2    N113247   0.383   0.548  12.750 -0.5163  0.4200  0.4247
  900MPD2    H713248   0.451   0.520  12.820  0.6006 -2.5568 -1.8559
  901MPD2     C13249   0.174   4.223  12.545  0.7618 -0.3326 -0.0608
  901MPD2    C113250   0.304   4.262  12.517  0.0586  0.2046  0.1578
  901MPD2    C213251   0.357   4.376  12.565  0.5015 -0.7087 -0.1416
  901MPD2    C313252   0.278   4.463  12.641 -0.1945  0.0114 -0.0547
  901MPD2    C413253   0.153   4.424  12.682  0.0939  0.3206 -0.5050
  901MPD2    C513254   0.098   4.305  12.632 -0.0920 -0.6810  0.1428
  901MPD2     H13255   0.457   4.403  12.532  0.7477 -2.1164 -0.5733
  901MPD2    H113256   0.094   4.485  12.750 -0.2106 -1.4073  0.7691
  901MPD2    H213257   0.125   4.144  12.489 -0.6167 -0.5862  1.4946
  901MPD2    H313258   4.738   4.271  12.650  0.0329  0.0403  2.1916
  901MPD2     N13259   0.332   4.586  12.682 -0.2453  0.1909 -0.6449
  901MPD2    H513260   0.431   4.597  12.662  0.5586 -0.9385  2.6885
  901MPD2    N113261   0.382   4.196  12.419 -0.4936  0.5136 -0.5946
  901MPD2    H713262   0.472   4.235  12.391 -0.3193  1.1855  0.9564
  902MPD2     C13263   3.870   3.492  12.570 -0.2268  0.8577 -0.1109
  902MPD2    C113264   4.002   3.521  12.596  0.4509  0.9919 -0.8874
  902MPD2    C213265   4.092   3.416  12.605  0.5842 -0.6365  0.0552
  902MPD2    C313266   4.049   3.284  12.605  0.2239 -0.6686 -0.1756
  902MPD2    C413267   3.920   3.254  12.581  0.4152  0.1241 -0.0079
  902MPD2    C513268   3.836   3.361  12.560  0.1601  0.5640 -0.7648
  902MPD2     H13269   4.198   3.437  12.603  0.5675 -0.2875  2.6032
  902MPD2    H113270   3.880   3.154  12.585 -1.2512  0.9825  4.1209
  902MPD2    H213271   3.797   3.568  12.542  0.3776  2.5832  3.0500
  902MPD2    H313272   3.734   3.334  12.536  0.3482 -1.6292  0.8973
  902MPD2     N13273   4.143   3.176  12.601 -0.4153 -0.1684  0.5596
  902MPD2    H513274   4.123   3.087  12.557 -1.5976  0.7049 -0.6567
  902MPD2    N113275   4.024   3.663  12.598  0.0658  0.3816  0.0281
  902MPD2    H713276   3.938   3.712  12.576 -0.0717 -0.4665 -1.3644
  903MPD2     C13277   4.484   3.650  12.334  0.0756  0.2164  0.0680
  903MPD2    C113278   4.419   3.532  12.306 -0.4402 -0.0019  0.5541
  903MPD2    C213279   4.299   3.537  12.242  0.1719  0.2172  0.2298
  903MPD2    C313280   4.238   3.659  12.210 -0.0958 -0.3914 -0.5834
  903MPD2    C413281   4.310   3.777  12.224 -0.7046  0.0965  0.0542
  903MPD2    C513282   4.429   3.774  12.292 -0.2335  0.3156 -0.7625
  903MPD2     H13283   4.244   3.445  12.227 -1.8449  1.4205  0.2284
  903MPD2    H113284   4.267   3.876  12.213  1.4232  1.0685  0.5132
  903MPD2    H213285   4.581   3.648  12.382 -0.1609  0.1391  0.5452
  903MPD2    H313286   4.478   3.869  12.307  1.3898 -0.1999 -2.7615
  903MPD2     N13287   4.104   3.669  12.168 -0.0867 -0.5697  0.3510
  903MPD2    H513288   4.042   3.590  12.178  0.1967 -0.7384  0.7818
  903MPD2    N113289   4.484   3.415  12.349 -0.0584 -0.0327 -0.4800
  903MPD2    H713290   4.561   3.433  12.413 -0.0434 -0.9837 -0.2342
  904MPD2     C13291   4.439   2.857  14.732  0.2966 -0.7227 -0.7610
  904MPD2    C113292   4.411   2.882  14.598  0.3610  0.2441  0.1796
  904MPD2    C213293   4.505   2.921  14.509  0.4075  0.8487  1.2145
  904MPD2    C313294   4.636   2.954  14.551 -0.6672  0.7224 -0.3289
  904MPD2    C413295   4.664   2.927  14.684  0.2041 -0.5981  0.5981
  904MPD2    C513296   4.565   2.883  14.768  0.3777 -0.0930  0.2066
  904MPD2     H13297   4.483   2.944  14.405  0.4961 -0.2780  0.9424
  904MPD2    H113298   0.022   2.931  14.728 -0.6745 -1.4004  2.6473
  904MPD2    H213299   4.365   2.824  14.805  0.8356  0.1563  0.1843
  904MPD2    H313300   4.602   2.870  14.869  2.3317 -0.9326 -0.6193
  904MPD2     N13301   4.723   3.001  14.457  0.0586 -0.2236 -0.0993
  904MPD2    H513302   4.685   3.001  14.363  0.2357  0.5125 -0.1723
  904MPD2    N113303   4.277   2.867  14.545  0.6432 -0.3572 -0.6840
  904MPD2    H713304   4.262   2.851  14.446 -0.4296  1.2459 -0.7726
  905MPD2     C13305   4.101   2.992  13.803 -0.9549 -0.0619 -0.0028
  905MPD2    C113306   4.143   2.906  13.907  0.4908 -0.6027  0.9073
  905MPD2    C213307   4.229   2.800  13.877 -0.1621  0.9980 -0.0379
  905MPD2    C313308   4.270   2.774  13.747 -0.3762 -0.6142 -0.6263
  905MPD2    C413309   4.231   2.857  13.646  0.6911 -0.5948  0.4356
  905MPD2    C513310   4.145   2.960  13.675 -0.4041  0.4928 -0.0766
  905MPD2     H13311   4.263   2.734  13.956 -1.3671 -2.1075 -2.1199
  905MPD2    H113312   4.260   2.840  13.543  0.3198 -1.7232  0.5209
  905MPD2    H213313   4.033   3.075  13.814 -0.2284  0.6351 -0.8362
  905MPD2    H313314   4.125   3.028  13.593 -0.5457  0.9266  0.3196
  905MPD2     N13315   4.355   2.669  13.700  0.5240 -0.1577  0.4446
  905MPD2    H513316   4.347   2.647  13.601  1.3066  1.1138  0.0911
  905MPD2    N113317   4.090   2.930  14.041 -0.2841  0.4304  0.2713
  905MPD2    H713318   4.019   3.003  14.048 -1.7137 -0.9479  0.3069
  906MPD2     C13319   1.224   3.237  11.404  1.0409 -1.9552 -0.4526
  906MPD2    C113320   1.272   3.158  11.297  0.3036  0.1188  0.2092
  906MPD2    C213321   1.230   3.021  11.292  0.1009  0.2117  0.2834
  906MPD2    C313322   1.147   2.969  11.402  0.3947  0.4647 -0.4889
  906MPD2    C413323   1.091   3.059  11.494 -0.4287  0.0803  0.0061
  906MPD2    C513324   1.133   3.188  11.489  0.1883  0.5412  0.1276
  906MPD2     H13325   1.282   2.953  11.225  0.7007  3.7517 -2.8199
  906MPD2    H113326   1.021   3.022  11.567 -1.4777  3.0420  0.4632
  906MPD2    H213327   1.252   3.341  11.419  0.1967 -1.7873 -0.0243
  906MPD2    H313328   1.088   3.254  11.562 -2.0134 -0.4522 -0.3498
  906MPD2     N13329   1.111   2.839  11.414  0.8020 -1.1989  0.2781
  906MPD2    H513330   1.042   2.806  11.480 -0.4486  0.8160 -0.0208
  906MPD2    N113331   1.357   3.204  11.193  0.5819  0.0670 -0.5451
  906MPD2    H713332   1.379   3.145  11.114  0.5416  0.6461 -0.9860
  907MPD2     C13333   4.301   2.221  16.255 -0.8500 -0.6935 -0.2313
  907MPD2    C113334   4.352   2.094  16.261  0.3886  0.0225 -0.7764
  907MPD2    C213335   4.466   2.065  16.337  0.2268 -0.0020 -0.0251
  907MPD2    C313336   4.535   2.171  16.392 -0.2644 -0.1659 -0.4998
  907MPD2    C413337   4.486   2.295  16.383  0.0869 -0.4250 -0.6555
  907MPD2    C513338   4.369   2.320  16.319  0.1290 -0.4386  0.2829
  907MPD2     H13339   4.491   1.960  16.346 -2.0460 -0.5859 -0.5337
  907MPD2    H113340   4.542   2.383  16.412 -1.3297 -0.5455  2.3863
  907MPD2    H213341   4.225   2.249  16.184 -0.1055 -1.3166 -1.2817
  907MPD2    H313342   4.341   2.424  16.306  2.2497  0.0991 -0.1056
  907MPD2     N13343   4.660   2.147  16.458 -0.2500 -0.6623 -0.0715
  907MPD2    H513344   4.705   2.057  16.443 -1.1592 -1.4837  2.2513
  907MPD2    N113345   4.301   1.982  16.192 -0.0194  0.3160  0.7058
  907MPD2    H713346   4.341   1.889  16.202  1.3407  0.4406 -3.5154
  908MPD2     C13347   2.510   3.879   9.518  0.2196  0.1393 -0.0270
  908MPD2    C113348   2.513   3.777   9.608  0.6052  0.6536 -0.7322
  908MPD2    C213349   2.546   3.802   9.748  0.6556 -0.1120  0.2343
  908MPD2    C313350   2.559   3.938   9.790  0.0299  0.4439  0.1920
  908MPD2    C413351   2.554   4.036   9.695  0.2728  0.4120  0.4428
  908MPD2    C513352   2.535   4.003   9.562 -0.3670 -0.1241  0.2331
  908MPD2     H13353   2.541   3.720   9.819 -0.3061 -2.0977 -2.0982
  908MPD2    H113354   2.568   4.141   9.718  1.0507  0.4675 -0.2917
  908MPD2    H213355   2.509   3.873   9.410  1.3337 -2.3598  0.1038
  908MPD2    H313356   2.524   4.087   9.494  1.6461 -0.8352 -0.9781
  908MPD2     N13357   2.594   3.953   9.923  0.7681  0.3239 -0.2604
  908MPD2    H513358   2.621   3.871   9.977  1.9002  1.2244  0.5478
  908MPD2    N113359   2.480   3.646   9.552 -0.1010 -0.3582  0.1917
  908MPD2    H713360   2.459   3.656   9.453  0.2330 -0.2422  0.1344
  909MPD2     C13361   3.159   1.099  11.507 -0.0596  0.4876 -0.5762
  909MPD2    C113362   3.207   1.228  11.486  0.1467 -0.0539  0.2873
  909MPD2    C213363   3.213   1.305  11.598  0.0407  0.1892  0.9001
  909MPD2    C313364   3.172   1.260  11.721  0.5415  0.4906 -0.2593
  909MPD2    C413365   3.140   1.128  11.740  0.2910 -0.0450 -0.0610
  909MPD2    C513366   3.141   1.043  11.630 -0.0892  0.9633 -0.3757
  909MPD2     H13367   3.247   1.407  11.592 -3.0610  1.1256 -0.6773
  909MPD2    H113368   3.114   1.089  11.837  1.0957 -0.8831 -0.1770
  909MPD2    H213369   3.151   1.036  11.419  0.4039  1.7482 -1.5182
  909MPD2    H313370   3.123   0.938  11.651 -3.7202  1.6714  0.1178
  909MPD2     N13371   3.170   1.348  11.829 -0.3971 -0.2326  0.2013
  909MPD2    H513372   3.198   1.445  11.816  2.8307 -1.3832 -1.5076
  909MPD2    N113373   3.240   1.285  11.361  0.1466 -0.1336 -0.1121
  909MPD2    H713374   3.260   1.385  11.360  0.1766 -0.1644 -2.4014
  910MPD2     C13375   4.037   2.590  16.448 -0.1140 -0.3856  0.1289
  910MPD2    C113376   4.176   2.615  16.453 -0.4051 -0.4017  0.7144
  910MPD2    C213377   4.223   2.720  16.374  1.0069 -0.0067 -0.0623
  910MPD2    C313378   4.133   2.790  16.290  0.1690 -0.5077  0.7311
  910MPD2    C413379   3.999   2.754  16.280 -0.5409 -0.3938  0.4261
  910MPD2    C513380   3.961   2.664  16.366 -0.4874  0.8341 -0.0891
  910MPD2     H13381   4.326   2.751  16.362  1.1923 -0.1532  1.1449
  910MPD2    H113382   3.931   2.803  16.212 -0.1513 -1.7087 -0.9345
  910MPD2    H213383   3.986   2.516  16.509 -1.9072 -0.4303 -1.4233
  910MPD2    H313384   3.854   2.649  16.377 -0.4981  0.8339 -0.2000
  910MPD2     N13385   4.176   2.899  16.202  0.1559 -0.4627 -0.2547
  910MPD2    H513386   4.108   2.962  16.161  0.1514 -0.3293 -0.0393
  910MPD2    N113387   4.264   2.547  16.547  0.2910 -0.0479  0.3828
  910MPD2    H713388   4.358   2.584  16.557  0.4728 -0.6475  0.9247
  911MPD2     C13389   1.811   3.051  15.890  0.0989  0.4402  0.2334
  911MPD2    C113390   1.812   3.045  16.030  0.0454  0.5536  0.3093
  911MPD2    C213391   1.756   3.152  16.106  0.5569 -0.0171 -0.1934
  911MPD2    C313392   1.721   3.267  16.037  0.3506  0.6790 -0.2585
  911MPD2    C413393   1.735   3.273  15.902  0.5734  0.4364 -0.2574
  911MPD2    C513394   1.780   3.167  15.831  0.5737 -0.4919 -0.6046
  911MPD2     H13395   1.756   3.148  16.215  2.0191 -0.6409 -0.2231
  911MPD2    H113396   1.718   3.363  15.845 -0.8060  1.1088  1.2088
  911MPD2    H213397   1.854   2.973  15.829 -0.7250  0.2653 -0.1253
  911MPD2    H313398   1.795   3.182  15.725 -0.7372  3.5771 -0.2075
  911MPD2     N13399   1.676   3.389  16.087  0.1473  0.2621  0.1024
  911MPD2    H513400   1.677   3.467  16.023 -1.7917  0.7462  0.6441
  911MPD2    N113401   1.862   2.927  16.077 -0.3274  0.4694  0.4224
  911MPD2    H713402   1.891   2.863  16.004 -0.9113  1.6399 -0.8378
  912MPD2     C13403   1.404   3.179  15.736 -0.3944 -0.1300  0.0479
  912MPD2    C113404   1.367   3.172  15.866  0.0015  0.2976  0.3019
  912MPD2    C213405   1.383   3.050  15.929  0.0366 -0.1865  0.4913
  912MPD2    C313406   1.461   2.953  15.867  0.5400 -0.2670 -0.5966
  912MPD2    C413407   1.486   2.955  15.730  0.7532 -0.5140  0.1363
  912MPD2    C513408   1.452   3.073  15.670  0.6282 -0.9198 -0.1157
  912MPD2     H13409   1.364   3.034  16.035 -1.8849  1.3765  0.3920
  912MPD2    H113410   1.531   2.876  15.670 -0.7680 -0.2503 -1.3711
  912MPD2    H213411   1.383   3.266  15.675 -1.1111 -1.1516 -1.1632
  912MPD2    H313412   1.470   3.073  15.563 -1.8781  1.4033 -0.5303
  912MPD2     N13413   1.501   2.848  15.952  0.1419  0.0820 -0.3125
  912MPD2    H513414   1.476   2.861  16.049 -3.2070 -1.5873 -0.9838
  912MPD2    N113415   1.322   3.289  15.936  0.6241 -0.3921  0.4109
  912MPD2    H713416   1.321   3.380  15.891  0.7176  0.5833  2.3917
  913MPD2     C13417   3.058   0.149  10.871  1.6648 -0.4881 -1.2261
  913MPD2    C113418   3.117   0.270  10.853 -0.1347 -0.5146 -0.0415
  913MPD2    C213419   3.065   0.367  10.762 -0.0300 -0.0252 -0.2737
  913MPD2    C313420   2.952   0.326  10.689 -0.0808  0.5113  0.1462
  913MPD2    C413421   2.885   0.207  10.723 -0.1563  0.4831 -0.3577
  913MPD2    C513422   2.940   0.119  10.810  0.0383  0.0291 -0.0266
  913MPD2     H13423   3.107   0.466  10.747 -2.1799  0.7386 -1.2554
  913MPD2    H113424   2.787   0.180  10.686 -0.9694  0.8402  1.5679
  913MPD2    H213425   3.088   0.077  10.947 -2.3403  2.6562  3.2734
  913MPD2    H313426   2.889   0.026  10.831 -0.8588  0.5171 -0.0773
  913MPD2     N13427   2.898   0.395  10.573  0.0453 -0.0521 -0.1561
  913MPD2    H513428   2.831   0.338  10.521 -0.6557 -0.0808  0.7714
  913MPD2    N113429   3.232   0.303  10.931 -0.3101 -0.1412 -0.5600
  913MPD2    H713430   3.231   0.254  11.019 -2.2192  0.6424 -0.1311
  914MPD2     C13431   0.643   0.035  11.947  0.1858 -0.1396  0.2086
  914MPD2    C113432   0.614   0.016  12.081  0.2355 -0.1178  0.0040
  914MPD2    C213433   0.608   4.622  12.118  0.7488 -0.3884 -0.2005
  914MPD2    C313434   0.601   4.520  12.028  0.2948  0.0133  1.0712
  914MPD2    C413435   0.599   4.549  11.897 -0.3492 -0.0162 -0.1821
  914MPD2    C513436   0.622   4.673  11.855  0.1964  0.8427 -0.8778
  914MPD2     H13437   0.596   4.602  12.224  1.7106 -0.6524 -0.1454
  914MPD2    H113438   0.592   4.471  11.822 -1.3063 -2.1746  2.1368
  914MPD2    H213439   0.671   0.134  11.913  1.0568 -0.5916 -0.3704
  914MPD2    H313440   0.640   4.700  11.752  0.4002  1.2190 -0.7415
  914MPD2     N13441   0.591   4.385  12.075  0.6814  0.2014  0.1302
  914MPD2    H513442   0.583   4.366  12.175  0.0713 -2.0827 -0.3594
  914MPD2    N113443   0.622   0.127  12.171  0.4169  0.0859 -0.4742
  914MPD2    H713444   0.617   0.220  12.130 -0.8792  0.2985  0.1586
  915MPD2     C13445   2.669   4.493  15.623 -0.0517  0.4018 -0.8485
  915MPD2    C113446   2.792   4.489  15.691 -0.3460  0.2822 -0.6157
  915MPD2    C213447   2.804   4.527  15.819  0.3414 -0.5593 -0.2141
  915MPD2    C313448   2.688   4.548  15.892  1.0327  0.2085  0.4726
  915MPD2    C413449   2.570   4.544  15.826  0.3882 -0.5888  0.1274
  915MPD2    C513450   2.555   4.515  15.691  0.6706 -0.1054 -0.2358
  915MPD2     H13451   2.896   4.531  15.877 -1.2216 -2.9982  2.4824
  915MPD2    H113452   2.481   4.542  15.888 -0.7178  2.6400 -1.3914
  915MPD2    H213453   2.661   4.466  15.518 -0.5220 -0.8560 -0.4923
  915MPD2    H313454   2.456   4.508  15.648  0.3927 -1.5764  0.6404
  915MPD2     N13455   2.694   4.582  16.027 -0.1908  0.6850  0.1203
  915MPD2    H513456   2.786   4.590  16.069  1.0961 -3.7171 -1.8525
  915MPD2    N113457   2.902   4.457  15.610  0.7744 -0.1880  0.0799
  915MPD2    H713458   2.881   4.419  15.519  3.9407 -2.3501  0.2332
  916MPD2     C13459   1.011   3.023  15.854 -0.4013 -0.2239 -0.4377
  916MPD2    C113460   1.025   2.907  15.931 -0.6002  0.1537 -0.4997
  916MPD2    C213461   1.096   2.804  15.870 -0.3041  0.5299 -0.4032
  916MPD2    C313462   1.155   2.814  15.750  0.5918  0.5917 -0.8214
  916MPD2    C413463   1.127   2.920  15.667 -0.5096 -0.5695 -0.3052
  916MPD2    C513464   1.055   3.028  15.722  0.1569 -0.4637 -0.2749
  916MPD2     H13465   1.094   2.707  15.917  1.7338  0.6486 -0.0977
  916MPD2    H113466   1.175   2.941  15.572 -1.6889 -1.6205 -1.1305
  916MPD2    H213467   0.954   3.103  15.898  0.9554  0.2674  0.4096
  916MPD2    H313468   1.040   3.116  15.661 -2.6122 -0.8761 -0.2168
  916MPD2     N13469   1.236   2.709  15.705 -0.7046  0.0969 -0.0216
  916MPD2    H513470   1.255   2.627  15.762  0.1051  0.9222  0.8880
  916MPD2    N113471   0.967   2.905  16.065  0.2328 -0.8632 -0.5358
  916MPD2    H713472   0.928   2.994  16.094  0.3281 -0.9325 -0.1960
  917MPD2     C13473   2.071   0.256  11.679 -0.6034  0.1307 -0.3210
  917MPD2    C113474   2.057   0.325  11.795 -0.6578 -0.1741 -0.4550
  917MPD2    C213475   2.123   0.446  11.808 -0.3232  1.0991  0.0678
  917MPD2    C313476   2.197   0.499  11.699  0.3562  0.8388 -0.9670
  917MPD2    C413477   2.198   0.434  11.583 -0.5954 -0.4059 -0.3218
  917MPD2    C513478   2.133   0.317  11.571 -0.2217 -0.2722 -0.6362
  917MPD2     H13479   2.116   0.505  11.898 -1.7401  3.2979 -1.4884
  917MPD2    H113480   2.253   0.474  11.498 -0.3778  0.6113  0.2987
  917MPD2    H213481   2.015   0.165  11.661  2.7269 -1.7426 -1.1124
  917MPD2    H313482   2.124   0.267  11.475  0.7977 -1.3047 -0.1919
  917MPD2     N13483   2.278   0.617  11.703  0.1097 -0.0619  0.2163
  917MPD2    H513484   2.335   0.641  11.623 -1.0664 -0.9779 -0.8884
  917MPD2    N113485   1.968   0.270  11.885  0.1884  0.1788  0.2467
  917MPD2    H713486   1.914   0.189  11.856 -0.3754  1.3361 -1.9895
  918MPD2     C13487   1.704   0.502  12.832 -0.5536 -0.1617  0.5305
  918MPD2    C113488   1.789   0.567  12.745 -0.1669  0.1492  0.9751
  918MPD2    C213489   1.795   0.518  12.618  0.5467  0.6375 -0.2665
  918MPD2    C313490   1.709   0.427  12.560 -0.1091  0.4410  0.1190
  918MPD2    C413491   1.615   0.375  12.648 -0.0767 -0.0028 -0.4650
  918MPD2    C513492   1.616   0.401  12.783 -0.8338 -0.5821 -0.1617
  918MPD2     H13493   1.878   0.542  12.552 -0.2292 -1.2565 -1.9539
  918MPD2    H113494   1.547   0.295  12.621 -0.4635  0.0606  0.3035
  918MPD2    H213495   1.711   0.520  12.939  1.9776  1.5270  0.0851
  918MPD2    H313496   1.545   0.346  12.843  0.2550 -0.4214  1.2757
  918MPD2     N13497   1.722   0.377  12.426 -0.7286  0.1186 -1.2060
  918MPD2    H513498   1.814   0.387  12.386 -0.0273  1.4201  0.7511
  918MPD2    N113499   1.885   0.658  12.785  0.1412 -0.0475 -0.1224
  918MPD2    H713500   1.932   0.696  12.704 -1.6078 -1.5855 -1.8649
  919MPD2     C13501   2.538   4.523  11.836  1.0003  0.2095 -0.2347
  919MPD2    C113502   2.514   4.414  11.753 -0.8845  0.4544  0.0998
  919MPD2    C213503   2.508   4.433  11.612 -1.0833 -0.8076 -0.2638
  919MPD2    C313504   2.530   4.556  11.560 -0.4177 -0.5774  0.3192
  919MPD2    C413505   2.579   4.657  11.638  0.5960  0.2309  0.5843
  919MPD2    C513506   2.586   4.640  11.775  0.0220  0.1794 -0.8205
  919MPD2     H13507   2.482   4.344  11.556 -0.8802 -1.3810  0.5538
  919MPD2    H113508   2.603   0.013  11.595  0.8451 -0.6820 -1.3177
  919MPD2    H213509   2.536   4.508  11.944  0.7942 -1.3990 -0.4602
  919MPD2    H313510   2.604   4.720  11.846 -1.4496 -1.5686  1.5617
  919MPD2     N13511   2.523   4.581  11.422  0.7420 -0.7844 -0.0857
  919MPD2    H513512   2.573   4.666  11.397 -0.3775 -0.0558  0.1107
  919MPD2    N113513   2.478   4.285  11.795  0.3233 -0.4590  0.0583
  919MPD2    H713514   2.481   4.218  11.719 -0.0196 -0.0053 -0.3531
  920MPD2     C13515   2.467   0.463  10.624 -0.2776  0.0572  0.4335
  920MPD2    C113516   2.353   0.379  10.624 -1.3837  0.1302 -0.4094
  920MPD2    C213517   2.352   0.277  10.717 -0.4239 -1.0725  0.6069
  920MPD2    C313518   2.452   0.265  10.806 -0.0786  0.2136  0.1580
  920MPD2    C413519   2.562   0.344  10.805  0.3648 -0.2074  0.4470
  920MPD2    C513520   2.571   0.447  10.715 -0.3885 -0.0186  0.1187
  920MPD2     H13521   2.273   0.203  10.714  1.1385 -2.7436  0.4712
  920MPD2    H113522   2.646   0.338  10.873 -0.0259 -0.3146  0.9230
  920MPD2    H213523   2.471   0.544  10.552 -1.3707  0.5066  0.8826
  920MPD2    H313524   2.653   0.517  10.711  0.4839 -0.9888  0.8861
  920MPD2     N13525   2.432   0.157  10.897 -0.4164 -0.2978 -0.3835
  920MPD2    H513526   2.348   0.103  10.878 -1.2551  1.1751 -0.8999
  920MPD2    N113527   2.236   0.394  10.554  0.3145 -0.0038  0.0947
  920MPD2    H713528   2.172   0.315  10.565  0.1499  0.0880 -0.2202
  921MPD2     C13529   2.396   2.816  16.853  0.0520 -0.0717  0.1001
  921MPD2    C113530   2.422   2.819  16.714  0.0016  0.1807 -0.2219
  921MPD2    C213531   2.319   2.776  16.638 -0.3564 -0.0555 -0.2553
  921MPD2    C313532   2.191   2.743  16.681 -0.3799  0.0465 -0.5568
  921MPD2    C413533   2.172   2.749  16.814  0.0439  0.6438 -0.1416
  921MPD2    C513534   2.279   2.772  16.900  0.6005 -0.2280  0.1890
  921MPD2     H13535   2.321   2.787  16.530 -0.3911 -0.1221 -0.2625
  921MPD2    H113536   2.077   2.713  16.851 -0.4621  1.0832 -1.0087
  921MPD2    H213537   2.484   2.831  16.916  0.8974  0.8542 -1.2906
  921MPD2    H313538   2.263   2.758  17.006 -0.6457  1.9065  0.2758
  921MPD2     N13539   2.086   2.705  16.602 -0.1474  0.2079 -0.0394
  921MPD2    H513540   1.992   2.708  16.638 -0.4895  0.7786 -0.9816
  921MPD2    N113541   2.551   2.860  16.667  0.2128 -0.0363  0.3142
  921MPD2    H713542   2.611   2.898  16.740  0.2838  1.1313 -0.3563
  922MPD2     C13543   3.279   0.918  17.210 -0.1455 -0.1481 -0.2446
  922MPD2    C113544   3.214   1.029  17.264 -0.3621  0.0612 -0.3980
  922MPD2    C213545   3.087   1.016  17.306 -0.3975 -0.3809  0.0576
  922MPD2    C313546   3.027   0.893  17.295 -0.1963  0.1902 -0.1148
  922MPD2    C413547   3.086   0.783  17.253  0.3929 -0.0415  1.0104
  922MPD2    C513548   3.209   0.795  17.202  0.5121 -0.3092 -0.2452
  922MPD2     H13549   3.031   1.106  17.327  1.3003  0.9580 -1.1603
  922MPD2    H113550   3.034   0.690  17.233 -1.7008  1.5347 -0.8522
  922MPD2    H213551   3.376   0.927  17.162  0.2905  1.6873  0.9865
  922MPD2    H313552   3.254   0.705  17.160  0.3073 -0.0157 -1.1028
  922MPD2     N13553   2.887   0.896  17.330  0.9225  0.0364 -0.5752
  922MPD2    H513554   2.850   0.990  17.338  1.2358  0.2869 -1.9765
  922MPD2    N113555   3.278   1.150  17.278 -0.2529  0.2980 -0.5071
  922MPD2    H713556   3.219   1.213  17.332  1.0990 -0.4440  1.8074
  923MPD2     C13557   0.322   4.445   9.172 -0.0642 -0.8551  0.3750
  923MPD2    C113558   0.416   4.520   9.246 -0.0140  0.0604 -0.0766
  923MPD2    C213559   0.553   4.487   9.231  0.3968  0.2612  0.0780
  923MPD2    C313560   0.592   4.397   9.132  0.4337  0.9153  0.5952
  923MPD2    C413561   0.498   4.336   9.054  0.7151  0.0682 -0.5493
  923MPD2    C513562   0.363   4.351   9.080  0.8195  1.0563 -0.6700
  923MPD2     H13563   0.623   4.525   9.304 -0.6807 -0.7556  1.6349
  923MPD2    H113564   0.526   4.273   8.971 -0.9851 -1.1300 -0.1955
  923MPD2    H213565   0.215   4.457   9.183 -0.2263 -1.5315 -0.4207
  923MPD2    H313566   0.289   4.296   9.024  1.1638 -0.7699  0.6692
  923MPD2     N13567   0.726   4.369   9.099  0.4589 -0.7141 -0.1261
  923MPD2    H513568   0.740   4.303   9.023  0.7668 -1.9538  1.0002
  923MPD2    N113569   0.370   4.613   9.339 -0.0004 -0.2972 -0.5857
  923MPD2    H713570   0.271   4.611   9.360 -0.3900  2.5571 -2.1485
  924MPD2     C13571   0.606   1.550  16.687  0.1764 -0.0702  0.4140
  924MPD2    C113572   0.583   1.624  16.798 -0.6549 -0.8144  0.5349
  924MPD2    C213573   0.564   1.761  16.785 -0.9771 -0.0194 -0.6962
  924MPD2    C313574   0.536   1.813  16.657  0.0104 -0.5887 -0.4413
  924MPD2    C413575   0.547   1.736  16.541  0.3110  0.0213 -0.6602
  924MPD2    C513576   0.585   1.603  16.563 -0.0117  0.0795 -0.3850
  924MPD2     H13577   0.540   1.822  16.871 -2.7595  0.3858 -1.5003
  924MPD2    H113578   0.517   1.777  16.445  4.2360 -0.0273 -1.8947
  924MPD2    H213579   0.627   1.444  16.691 -1.3816 -0.5114 -2.4325
  924MPD2    H313580   0.594   1.534  16.480 -2.8224  0.8096 -1.3085
  924MPD2     N13581   0.464   1.936  16.660 -0.6945  0.1489 -0.0471
  924MPD2    H513582   0.451   1.971  16.755 -1.3724  0.7856 -0.3750
  924MPD2    N113583   0.568   1.565  16.929  0.5002  0.3242 -0.0782
  924MPD2    H713584   0.562   1.464  16.935 -0.2006  0.3566 -0.1638
  925MPD2     C13585   3.816   4.273  14.739 -0.4443  0.3986 -0.8134
  925MPD2    C113586   3.801   4.141  14.764 -0.1116 -0.6734  0.2002
  925MPD2    C213587   3.771   4.099  14.900 -0.1273 -0.3519 -0.8530
  925MPD2    C313588   3.748   4.188  15.001  0.9071  0.2987  0.1348
  925MPD2    C413589   3.769   4.324  14.975  0.3496 -0.5752 -0.5799
  925MPD2    C513590   3.807   4.364  14.845  0.0597 -0.5079  0.3343
  925MPD2     H13591   3.764   3.993  14.922 -0.1243  0.0464  1.0537
  925MPD2    H113592   3.756   4.395  15.055  1.5154  0.4199 -1.2766
  925MPD2    H213593   3.816   4.321  14.642  1.6532 -0.0698 -1.0420
  925MPD2    H313594   3.809   4.472  14.832 -0.3485 -0.6686 -1.0190
  925MPD2     N13595   3.725   4.157  15.137 -0.1237  0.4227  0.1672
  925MPD2    H513596   3.725   4.233  15.204  1.1787 -0.1653  0.8135
  925MPD2    N113597   3.828   4.046  14.662 -0.3527 -0.1725  0.2553
  925MPD2    H713598   3.816   3.947  14.680 -2.0378 -0.4850 -2.4821
  926MPD2     C13599   2.974   2.668  13.863 -0.6912 -0.1137  0.1309
  926MPD2    C113600   2.898   2.753  13.783 -0.2543  1.1028  0.3002
  926MPD2    C213601   2.952   2.798  13.661 -0.3886 -0.3370  0.1467
  926MPD2    C313602   3.080   2.761  13.618 -0.0575  0.4303  1.0120
  926MPD2    C413603   3.143   2.663  13.694  0.2908 -0.8153 -0.3802
  926MPD2    C513604   3.094   2.626  13.816  0.1084  0.3534 -0.1230
  926MPD2     H13605   2.901   2.877  13.607 -0.9424  0.9398  2.5362
  926MPD2    H113606   3.240   2.621  13.669  0.5446 -2.7205  3.8063
  926MPD2    H213607   2.943   2.640  13.963 -0.5157  2.4419  0.9212
  926MPD2    H313608   3.133   2.540  13.869 -0.0569 -0.5110 -1.3904
  926MPD2     N13609   3.145   2.798  13.497  0.5715 -0.0428 -0.4197
  926MPD2    H513610   3.221   2.738  13.466 -0.0522 -2.2351  2.2622
  926MPD2    N113611   2.763   2.798  13.814  0.2174  0.1804 -0.3338
  926MPD2    H713612   2.708   2.852  13.748 -2.1511  1.3271  2.5806
  927MPD2     C13613   1.959   0.049   0.156 -0.1364  0.2537  0.8057
  927MPD2    C113614   1.854   4.727   0.103  0.1027 -0.2852  0.6697
  927MPD2    C213615   1.838   4.727  17.725  0.6357 -0.0752  0.1103
  927MPD2    C313616   1.923   0.052  17.641 -0.1654 -0.5735 -0.3666
  927MPD2    C413617   2.032   0.122  17.694 -0.1323  1.2994 -0.0821
  927MPD2    C513618   2.046   0.110   0.068 -0.2494 -0.1410 -0.1039
  927MPD2     H13619   1.752   4.674  17.685  0.8463 -0.8859  0.7323
  927MPD2    H113620   2.111   0.165  17.635  2.8296 -0.1440  2.8433
  927MPD2    H213621   1.987   0.053   0.261 -0.5632 -0.6542  0.9486
  927MPD2    H313622   2.129   0.163   0.114 -0.3326  0.7897 -1.0346
  927MPD2     N13623   1.908   0.054  17.499  0.1652 -0.0441 -0.8986
  927MPD2    H513624   1.960   0.129  17.453 -1.3782  2.2090  1.0511
  927MPD2    N113625   1.765   4.671   0.199  0.4118  0.4285 -0.0503
  927MPD2    H713626   1.804   4.656   0.291  3.1843  0.4377 -1.2286
  928MPD2     C13627   4.506   2.463   0.736  0.4049  0.2512 -0.0153
  928MPD2    C113628   4.456   2.580   0.682  0.3921  0.0236  0.2141
  928MPD2    C213629   4.535   2.657   0.601  0.3215  0.1923  0.2596
  928MPD2    C313630   4.664   2.612   0.569  0.1912  0.0812  0.7267
  928MPD2    C413631   4.705   2.487   0.609 -0.0969 -0.1460  0.2034
  928MPD2    C513632   4.624   2.412   0.689  0.8308 -1.0494  0.9312
  928MPD2     H13633   4.500   2.758   0.586  1.5887  0.9111  2.1348
  928MPD2    H113634   0.051   2.438   0.567  0.5493 -0.6171  2.0499
  928MPD2    H213635   4.443   2.401   0.799 -0.2768  0.4585 -0.4950
  928MPD2    H313636   4.654   2.313   0.721 -1.5842 -1.9108  0.5304
  928MPD2     N13637   0.012   2.697   0.493  0.0921 -0.0626 -0.2882
  928MPD2    H513638   4.719   2.785   0.454  0.6275  0.7199  1.0181
  928MPD2    N113639   4.321   2.608   0.697  0.3535  0.0831 -0.5392
  928MPD2    H713640   4.266   2.552   0.762  0.7376 -0.8949 -1.0450
  929MPD2     C13641   1.133   3.903   9.840 -0.3887  0.1350 -0.2823
  929MPD2    C113642   1.029   3.840   9.785  0.3082  0.6366 -0.2427
  929MPD2    C213643   0.953   3.909   9.691 -0.6477 -0.2452  1.0558
  929MPD2    C313644   0.984   4.040   9.655 -0.7561  0.2780 -1.0903
  929MPD2    C413645   1.090   4.095   9.715  0.4556 -0.1511 -0.0186
  929MPD2    C513646   1.160   4.035   9.810  0.2189  0.4002  0.0576
  929MPD2     H13647   0.880   3.856   9.631  0.6671 -2.8562  1.7748
  929MPD2    H113648   1.140   4.183   9.676 -1.2187  0.7027 -0.2368
  929MPD2    H213649   1.204   3.845   9.899  0.7589  1.3332 -0.4976
  929MPD2    H313650   1.257   4.079   9.830  0.7224 -0.1593 -1.1785
  929MPD2     N13651   0.917   4.117   9.554 -0.0427  0.5202 -0.3338
  929MPD2    H513652   0.935   4.216   9.542 -1.5992  0.9875  1.3344
  929MPD2    N113653   1.011   3.708   9.826  0.6426  0.0312  0.8880
  929MPD2    H713654   1.069   3.671   9.902  0.6567 -1.6082  0.0858
  930MPD2     C13655   2.418   0.842  14.455 -0.0455  0.7082  0.6387
  930MPD2    C113656   2.322   0.830  14.351 -0.1383 -0.0847 -0.4126
  930MPD2    C213657   2.220   0.730  14.368 -0.0874 -0.0533  0.1054
  930MPD2    C313658   2.221   0.644  14.477 -0.4771 -0.4487 -0.1211
  930MPD2    C413659   2.325   0.649  14.562  0.7658 -0.0113  0.4314
  930MPD2    C513660   2.411   0.755  14.559  0.9124 -0.0906 -0.7523
  930MPD2     H13661   2.139   0.729  14.297 -0.1777  0.3884  0.1998
  930MPD2    H113662   2.343   0.576  14.641 -0.1742  0.4974  1.1229
  930MPD2    H213663   2.501   0.911  14.448  1.4254 -1.2026 -1.0418
  930MPD2    H313664   2.486   0.764  14.636  0.1008 -0.3660  0.0773
  930MPD2     N13665   2.130   0.529  14.499  0.2965  0.3167  0.3353
  930MPD2    H513666   2.151   0.454  14.564 -0.5984  1.2795  1.7388
  930MPD2    N113667   2.344   0.903  14.236 -0.0753  0.4281  0.5854
  930MPD2    H713668   2.418   0.973  14.238 -0.3925  0.7941 -0.7090
  931MPD2     C13669   1.985   4.179   0.557 -0.2887  0.5277  0.2309
  931MPD2    C113670   1.866   4.217   0.615 -0.5265  0.0939  1.1811
  931MPD2    C213671   1.835   4.158   0.736  0.5918  0.3285  0.1723
  931MPD2    C313672   1.913   4.061   0.789  0.5665  1.2093  0.9961
  931MPD2    C413673   2.028   4.018   0.727 -0.3167  0.2611 -0.6527
  931MPD2    C513674   2.057   4.083   0.616 -0.5696 -0.8876  0.4673
  931MPD2     H13675   1.733   4.171   0.771  0.6234 -0.7421  0.6754
  931MPD2    H113676   2.101   3.946   0.763 -0.6139 -0.5955 -1.7844
  931MPD2    H213677   2.029   4.216   0.465 -1.6867 -0.6708 -0.9108
  931MPD2    H313678   2.148   4.052   0.567 -0.1770 -0.3261  0.8324
  931MPD2     N13679   1.879   3.989   0.906  0.0956 -0.4041  0.3593
  931MPD2    H513680   1.947   3.923   0.942 -1.1772 -1.0153  1.6698
  931MPD2    N113681   1.792   4.317   0.545  1.1959 -0.2200  1.3092
  931MPD2    H713682   1.837   4.377   0.475 -1.1217  1.7229  1.5015
  932MPD2     C13683   3.775   4.071  11.312 -0.8419  0.5293 -0.0465
  932MPD2    C113684   3.899   4.013  11.348  1.1622  0.1433 -0.7443
  932MPD2    C213685   3.900   3.892  11.409  1.0867  0.1913  0.2885
  932MPD2    C313686   3.786   3.832  11.446  0.3611  0.3712  0.4942
  932MPD2    C413687   3.668   3.889  11.416 -0.0732  0.0448 -0.1338
  932MPD2    C513688   3.657   4.007  11.346  0.0148 -0.1614  1.0777
  932MPD2     H13689   3.990   3.833  11.422  0.4741 -1.2233 -1.8825
  932MPD2    H113690   3.577   3.836  11.443  0.6880  0.2082  2.7890
  932MPD2    H213691   3.762   4.171  11.272  0.3739  0.1936 -1.3072
  932MPD2    H313692   3.561   4.049  11.320  0.2782  0.6540  1.4382
  932MPD2     N13693   3.772   3.713  11.515 -0.1461 -0.6837 -0.5401
  932MPD2    H513694   3.677   3.677  11.526  0.5424 -1.9126  1.4554
  932MPD2    N113695   4.026   4.072  11.329  0.2316  0.3039 -0.1194
  932MPD2    H713696   4.105   4.015  11.358  1.1426  1.3257 -0.6204
  933MPD2     C13697   3.727   2.929   0.267  0.6599  0.4962  0.7890
  933MPD2    C113698   3.786   3.001   0.372 -0.0861 -0.1177 -0.8080
  933MPD2    C213699   3.799   3.141   0.372  0.6701  0.0530 -0.0410
  933MPD2    C313700   3.751   3.214   0.266  0.2876  0.1948 -0.1443
  933MPD2    C413701   3.689   3.141   0.164  0.8813 -0.4278  0.1658
  933MPD2    C513702   3.664   3.004   0.164  0.4678 -0.3142  0.1807
  933MPD2     H13703   3.855   3.189   0.452  1.5402  0.5897 -0.9812
  933MPD2    H113704   3.654   3.198   0.079  1.7351  0.5794  0.4831
  933MPD2    H213705   3.732   2.821   0.259  3.6635  0.7994 -1.4291
  933MPD2    H313706   3.610   2.964   0.079 -0.8929  0.2907  0.7654
  933MPD2     N13707   3.751   3.355   0.276  0.1990 -0.2613 -0.5410
  933MPD2    H513708   3.769   3.392   0.368 -1.3883  0.3412 -0.4741
  933MPD2    N113709   3.845   2.930   0.482  0.0885 -0.4085  0.0256
  933MPD2    H713710   3.854   2.830   0.471 -1.2130 -0.6856  1.4568
  934MPD2     C13711   1.003   0.759   1.635 -0.2565  0.5881 -0.2331
  934MPD2    C113712   1.097   0.700   1.546  0.0996  0.6178 -0.2460
  934MPD2    C213713   1.045   0.624   1.443  0.6374  0.8527  0.1922
  934MPD2    C313714   0.909   0.623   1.420  0.5949  0.3057  0.5785
  934MPD2    C413715   0.825   0.694   1.501  0.6604  0.2005 -0.6661
  934MPD2    C513716   0.880   0.755   1.609  0.0092 -0.0333 -0.3673
  934MPD2     H13717   1.113   0.585   1.368  0.1981 -0.1319  0.3060
  934MPD2    H113718   0.718   0.688   1.488  0.8107 -2.1588 -0.7787
  934MPD2    H213719   1.044   0.815   1.719  0.1604  0.2395 -0.2019
  934MPD2    H313720   0.814   0.806   1.678 -0.9057 -0.5017 -0.8942
  934MPD2     N13721   0.842   0.542   1.329 -0.2035 -0.5490 -0.1536
  934MPD2    H513722   0.742   0.550   1.342 -0.2849  0.5350 -1.4832
  934MPD2    N113723   1.243   0.704   1.552 -0.3839  0.2856 -0.4963
  934MPD2    H713724   1.299   0.654   1.483 -0.6700 -2.2162  1.0652
  935MPD2     C13725   1.011   4.312   1.254  0.1037  0.2065 -0.3300
  935MPD2    C113726   0.961   4.341   1.129 -0.0763 -0.7775 -0.6129
  935MPD2    C213727   0.905   4.471   1.113 -1.0853  0.2237 -0.0511
  935MPD2    C313728   0.908   4.561   1.219  0.0932  0.0336 -0.7665
  935MPD2    C413729   0.977   4.530   1.338 -0.3372  0.2196 -0.2009
  935MPD2    C513730   1.025   4.406   1.356  0.2356 -0.5383 -0.2963
  935MPD2     H13731   0.857   4.486   1.017  1.6223  2.4203 -1.1002
  935MPD2    H113732   0.967   4.589   1.429 -1.1809 -0.9029  0.4350
  935MPD2    H213733   1.053   4.215   1.277 -0.7290 -0.4049 -1.4190
  935MPD2    H313734   1.078   4.372   1.445 -1.6640 -0.5340  0.8506
  935MPD2     N13735   0.859   4.695   1.209 -0.2226 -0.2340 -0.6014
  935MPD2    H513736   0.876   0.015   1.289 -0.4769  1.9614 -2.1932
  935MPD2    N113737   0.941   4.246   1.023 -0.1097 -0.1613 -0.2571
  935MPD2    H713738   0.905   4.285   0.937  1.5240  0.2320 -0.7786
  936MPD2     C13739   4.527   1.894  12.131  0.7586  0.5473 -0.3472
  936MPD2    C113740   4.622   1.839  12.210  0.6670 -0.5940  0.4990
  936MPD2    C213741   0.011   1.888  12.221  0.2238 -0.7469  0.6458
  936MPD2    C313742   0.044   1.995  12.139  0.3097 -0.1121 -0.5917
  936MPD2    C413743   4.697   2.043  12.048  0.2510 -0.4886 -0.4189
  936MPD2    C513744   4.567   1.989  12.039  0.8217 -0.2997 -0.1559
  936MPD2     H13745   0.077   1.858  12.301  3.8276  0.5611 -1.8393
  936MPD2    H113746   4.723   2.122  11.980  2.6491 -0.7415  0.1851
  936MPD2    H213747   4.427   1.854  12.121  0.1746  1.1997  2.9489
  936MPD2    H313748   4.496   2.023  11.965 -1.1367 -0.5539  1.6240
  936MPD2     N13749   0.162   2.067  12.162  0.4358 -0.1862  0.0274
  936MPD2    H513750   0.171   2.163  12.129  0.6473 -0.3650 -0.4245
  936MPD2    N113751   4.597   1.743  12.310  0.2032  0.1114 -0.5703
  936MPD2    H713752   4.681   1.702  12.350  1.5365 -0.0416 -3.5163
  937MPD2     C13753   2.814   3.741  11.560  0.1950  0.8780  0.1155
  937MPD2    C113754   2.719   3.839  11.537  0.4551 -0.3949  0.0323
  937MPD2    C213755   2.754   3.943  11.450 -0.5483  0.0886  0.1539
  937MPD2    C313756   2.876   3.951  11.390 -0.0540 -0.2741 -0.2787
  937MPD2    C413757   2.969   3.853  11.408 -0.0677 -1.0203 -0.6566
  937MPD2    C513758   2.933   3.749  11.490  0.1003  1.0864  0.1057
  937MPD2     H13759   2.690   4.030  11.442  2.1176  1.8326 -2.3255
  937MPD2    H113760   3.057   3.837  11.347  2.2468 -0.5202  2.5927
  937MPD2    H213761   2.807   3.660  11.631 -0.6398  0.6386 -0.2475
  937MPD2    H313762   3.010   3.675  11.505 -2.0168 -1.1832 -0.2029
  937MPD2     N13763   2.911   4.074  11.328 -0.5954 -0.8207  0.1089
  937MPD2    H513764   2.840   4.146  11.332  0.3099  0.0116  1.2514
  937MPD2    N113765   2.620   3.873  11.632 -0.1119 -0.4498 -0.1440
  937MPD2    H713766   2.571   3.958  11.606 -1.5494 -2.2804 -3.3747
  938MPD2     C13767   0.134   4.731   0.342  0.5522  0.6400 -0.0658
  938MPD2    C113768   0.153   0.047   0.472  0.2934  0.4344  0.6990
  938MPD2    C213769   0.141   4.708   0.585  0.1077 -0.1538 -0.1683
  938MPD2    C313770   0.098   4.577   0.567 -0.4714 -0.7178 -0.5899
  938MPD2    C413771   0.080   4.519   0.440 -0.5948  0.2856  0.1789
  938MPD2    C513772   0.101   4.598   0.330  0.5155 -0.6993  0.2023
  938MPD2     H13773   0.145   0.003   0.687 -1.3274  2.5022 -1.0494
  938MPD2    H113774   0.058   4.414   0.426  2.1551 -0.3836  0.9120
  938MPD2    H213775   0.147   0.056   0.256 -0.1930  1.1381  0.1913
  938MPD2    H313776   0.094   4.534   0.243  0.6572 -1.0434  0.4451
  938MPD2     N13777   0.073   4.497   0.676 -0.5942 -0.4443 -0.7120
  938MPD2    H513778   0.043   4.401   0.663  1.3111 -1.3078  1.3481
  938MPD2    N113779   0.186   0.186   0.492 -0.5589 -0.0165  0.0038
  938MPD2    H713780   0.228   0.212   0.581 -0.4030  1.5365 -0.5271
  939MPD2     C13781   1.558   1.459   1.399 -0.2186  0.3770 -0.0610
  939MPD2    C113782   1.436   1.425   1.334  0.0987 -0.7781 -0.8355
  939MPD2    C213783   1.455   1.415   1.194  0.0007 -0.3523  0.6286
  939MPD2    C313784   1.573   1.437   1.137  0.1151  0.9108  0.0623
  939MPD2    C413785   1.688   1.471   1.206  0.3465 -0.0869  0.2305
  939MPD2    C513786   1.680   1.476   1.343 -0.4593  0.1597 -0.0588
  939MPD2     H13787   1.366   1.395   1.136 -1.1052 -0.1786  2.2592
  939MPD2    H113788   1.789   1.476   1.168  0.6042  3.9144  1.4793
  939MPD2    H213789   1.559   1.470   1.507 -1.4673 -0.1166  0.0110
  939MPD2    H313790   1.764   1.492   1.410 -0.8215  1.2517  0.1225
  939MPD2     N13791   1.575   1.441   0.994 -0.0440  0.8612 -1.0169
  939MPD2    H513792   1.494   1.400   0.947 -0.4289  0.6015 -0.1224
  939MPD2    N113793   1.320   1.410   1.409  0.4479  0.0119 -0.5597
  939MPD2    H713794   1.322   1.431   1.508 -0.7667 -1.1459 -0.2965
  940MPD2     C13795   0.581   1.892  13.396 -0.3000 -0.5379  0.3506
  940MPD2    C113796   0.493   1.935  13.296  0.0771  0.1480  0.1574
  940MPD2    C213797   0.546   1.937  13.164 -0.2461  0.0149 -0.0444
  940MPD2    C313798   0.669   1.890  13.134  1.1281  0.1579  0.1136
  940MPD2    C413799   0.747   1.840  13.236 -0.4427 -0.2337  0.6903
  940MPD2    C513800   0.701   1.840  13.366 -0.4874  0.3270  0.6617
  940MPD2     H13801   0.490   1.987  13.085  1.3540  1.3282 -0.3498
  940MPD2    H113802   0.844   1.794  13.221 -0.7462 -0.5342 -0.4256
  940MPD2    H213803   0.561   1.883  13.502 -2.5572 -0.2531 -0.0591
  940MPD2    H313804   0.751   1.789  13.447  1.4397  1.6808  0.3113
  940MPD2     N13805   0.712   1.891  12.997 -0.3175  0.7466 -1.0698
  940MPD2    H513806   0.651   1.935  12.929 -0.8947  1.7664  0.1071
  940MPD2    N113807   0.364   1.991  13.325 -0.3071  0.6450  0.3512
  940MPD2    H713808   0.313   2.039  13.251 -0.9456 -1.1500 -0.3528
  941MPD2     C13809   4.204   2.672   9.746 -0.0669  0.2395 -0.5928
  941MPD2    C113810   4.279   2.565   9.787 -0.3654 -0.3031 -0.1336
  941MPD2    C213811   4.219   2.453   9.824 -0.2287 -0.5024  0.6952
  941MPD2    C313812   4.080   2.438   9.819  0.5770 -0.0848  0.0997
  941MPD2    C413813   4.006   2.537   9.762  0.1935  0.2874  0.1403
  941MPD2    C513814   4.071   2.657   9.742 -0.2496  0.1802  0.7875
  941MPD2     H13815   4.280   2.367   9.846  1.0142  0.6223  1.6029
  941MPD2    H113816   3.897   2.538   9.760  0.1895 -1.4123 -0.3865
  941MPD2    H213817   4.247   2.762   9.705  1.6887  0.3063  1.3803
  941MPD2    H313818   4.008   2.732   9.697  0.7955  0.8902  0.5210
  941MPD2     N13819   4.024   2.312   9.854 -0.7151 -0.8094 -0.1758
  941MPD2    H513820   3.928   2.302   9.822 -1.2248  1.9117  0.4936
  941MPD2    N113821   4.417   2.567   9.797  0.4249  0.0835 -0.8364
  941MPD2    H713822   4.460   2.479   9.825  2.2472  1.0609 -0.5616
  942MPD2     C13823   4.437   3.403   9.160  0.1692  0.6646 -0.2701
  942MPD2    C113824   4.529   3.491   9.225  0.4620 -0.6415  0.9273
  942MPD2    C213825   4.660   3.494   9.171  0.1997 -0.0295  0.0266
  942MPD2    C313826   4.694   3.414   9.058 -0.0003  0.0680 -0.2562
  942MPD2    C413827   4.601   3.328   9.004  0.1730  0.8291  0.1641
  942MPD2    C513828   4.475   3.326   9.054  0.2010 -0.3453  0.7561
  942MPD2     H13829   0.001   3.544   9.222 -1.6480  4.3821 -1.4225
  942MPD2    H113830   4.615   3.261   8.920 -0.0694  0.0401  0.7504
  942MPD2    H213831   4.331   3.395   9.180 -0.1976 -0.5873 -2.6915
  942MPD2    H313832   4.398   3.257   9.022 -2.2748  1.7914  2.1170
  942MPD2     N13833   0.084   3.406   9.000 -0.5171 -0.3923 -0.7570
  942MPD2    H513834   0.097   3.338   8.926  1.6750 -2.5571  1.6381
  942MPD2    N113835   4.494   3.577   9.333  0.1133 -0.1012  0.0029
  942MPD2    H713836   4.569   3.623   9.382 -0.4289 -1.7508  2.3589
  943MPD2     C13837   2.970   1.967   9.404  0.9774 -0.2238 -0.1702
  943MPD2    C113838   2.962   1.901   9.524  0.2565 -0.0834 -0.7779
  943MPD2    C213839   2.966   1.978   9.635  0.4745  0.3677 -0.3527
  943MPD2    C313840   3.001   2.114   9.625  0.3453  0.4166  0.0573
  943MPD2    C413841   3.023   2.174   9.502 -0.1873 -0.3550 -0.2256
  943MPD2    C513842   3.001   2.104   9.388 -0.1154 -0.5158  0.1669
  943MPD2     H13843   2.951   1.935   9.734 -2.1419  2.4291  0.1428
  943MPD2    H113844   3.046   2.279   9.491  0.6874 -0.8353 -3.0963
  943MPD2    H213845   2.954   1.910   9.313  1.0460  1.3402 -1.1705
  943MPD2    H313846   3.019   2.145   9.289 -2.7387  0.6775  0.1923
  943MPD2     N13847   3.007   2.208   9.731 -0.4651  0.2041 -0.0839
  943MPD2    H513848   3.028   2.306   9.714 -1.0125  0.3400  0.0203
  943MPD2    N113849   2.947   1.759   9.521 -0.4989 -0.2929 -0.2744
  943MPD2    H713850   2.924   1.717   9.431 -1.4040  1.1300 -0.7063
  944MPD2     C13851   2.860   1.312  11.551 -0.1585 -0.2592 -0.1513
  944MPD2    C113852   2.815   1.208  11.631  0.1580 -0.0931  0.2162
  944MPD2    C213853   2.770   1.233  11.761  1.1154  0.3930 -0.1968
  944MPD2    C313854   2.776   1.362  11.806  0.3477  0.4181  0.0644
  944MPD2    C413855   2.818   1.464  11.728 -0.5492  0.2963  0.4189
  944MPD2    C513856   2.853   1.441  11.601  0.3951  0.5243  1.0446
  944MPD2     H13857   2.746   1.158  11.836  0.0482  1.1341  0.1997
  944MPD2    H113858   2.812   1.568  11.759  0.2243  0.5880 -0.4391
  944MPD2    H213859   2.895   1.291  11.451  1.0394  0.8976  0.0191
  944MPD2    H313860   2.894   1.522  11.542 -0.9339 -0.8659 -1.7839
  944MPD2     N13861   2.744   1.391  11.944 -0.5783 -0.1212 -0.4815
  944MPD2    H513862   2.694   1.317  11.992  1.3476 -0.4333  1.0096
  944MPD2    N113863   2.819   1.080  11.572 -0.0448  0.3093  0.5367
  944MPD2    H713864   2.851   1.088  11.476  0.9928  0.4747  0.8972
    1TMC1    C113865   1.665   1.313  14.725  0.4960 -0.2600 -0.6172
    1TMC1    C213866   1.629   1.279  14.595  0.6544  0.6836  0.6642
    1TMC1    C313867   1.610   1.145  14.576 -0.1289 -1.0315  0.4734
    1TMC1    C413868   1.697   1.222  14.817 -0.0903  0.5231 -0.0616
    1TMC1    C513869   1.689   1.087  14.780  0.3824  1.0383  0.0486
    1TMC1    C613870   1.645   1.045  14.667 -0.4287 -0.5367 -0.1940
    1TMC1     C13871   1.644   1.446  14.779 -0.6689  0.4794 -0.5655
    1TMC1     O13872   1.723   1.482  14.866 -0.6054 -0.1571 -0.2015
    1TMC1     H13873   1.600   1.348  14.517 -1.5446 -1.3070 -0.2595
    1TMC1    H113874   1.701   1.245  14.923  1.2274 -0.6109  0.1358
    1TMC1    H213875   1.632   0.940  14.644  1.0132 -0.2505 -2.2196
    1TMC1    C713876   1.685   0.988  14.883  0.0198  0.0135  0.0836
    1TMC1    C813877   1.516   1.104  14.477  0.1387  0.4261 -0.1730
    1TMC1    O113878   1.641   1.002  14.997  0.4904  0.3384 -0.2475
    1TMC1    O213879   1.510   0.988  14.445  0.8469 -0.0236  0.4530
    1TMC1    O313880   1.761   0.888  14.841  0.3933  0.4270 -0.7214
    1TMC1    H313881   1.816   0.904  14.761 -1.2616 -1.0665 -2.1764
    1TMC1    O513882   1.406   1.177  14.496  0.4200  0.4608 -0.1548
    1TMC1    H513883   1.419   1.274  14.501  3.4533 -0.0735  1.9000
    2MPD2     C13884   1.452   1.931  14.741 -0.3800 -0.2938 -0.4417
    2MPD2    C113885   1.442   1.864  14.620 -0.2237  0.2749 -0.3298
    2MPD2    C213886   1.467   1.729  14.608 -0.1449 -0.7654  0.3025
    2MPD2    C313887   1.519   1.660  14.719 -0.8133  0.3707  0.3094
    2MPD2    C413888   1.561   1.729  14.831  0.4016  0.4236 -0.3172
    2MPD2    C513889   1.513   1.858  14.845 -0.6650 -0.5501  0.2430
    2MPD2     H13890   1.449   1.683  14.511  0.4116 -1.7337  0.6592
    2MPD2    H113891   1.623   1.676  14.903 -0.8924  0.1292  0.5882
    2MPD2    H213892   1.411   2.029  14.763 -0.1382  0.0585 -1.5652
    2MPD2    H313893   1.513   1.896  14.947  1.0371  0.8278 -0.2634
    2MPD2     N13894   1.553   1.518  14.707  0.3526 -0.9107  0.3421
    2MPD2    H513895   1.512   1.457  14.637 -0.9028 -0.1630  0.4236
    2MPD2    N113896   1.412   1.949  14.509 -0.0807 -0.9246  0.0325
    2MPD2    H713897   1.371   2.040  14.525  3.0735  0.5849 -0.3348
    3TMC2    C113898   1.354   1.993  14.285 -0.1761  1.0014 -0.0995
    3TMC2    C213899   1.307   2.117  14.329  0.0899 -0.4281  0.1926
    3TMC2    C313900   1.224   2.179  14.237 -0.2308 -0.2521 -0.2228
    3TMC2    C413901   1.318   1.920  14.172 -0.2407 -0.4246  0.2781
    3TMC2    C513902   1.231   1.989  14.094  0.1703  0.5188  0.0513
    3TMC2    C613903   1.178   2.114  14.128 -0.8048 -0.2549 -1.0518
    3TMC2     C13904   1.432   1.912  14.380 -0.6192  1.0157  0.0572
    3TMC2     O13905   1.506   1.824  14.332 -0.9143  0.0431 -0.3292
    3TMC2     H13906   1.359   2.185  14.395 -0.1401 -0.5524  0.5038
    3TMC2    H113907   1.355   1.819  14.165  1.2737  0.3353 -2.4983
    3TMC2    H213908   1.114   2.167  14.058 -3.1448 -1.0624  0.4981
    3TMC2    C713909   1.208   1.917  13.965 -0.8383 -0.0858 -0.4234
    3TMC2    C813910   1.182   2.316  14.266 -0.3692  0.3348  0.0340
    3TMC2    O113911   1.271   1.808  13.944  0.3878 -0.2199 -0.4328
    3TMC2    O213912   1.130   2.399  14.196  0.2985  0.6516 -0.4932
    3TMC2    O513913   1.155   2.311  14.396 -0.2832  0.2060  0.4813
    3TMC2    H513914   1.195   2.230  14.435  1.4526  1.4640  1.2774
    4TMC2    C113915   0.450   2.345  13.414  0.2536 -0.6869  0.2207
    4TMC2    C213916   0.495   2.368  13.287  0.2003 -0.4203  0.4256
    4TMC2    C313917   0.621   2.317  13.258 -0.2847  0.8577 -0.4361
    4TMC2    C413918   0.516   2.268  13.511 -0.3275  0.3145  0.1515
    4TMC2    C513919   0.640   2.217  13.475  0.5468  0.0856  0.1561
    4TMC2    C613920   0.692   2.254  13.351  0.5998 -0.1203  0.0499
    4TMC2     C13921   0.311   2.368  13.449  0.2423 -0.1058 -0.3955
    4TMC2     O13922   0.281   2.365  13.566 -0.2315 -0.3922 -0.7740
    4TMC2     H13923   0.448   2.433  13.215 -0.1150 -0.5206  0.5400
    4TMC2    H113924   0.480   2.238  13.608  2.0667 -0.3017  0.8492
    4TMC2    H213925   0.791   2.220  13.322  1.0745  0.2909  1.2163
    4TMC2    C713926   0.721   2.140  13.568 -0.4119 -0.4195 -0.4193
    4TMC2    C813927   0.645   2.315  13.115  0.0724 -0.2096  0.5951
    4TMC2    O113928   0.688   2.135  13.688  0.0909 -0.2369  0.7367
    4TMC2    O213929   0.568   2.255  13.045 -0.1420 -0.8858 -0.2509
    4TMC2    O513930   0.773   2.335  13.088 -0.4814 -0.8056  0.0318
    4TMC2    H513931   0.819   2.391  13.155 -0.9680  0.9639 -1.1004
    5MPD2     C13932   4.565   2.453  13.286  0.5282  0.1180  0.4580
    5MPD2    C113933   4.646   2.438  13.176 -0.0087  0.1896  0.4975
    5MPD2    C213934   0.040   2.426  13.196 -0.0025 -0.0888 -0.0228
    5MPD2    C313935   0.089   2.413  13.324 -0.5311  0.3805  0.0583
    5MPD2    C413936   0.007   2.430  13.433  0.3346 -0.4878  0.2414
    5MPD2    C513937   4.618   2.453  13.414 -0.2085 -0.1389 -0.3066
    5MPD2     H13938   0.109   2.409  13.114 -0.6841  1.8471 -0.9998
    5MPD2    H113939   0.034   2.409  13.535  0.7740 -0.1266  0.2014
    5MPD2    H213940   4.461   2.473  13.263  1.6301  0.8630 -3.7378
    5MPD2    H313941   4.551   2.456  13.500  1.2295  0.4845  0.7834
    5MPD2     N13942   0.231   2.382  13.339 -0.2083 -0.3954 -0.2893
    5MPD2    H513943   0.274   2.362  13.249  0.5547 -1.8160  0.3872
    5MPD2    N113944   4.592   2.458  13.047  0.3739  0.5840  0.0536
    5MPD2    H713945   4.493   2.478  13.037 -0.0419 -2.5075 -2.2380
    6MPD1     C13946   4.124   4.051  13.070  0.0528 -0.5427  0.3351
    6MPD1    C113947   4.258   4.080  13.058 -0.2273 -0.3961 -0.1067
    6MPD1    C213948   4.341   3.970  13.036 -0.6414 -0.2021  0.0676
    6MPD1    C313949   4.286   3.851  12.983  0.0380 -0.1469 -0.2183
    6MPD1    C413950   4.152   3.837  12.977  0.1257  0.0350  0.2261
    6MPD1    C513951   4.073   3.938  13.020  0.5204  0.8942  0.4220
    6MPD1     H13952   4.448   3.982  13.046 -0.7999  0.3098  1.0705
    6MPD1    H113953   4.116   3.742  12.941 -0.2138  0.0665  0.4811
    6MPD1    H213954   4.057   4.128  13.106  0.9161 -0.6398  2.1330
    6MPD1    H313955   3.964   3.937  13.021  0.5565 -0.5524  2.6289
    6MPD1     N13956   4.364   3.740  12.945  0.0146 -0.1904 -0.3714
    6MPD1    H513957   4.315   3.654  12.921 -2.3049  1.0703 -0.1364
    6MPD1    N113958   4.300   4.194  13.128  0.5283 -0.5418  0.4206
    6MPD1    H613959   4.396   4.212  13.098  0.8243  0.6137  2.0657
    6MPD1    H713960   4.289   4.184  13.229 -2.0748  1.7697  0.3593
    7MPD2     C13961   4.431   3.030  13.198  0.5935  0.3912  0.2010
    7MPD2    C113962   4.412   3.058  13.062  0.4907 -0.7312 -0.2561
    7MPD2    C213963   4.381   2.961  12.968 -0.0843  0.4838  0.5517
    7MPD2    C313964   4.375   2.833  13.019 -0.4208  1.2589 -0.1594
    7MPD2    C413965   4.394   2.809  13.154 -0.5888 -0.2857  0.7063
    7MPD2    C513966   4.424   2.904  13.242  0.3342 -0.0608 -0.2427
    7MPD2     H13967   4.355   2.987  12.866  0.6025  0.3862  0.3538
    7MPD2    H113968   4.382   2.711  13.200 -1.3126  0.0501  1.2347
    7MPD2    H213969   4.452   3.106  13.272 -0.2518 -0.1214  0.9698
    7MPD2    H313970   4.434   2.894  13.350 -0.2319  0.8334 -0.1031
    7MPD2     N13971   4.349   2.723  12.921 -0.6091 -0.2732 -0.5229
    7MPD2    H513972   4.353   2.629  12.959  0.0762  0.8604  2.1976
    7MPD2    N113973   4.423   3.188  13.018  0.0956  0.5707 -0.7176
    7MPD2    H713974   4.413   3.199  12.917 -1.3951  0.5985 -0.5611
    8TMC3    C113975   4.436   2.628  12.721  0.1820 -0.5012 -0.2863
    8TMC3    C213976   4.484   2.534  12.812  0.0791 -0.0767 -0.2999
    8TMC3    C313977   4.616   2.503  12.814  0.3039  0.6108  0.0190
    8TMC3    C413978   4.521   2.687  12.633 -0.3740  0.8335  0.2157
    8TMC3    C513979   4.650   2.649  12.638  0.0561 -0.0666  0.0560
    8TMC3    C613980   4.705   2.563  12.733 -0.2755  0.6750 -0.8637
    8TMC3     C13981   4.354   2.730  12.781 -0.2328 -0.1187 -0.2735
    8TMC3     O13982   4.328   2.823  12.711  0.1149  0.4105  0.0409
    8TMC3     H13983   4.410   2.485  12.874  0.0512  1.7192  1.0891
    8TMC3    H113984   4.489   2.768  12.569  0.7999  1.1703  0.0522
    8TMC3    H213985   0.069   2.536  12.742 -0.6752 -0.4797  0.2360
    8TMC3    C713986   0.003   2.765  12.621  1.1281 -0.6114 -0.5312
    8TMC3    C813987   4.667   2.440  12.931 -0.0609 -0.2740  0.1800
    8TMC3    O113988   0.074   2.772  12.719  0.1353 -0.2125 -0.3325
    8TMC3    O213989   0.034   2.382  12.910  1.2344 -0.6105 -0.0909
    9TMC3    C113990   4.541   3.612  12.903 -0.1892 -0.5731 -0.1097
    9TMC3    C213991   4.588   3.574  12.782 -0.0209  0.0220  0.7497
    9TMC3    C313992   4.634   3.441  12.775  0.0077 -0.5005  0.0431
    9TMC3    C413993   4.513   3.538  13.008  0.4079 -0.2635 -0.7023
    9TMC3    C513994   4.533   3.402  12.994 -0.0968  0.0273 -0.6462
    9TMC3    C613995   4.592   3.352  12.875 -0.4971  0.0397 -0.5544
    9TMC3     C13996   4.500   3.746  12.915  0.8010  0.3783  0.3189
    9TMC3     O13997   4.580   3.832  12.936 -0.4546  0.0357  0.1938
    9TMC3     H13998   4.600   3.645  12.702  1.7793 -1.4437 -0.2925
    9TMC3    H113999   4.476   3.580  13.101 -1.3636 -1.3896 -0.8933
    9TMC3    H214000   4.604   3.244  12.869  0.2532  0.0550  0.7358
    9TMC3    C714001   4.461   3.305  13.087  0.2158  0.4208  0.7933
    9TMC3    C814002   4.711   3.395  12.663  0.4324  0.1464 -0.1465
    9TMC3    O114003   4.459   3.327  13.207  0.0392  0.0742  0.4159
    9TMC3    O214004   4.705   3.460  12.558  0.3442  0.3108 -0.0804
   10MPD2     C14005   0.078   3.002  12.366  0.5216 -1.2117  0.1915
   10MPD2    C114006   0.044   2.958  12.492 -0.3131 -0.3764 -0.0166
   10MPD2    C214007   0.045   3.048  12.600  0.1052  0.1111  0.8449
   10MPD2    C314008   0.052   3.181  12.572  0.3695 -0.6703  0.0041
   10MPD2    C414009   0.093   3.224  12.450 -0.0332  0.5947 -0.0222
   10MPD2    C514010   0.105   3.130  12.346 -0.2040  0.1047 -0.3576
   10MPD2     H14011   0.027   3.010  12.700 -0.6207  0.8137  0.9815
   10MPD2    H114012   0.113   3.329  12.433 -1.5104  0.6206 -1.6226
   10MPD2    H214013   0.068   2.939  12.279  0.8165  0.4306 -1.0368
   10MPD2    H314014   0.141   3.170  12.252  1.6459  1.5576  0.9861
   10MPD2     N14015   0.011   3.266  12.678 -0.2544  0.2785  0.1708
   10MPD2    H514016   0.005   3.220  12.768 -1.6263  2.6258  1.2561
   10MPD2    N114017   4.721   2.835  12.508 -0.1870 -0.2211  0.4627
   10MPD2    H714018   4.683   2.794  12.423  0.2189  1.1919 -0.4040
   11MPD2     C14019   1.154   1.882  13.671  0.4105  0.0664  0.2212
   11MPD2    C114020   1.073   1.957  13.753  0.9123 -0.3533  0.0892
   11MPD2    C214021   0.960   2.016  13.704 -0.0540 -0.1989  0.0132
   11MPD2    C314022   0.932   2.007  13.572  0.4425 -0.4863 -0.0830
   11MPD2    C414023   1.017   1.941  13.484 -0.2255 -0.1029 -0.7522
   11MPD2    C514024   1.124   1.867  13.536 -0.2186 -0.3012  0.2766
   11MPD2     H14025   0.909   2.085  13.770  1.0781  1.1056 -0.4695
   11MPD2    H114026   0.993   1.938  13.378  1.8020 -2.0476 -1.1774
   11MPD2    H214027   1.246   1.838  13.707  0.8031  0.0500 -0.8065
   11MPD2    H314028   1.191   1.813  13.470 -1.2865 -0.2059 -0.8786
   11MPD2     N14029   0.828   2.077  13.508  0.6147 -0.1168  0.1044
   11MPD2    H514030   0.841   2.083  13.408 -0.2643  0.1113  0.0016
   11MPD2    N114031   1.113   1.983  13.887  0.2425 -0.4710  0.8545
   11MPD2    H714032   1.072   2.063  13.935 -1.6007 -0.4659 -0.7360
    1MPD1     C14033   2.429   3.193  16.694  0.5321  0.1513 -0.7743
    1MPD1    C114034   2.537   3.260  16.739  0.1004  0.1853  0.4811
    1MPD1    C214035   2.605   3.343  16.646 -0.9821  0.3143 -0.2149
    1MPD1    C314036   2.567   3.342  16.508  0.2601  0.4131 -0.2046
    1MPD1    C414037   2.453   3.274  16.475  0.6043  0.2502 -0.7866
    1MPD1    C514038   2.392   3.201  16.567 -0.0325  1.0595 -1.1612
    1MPD1     H14039   2.688   3.405  16.677 -0.6987 -0.3143  0.2726
    1MPD1    H114040   2.429   3.249  16.373 -4.2880  1.1664  0.1194
    1MPD1    H214041   2.379   3.121  16.758  0.6509 -1.5992 -2.6564
    1MPD1    H314042   2.300   3.150  16.538 -0.3654 -0.0047  1.8404
    1MPD1     N14043   2.641   3.413  16.412  0.3674  0.3910  0.4267
    1MPD1    H514044   2.599   3.419  16.320  1.0794  0.6240  0.1194
    1MPD1    N114045   2.559   3.267  16.875 -0.0679 -0.1592  0.6329
    1MPD1    H614046   2.658   3.272  16.898 -0.0956 -3.9683  1.5151
    1MPD1    H714047   2.511   3.195  16.928 -0.7933 -0.7280 -0.8069
    2MPD1     C14048   3.267   4.231  16.060 -0.5873 -0.1333  0.6782
    2MPD1    C114049   3.242   4.138  15.960 -0.1510  0.2204  0.3150
    2MPD1    C214050   3.185   4.018  15.994 -0.1486  0.6089 -0.3994
    2MPD1    C314051   3.165   3.985  16.121  0.2566 -0.1353  0.1886
    2MPD1    C414052   3.214   4.063  16.220  0.1317 -0.2378  0.4531
    2MPD1    C514053   3.262   4.187  16.194 -0.6517  0.2065  0.5701
    2MPD1     H14054   3.152   3.942  15.925 -1.9561 -0.2367  1.3858
    2MPD1    H114055   3.202   4.025  16.321 -1.6031  0.9059  0.6901
    2MPD1    H214056   3.310   4.328  16.038  0.7225 -0.4869  1.6866
    2MPD1    H314057   3.296   4.252  16.274 -2.1149  0.7590  0.7562
    2MPD1     N14058   3.134   3.853  16.140 -0.0455 -0.1754 -0.3806
    2MPD1    H514059   3.135   3.794  16.057  0.8918  1.7817 -1.7677
    2MPD1    N114060   3.248   4.178  15.829 -0.3311 -0.2755  0.4931
    2MPD1    H614061   3.252   4.100  15.763  0.5870 -1.2385  1.6806
    2MPD1    H714062   3.331   4.235  15.814  0.1812 -1.1343  0.0363
    3TMC3    C114063   2.985   3.688  16.217  0.3299  0.0651  0.1796
    3TMC3    C214064   2.922   3.692  16.095  0.4469  0.0164  0.7266
    3TMC3    C314065   2.810   3.617  16.097 -0.1065 -0.7785  0.0336
    3TMC3    C414066   2.948   3.601  16.319  0.3472  0.6308 -0.1198
    3TMC3    C514067   2.836   3.521  16.307 -0.4189  0.1553  0.2178
    3TMC3    C614068   2.761   3.525  16.192  0.1071  0.3300  0.8748
    3TMC3     C14069   3.080   3.797  16.254 -0.1448 -0.1004  0.3398
    3TMC3     O14070   3.069   3.832  16.372 -0.2789 -0.3853  0.3481
    3TMC3     H14071   2.959   3.750  16.012  0.7998 -0.6350  0.4245
    3TMC3    H114072   3.009   3.607  16.409  0.1658 -0.5868  0.0912
    3TMC3    H214073   2.678   3.461  16.165 -0.4163  0.3070  2.5860
    3TMC3    C714074   2.774   3.468  16.433  0.5476 -0.1673  0.2095
    3TMC3    C814075   2.732   3.624  15.971 -0.2399 -0.4201 -0.4893
    3TMC3    O114076   2.843   3.458  16.531 -0.1933 -0.0861  0.1570
    3TMC3    O214077   2.788   3.673  15.877 -0.4776  0.3098  0.6364
    4MPD1     C14078   2.282   3.725  15.732 -0.1327  0.4648 -0.7265
    4MPD1    C114079   2.254   3.700  15.867 -0.2133  0.1992  0.8061
    4MPD1    C214080   2.353   3.665  15.956 -0.3874  0.7692  0.0447
    4MPD1    C314081   2.487   3.662  15.912 -0.4917 -0.2074  0.0854
    4MPD1    C414082   2.514   3.704  15.783  0.3476 -0.2959  0.1982
    4MPD1    C514083   2.415   3.733  15.697  0.8488  0.0670  0.6275
    4MPD1     H14084   2.330   3.640  16.059  0.6772  0.2812  0.1666
    4MPD1    H114085   2.616   3.707  15.746 -0.3424  0.0650 -1.6562
    4MPD1    H214086   2.209   3.752  15.656 -1.1479  0.2099  0.1704
    4MPD1    H314087   2.432   3.763  15.594 -2.4329  0.7405  0.2848
    4MPD1     N14088   2.590   3.618  15.998  0.5009 -0.4213 -0.1862
    4MPD1    H514089   2.564   3.586  16.090 -0.8796  1.6501  0.1374
    4MPD1    N114090   2.119   3.699  15.906 -0.1034  0.1869 -1.2561
    4MPD1    H614091   2.063   3.767  15.855 -1.6132 -0.4623 -0.4371
    4MPD1    H714092   2.113   3.735  16.001 -0.5275  0.5714 -1.4329
    1TCq1    O114093   3.348   3.036  11.572  0.7361 -0.9668  0.1894
    1TCq1    C114094   3.329   2.970  11.457 -0.5761 -0.2207  0.5582
    1TCq1    O214095   3.250   2.874  11.439 -0.3562  0.7586 -0.1364
    1TCq1    C214096   3.375   3.057  11.347  0.0555  0.0951 -0.1652
    1TCq1    C314097   3.290   3.071  11.240  0.0710 -0.3754 -0.2514
    1TCq1    C414098   3.298   3.187  11.170 -0.5433 -0.2643  0.8076
    1TCq1    C514099   3.425   3.242  11.156 -0.2435 -0.1093  0.2583
    1TCq1    C614100   3.515   3.211  11.255 -0.2014 -0.7497 -0.2802
    1TCq1    C714101   3.484   3.134  11.360  0.1938 -0.5863 -0.3749
    1TCq1    C814102   3.642   3.285  11.261 -0.4894  0.8643 -0.6945
    1TCq1    O414103   3.712   3.288  11.364  0.6308 -0.3551  0.8767
    1TCq1    C914104   3.207   3.204  11.058 -0.7525  0.2119 -0.0773
    1TCq1    O514105   3.198   3.320  11.009  0.0361  0.1281 -0.1990
    1TCq1    O614106   3.161   3.104  10.999 -0.3629 -0.3497 -0.2144
    1TCq1    H114107   3.379   3.128  11.567 -0.2811 -0.6275  0.0937
    1TCq1    H214108   3.193   3.025  11.234 -1.3464  2.8354 -1.7318
    1TCq1    H314109   3.438   3.319  11.081  3.2621  0.6919  1.6814
    1TCq1    H414110   3.554   3.131  11.443 -2.0359 -0.8163  1.5013
    2MPD1     C14111   4.028   3.545  11.039 -0.4090  0.0725 -0.0935
    2MPD1    C114112   3.995   3.527  11.174 -0.2015 -0.1464  1.1031
    2MPD1    C214113   3.878   3.462  11.207 -0.6129  0.9175 -0.4672
    2MPD1    C314114   3.805   3.392  11.112 -0.3634  0.8377  0.0252
    2MPD1    C414115   3.842   3.408  10.976 -0.1073  0.2596  0.1178
    2MPD1    C514116   3.953   3.477  10.947 -0.2225  0.3424  0.2913
    2MPD1     H14117   3.838   3.477  11.307 -2.9935  0.6177 -1.3826
    2MPD1    H114118   3.795   3.353  10.895  0.1557 -1.7149  1.2870
    2MPD1    H214119   4.113   3.603  11.007 -1.4363  1.0935 -0.9778
    2MPD1    H314120   3.995   3.461  10.848  1.1870  1.3337  0.7263
    2MPD1     N14121   3.687   3.320  11.138  0.6241 -0.1962  0.3838
    2MPD1    H514122   3.631   3.299  11.056  1.2843  0.4297 -0.2305
    2MPD1    N114123   4.048   3.614  11.267  0.3364 -0.8369  0.6027
    2MPD1    H614124   4.145   3.637  11.247  0.1445 -1.4263 -1.0246
    2MPD1    H714125   4.038   3.592  11.366  0.3886 -2.4877  0.2371
    1TMC1    C114126   4.717   2.900   0.841  0.2043 -0.5343  0.4614
    1TMC1    C214127   0.102   2.921   0.797 -0.7275  0.4746  0.8326
    1TMC1    C314128   0.199   2.835   0.843  0.2632  0.0597 -0.3941
    1TMC1    C414129   4.684   2.805   0.932 -0.0758  0.5720  0.4384
    1TMC1    C514130   0.036   2.718   0.973  0.0349 -0.0564  0.8705
    1TMC1    C614131   0.173   2.741   0.943  0.0411 -0.7197  0.4586
    1TMC1     C14132   4.607   2.968   0.787  0.8440  0.3314  0.0208
    1TMC1     O14133   4.616   2.989   0.661  0.4454  0.3779 -0.4574
    1TMC1     H14134   0.124   3.001   0.728 -2.4828 -1.6357 -2.2168
    1TMC1    H114135   4.579   2.779   0.938  0.3385 -1.1078  0.5503
    1TMC1    H214136   0.248   2.674   0.983 -0.9723 -1.6595  0.7793
    1TMC1    C714137   0.009   2.607   1.067  0.0591 -0.0249 -0.2588
    1TMC1    C814138   0.314   2.830   0.768 -1.0204  0.0711  0.2851
    1TMC1    O114139   0.096   2.524   1.095 -0.3681 -0.1360  0.5203
    1TMC1    O214140   0.328   2.910   0.679 -0.4458 -0.4109  0.3336
    1TMC1    O314141   4.650   2.650   1.149 -0.1818 -0.1466 -0.2416
    1TMC1    H314142   4.601   2.728   1.115  0.2644 -1.4060 -3.7429
    1TMC1    O514143   0.393   2.727   0.800 -0.2126  0.3003 -0.3092
    1TMC1    H514144   0.348   2.653   0.847 -2.4338  2.5306  1.0833
    2MPD1     C14145   4.208   3.262   0.773  0.1709  0.2173 -0.4404
    2MPD1    C114146   4.248   3.261   0.902  0.0381  1.1407  0.6883
    2MPD1    C214147   4.353   3.179   0.930  0.8676  0.3813  0.6177
    2MPD1    C314148   4.403   3.084   0.841  0.0483  0.8973  0.1063
    2MPD1    C414149   4.352   3.083   0.717  0.1042  0.0281 -1.0132
    2MPD1    C514150   4.259   3.174   0.681 -0.1427  0.7424 -0.2844
    2MPD1     H14151   4.412   3.173   1.021  3.3141 -1.9176 -1.1567
    2MPD1    H114152   4.373   3.003   0.647  0.1207  0.0175 -0.9962
    2MPD1    H214153   4.130   3.327   0.737 -0.5278  0.2949  1.2227
    2MPD1    H314154   4.222   3.171   0.579 -3.0682  3.0761  0.7362
    2MPD1     N14155   4.511   3.006   0.876 -0.3954  0.0673 -0.1420
    2MPD1    H514156   4.536   3.001   0.974  1.0932  1.2201 -0.4568
    2MPD1    N114157   4.205   3.367   0.981  0.1912 -1.5409  0.2326
    2MPD1    H614158   4.105   3.382   0.972  0.3585  0.1628  1.0891
    2MPD1    H714159   4.218   3.332   1.076  0.2878  0.9353  1.1468
    1MPD1     C14160   2.951   2.981  12.217  0.8194  0.2033  0.3153
    1MPD1    C114161   2.870   2.874  12.192  0.3168 -0.0525  0.5922
    1MPD1    C214162   2.776   2.883  12.088  0.1644 -0.1618  0.4869
    1MPD1    C314163   2.756   2.998  12.013  0.2961  0.2388  0.5855
    1MPD1    C414164   2.847   3.103  12.039 -0.0466  0.2698  0.8664
    1MPD1    C514165   2.942   3.095  12.139 -0.5410  0.3875 -0.8273
    1MPD1     H14166   2.705   2.801  12.080  0.0987  0.0002 -0.5529
    1MPD1    H114167   2.828   3.199  11.993  2.0957 -0.0156 -0.6165
    1MPD1    H214168   3.022   2.985  12.298  0.4384  1.1058  0.6051
    1MPD1    H314169   2.992   3.190  12.158 -2.0962  1.4021 -1.7364
    1MPD1     N14170   2.667   3.005  11.911 -0.1113 -0.0231 -0.1059
    1MPD1    H514171   2.596   2.934  11.895  0.1350 -0.4314  0.6426
    1MPD1    N114172   2.874   2.771  12.288 -0.7515  0.0822 -0.2481
    1MPD1    H614173   2.971   2.766  12.321 -1.1775 -0.8149  0.8789
    1MPD1    H714174   2.855   2.680  12.246  1.7626 -1.2992  1.5965
    2MPD1     C14175   0.657   3.416  10.771  0.0297  0.5353  0.0393
    2MPD1    C114176   0.722   3.353  10.671 -0.0495  0.8774 -0.1963
    2MPD1    C214177   0.846   3.399  10.639 -0.1162  0.0938 -0.4602
    2MPD1    C314178   0.914   3.476  10.732 -0.4124  0.0555  0.4554
    2MPD1    C414179   0.855   3.518  10.850  0.0341 -0.7231  0.4877
    2MPD1    C514180   0.722   3.487  10.870  0.1896 -0.1104 -0.2678
    2MPD1     H14181   0.894   3.369  10.547 -0.6458 -3.6280  0.4934
    2MPD1    H114182   0.903   3.579  10.926  1.8318  0.9852 -2.0264
    2MPD1    H214183   0.549   3.416  10.777  0.0717 -2.7095  0.8328
    2MPD1    H314184   0.669   3.513  10.961 -0.0901  0.3133 -0.5568
    2MPD1     N14185   1.044   3.521  10.702  0.2999 -0.6884 -0.7902
    2MPD1    H514186   1.084   3.591  10.764 -1.0213 -1.5635  1.0596
    2MPD1    N114187   0.645   3.278  10.582  0.3618  0.5366 -0.3488
    2MPD1    H614188   0.574   3.228  10.636  1.5053 -0.0084  0.6592
    2MPD1    H714189   0.707   3.215  10.531 -2.0274 -2.1120  0.0565
    3MPD1     C14190   1.622   3.436   9.862 -0.5503 -1.2617 -0.1951
    3MPD1    C114191   1.509   3.375   9.907  0.3006  0.1787 -0.5662
    3MPD1    C214192   1.462   3.407  10.035 -0.3817 -0.6195  0.8257
    3MPD1    C314193   1.530   3.496  10.116 -0.1818  0.4283  0.0056
    3MPD1    C414194   1.654   3.548  10.075 -0.2338 -0.4419  0.2686
    3MPD1    C514195   1.694   3.514   9.947 -0.0681 -1.2886  0.3132
    3MPD1     H14196   1.379   3.353  10.080 -0.8087 -0.5007  0.1863
    3MPD1    H114197   1.711   3.623  10.128  0.4701 -1.1315  0.4769
    3MPD1    H214198   1.652   3.439   9.758 -0.7071  1.4121 -0.1562
    3MPD1    H314199   1.775   3.578   9.914 -0.2551 -0.9623  0.4911
    3MPD1     N14200   1.464   3.535  10.236 -0.2426 -0.0332 -0.6446
    3MPD1    H514201   1.379   3.485  10.260 -0.2556 -0.6376 -1.9972
    3MPD1    N114202   1.426   3.304   9.817 -0.0297  0.0063  0.0055
    3MPD1    H614203   1.378   3.230   9.868 -0.8825 -0.2726 -1.1918
    3MPD1    H714204   1.473   3.261   9.738  0.8389  1.0646 -0.0514
    4MPD2     C14205   1.964   3.080  11.788 -0.1951 -0.0619 -0.1155
    4MPD2    C114206   2.047   3.148  11.698 -0.1144  0.3604  0.9552
    4MPD2    C214207   2.013   3.276  11.671  0.0113 -0.5411 -0.2181
    4MPD2    C314208   1.900   3.334  11.712 -0.0864 -0.6362  1.1274
    4MPD2    C414209   1.815   3.265  11.793 -0.1316 -0.0543 -0.0779
    4MPD2    C514210   1.850   3.137  11.835  0.1217 -0.8213  0.4845
    4MPD2     H14211   2.082   3.345  11.623 -1.8049  0.2493 -1.7176
    4MPD2    H114212   1.723   3.312  11.825  1.3056  0.7224  2.9282
    4MPD2    H214213   1.987   2.976  11.811  1.1804 -0.8327 -4.9623
    4MPD2    H314214   1.783   3.088  11.904 -1.7655  1.8580  0.5731
    4MPD2     N14215   1.881   3.467  11.677  0.1018  0.1700 -0.0758
    4MPD2    H514216   1.940   3.502  11.602 -0.5001 -1.6827 -1.4271
    4MPD2    N114217   2.157   3.086  11.642  0.3745  0.3603  0.0042
    4MPD2    H714218   2.213   3.151  11.589 -0.5295  1.4965  0.4481
    5TMC3    C114219   2.356   2.990  11.636  0.5488  0.5017 -0.2723
    5TMC3    C214220   2.447   2.996  11.736  0.2813  0.4736  0.0693
    5TMC3    C314221   2.558   3.080  11.713 -0.2240 -0.8433 -0.0351
    5TMC3    C414222   2.362   3.064  11.531 -0.0807  0.7986 -0.9519
    5TMC3    C514223   2.470   3.148  11.501  0.4039  0.0164  0.3696
    5TMC3    C614224   2.562   3.160  11.600 -0.2497  0.1728  0.0235
    5TMC3     C14225   2.223   2.975  11.685 -0.5216  0.7112  0.8295
    5TMC3     O14226   2.207   2.916  11.791  0.0237  0.5381 -0.5706
    5TMC3     H14227   2.439   2.941  11.829  2.8444  0.2049  0.1171
    5TMC3    H114228   2.296   3.037  11.450  0.2470  2.6385 -1.8464
    5TMC3    H214229   2.646   3.226  11.582  1.9880 -3.1729 -1.8050
    5TMC3    C714230   2.419   3.273  11.461  0.3486 -0.3362 -0.3959
    5TMC3    C814231   2.667   3.106  11.813  0.3503  0.2042 -0.6333
    5TMC3    O114232   2.300   3.278  11.479  0.7195 -0.0547 -0.0200
    5TMC3    O214233   2.743   3.200  11.791  0.3359  0.9213 -0.2690
    6TMC3    C114234   1.255   3.571  10.584 -0.0119 -0.0861 -0.2350
    6TMC3    C214235   1.324   3.567  10.467 -0.3770  0.0066 -0.1652
    6TMC3    C314236   1.435   3.640  10.451 -0.2729  0.0116 -0.0944
    6TMC3    C414237   1.302   3.631  10.700 -0.6183  0.7085 -0.8275
    6TMC3    C514238   1.421   3.707  10.681  0.2758  0.6814  0.4960
    6TMC3    C614239   1.483   3.708  10.557 -0.2363 -1.1255  0.6262
    6TMC3     C14240   1.126   3.497  10.589 -0.1029  0.5228 -0.0265
    6TMC3     O14241   1.095   3.433  10.489  0.3282  0.2632  0.7277
    6TMC3     H14242   1.271   3.530  10.379 -1.1237 -1.4387  0.8797
    6TMC3    H114243   1.257   3.620  10.798  2.1127  1.4005  0.4695
    6TMC3    H214244   1.585   3.745  10.554 -1.2600  1.6315 -0.0461
    6TMC3    C714245   1.480   3.743  10.807  0.8724 -0.1913  1.4024
    6TMC3    C814246   1.513   3.628  10.326  0.0440 -0.5100  0.8734
    6TMC3    O114247   1.457   3.671  10.902 -0.9832  0.3822  0.5806
    6TMC3    O214248   1.622   3.688  10.324 -0.4096 -0.1333 -0.7842
    7MPD2     C14249   2.421   3.748  11.333  0.3021  0.3813  0.4245
    7MPD2    C114250   2.341   3.682  11.426 -0.0637 -0.5069 -0.3514
    7MPD2    C214251   2.372   3.555  11.456  0.5550 -0.1036 -0.2686
    7MPD2    C314252   2.485   3.494  11.408 -0.7187 -1.0561  0.6836
    7MPD2    C414253   2.569   3.564  11.327 -0.1835  0.0395  0.2942
    7MPD2    C514254   2.529   3.691  11.282 -0.2158 -0.2649 -0.1645
    7MPD2     H14255   2.319   3.509  11.539  2.2254 -1.5522 -0.0133
    7MPD2    H114256   2.656   3.521  11.278  0.0004  0.7241  0.0133
    7MPD2    H214257   2.400   3.851  11.310 -2.5440 -0.0106  1.2652
    7MPD2    H314258   2.592   3.746  11.214  4.6297 -0.4181  4.2054
    7MPD2     N14259   2.518   3.362  11.431  0.3294  0.1183  0.2005
    7MPD2    H514260   2.614   3.333  11.413  0.3540  1.2823 -1.4445
    7MPD2    N114261   2.220   3.730  11.467 -0.0401 -0.0921 -0.1228
    7MPD2    H714262   2.181   3.815  11.429 -1.6032 -0.6175  0.2735
    8TMC3    C114263   2.011   3.745  11.569  0.1424 -0.9777  0.0969
    8TMC3    C214264   1.963   3.761  11.443  0.0945 -0.1773  0.6626
    8TMC3    C314265   1.831   3.720  11.421  0.5906  0.2582 -0.1051
    8TMC3    C414266   1.934   3.705  11.673 -0.4349 -0.2268 -0.7304
    8TMC3    C514267   1.804   3.675  11.651 -0.2969  0.0002  0.5050
    8TMC3    C614268   1.754   3.676  11.524 -0.2263  0.7544 -0.2637
    8TMC3     C14269   2.144   3.687  11.572 -0.1640  0.9301 -0.1373
    8TMC3     O14270   2.163   3.603  11.659 -0.3520 -0.0402 -0.0161
    8TMC3     H14271   2.028   3.790  11.361  1.1920 -4.8845 -0.1550
    8TMC3    H114272   1.980   3.694  11.771  0.4773  0.8542 -1.0421
    8TMC3    H214273   1.656   3.630  11.509 -0.0100  0.2402 -0.0887
    8TMC3    C714274   1.776   3.546  11.711  0.4304  0.4251  0.4185
    8TMC3    C814275   1.755   3.766  11.306 -1.2019 -1.1578 -0.3337
    8TMC3    O114276   1.674   3.528  11.773 -0.0812  0.4320  0.7583
    8TMC3    O214277   1.653   3.699  11.283  0.0496  0.2273 -0.0702
    9MPD2     C14278   1.847   4.002  11.053  0.0071  0.3758 -0.2184
    9MPD2    C114279   1.780   3.897  11.095 -0.7102  0.3484 -0.9691
    9MPD2    C214280   1.677   3.846  11.020 -0.0940  0.2103 -0.4931
    9MPD2    C314281   1.650   3.902  10.896 -0.1033 -0.2102 -1.3132
    9MPD2    C414282   1.722   4.011  10.850  0.0533 -0.0098  0.1664
    9MPD2    C514283   1.819   4.056  10.931  0.7418  0.7838 -0.0115
    9MPD2     H14284   1.620   3.768  11.068  0.2082  1.0771  1.2540
    9MPD2    H114285   1.708   4.055  10.752  0.3978 -0.9152 -0.2946
    9MPD2    H214286   1.925   4.039  11.119  2.6782 -1.5718 -2.3227
    9MPD2    H314287   1.894   4.123  10.890 -0.2486  1.5024 -0.6579
    9MPD2     N14288   1.559   3.858  10.798 -0.4136  0.6150  0.1695
    9MPD2    H514289   1.564   3.911  10.712  1.2326  1.1792  0.5986
    9MPD2    N114290   1.824   3.850  11.226  0.2662  0.2861  0.6811
    9MPD2    H714291   1.910   3.890  11.262  0.5885 -0.0431  0.2779
    1MPD1     C14292   0.259   2.325  16.248  0.5600  0.4620  0.3638
    1MPD1    C114293   0.390   2.363  16.239  0.1983 -0.1173 -0.6187
    1MPD1    C214294   0.414   2.490  16.206  0.2616  0.8560 -0.2554
    1MPD1    C314295   0.318   2.590  16.199 -0.4084  0.1288 -0.1331
    1MPD1    C414296   0.191   2.548  16.220  0.5874  0.0113  0.0441
    1MPD1    C514297   0.161   2.418  16.239 -0.1469 -0.4372  0.4479
    1MPD1     H14298   0.520   2.515  16.209 -0.1885  2.6849  0.3373
    1MPD1    H114299   0.108   2.617  16.218  1.1787  0.7286  0.0661
    1MPD1    H214300   0.215   2.226  16.259  0.3176  0.7087  1.6216
    1MPD1    H314301   0.059   2.383  16.250 -0.0637 -0.7009  0.3823
    1MPD1     N14302   0.351   2.730  16.182  0.0368  0.5129  0.3701
    1MPD1    H514303   0.269   2.790  16.184  1.2974  2.2597  0.7348
    1MPD1    N114304   0.495   2.268  16.249  0.1228  0.1063 -0.5791
    1MPD1    H614305   0.583   2.309  16.281 -1.0536  1.9287  0.3013
    1MPD1    H714306   0.471   2.180  16.293  2.0520  0.3154  0.8906
    2TMC2    C114307   0.550   3.119  16.061  0.2908  0.6758 -0.1982
    2TMC2    C214308   0.439   3.194  16.095 -0.1109  0.7691  0.0718
    2TMC2    C314309   0.351   3.126  16.174 -0.2513 -0.1915  0.0091
    2TMC2    C414310   0.574   2.987  16.092 -0.0943 -0.0986  1.0327
    2TMC2    C514311   0.480   2.928  16.166  0.2278  0.5571  0.1908
    2TMC2    C614312   0.370   3.000  16.213  0.0736  0.0980  0.4985
    2TMC2     C14313   0.674   3.189  16.013  0.6459 -0.0262 -0.3477
    2TMC2     O14314   0.778   3.133  16.051 -0.1636  0.1316 -0.2241
    2TMC2     H14315   0.426   3.301  16.081 -0.5123  0.5924 -0.8725
    2TMC2    H114316   0.660   2.928  16.061  1.5378  1.1936  3.1643
    2TMC2    H214317   0.306   2.954  16.287  0.9162 -0.9594  0.5616
    2TMC2    C714318   0.478   2.783  16.182  0.4045  0.2864  0.5975
    2TMC2    C814319   0.240   3.213  16.223  0.0504  0.5216 -0.1945
    2TMC2    O114320   0.582   2.725  16.161  0.4233 -0.4598  0.2496
    2TMC2    O214321   0.219   3.320  16.161  0.1293 -0.6036 -0.6497
    2TMC2    O514322   0.139   3.136  16.270  0.2673 -0.1409  0.0192
    2TMC2    H514323   0.153   3.073  16.344  0.1776  0.7406  0.7745
    3MPD1     C14324   0.959   3.438  15.676 -0.3121 -0.3137 -0.3203
    3MPD1    C114325   0.830   3.469  15.645 -0.2516 -0.2879  1.0899
    3MPD1    C214326   0.730   3.411  15.722  0.0578 -0.4481 -0.1828
    3MPD1    C314327   0.760   3.334  15.836 -0.3004  0.0562 -0.6837
    3MPD1    C414328   0.887   3.329  15.878 -0.8017 -0.6534  0.0254
    3MPD1    C514329   0.985   3.376  15.797  0.1103  0.0739 -0.8918
    3MPD1     H14330   0.625   3.431  15.705  0.1836  1.6434  1.4612
    3MPD1    H114331   0.916   3.278  15.969 -2.1720  1.5881  1.7002
    3MPD1    H214332   1.047   3.469  15.621  0.6948 -0.4370  1.2255
    3MPD1    H314333   1.087   3.348  15.821 -0.2010  0.3370  0.6877
    3MPD1     N14334   0.655   3.278  15.907  0.1836  0.1809  0.4020
    3MPD1    H514335   0.561   3.306  15.880  0.6671  0.9250 -0.4993
    3MPD1    N114336   0.798   3.538  15.523 -1.0304 -0.1799 -0.1439
    3MPD1    H614337   0.713   3.591  15.505 -0.3707  1.3730  1.4189
    3MPD1    H714338   0.882   3.591  15.497 -0.3108 -0.5055  1.5457
    1TMC1    C114339   4.022   1.222  13.007 -0.5123  0.7460 -0.0046
    1TMC1    C214340   3.942   1.297  13.088 -0.3423 -0.4684  0.3777
    1TMC1    C314341   3.808   1.268  13.091 -0.7298  0.2334  0.0320
    1TMC1    C414342   3.969   1.113  12.933  0.0536  0.2618  0.2607
    1TMC1    C514343   3.838   1.080  12.946 -0.2121 -0.0840 -0.2360
    1TMC1    C614344   3.755   1.166  13.014  0.0182  0.2741 -0.4140
    1TMC1     C14345   4.165   1.249  12.992  0.2646  0.4308 -0.4237
    1TMC1     O14346   4.207   1.230  12.881 -0.2340 -0.1374 -0.5290
    1TMC1     H14347   3.982   1.383  13.141 -2.2233 -0.2877  1.5134
    1TMC1    H114348   4.029   1.039  12.881  1.2788  1.8972 -0.6647
    1TMC1    H214349   3.647   1.157  13.007 -0.0600  1.1908 -0.3589
    1TMC1    C714350   3.768   0.971  12.884 -0.3542 -0.1675 -0.6320
    1TMC1    C814351   3.728   1.324  13.195  0.0868 -0.5434 -0.3578
    1TMC1    O114352   3.685   0.906  12.945  0.1224  0.5113  0.0701
    1TMC1    O214353   3.609   1.333  13.182  0.0987  0.2479 -0.3340
    1TMC1    O314354   3.826   0.945  12.771  0.0847 -0.4863 -0.8133
    1TMC1    H314355   3.883   1.018  12.739  1.0967 -0.6286  0.6505
    1TMC1    O514356   3.785   1.281  13.306 -0.2985 -0.1260 -0.2826
    1TMC1    H514357   3.882   1.271  13.295 -0.2176 -0.6721  1.0153
    2MPD2     C14358   4.459   1.292  13.029 -0.0895 -0.0346  0.5583
    2MPD2    C114359   4.365   1.294  13.131  0.4352  0.5686 -0.1082
    2MPD2    C214360   4.407   1.313  13.261 -0.3934  0.7801 -0.3376
    2MPD2    C314361   4.539   1.316  13.288  0.4620 -0.5578  0.0809
    2MPD2    C414362   4.631   1.324  13.184  1.4305  0.2642  0.1979
    2MPD2    C514363   4.590   1.310  13.052 -0.3286  0.4026  0.4300
    2MPD2     H14364   4.329   1.322  13.336 -0.0987 -0.6591  0.1313
    2MPD2    H114365   4.736   1.345  13.200  2.2501 -3.5285 -0.2992
    2MPD2    H214366   4.426   1.274  12.928 -0.5274 -1.2579  0.9206
    2MPD2    H314367   4.656   1.302  12.967 -0.3092 -0.0680  0.4862
    2MPD2     N14368   4.576   1.329  13.423  0.2653  0.6927 -0.1792
    2MPD2    H514369   4.504   1.308  13.492 -0.2587 -0.9982 -1.2327
    2MPD2    N114370   4.229   1.273  13.111 -0.1480 -0.6558  0.1891
    2MPD2    H714371   4.171   1.279  13.194 -1.0529 -2.0428 -0.3399
    3TCq1    O114372   0.286   1.453  13.847  0.1435 -0.0097  0.3409
    3TCq1    C114373   0.162   1.452  13.903 -0.7332  1.0835 -0.0150
    3TCq1    O214374   0.130   1.488  14.016 -0.6261 -0.5355 -0.3897
    3TCq1    C214375   0.064   1.388  13.819  0.2686 -0.0296  0.3331
    3TCq1    C314376   4.685   1.345  13.881 -0.3535 -0.3537 -0.7198
    3TCq1    C414377   4.586   1.294  13.812 -0.4979 -0.1734 -0.5651
    3TCq1    C514378   4.590   1.290  13.677 -0.6033  0.2124 -0.2323
    3TCq1    C614379   4.700   1.352  13.614 -0.5212 -0.4022 -0.2288
    3TCq1    C714380   0.071   1.399  13.681  0.4694  0.0063  0.7223
    3TCq1    C814381   4.702   1.349  13.473 -0.5690 -0.5077 -0.3660
    3TCq1    O414382   0.058   1.386  13.412 -0.7296  0.0126  0.4792
    3TCq1    C914383   4.465   1.256  13.884  0.7459 -0.0648 -0.1041
    3TCq1    O514384   4.356   1.228  13.821  0.6282 -0.6790  0.1039
    3TCq1    O614385   4.467   1.236  14.007 -0.3301  0.2630 -0.7275
    3TCq1    H114386   0.287   1.405  13.762  0.3825 -0.5475  0.6444
    3TCq1    H214387   4.681   1.355  13.989 -1.3919 -3.0817 -0.5213
    3TCq1    H314388   4.496   1.262  13.631  0.4582 -0.7234 -1.8315
    3TCq1    H414389   0.154   1.428  13.617  0.0428 -0.5055 -0.0745
    1MPD2     C14390   0.014   2.760  15.587  0.2010 -0.6149 -0.3969
    1MPD2    C114391   4.625   2.755  15.549 -0.0060 -0.1055 -0.5571
    1MPD2    C214392   4.517   2.734  15.638 -0.1835 -0.9151 -0.9670
    1MPD2    C314393   4.555   2.698  15.776  0.3043 -0.4600  0.2892
    1MPD2    C414394   4.686   2.712  15.810  0.0080  0.0483 -0.3479
    1MPD2    C514395   0.044   2.748  15.722  0.2725 -0.7055 -0.0429
    1MPD2     H14396   4.416   2.724  15.601 -0.3922 -2.3000 -0.0278
    1MPD2    H114397   4.712   2.712  15.916  0.9664  2.4822 -0.5797
    1MPD2    H214398   0.096   2.787  15.522  0.1443 -0.7967 -0.5482
    1MPD2    H314399   0.139   2.764  15.770 -0.0431  2.2811 -0.4009
    1MPD2     N14400   4.462   2.675  15.877 -0.3601 -0.1987  0.2628
    1MPD2    H514401   4.494   2.629  15.961 -1.7553 -0.2563  0.7706
    1MPD2    N114402   4.598   2.775  15.409 -0.4043  0.3759 -0.6137
    1MPD2    H714403   4.684   2.781  15.354  0.2264 -0.7383  0.2515
    2TMC3    C114404   4.478   2.717  15.219 -0.5235 -0.3053  0.0060
    2TMC3    C214405   4.572   2.614  15.209 -0.2921  0.0900 -0.0531
    2TMC3    C314406   4.524   2.499  15.152 -0.3950  0.1837  0.0355
    2TMC3    C414407   4.363   2.719  15.147  0.1197 -0.5147 -0.1439
    2TMC3    C514408   4.323   2.606  15.083  0.2653  0.1089  0.5705
    2TMC3    C614409   4.399   2.491  15.089  0.3653  0.6400 -0.5624
    2TMC3     C14410   4.481   2.785  15.345 -0.5564  0.0550 -0.9832
    2TMC3     O14411   4.371   2.819  15.389 -0.0098  0.2230 -0.0672
    2TMC3     H14412   4.660   2.602  15.271 -0.4163 -1.5405 -0.2073
    2TMC3    H114413   4.294   2.802  15.154 -0.1662 -0.6316 -1.7221
    2TMC3    H214414   4.356   2.394  15.066 -1.0292  1.5004 -1.5672
    2TMC3    C714415   4.194   2.591  15.015 -0.0302  0.0977  0.2443
    2TMC3    C814416   4.560   2.382  15.226 -0.1857  0.9653 -0.3330
    2TMC3    O114417   4.170   2.488  14.954 -0.9689 -0.0703  1.2772
    2TMC3    O214418   4.676   2.355  15.223 -0.2931  0.5583  0.3738
    3TCq1    O114419   3.394   3.271  14.949 -0.0742 -0.0643  0.6809
    3TCq1    C114420   3.397   3.366  14.851  0.3843 -0.2021 -0.5400
    3TCq1    O214421   3.357   3.478  14.883  0.1764  0.0997 -0.3236
    3TCq1    C214422   3.534   3.348  14.798  0.4540  0.7526 -0.4803
    3TCq1    C314423   3.626   3.436  14.840  0.4806 -0.0777 -0.4277
    3TCq1    C414424   3.757   3.401  14.827  0.1337  0.4656  1.0352
    3TCq1    C514425   3.795   3.284  14.764  0.4665 -0.1058  0.3069
    3TCq1    C614426   3.691   3.197  14.733 -0.0061 -0.3047 -0.4085
    3TCq1    C714427   3.563   3.233  14.741  0.6465 -0.4247 -0.1686
    3TCq1    C814428   3.722   3.059  14.706 -0.3538  0.1364 -0.1212
    3TCq1    O414429   3.640   2.994  14.636 -0.0630 -0.2572  0.2614
    3TCq1    C914430   3.858   3.495  14.871  0.0852  0.9524 -0.1635
    3TCq1    O514431   3.981   3.459  14.859 -0.3017  0.4716  0.4869
    3TCq1    O614432   3.825   3.613  14.897 -0.0211  0.2378 -0.1525
    3TCq1    H114433   3.454   3.194  14.944  1.4818  1.1223  0.8097
    3TCq1    H214434   3.606   3.526  14.896 -0.1052 -0.0101 -0.7414
    3TCq1    H314435   3.898   3.261  14.738  0.3616  0.5691 -0.6597
    3TCq1    H414436   3.485   3.169  14.700 -1.3039  1.2227  1.0387
    4MPD2     C14437   3.795   2.776  14.755 -0.3676  0.1503  0.1927
    4MPD2    C114438   3.854   2.881  14.825  0.4470  0.4627 -0.4700
    4MPD2    C214439   3.967   2.854  14.892  0.0745 -0.2920 -0.7480
    4MPD2    C314440   4.017   2.727  14.911  0.2078 -0.0591 -0.4485
    4MPD2    C414441   3.951   2.626  14.847 -0.3705 -0.1755 -0.5825
    4MPD2    C514442   3.840   2.653  14.774  0.5367 -0.4416 -0.1432
    4MPD2     H14443   4.014   2.946  14.927 -0.5363 -0.4534  0.4814
    4MPD2    H114444   3.982   2.522  14.852 -0.7460 -0.2293  0.6109
    4MPD2    H214445   3.715   2.786  14.682 -0.1202 -0.1538 -0.1190
    4MPD2    H314446   3.789   2.571  14.725 -3.3735  1.1540  1.2679
    4MPD2     N14447   4.126   2.710  14.994  0.5364 -0.0659 -0.4324
    4MPD2    H514448   4.159   2.796  15.037  2.6110 -1.8040  1.4211
    4MPD2    N114449   3.813   3.014  14.797 -0.5025  0.5681 -0.4282
    4MPD2    H714450   3.857   3.084  14.856 -1.6245  0.2865  0.7524
    5TMC2    C114451   4.202   2.376  15.903  0.2538 -0.1275 -0.1705
    5TMC2    C214452   4.064   2.406  15.920  0.4346 -0.4320  0.2253
    5TMC2    C314453   4.036   2.537  15.955  0.2161 -0.0245 -0.1507
    5TMC2    C414454   4.294   2.470  15.915 -0.1998  0.0720  0.3869
    5TMC2    C514455   4.258   2.602  15.938 -0.0171 -0.1192 -0.5495
    5TMC2    C614456   4.129   2.637  15.962  0.0969 -0.1589  0.2704
    5TMC2     C14457   4.228   2.301  15.779 -1.3037  0.2959  0.0353
    5TMC2     O14458   4.141   2.290  15.692 -0.5889 -0.6275 -0.0014
    5TMC2     H14459   3.987   2.332  15.902  1.5558 -1.1971 -1.3677
    5TMC2    H114460   4.389   2.455  15.866  0.9437  1.0473  2.3002
    5TMC2    H214461   4.104   2.743  15.957 -0.2056 -0.3102 -1.5284
    5TMC2    C714462   4.331   2.684  15.858  0.2878 -0.7043  0.3064
    5TMC2    C814463   3.901   2.580  15.996 -0.4108 -1.0181 -0.6951
    5TMC2    O114464   4.271   2.743  15.772  0.5316 -0.2426 -0.0531
    5TMC2    O214465   3.855   2.696  15.995  0.4192  0.4418 -0.1057
    5TMC2    O514466   3.841   2.475  16.052  0.2794  0.0517 -0.0553
    5TMC2    H514467   3.900   2.396  16.062 -0.6173 -0.9585 -2.8132
    6MPD2     C14468   4.590   2.187  15.445  0.5694  0.9413  0.1605
    6MPD2    C114469   4.478   2.264  15.432  0.1793  0.1147 -0.2329
    6MPD2    C214470   4.394   2.278  15.539 -0.9464  0.1548 -0.4746
    6MPD2    C314471   4.421   2.220  15.664  0.4927  0.0413  0.1664
    6MPD2    C414472   4.530   2.141  15.671 -0.5014 -0.2088  0.1493
    6MPD2    C514473   4.614   2.132  15.565  0.0490 -0.1017 -0.1216
    6MPD2     H14474   4.323   2.360  15.530 -0.3494  0.7065 -0.1584
    6MPD2    H114475   4.565   2.097  15.764  0.8134  0.8527  0.1589
    6MPD2    H214476   4.645   2.150  15.359  1.9166  2.2983  0.4508
    6MPD2    H314477   4.693   2.057  15.568  0.9295  0.8609  0.5148
    6MPD2     N14478   4.352   2.251  15.773 -0.1457  0.1431 -0.0164
    6MPD2    H514479   4.401   2.245  15.862  2.8853  2.8703 -1.4977
    6MPD2    N114480   4.460   2.348  15.316  0.1324  1.2469  0.6656
    6MPD2    H714481   4.375   2.404  15.308 -1.6204 -1.6004 -0.2888
  945NH3     N114482   0.758   2.021  15.828  0.8448 -0.1916  0.7076
  945NH3     H214483   0.705   2.086  15.770 -1.2652 -0.3769  2.4621
  945NH3     H314484   0.827   2.084  15.868  0.2650  2.0467 -1.7615
  945NH3     H414485   0.694   2.007  15.904  0.3306  1.5913  0.6080
  946SOD     NA14486   1.446   2.238  16.479  0.1178  0.2119  0.2451
  947SOD     NA14487   0.510   2.527   6.473 -0.0838 -0.3854  0.6835
  948SOD     NA14488   4.482   2.402  10.255 -0.5897  0.1079  0.5347
  949SOD     NA14489   3.090   1.844   9.927 -0.1049 -0.1666 -0.2019
  950SOD     NA14490   1.732   3.202  12.342  0.1199  0.6166 -0.1045
  951SOD     NA14491   4.199   3.656  11.654 -0.1118 -0.1955  0.1983
  952SOD     NA14492   2.245   2.881  12.211 -0.0146  0.2079 -0.3181
  953SOD     NA14493   4.301   1.065  13.960 -0.2701 -0.0538 -0.1425
  954SOL     OW14494   0.077   1.633   9.424 -0.4121 -0.6036 -0.4089
  954SOL    HW114495   0.033   1.711   9.391  1.3261 -0.0248 -1.3664
  954SOL    HW214496   0.040   1.572   9.360 -0.0240 -0.2534 -0.9736
  955SOL     OW14497   2.936   2.375   5.851  0.2132  0.3755 -0.4007
  955SOL    HW114498   2.916   2.408   5.764  1.5543  0.3495 -0.7246
  955SOL    HW214499   3.029   2.397   5.858  0.5796 -1.0133 -0.9589
  956SOL     OW14500   0.623   2.344   1.568 -0.6572 -0.2575  0.1757
  956SOL    HW114501   0.529   2.331   1.567 -0.6717 -0.0899 -0.9677
  956SOL    HW214502   0.637   2.435   1.540  1.2465  0.7083  4.2910
  957SOL     OW14503   2.226   3.275   6.547  0.4022  0.6171 -0.3431
  957SOL    HW114504   2.303   3.224   6.522  1.2580  0.5823  2.3900
  957SOL    HW214505   2.169   3.251   6.474 -0.0384  0.8560 -0.0753
  958SOL     OW14506   1.275   4.123  10.607 -1.0507 -0.5302 -0.6536
  958SOL    HW114507   1.364   4.121  10.572 -0.5885  2.1393  0.3795
  958SOL    HW214508   1.295   4.060  10.677  1.9869  0.7842 -0.3477
  959SOL     OW14509   3.895   2.571   5.199  0.6023  0.4061  0.2321
  959SOL    HW114510   3.987   2.545   5.191  0.4168 -1.0813  3.0271
  959SOL    HW214511   3.862   2.550   5.112  0.7511  1.2563 -0.0293
  960SOL     OW14512   3.441   0.724   7.235  0.4555 -0.5833 -0.1652
  960SOL    HW114513   3.499   0.705   7.161 -0.8598  1.2860 -1.6741
  960SOL    HW214514   3.367   0.663   7.225  0.9332 -1.0170 -1.0725
  961SOL     OW14515   3.381   3.452   1.099 -0.4891 -0.2766  0.1543
  961SOL    HW114516   3.383   3.412   1.012 -1.0762  1.2674 -0.5698
  961SOL    HW214517   3.404   3.542   1.076  1.1921 -0.7851 -0.1882
  962SOL     OW14518   4.413   3.322  15.242 -0.4446 -0.2557  0.3366
  962SOL    HW114519   4.477   3.251  15.245 -0.1100  0.0367  0.1555
  962SOL    HW214520   4.472   3.394  15.267 -0.7799  1.9899 -5.3260
  963SOL     OW14521   3.520   2.769  15.856 -0.2309 -0.4062  0.6051
  963SOL    HW114522   3.584   2.733  15.794  0.8707 -0.2525  1.6552
  963SOL    HW214523   3.513   2.705  15.926  1.2546 -2.5754 -1.2226
  964SOL     OW14524   0.631   2.720   8.633 -0.2382 -0.2497 -0.0783
  964SOL    HW114525   0.712   2.766   8.611  0.1615 -0.6175  0.6129
  964SOL    HW214526   0.571   2.780   8.590 -0.9283 -0.6027  0.3885
  965SOL     OW14527   1.429   0.345   1.579 -0.2953 -0.2082 -0.0382
  965SOL    HW114528   1.371   0.292   1.634  0.6029 -0.8304  0.3183
  965SOL    HW214529   1.367   0.345   1.506 -0.1576  2.1869 -0.1491
  966SOL     OW14530   3.776   2.873   9.064  0.7968  0.6839  0.0901
  966SOL    HW114531   3.769   2.962   9.029  0.0036 -0.1979 -2.0238
  966SOL    HW214532   3.842   2.881   9.133  1.3592  0.5572 -0.4317
  967SOL     OW14533   3.337   0.751   3.671 -0.1179  0.0137 -0.0989
  967SOL    HW114534   3.367   0.671   3.714  1.5510  0.1331 -1.0658
  967SOL    HW214535   3.341   0.734   3.577 -0.2733 -0.6136  0.0100
  968SOL     OW14536   4.621   4.018   1.744  0.7418  0.1153 -0.3744
  968SOL    HW114537   4.553   4.072   1.703  0.3056  0.6217  1.0348
  968SOL    HW214538   4.689   4.032   1.677  1.3453  0.7221  0.3573
  969SOL     OW14539   4.255   0.221  10.490 -0.3901  0.0479 -0.0947
  969SOL    HW114540   4.164   0.251  10.487  0.1282  1.9415  2.4026
  969SOL    HW214541   4.268   0.175  10.408 -0.2410  0.1272 -0.1141
  970SOL     OW14542   2.356   4.531   6.687 -0.3440 -0.1563  0.1728
  970SOL    HW114543   2.261   4.516   6.685 -0.4154 -0.1050  3.4428
  970SOL    HW214544   2.367   4.596   6.618  1.3581 -1.7686 -1.0776
  971SOL     OW14545   4.630   3.836   6.239  0.3298 -0.3011  0.0068
  971SOL    HW114546   4.611   3.896   6.311  0.1674 -2.3286  1.6368
  971SOL    HW214547   4.612   3.888   6.160 -0.3205 -2.0542 -0.9992
  972SOL     OW14548   1.307   3.468   2.598  0.0416 -0.1357  0.0830
  972SOL    HW114549   1.330   3.444   2.688  0.9698  2.3535  0.4990
  972SOL    HW214550   1.322   3.562   2.594 -0.3802 -0.0774 -0.0738
  973SOL     OW14551   2.646   0.118  15.051  0.0271  0.0149 -0.1807
  973SOL    HW114552   2.569   0.061  15.061 -0.4489  0.7241  0.1956
  973SOL    HW214553   2.596   0.191  15.015  0.5706 -0.0009 -0.9670
  974SOL     OW14554   1.490   0.656   6.553 -0.3807 -0.1200 -0.0976
  974SOL    HW114555   1.577   0.616   6.555 -1.1592 -1.7947  0.0366
  974SOL    HW214556   1.503   0.717   6.626  0.3855 -0.6696  0.2268
  975SOL     OW14557   2.786   3.807   2.610  0.4423  0.0339  0.0175
  975SOL    HW114558   2.728   3.880   2.586  1.2196  0.9901  1.0387
  975SOL    HW214559   2.724   3.745   2.649  2.5778 -2.3768 -0.4848
  976SOL     OW14560   0.120   3.052   7.695 -0.3205  0.2882  0.0986
  976SOL    HW114561   0.077   3.131   7.727 -3.8030 -0.7677 -1.8655
  976SOL    HW214562   0.197   3.057   7.751 -0.5486 -2.9119  0.6969
  977SOL     OW14563   2.366   3.400   9.045  0.1839  0.1883 -0.6068
  977SOL    HW114564   2.380   3.463   8.974 -0.8067  0.9255 -0.1480
  977SOL    HW214565   2.380   3.460   9.119  0.3472 -0.9895  0.3109
  978SOL     OW14566   2.931   2.979   7.391 -0.2717 -0.3406 -0.7993
  978SOL    HW114567   2.987   3.056   7.401 -0.8934 -0.0165  0.1823
  978SOL    HW214568   2.975   2.950   7.311  1.7335 -3.2398  1.3490
  979SOL     OW14569   2.342   4.356   1.546 -0.1296  0.2925 -0.3522
  979SOL    HW114570   2.247   4.364   1.541 -0.5301 -3.2303  1.0553
  979SOL    HW214571   2.365   4.306   1.625  0.3094  0.4633 -0.3746
  980SOL     OW14572   0.705   4.474   7.449 -0.0615  0.6273 -0.2903
  980SOL    HW114573   0.795   4.452   7.473  0.6979  2.4176 -1.4855
  980SOL    HW214574   0.679   4.387   7.421  1.4091 -0.2991  1.1822
  981SOL     OW14575   3.696   3.712   5.780  0.4492 -0.0853 -0.6160
  981SOL    HW114576   3.791   3.729   5.777  0.5566 -0.3031  1.7076
  981SOL    HW214577   3.670   3.762   5.703  1.2135  0.4339 -0.5383
  982SOL     OW14578   4.707   4.339   5.263 -0.0289 -0.3291  0.6670
  982SOL    HW114579   4.666   4.286   5.195 -0.1542  1.1364 -0.3843
  982SOL    HW214580   4.684   4.428   5.237 -3.2048 -1.0423  0.9886
  983SOL     OW14581   1.935   2.770   8.164  0.4647  0.5083  0.5294
  983SOL    HW114582   1.847   2.730   8.164  0.4422  0.6114  4.3210
  983SOL    HW214583   1.975   2.733   8.085 -1.0938  0.0229 -0.0385
  984SOL     OW14584   2.843   3.632   3.393 -0.7111 -0.1477 -0.6571
  984SOL    HW114585   2.803   3.545   3.396  0.5339 -0.6359  1.4112
  984SOL    HW214586   2.786   3.678   3.454  1.6230  1.2595  0.4602
  985SOL     OW14587   3.456   1.762   2.298  0.2737  0.0996 -0.2321
  985SOL    HW114588   3.372   1.721   2.276  0.8000 -0.8248 -0.5447
  985SOL    HW214589   3.524   1.695   2.284  0.6470  0.7020 -1.2997
  986SOL     OW14590   0.873   2.300   2.800 -0.1370  0.2976 -0.4199
  986SOL    HW114591   0.877   2.251   2.718  0.1880 -1.7988  0.8576
  986SOL    HW214592   0.952   2.353   2.785  1.7056 -2.5561 -0.9177
  987SOL     OW14593   3.181   1.920   4.553  0.3802  0.4287 -0.1048
  987SOL    HW114594   3.134   1.943   4.473  0.2063  2.9068  0.6835
  987SOL    HW214595   3.211   1.836   4.519 -0.8049 -0.3105  0.7107
  988SOL     OW14596   0.475   3.335  11.151  0.1568  0.0052  0.1789
  988SOL    HW114597   0.568   3.320  11.131  0.9679  2.3729  2.0558
  988SOL    HW214598   0.474   3.430  11.163 -1.9740  0.1890 -1.4087
  989SOL     OW14599   3.554   0.626  16.151 -0.2211  0.0013 -0.1672
  989SOL    HW114600   3.550   0.625  16.055  1.8011 -1.7979 -0.2213
  989SOL    HW214601   3.527   0.717  16.166 -0.6201 -0.1066 -0.2223
  990SOL     OW14602   1.451   0.133   9.249 -0.1087  0.3062 -0.4047
  990SOL    HW114603   1.362   0.099   9.239 -0.1273  0.1565  0.3112
  990SOL    HW214604   1.459   0.186   9.169 -0.5487 -1.0971 -1.3881
  991SOL     OW14605   4.556   0.741   8.750  0.2975  0.3602 -0.2341
  991SOL    HW114606   4.536   0.658   8.707 -0.4949  0.1009  0.6393
  991SOL    HW214607   4.578   0.784   8.667  1.6490 -2.2566 -1.2212
  992SOL     OW14608   1.392   3.164  13.069 -0.1128  0.2189 -0.6533
  992SOL    HW114609   1.338   3.114  13.131  2.5273 -1.3754  0.3543
  992SOL    HW214610   1.411   3.232  13.133 -1.6622 -1.1975  1.3040
  993SOL     OW14611   2.042   2.217  13.432 -0.0011  0.4782 -0.1983
  993SOL    HW114612   1.978   2.263  13.378 -1.7839 -1.2487  0.4689
  993SOL    HW214613   2.062   2.286  13.496 -0.5926 -0.7163  1.2646
  994SOL     OW14614   3.548   1.797  10.711  0.4485  0.2915  0.2832
  994SOL    HW114615   3.564   1.828  10.622  1.4846  1.2527  0.8063
  994SOL    HW214616   3.554   1.882  10.755 -0.0588  0.9736 -0.9622
  995SOL     OW14617   4.599   3.459  11.103  0.0434  0.5832  0.4423
  995SOL    HW114618   4.614   3.548  11.135 -0.6661  1.5548 -1.9089
  995SOL    HW214619   4.652   3.454  11.024  0.0685  1.2348  0.4146
  996SOL     OW14620   0.324   4.590   7.762  0.3260 -0.6988 -0.1506
  996SOL    HW114621   0.416   4.595   7.737  0.2854 -0.1723 -0.1907
  996SOL    HW214622   0.277   4.578   7.680  1.5057  1.1401 -1.1101
  997SOL     OW14623   3.116   0.455   8.468  0.0546  0.4624 -0.0511
  997SOL    HW114624   3.069   0.522   8.517 -2.2337 -0.0067 -1.5919
  997SOL    HW214625   3.197   0.446   8.518  1.6962  0.6622 -2.6559
  998SOL     OW14626   3.469   3.819  15.822  0.0747  0.8653 -0.5681
  998SOL    HW114627   3.376   3.798  15.828  0.0662  1.5889  2.0310
  998SOL    HW214628   3.504   3.731  15.814 -0.9840  0.3709  0.1656
  999SOL     OW14629   1.035   3.789   5.182  0.8568  0.2155  0.5259
  999SOL    HW114630   1.128   3.768   5.169  0.4251 -0.3946 -1.7049
  999SOL    HW214631   0.999   3.709   5.220 -1.0182  1.2363  0.8982
 1000SOL     OW14632   0.685   2.669  13.364 -0.4174 -0.5054 -0.2130
 1000SOL    HW114633   0.649   2.639  13.447  0.3491  0.8353  0.6093
 1000SOL    HW214634   0.758   2.610  13.348 -0.4468 -0.4536 -0.5318
 1001SOL     OW14635   0.429   3.308   4.446 -0.3262  0.0322 -0.2605
 1001SOL    HW114636   0.452   3.283   4.535 -0.5595  1.2064  0.1285
 1001SOL    HW214637   0.341   3.269   4.449  0.1612 -1.1359 -0.8213
 1002SOL     OW14638   1.122   0.206   6.331 -0.1585  0.4024  0.6210
 1002SOL    HW114639   1.193   0.145   6.313 -1.4216 -0.6381 -0.8914
 1002SOL    HW214640   1.051   0.172   6.277  1.2278 -0.5417 -0.5974
 1003SOL     OW14641   3.235   1.508  14.573  0.4971 -0.0284  0.7115
 1003SOL    HW114642   3.186   1.580  14.613 -0.5109 -1.1070  1.4601
 1003SOL    HW214643   3.313   1.513  14.627  1.5347 -1.6009 -0.6455
 1004SOL     OW14644   4.605   4.161  16.563 -0.1728  0.0175 -0.2776
 1004SOL    HW114645   4.674   4.098  16.539 -0.2679  0.2844 -1.2831
 1004SOL    HW214646   4.647   4.223  16.622  2.2131 -1.5153 -0.3482
 1005SOL     OW14647   3.445   2.806   5.684 -0.0845  0.1281 -0.4455
 1005SOL    HW114648   3.429   2.713   5.668  1.7422 -0.7927  3.1583
 1005SOL    HW214649   3.511   2.827   5.618 -0.0474  0.6370 -0.2451
 1006SOL     OW14650   0.731   2.963   7.630  0.4740  1.1836 -0.3586
 1006SOL    HW114651   0.805   2.965   7.690  0.9528 -1.3577 -0.8520
 1006SOL    HW214652   0.671   2.904   7.676  0.7311  0.4636 -0.9386
 1007SOL     OW14653   0.580   3.111   0.168 -0.5585  0.5007  0.5335
 1007SOL    HW114654   0.522   3.166   0.221 -1.3297 -0.1406  0.3517
 1007SOL    HW214655   0.648   3.083   0.228  1.1103  0.4422 -1.3873
 1008SOL     OW14656   4.305   1.683   3.215  0.1218  0.1039 -0.4148
 1008SOL    HW114657   4.302   1.624   3.290 -2.3805  3.4177  2.0497
 1008SOL    HW214658   4.230   1.654   3.163  0.0788 -1.7373  0.6803
 1009SOL     OW14659   3.604   1.234   4.475 -0.1217 -0.0219  0.0191
 1009SOL    HW114660   3.602   1.195   4.562  0.2400 -1.9826 -0.8448
 1009SOL    HW214661   3.669   1.183   4.426 -1.8990 -2.0936 -0.1575
 1010SOL     OW14662   3.751   1.164   3.557  0.1427 -0.6500  0.7175
 1010SOL    HW114663   3.678   1.225   3.572  1.0746  0.8604 -0.8896
 1010SOL    HW214664   3.826   1.221   3.572 -0.7023  0.8414 -0.6846
 1011SOL     OW14665   4.412   1.866  11.457 -0.2349 -0.1873 -0.3032
 1011SOL    HW114666   4.498   1.894  11.489 -0.4018  1.3162 -1.1326
 1011SOL    HW214667   4.365   1.944  11.484 -0.0051  0.0346 -0.5349
 1012SOL     OW14668   3.349   2.063   3.442 -0.2165 -0.3498 -0.0257
 1012SOL    HW114669   3.371   2.157   3.437 -1.5550 -0.0454 -0.0725
 1012SOL    HW214670   3.352   2.042   3.348 -0.6086 -1.4775  0.2235
 1013SOL     OW14671   1.325   4.207   4.618  0.3030  0.0389  0.4108
 1013SOL    HW114672   1.308   4.122   4.579 -0.7287  0.7764 -0.7516
 1013SOL    HW214673   1.242   4.225   4.662  0.8776  0.9850  1.1050
 1014SOL     OW14674   3.298   2.711  10.294  0.4729  0.1026 -0.4671
 1014SOL    HW114675   3.358   2.785  10.290  2.9373 -1.8041  1.5889
 1014SOL    HW214676   3.304   2.696  10.199  0.2939  0.3304 -0.5163
 1015SOL     OW14677   1.592   4.724   5.285  0.0140 -0.3348 -0.5500
 1015SOL    HW114678   1.511   4.674   5.296  0.2977 -0.7671 -0.4520
 1015SOL    HW214679   1.644   4.660   5.237  0.9239 -1.7220  2.3134
 1016SOL     OW14680   0.790   0.267   7.966  0.0342 -0.0480 -0.2313
 1016SOL    HW114681   0.722   0.204   7.944 -1.8858  2.5891 -1.9348
 1016SOL    HW214682   0.743   0.349   7.954 -2.9899 -2.0449 -1.9921
 1017SOL     OW14683   0.640   4.087   1.700 -0.4278  0.5100 -0.1373
 1017SOL    HW114684   0.724   4.066   1.659 -0.5064  1.9978 -1.0662
 1017SOL    HW214685   0.618   4.170   1.659  0.3290  1.2523  0.9923
 1018SOL     OW14686   2.647   3.203  12.286 -0.7045 -0.3736  0.0514
 1018SOL    HW114687   2.720   3.265  12.287 -1.2361  0.2680 -1.5350
 1018SOL    HW214688   2.619   3.217  12.196 -0.0146 -1.7057 -0.3661
 1019SOL     OW14689   3.922   2.093   8.373  0.1069 -0.1634 -0.2726
 1019SOL    HW114690   4.008   2.076   8.336 -0.1779 -0.6633 -0.7087
 1019SOL    HW214691   3.943   2.123   8.462  0.8201  0.1391 -0.5485
 1020SOL     OW14692   4.225   4.159   9.643  0.1332  0.1260 -0.7181
 1020SOL    HW114693   4.135   4.157   9.609 -0.8560 -1.6947  1.9513
 1020SOL    HW214694   4.220   4.249   9.674 -2.6739 -0.8940  1.8695
 1021SOL     OW14695   1.622   1.653   3.804  0.1051 -0.2111  0.4190
 1021SOL    HW114696   1.593   1.566   3.778  0.7712  0.1471 -1.5333
 1021SOL    HW214697   1.598   1.657   3.896 -0.7165  0.3485  0.1866
 1022SOL     OW14698   3.039   0.685  16.914  0.2997  0.5598 -0.0198
 1022SOL    HW114699   2.971   0.725  16.967  0.0553  0.1839 -0.0454
 1022SOL    HW214700   3.053   0.750  16.844 -0.9823  1.0476  0.1869
 1023SOL     OW14701   2.708   2.154   5.381 -0.4317  0.0646  0.3009
 1023SOL    HW114702   2.631   2.150   5.438  0.0606  0.7917  1.0213
 1023SOL    HW214703   2.694   2.244   5.351 -0.4921  0.0384  0.2495
 1024SOL     OW14704   1.453   4.496   8.384 -0.0693 -0.6847  0.5874
 1024SOL    HW114705   1.452   4.579   8.337  2.1815 -1.0385 -0.0839
 1024SOL    HW214706   1.394   4.522   8.455  0.2489  2.3571 -0.2562
 1025SOL     OW14707   3.048   1.119  16.976  0.6935 -0.1230 -0.4132
 1025SOL    HW114708   2.974   1.059  16.964 -1.3206  1.9821  1.4443
 1025SOL    HW214709   3.007   1.203  16.995  0.2730 -0.7997  1.6668
 1026SOL     OW14710   1.026   0.474   6.394 -0.0663 -0.1195  0.5367
 1026SOL    HW114711   0.977   0.474   6.476  0.6606 -0.2305  0.9760
 1026SOL    HW214712   1.048   0.381   6.388  2.5510  0.4185  1.4121
 1027SOL     OW14713   3.914   2.836   6.498  0.2507  0.4242 -0.2147
 1027SOL    HW114714   4.003   2.802   6.491  1.7263  3.9704  1.1671
 1027SOL    HW214715   3.897   2.817   6.590  1.6360  0.5019  0.0495
 1028SOL     OW14716   1.456   0.667   5.698  0.2180 -0.2708  0.1131
 1028SOL    HW114717   1.407   0.692   5.620  1.6328  1.6256 -0.1791
 1028SOL    HW214718   1.389   0.623   5.750 -0.3025 -2.2353 -2.1964
 1029SOL     OW14719   0.003   2.092   3.955 -0.0599 -0.0708 -0.0121
 1029SOL    HW114720   4.707   2.052   4.034  3.8511  0.6746  2.2086
 1029SOL    HW214721   4.730   2.020   3.893 -0.5615 -0.5090  0.6048
 1030SOL     OW14722   0.218   2.019   7.355 -0.2693  0.0371  0.4130
 1030SOL    HW114723   0.143   1.960   7.360 -0.8871  0.8181  0.3260
 1030SOL    HW214724   0.272   1.971   7.291 -1.5964 -1.9973  0.8045
 1031SOL     OW14725   0.621   1.683   5.210 -0.2190 -0.3964 -0.3849
 1031SOL    HW114726   0.650   1.721   5.128 -0.6779 -0.8239 -0.7449
 1031SOL    HW214727   0.707   1.652   5.239  0.6260  1.0909 -1.3442
 1032SOL     OW14728   3.969   1.775   3.850  0.9064  0.1271  0.0307
 1032SOL    HW114729   4.042   1.734   3.896 -0.9140 -1.4425  1.5231
 1032SOL    HW214730   3.914   1.700   3.830  1.8357 -0.8658  1.1849
 1033SOL     OW14731   3.818   1.770   0.824  0.3805  0.0382  0.2570
 1033SOL    HW114732   3.771   1.754   0.743  0.3486 -2.0577  0.7040
 1033SOL    HW214733   3.850   1.859   0.809 -0.6227  0.3349 -0.0837
 1034SOL     OW14734   1.943   3.920  15.836 -0.1856  0.2479 -0.3966
 1034SOL    HW114735   1.921   4.012  15.847  0.5591  0.5022 -0.9965
 1034SOL    HW214736   1.880   3.872  15.890  0.1493 -0.5495 -0.7044
 1035SOL     OW14737   1.627   4.160   7.843 -0.4266 -0.0353 -0.0440
 1035SOL    HW114738   1.583   4.236   7.805  1.2531  0.9587 -0.0105
 1035SOL    HW214739   1.577   4.150   7.924 -0.5088 -2.9867 -0.4938
 1036SOL     OW14740   1.556   0.555   0.458 -0.2888  0.1201 -0.0555
 1036SOL    HW114741   1.513   0.532   0.376 -1.7636  1.6859  0.2901
 1036SOL    HW214742   1.509   0.491   0.512 -0.0401 -1.0893 -1.2817
 1037SOL     OW14743   3.880   4.202   6.139  0.3554  0.3512  0.3458
 1037SOL    HW114744   3.861   4.258   6.213  0.5356  0.6885  0.1384
 1037SOL    HW214745   3.897   4.265   6.069  1.1660 -0.8947 -0.5816
 1038SOL     OW14746   2.990   1.555  14.088 -0.2448  0.4650 -0.2741
 1038SOL    HW114747   3.019   1.463  14.087 -0.5727  0.3505  1.5771
 1038SOL    HW214748   3.035   1.584  14.167  0.3100  1.3302 -0.9106
 1039SOL     OW14749   2.140   4.458   5.126  0.6151 -0.0016  0.0398
 1039SOL    HW114750   2.158   4.400   5.052  1.5852  0.6381 -0.2295
 1039SOL    HW214751   2.105   4.396   5.191 -4.8248  2.6331 -0.4423
 1040SOL     OW14752   3.094   2.232   7.329  0.4283  0.0451  0.0222
 1040SOL    HW114753   3.024   2.212   7.267 -1.6112  0.2210  2.2494
 1040SOL    HW214754   3.165   2.174   7.301 -0.3932 -1.4792  1.0369
 1041SOL     OW14755   4.628   2.330   4.006  0.5761  0.0487 -0.1265
 1041SOL    HW114756   4.538   2.305   3.986  0.3845  0.9007 -0.3114
 1041SOL    HW214757   4.683   2.260   3.972 -1.1472  0.0767 -2.9388
 1042SOL     OW14758   0.265   1.330   4.061  0.0607  0.4386  0.5104
 1042SOL    HW114759   0.263   1.252   4.117  2.5285  0.4880  0.6808
 1042SOL    HW214760   0.357   1.355   4.058 -0.1065  1.0046  0.2443
 1043SOL     OW14761   3.305   2.631  13.107  0.1410  1.2127 -0.4304
 1043SOL    HW114762   3.251   2.635  13.028  1.1295 -0.4413 -1.1839
 1043SOL    HW214763   3.239   2.589  13.162  0.2701 -0.0367 -1.2370
 1044SOL     OW14764   1.792   3.372   8.201  0.1313  0.2172 -0.5301
 1044SOL    HW114765   1.704   3.384   8.166  0.5111 -0.5585 -1.7370
 1044SOL    HW214766   1.784   3.294   8.256  0.4103  2.0391  2.1317
 1045SOL     OW14767   2.720   0.661   7.602 -0.2612  0.4388  0.5112
 1045SOL    HW114768   2.812   0.661   7.628 -0.4006  1.0327  1.0293
 1045SOL    HW214769   2.724   0.729   7.535 -0.4655  0.8472  0.9106
 1046SOL     OW14770   1.714   1.259  13.544 -0.5675  0.1415 -0.1859
 1046SOL    HW114771   1.720   1.244  13.638  1.3920  2.4116  0.0568
 1046SOL    HW214772   1.802   1.293  13.528  0.7100 -1.9430  2.4446
 1047SOL     OW14773   4.585   3.855   3.556  0.2233 -0.2062 -0.3339
 1047SOL    HW114774   4.589   3.911   3.634  1.4013  0.1529 -0.6570
 1047SOL    HW214775   4.515   3.894   3.503  0.5687  2.1596  0.9570
 1048SOL     OW14776   0.426   1.922   2.946 -0.3763  0.5133  0.4632
 1048SOL    HW114777   0.353   1.905   3.005  0.5189  0.8717  1.6863
 1048SOL    HW214778   0.423   2.014   2.919  0.1274  0.4138  0.0610
 1049SOL     OW14779   2.410   4.718   8.103  0.5539  0.0498  0.3319
 1049SOL    HW114780   2.487   0.023   8.138  0.1781  0.5209  0.5471
 1049SOL    HW214781   2.406   0.017   8.016  2.4874 -2.0410 -0.7018
 1050SOL     OW14782   3.195   4.250   3.400 -0.2681 -0.1730 -0.3749
 1050SOL    HW114783   3.273   4.286   3.358 -0.5225 -0.3488 -1.0026
 1050SOL    HW214784   3.223   4.159   3.385 -0.8652 -0.5991  1.1205
 1051SOL     OW14785   1.207   1.726   6.121 -0.1816 -0.3279  0.1338
 1051SOL    HW114786   1.185   1.639   6.153 -2.6527  0.4307  0.5202
 1051SOL    HW214787   1.290   1.699   6.082  0.5097  0.1144  1.2952
 1052SOL     OW14788   2.736   3.580   5.364 -0.1123 -0.1278 -0.5372
 1052SOL    HW114789   2.797   3.506   5.365  1.2668  1.0284  0.6663
 1052SOL    HW214790   2.672   3.533   5.311 -0.5579  1.7737 -1.6623
 1053SOL     OW14791   4.408   3.167  10.541 -0.0932  0.5509 -0.3095
 1053SOL    HW114792   4.339   3.148  10.604  0.1105 -0.4492 -0.3853
 1053SOL    HW214793   4.486   3.193  10.590 -0.9668  0.6320  1.0366
 1054SOL     OW14794   3.354   1.236  13.682 -0.1195  0.1077  0.3140
 1054SOL    HW114795   3.360   1.188  13.764 -0.6638 -2.5164 -1.1847
 1054SOL    HW214796   3.441   1.274  13.668 -0.6374  0.2421 -2.6121
 1055SOL     OW14797   1.225   3.618   4.270 -0.6073 -0.7113  0.0521
 1055SOL    HW114798   1.302   3.672   4.251 -1.7434  0.9257  0.0656
 1055SOL    HW214799   1.205   3.639   4.361 -0.6761 -0.2451 -0.0707
 1056SOL     OW14800   3.170   1.026  10.620  0.5146 -0.4569 -0.3332
 1056SOL    HW114801   3.245   1.082  10.643  1.7695 -2.0705 -0.5043
 1056SOL    HW214802   3.133   1.080  10.550  1.8567  2.3102  1.0488
 1057SOL     OW14803   1.390   4.603   3.332  0.1824 -0.6208 -0.3596
 1057SOL    HW114804   1.356   4.680   3.378  2.5645  0.8404 -1.0409
 1057SOL    HW214805   1.327   4.601   3.261  0.8590  1.1142 -0.9968
 1058SOL     OW14806   0.783   4.256   7.893 -0.3034  0.4741  0.4491
 1058SOL    HW114807   0.723   4.186   7.868 -2.1664  2.0047  0.6075
 1058SOL    HW214808   0.792   4.301   7.809 -0.4731  0.1384  0.2532
 1059SOL     OW14809   3.402   2.688   3.535 -0.2497  0.1715  0.2334
 1059SOL    HW114810   3.447   2.623   3.480  0.3493 -1.2387  2.3739
 1059SOL    HW214811   3.475   2.732   3.578  0.4863  0.1867 -1.0540
 1060SOL     OW14812   1.862   1.000   4.535  0.2139 -0.4880  0.0716
 1060SOL    HW114813   1.928   0.969   4.472  0.7937  2.3999 -0.7252
 1060SOL    HW214814   1.838   1.086   4.500 -1.1625 -1.3581 -1.1195
 1061SOL     OW14815   4.705   2.843  16.944  0.5245 -0.0990  0.0463
 1061SOL    HW114816   4.707   2.754  16.907  0.2745  0.3970 -1.1400
 1061SOL    HW214817   0.054   2.871  16.962  0.2327  2.2134 -2.2005
 1062SOL     OW14818   2.147   2.155   8.405 -0.0642  0.3475 -0.3695
 1062SOL    HW114819   2.212   2.090   8.433 -0.4821 -1.1797 -2.9486
 1062SOL    HW214820   2.188   2.188   8.326  0.2436  1.3667  0.2107
 1063SOL     OW14821   1.973   1.650   4.077 -0.3012  0.9049 -0.4302
 1063SOL    HW114822   2.013   1.724   4.122  0.4858 -0.1715  0.6350
 1063SOL    HW214823   2.049   1.620   4.028  0.5658  0.5406  1.1396
 1064SOL     OW14824   3.387   1.892   5.052  0.5833  0.0382 -0.1352
 1064SOL    HW114825   3.342   1.825   5.102  2.2654  0.4016  1.8474
 1064SOL    HW214826   3.451   1.836   5.008 -0.5760 -0.2575 -1.4520
 1065SOL     OW14827   3.265   0.384   7.865  0.0333 -0.5419  0.3299
 1065SOL    HW114828   3.177   0.417   7.848 -0.2537 -1.8187 -0.7035
 1065SOL    HW214829   3.296   0.428   7.944 -1.1922 -0.3058  0.6729
 1066SOL     OW14830   1.305   0.317   4.503 -0.2822 -0.3584  0.3602
 1066SOL    HW114831   1.276   0.364   4.581  0.4387 -3.0673  2.2695
 1066SOL    HW214832   1.239   0.248   4.502  1.8956 -2.4311 -1.7450
 1067SOL     OW14833   3.020   1.294   3.624  0.1607  0.0576  0.2922
 1067SOL    HW114834   3.044   1.386   3.615 -0.2433 -0.0107 -1.3720
 1067SOL    HW214835   3.104   1.259   3.654  0.1419 -1.3957 -1.4046
 1068SOL     OW14836   4.525   2.292  17.163 -0.2788  0.3379 -0.2909
 1068SOL    HW114837   4.453   2.230  17.170  0.4784 -0.3904  1.1753
 1068SOL    HW214838   4.514   2.350  17.239 -1.6137  3.0811 -2.5952
 1069SOL     OW14839   2.915   3.451   5.898  0.5906  0.9190 -0.2730
 1069SOL    HW114840   2.890   3.358   5.895  1.9971  0.5178  0.2770
 1069SOL    HW214841   3.003   3.445   5.859  0.1979 -0.8150 -0.8790
 1070SOL     OW14842   3.354   2.673   8.190  0.5011  0.6318 -0.1758
 1070SOL    HW114843   3.333   2.592   8.144 -0.0827  1.1089 -0.7521
 1070SOL    HW214844   3.273   2.725   8.187  0.0396 -0.1034 -0.5517
 1071SOL     OW14845   0.432   0.039   7.213 -0.1606  0.0104  0.4634
 1071SOL    HW114846   0.412   4.687   7.199 -0.9252  0.0442  1.2988
 1071SOL    HW214847   0.526   0.035   7.231 -0.0815 -1.7092 -0.3863
 1072SOL     OW14848   0.376   3.268  11.696  0.6304 -0.1920  0.2362
 1072SOL    HW114849   0.389   3.243  11.604 -0.0763 -1.5200  0.4930
 1072SOL    HW214850   0.458   3.231  11.728 -0.3090 -3.3833 -1.0103
 1073SOL     OW14851   4.276   4.472  16.833  0.2859  0.0730  0.1372
 1073SOL    HW114852   4.324   4.530  16.774  2.4573  1.1824  3.0173
 1073SOL    HW214853   4.335   4.463  16.908  1.3021 -2.7854 -0.9788
 1074SOL     OW14854   0.569   0.225   4.066 -0.0007 -0.0041  0.2760
 1074SOL    HW114855   0.631   0.181   4.009 -0.1006  0.2020  0.0097
 1074SOL    HW214856   0.491   0.180   4.034 -0.4343  2.3444 -1.9312
 1075SOL     OW14857   3.106   1.734   6.917 -0.0214 -0.1307  0.3945
 1075SOL    HW114858   3.182   1.725   6.859 -1.7596  1.7051 -2.1837
 1075SOL    HW214859   3.062   1.793   6.855  0.2547  1.3668  1.6236
 1076SOL     OW14860   0.946   2.804   6.954 -0.3842 -0.0904 -0.1205
 1076SOL    HW114861   0.960   2.818   6.860 -0.0918 -0.7356 -0.1767
 1076SOL    HW214862   1.022   2.845   6.995 -1.2684  1.0340  0.3828
 1077SOL     OW14863   2.160   3.775  16.831  0.1703 -0.4572  0.9221
 1077SOL    HW114864   2.114   3.837  16.776 -1.6546 -0.6649  2.2158
 1077SOL    HW214865   2.247   3.792  16.795  0.0272  1.4676  1.5011
 1078SOL     OW14866   4.106   1.982   7.841  0.2098 -0.2924 -0.2091
 1078SOL    HW114867   4.030   2.035   7.866  1.6082  1.4244  0.3699
 1078SOL    HW214868   4.174   2.012   7.901  1.9538 -1.7146 -1.4793
 1079SOL     OW14869   3.288   2.679   2.330 -0.5939 -0.0401 -0.0116
 1079SOL    HW114870   3.257   2.697   2.242 -0.1175 -0.3709 -0.2438
 1079SOL    HW214871   3.276   2.767   2.366 -0.5650  0.5613 -1.4971
 1080SOL     OW14872   0.242   0.915   8.358 -0.6640 -0.0991  0.3292
 1080SOL    HW114873   0.281   0.840   8.313 -1.8093  0.6413 -1.8838
 1080SOL    HW214874   0.302   0.925   8.432  0.4738 -1.8464 -0.3582
 1081SOL     OW14875   2.413   3.395  13.104  0.1504  0.4559  0.4869
 1081SOL    HW114876   2.476   3.460  13.135  0.5943  0.7782 -1.1236
 1081SOL    HW214877   2.335   3.451  13.102  0.1686  0.4645  0.0773
 1082SOL     OW14878   2.509   1.998   9.096  0.1842  0.5625 -0.1312
 1082SOL    HW114879   2.474   2.047   9.021 -0.2171  0.8281  0.2266
 1082SOL    HW214880   2.594   2.038   9.115  0.9292 -1.4808  0.8059
 1083SOL     OW14881   4.573   1.115   5.543  0.4680  0.8063  0.2243
 1083SOL    HW114882   4.585   1.155   5.457 -1.4433 -1.9440 -1.3107
 1083SOL    HW214883   4.478   1.114   5.536  0.2314 -0.2815  3.5267
 1084SOL     OW14884   4.106   1.106   4.712  0.0640 -0.2983 -0.1947
 1084SOL    HW114885   4.104   1.110   4.616 -0.0302 -2.1465 -0.2593
 1084SOL    HW214886   4.168   1.178   4.726  0.6893 -0.5978 -1.3663
 1085SOL     OW14887   2.325   0.320   2.678 -0.4369  0.2265 -0.5521
 1085SOL    HW114888   2.377   0.290   2.753 -1.7423  1.0558  0.6759
 1085SOL    HW214889   2.384   0.290   2.608  1.0979 -0.6682  1.1117
 1086SOL     OW14890   2.121   1.138   3.555 -0.4737  0.3155  0.5606
 1086SOL    HW114891   2.062   1.191   3.500 -0.4547 -2.1411 -1.8353
 1086SOL    HW214892   2.123   1.192   3.634 -0.0117 -0.8412  1.3398
 1087SOL     OW14893   0.935   1.585   2.827 -0.2223 -0.5936 -0.3901
 1087SOL    HW114894   0.866   1.540   2.779 -0.6641 -1.2267  0.8606
 1087SOL    HW214895   0.975   1.508   2.867 -0.4691 -1.6840 -2.2311
 1088SOL     OW14896   1.324   0.398   7.243  0.2952  0.0594 -0.4146
 1088SOL    HW114897   1.283   0.403   7.329  0.4125 -0.5798 -0.3163
 1088SOL    HW214898   1.341   0.488   7.215 -1.2649  0.2349 -0.7951
 1089SOL     OW14899   2.154   0.500   9.191 -0.0244 -0.6930  0.4301
 1089SOL    HW114900   2.061   0.478   9.193 -0.3563  0.6383 -0.3157
 1089SOL    HW214901   2.180   0.474   9.103  1.1070 -0.2701  0.6368
 1090SOL     OW14902   1.194   4.302  12.753  0.1584 -0.1494  0.1140
 1090SOL    HW114903   1.188   4.213  12.788 -0.2001 -1.1906 -2.5488
 1090SOL    HW214904   1.132   4.342  12.813 -0.5545  0.7266 -1.2129
 1091SOL     OW14905   3.425   4.077   2.778  0.2099 -0.0519 -0.1232
 1091SOL    HW114906   3.394   4.168   2.780  1.2176  0.3070 -0.8520
 1091SOL    HW214907   3.470   4.069   2.693 -2.6171  1.9297 -1.8129
 1092SOL     OW14908   3.024   0.394   1.982  0.1950  0.2121  0.4222
 1092SOL    HW114909   3.068   0.319   1.942 -1.8573 -0.5908 -0.3434
 1092SOL    HW214910   2.958   0.411   1.915 -1.0195 -3.3842  0.7102
 1093SOL     OW14911   0.339   3.400  10.913 -0.2376  0.6596  0.1480
 1093SOL    HW114912   0.378   3.487  10.921  0.4541  0.3574  0.0887
 1093SOL    HW214913   0.393   3.360  10.982 -2.0379  1.0457  1.7633
 1094SOL     OW14914   1.269   3.604   5.056 -0.4016  0.4754  0.7050
 1094SOL    HW114915   1.290   3.564   5.141  0.4250  2.5086  1.4570
 1094SOL    HW214916   1.345   3.652   5.024 -0.3426 -0.0073  0.1209
 1095SOL     OW14917   0.640   0.648  12.028 -0.0323  0.5128 -0.5938
 1095SOL    HW114918   0.643   0.692  11.943 -0.2968  0.0809 -0.8255
 1095SOL    HW214919   0.651   0.722  12.088 -0.8521  1.3106 -1.4161
 1096SOL     OW14920   1.318   2.487   4.684 -0.0614 -0.0770 -0.0562
 1096SOL    HW114921   1.226   2.499   4.707  0.4383  0.0320  1.8390
 1096SOL    HW214922   1.309   2.510   4.591 -0.7367  0.1559  0.0661
 1097SOL     OW14923   4.729   0.037   2.202  0.1324 -0.0964  0.4496
 1097SOL    HW114924   0.048   4.738   2.265  0.5865 -0.9124 -0.4873
 1097SOL    HW214925   4.682   0.098   2.259 -0.7954  1.8305 -2.3837
 1098SOL     OW14926   1.105   4.662   3.405  0.6575 -0.0579  0.1742
 1098SOL    HW114927   1.170   4.671   3.474 -0.6261 -2.6723  1.7334
 1098SOL    HW214928   1.028   4.699   3.447  0.0621  2.3772 -3.0121
 1099SOL     OW14929   3.267   3.329   3.976 -0.0684  0.3898  0.1626
 1099SOL    HW114930   3.222   3.348   4.058 -2.1736 -3.2712 -0.1488
 1099SOL    HW214931   3.254   3.414   3.934  0.7336  0.4800  0.1119
 1100SOL     OW14932   3.193   2.033  13.622  0.0101 -0.3931  0.4428
 1100SOL    HW114933   3.219   2.122  13.643 -1.9202  0.0564  0.9209
 1100SOL    HW214934   3.273   1.994  13.586 -0.2987  0.0328 -0.6820
 1101SOL     OW14935   1.706   4.188   7.217 -0.1582  0.3152  0.4697
 1101SOL    HW114936   1.711   4.184   7.312 -1.6445  3.2076  0.6557
 1101SOL    HW214937   1.790   4.226   7.191  1.2524 -2.0575  1.5888
 1102SOL     OW14938   0.117   3.973   0.619 -0.3471 -0.0940 -0.0388
 1102SOL    HW114939   0.078   3.889   0.646 -0.0724 -0.3510 -0.4447
 1102SOL    HW214940   0.131   3.960   0.526  2.5819  0.3391  0.3375
 1103SOL     OW14941   1.757   2.172   1.917  0.2236 -0.0404  0.0142
 1103SOL    HW114942   1.794   2.213   1.995  2.5532 -1.2957 -0.4343
 1103SOL    HW214943   1.828   2.113   1.893  1.4961  1.5884 -0.2661
 1104SOL     OW14944   4.645   0.623  10.248  0.4269 -0.2429  0.4849
 1104SOL    HW114945   4.705   0.604  10.320 -0.3539  1.2629  1.5331
 1104SOL    HW214946   4.655   0.718  10.244 -0.7076 -0.1031  1.1234
 1105SOL     OW14947   3.021   2.940   3.891  0.1183 -0.7840 -0.2844
 1105SOL    HW114948   3.113   2.948   3.868  0.3836 -1.1382  0.6390
 1105SOL    HW214949   2.974   2.935   3.808  0.3168  2.9071 -0.5952
 1106SOL     OW14950   1.911   3.729   7.406 -0.1510 -0.4263 -0.4983
 1106SOL    HW114951   2.001   3.699   7.396  0.1086 -0.4010  1.8801
 1106SOL    HW214952   1.927   3.822   7.421  1.0294 -0.7030 -0.0930
 1107SOL     OW14953   0.907   3.664   8.346  0.1208 -0.0495  0.6259
 1107SOL    HW114954   0.944   3.645   8.433  0.6789 -0.0085  0.3998
 1107SOL    HW214955   0.817   3.685   8.372 -1.2874 -5.5851  0.2502
 1108SOL     OW14956   0.074   2.909   2.685 -0.0665 -0.1580  0.0773
 1108SOL    HW114957   0.056   2.815   2.682  0.4285 -0.2343 -0.4969
 1108SOL    HW214958   0.149   2.915   2.743 -0.1698  1.1017  0.0825
 1109SOL     OW14959   4.505   0.396   7.487 -0.2446  0.5485 -0.2848
 1109SOL    HW114960   4.518   0.471   7.545 -0.0713  0.4182 -0.1547
 1109SOL    HW214961   4.456   0.433   7.414 -1.8562 -1.0059  0.0191
 1110SOL     OW14962   1.317   0.065   6.204  0.5197 -0.3212 -0.3285
 1110SOL    HW114963   1.274   4.736   6.155  2.4749 -0.2242 -2.1894
 1110SOL    HW214964   1.401   0.019   6.202 -1.0299 -3.2096  1.1753
 1111SOL     OW14965   4.391   3.576   0.910  0.4748 -0.4605 -0.5198
 1111SOL    HW114966   4.327   3.506   0.920 -0.2477  0.3267  0.4238
 1111SOL    HW214967   4.351   3.654   0.948 -1.0662 -1.3854 -0.2228
 1112SOL     OW14968   3.930   2.843   2.388  0.5657 -0.1682  0.0582
 1112SOL    HW114969   3.953   2.754   2.359 -1.1729 -0.0562 -1.6416
 1112SOL    HW214970   3.999   2.863   2.451  0.1993  1.5722 -0.1058
 1113SOL     OW14971   0.321   0.999   7.442 -0.3158 -0.3035  0.2732
 1113SOL    HW114972   0.339   1.082   7.487  0.2963 -0.6576  0.6846
 1113SOL    HW214973   0.384   1.019   7.373 -1.1448 -1.6118 -0.8559
 1114SOL     OW14974   1.881   1.693  11.680 -0.5329  0.2971 -0.3223
 1114SOL    HW114975   1.957   1.716  11.627  1.6160  0.5038  2.8856
 1114SOL    HW214976   1.879   1.768  11.740  2.9577 -0.2467  0.4697
 1115SOL     OW14977   0.479   0.748  15.687  0.3507 -0.5751 -0.2576
 1115SOL    HW114978   0.510   0.829  15.729 -1.9310 -0.3028  0.9039
 1115SOL    HW214979   0.408   0.720  15.745 -0.8283  2.5310 -0.1655
 1116SOL     OW14980   1.232   1.785   5.693 -0.2466  0.6345 -0.2808
 1116SOL    HW114981   1.198   1.812   5.778  1.2295  1.4479  0.0578
 1116SOL    HW214982   1.188   1.845   5.633 -0.8502  1.5018  1.0201
 1117SOL     OW14983   2.237   2.124   3.449 -0.0828  0.3636  0.2051
 1117SOL    HW114984   2.304   2.141   3.515 -0.0415 -2.6516  0.9232
 1117SOL    HW214985   2.299   2.101   3.380  1.0444  3.4065  0.1918
 1118SOL     OW14986   2.310   3.891  17.634  0.9464  0.1681  0.0911
 1118SOL    HW114987   2.336   3.891  17.542  3.1791  2.2262  0.7255
 1118SOL    HW214988   2.320   3.797  17.648 -1.7213  0.2988  2.9054
 1119SOL     OW14989   4.735   4.446   9.147 -0.7640  0.1459 -0.4058
 1119SOL    HW114990   4.706   4.506   9.079 -3.6056  0.3757  1.0420
 1119SOL    HW214991   4.693   4.363   9.128 -0.6273 -0.0810  0.2769
 1120SOL     OW14992   4.706   4.513   4.717 -0.1148  0.0462 -0.1922
 1120SOL    HW114993   4.678   4.448   4.781  2.1827  0.6703  1.4575
 1120SOL    HW214994   4.639   4.515   4.650 -0.6663 -1.5534  0.3228
 1121SOL     OW14995   1.425   2.905   6.108 -0.5423 -0.1658 -0.0418
 1121SOL    HW114996   1.392   2.982   6.062  2.4121  0.7838 -0.6102
 1121SOL    HW214997   1.466   2.854   6.038 -1.2769 -2.1391  0.9774
 1122SOL     OW14998   0.919   0.564   2.359  0.6752 -0.3573 -0.0477
 1122SOL    HW114999   0.986   0.518   2.410  2.3690  0.1942 -1.8071
 1122SOL    HW215000   0.972   0.565   2.280 -0.7214  0.4808 -0.9694
 1123SOL     OW15001   0.629   3.942   2.326  0.0729 -0.1128  0.2655
 1123SOL    HW115002   0.575   4.000   2.272  1.4441  1.2098  0.2810
 1123SOL    HW215003   0.719   3.958   2.298  1.3059  0.8624  4.7718
 1124SOL     OW15004   4.480   2.856   8.116 -0.0946  0.0883  0.1373
 1124SOL    HW115005   4.537   2.782   8.137  0.7232  0.8449  0.6067
 1124SOL    HW215006   4.547   2.920   8.093 -1.1638  0.5539 -1.6486
 1125SOL     OW15007   3.469   4.534   9.304 -0.3676 -0.5971 -0.1449
 1125SOL    HW115008   3.464   4.561   9.213  2.2913  0.2127 -0.0304
 1125SOL    HW215009   3.562   4.555   9.311 -0.7493  1.6455 -1.6418
 1126SOL     OW15010   0.924   3.836  17.360  0.2089  0.1974 -0.4156
 1126SOL    HW115011   0.862   3.862  17.428  0.3028  0.1288 -0.3047
 1126SOL    HW215012   1.004   3.882  17.385  0.1467 -0.1080  0.3331
 1127SOL     OW15013   3.270   0.657  12.435 -0.3235 -0.0953 -0.4853
 1127SOL    HW115014   3.355   0.687  12.406 -0.5901  0.1879 -0.9688
 1127SOL    HW215015   3.224   0.736  12.407 -0.2958 -1.2941 -3.8769
 1128SOL     OW15016   0.109   1.022  17.662 -0.2791 -0.0669 -0.0321
 1128SOL    HW115017   0.057   0.988  17.735 -0.7095 -1.5706 -1.0500
 1128SOL    HW215018   0.039   1.065  17.613  0.0674  0.9822  0.3837
 1129SOL     OW15019   0.651   1.618   8.834 -0.3373 -0.3317 -0.1388
 1129SOL    HW115020   0.629   1.702   8.875 -2.1098 -0.0802 -1.5963
 1129SOL    HW215021   0.649   1.559   8.909 -1.4622 -0.6757 -0.4434
 1130SOL     OW15022   4.527   4.076   8.440 -0.1864 -0.1624 -0.4422
 1130SOL    HW115023   4.467   4.063   8.366 -1.9761 -3.4567  1.5739
 1130SOL    HW215024   4.502   3.992   8.479  0.4916  0.1110  0.5842
 1131SOL     OW15025   1.103   2.341   6.951  0.0022  0.4406 -0.6697
 1131SOL    HW115026   1.024   2.382   6.917 -0.9581  0.8064  2.0233
 1131SOL    HW215027   1.158   2.418   6.935  3.8778 -2.5639 -1.8750
 1132SOL     OW15028   1.385   2.027   6.964 -0.2870  0.3184  0.3404
 1132SOL    HW115029   1.371   1.938   6.998  0.8033 -0.1762 -0.5174
 1132SOL    HW215030   1.324   2.024   6.890 -0.6606  2.3993  0.5695
 1133SOL     OW15031   0.707   1.832   9.577 -0.0839 -0.3137  0.0870
 1133SOL    HW115032   0.791   1.842   9.623 -0.5861  0.6915  0.7881
 1133SOL    HW215033   0.690   1.741   9.599  2.0592 -0.5186  0.9140
 1134SOL     OW15034   1.354   0.899  12.647 -0.0059 -0.5996  0.3478
 1134SOL    HW115035   1.419   0.838  12.612  1.5579  0.5624  1.2086
 1134SOL    HW215036   1.301   0.919  12.570  0.4814 -1.1597 -0.1360
 1135SOL     OW15037   3.882   3.269  14.036  0.0181  0.1738  0.1240
 1135SOL    HW115038   3.827   3.343  14.064  1.3665  1.5341 -0.8142
 1135SOL    HW215039   3.825   3.204  13.995  0.3608 -0.6949  1.0337
 1136SOL     OW15040   3.763   2.319  16.487  0.1872  0.0457  0.3504
 1136SOL    HW115041   3.713   2.259  16.543 -2.1302 -0.8202 -2.6165
 1136SOL    HW215042   3.846   2.273  16.477  0.3000 -0.5413  3.9375
 1137SOL     OW15043   3.391   4.246   5.395 -0.5536  0.1009  0.1126
 1137SOL    HW115044   3.388   4.232   5.300 -0.5447 -0.0696  0.1381
 1137SOL    HW215045   3.298   4.259   5.413 -0.2389 -0.9316  2.4310
 1138SOL     OW15046   1.891   4.122  16.011 -0.5184  0.0290  0.0809
 1138SOL    HW115047   1.836   4.196  15.984 -1.1932 -0.5021  0.0070
 1138SOL    HW215048   1.868   4.106  16.103 -1.1040  2.4223  0.3462
 1139SOL     OW15049   1.590   1.427   8.671 -0.4008  0.3115  0.1892
 1139SOL    HW115050   1.595   1.494   8.739  0.5271 -0.3923  0.8102
 1139SOL    HW215051   1.556   1.351   8.717 -1.0686  0.9461  0.7545
 1140SOL     OW15052   2.276   0.458   9.423  0.7732 -0.7139 -0.2097
 1140SOL    HW115053   2.337   0.532   9.423 -1.9318  1.4987 -1.2499
 1140SOL    HW215054   2.234   0.474   9.338  1.5661 -0.0393 -0.4779
 1141SOL     OW15055   3.683   0.907  16.235 -0.2069 -0.1964 -0.5105
 1141SOL    HW115056   3.594   0.924  16.202 -0.8058 -0.5981  0.8971
 1141SOL    HW215057   3.673   0.916  16.330 -1.0072 -0.6538 -0.5463
 1142SOL     OW15058   3.067   0.281   5.463  0.6411  0.2959  0.8135
 1142SOL    HW115059   3.061   0.318   5.375 -1.7394  3.4796  2.3249
 1142SOL    HW215060   3.059   0.360   5.518 -0.0738  1.1690 -0.5524
 1143SOL     OW15061   4.264   1.505  14.699  0.3612 -0.2611 -0.3552
 1143SOL    HW115062   4.313   1.582  14.727 -3.8047  2.4119 -0.2761
 1143SOL    HW215063   4.210   1.483  14.774 -0.0965  0.5586 -0.4375
 1144SOL     OW15064   2.353   1.779   2.172 -0.4137  0.2886 -0.1883
 1144SOL    HW115065   2.297   1.702   2.189  1.7655 -1.3234 -0.3127
 1144SOL    HW215066   2.425   1.745   2.118  1.5043 -0.6707  2.9924
 1145SOL     OW15067   3.812   4.544   5.434  0.2663  0.0020  0.3975
 1145SOL    HW115068   3.869   4.498   5.372 -1.3117 -0.3443 -0.8151
 1145SOL    HW215069   3.730   4.495   5.438 -0.2087  0.5674 -2.7781
 1146SOL     OW15070   4.718   1.942   0.098  0.1659 -0.1755  0.4585
 1146SOL    HW115071   4.739   2.008   0.031 -0.2208  0.1392  0.6488
 1146SOL    HW215072   0.019   1.866   0.057 -1.0536 -0.3001 -0.5711
 1147SOL     OW15073   3.284   1.661   7.713 -0.4584 -0.1589  0.1926
 1147SOL    HW115074   3.199   1.704   7.704  0.5425  1.7515 -0.2420
 1147SOL    HW215075   3.298   1.645   7.620  1.1801  1.9866  0.0610
 1148SOL     OW15076   4.259   1.947  12.469 -0.1958 -0.0417 -0.0075
 1148SOL    HW115077   4.258   2.019  12.406  0.3985 -0.3408 -0.3552
 1148SOL    HW215078   4.239   1.871  12.414 -0.2538  1.3578 -1.9168
 1149SOL     OW15079   2.711   0.453  17.473  0.0604  0.2284  0.8504
 1149SOL    HW115080   2.634   0.509  17.488  0.2847  0.4595  1.1390
 1149SOL    HW215081   2.767   0.525  17.442  1.4855 -1.5222 -0.5839
 1150SOL     OW15082   1.026   0.432   2.935  0.0266  0.3015 -0.2326
 1150SOL    HW115083   1.065   0.486   2.866  1.2096  0.7140  0.7651
 1150SOL    HW215084   1.043   0.487   3.011  0.8036 -1.6626  1.0121
 1151SOL     OW15085   0.604   3.585  10.482 -0.0951 -0.0948 -0.0777
 1151SOL    HW115086   0.565   3.648  10.544 -0.4089 -0.4009  0.0337
 1151SOL    HW215087   0.595   3.507  10.537 -0.5881 -1.0381 -1.4907
 1152SOL     OW15088   4.290   1.696  16.651  0.3267  0.4034 -0.1809
 1152SOL    HW115089   4.314   1.769  16.708 -1.1936 -0.2730  1.3208
 1152SOL    HW215090   4.232   1.638  16.700  1.1099 -0.9326 -0.8300
 1153SOL     OW15091   0.779   4.053   6.264  0.3922 -0.1105 -0.2549
 1153SOL    HW115092   0.869   4.054   6.234  0.6572 -0.6120  0.5326
 1153SOL    HW215093   0.782   3.988   6.334 -1.2886 -0.2463 -0.3040
 1154SOL     OW15094   3.647   3.582   6.712 -0.0670 -0.2914 -0.0130
 1154SOL    HW115095   3.617   3.532   6.636 -0.3870  3.2541 -2.2300
 1154SOL    HW215096   3.740   3.595   6.693  0.4325 -1.2799  1.8126
 1155SOL     OW15097   2.888   4.165  12.546  0.3530 -0.2587  0.0077
 1155SOL    HW115098   2.962   4.170  12.486 -0.5335  1.0726 -0.9648
 1155SOL    HW215099   2.903   4.240  12.604  2.8057 -2.4273  2.1805
 1156SOL     OW15100   2.145   0.583   1.818 -0.0902  0.4729 -0.5247
 1156SOL    HW115101   2.179   0.509   1.768  0.1316 -0.6320  1.2755
 1156SOL    HW215102   2.113   0.624   1.737  0.7081  0.4230 -0.8593
 1157SOL     OW15103   0.419   3.001  12.264 -0.5788  0.3603  0.2241
 1157SOL    HW115104   0.479   2.931  12.290 -0.0394  0.4282 -0.8533
 1157SOL    HW215105   0.428   3.013  12.170 -2.8714 -0.6545 -0.1382
 1158SOL     OW15106   0.101   4.288   8.262  0.1839  0.0248 -0.0119
 1158SOL    HW115107   0.078   4.224   8.329  1.4101 -0.8534 -0.4272
 1158SOL    HW215108   0.174   4.331   8.306  0.2717  2.6217 -2.7219
 1159SOL     OW15109   0.154   2.435  10.557 -0.1732 -0.5736 -0.1854
 1159SOL    HW115110   0.145   2.452  10.651 -0.2127 -0.1544 -0.2681
 1159SOL    HW215111   0.149   2.522  10.517 -1.3508 -0.4874  0.1552
 1160SOL     OW15112   4.271   3.090   4.453 -0.0724  0.2893 -0.1582
 1160SOL    HW115113   4.303   3.170   4.492  0.7066 -0.0759 -0.0554
 1160SOL    HW215114   4.176   3.105   4.446 -0.1739 -0.8690 -1.3916
 1161SOL     OW15115   1.561   4.033   4.326  0.2958  0.6877 -0.5007
 1161SOL    HW115116   1.481   4.070   4.365 -0.2718 -0.9954 -0.0866
 1161SOL    HW215117   1.573   4.097   4.256  0.2869  1.2991  0.0501
 1162SOL     OW15118   4.370   0.208   4.938  0.3679 -0.2253  0.6442
 1162SOL    HW115119   4.353   0.120   4.906  2.1655 -0.7904  1.2556
 1162SOL    HW215120   4.432   0.190   5.009  0.3605 -1.0779  0.4273
 1163SOL     OW15121   3.799   4.732   0.682  0.0529  0.2990  0.0412
 1163SOL    HW115122   3.798   0.079   0.644 -1.6553 -0.5828 -1.9993
 1163SOL    HW215123   3.852   0.006   0.760 -0.5633 -0.6074  0.6332
 1164SOL     OW15124   3.584   2.761  12.532  0.4729 -0.0066 -0.1097
 1164SOL    HW115125   3.617   2.721  12.613 -0.9740 -1.0826 -0.0669
 1164SOL    HW215126   3.642   2.726  12.464  0.1254 -1.5272  0.3678
 1165SOL     OW15127   4.284   3.782   3.456  0.0647  0.1968 -0.0225
 1165SOL    HW115128   4.235   3.862   3.474  0.6484  0.5896 -0.1860
 1165SOL    HW215129   4.213   3.729   3.420 -0.6003 -0.1166  1.7391
 1166SOL     OW15130   4.724   1.879   3.723  0.5460  0.2793 -0.4201
 1166SOL    HW115131   4.680   1.930   3.655 -1.9941 -0.8152  0.3955
 1166SOL    HW215132   0.074   1.894   3.697  0.5788  0.1642 -0.3673
 1167SOL     OW15133   4.143   2.843  15.554  0.1223 -0.2741  0.1238
 1167SOL    HW115134   4.224   2.847  15.503  1.1835  0.3486  1.8220
 1167SOL    HW215135   4.183   2.815  15.637 -0.4595  0.2054  0.5623
 1168SOL     OW15136   2.472   1.658   4.329 -0.1015  0.0031 -0.2226
 1168SOL    HW115137   2.476   1.567   4.356 -0.7457  0.8344  2.6988
 1168SOL    HW215138   2.564   1.676   4.350 -0.6557  2.1978  0.3109
 1169SOL     OW15139   0.175   0.213   1.783 -0.8076 -0.3620 -0.5587
 1169SOL    HW115140   0.234   0.156   1.833  0.3796 -1.0751 -2.8030
 1169SOL    HW215141   0.231   0.291   1.783 -0.5656 -0.5055  2.9263
 1170SOL     OW15142   2.709   2.768   3.854  0.2823  0.2677 -0.4457
 1170SOL    HW115143   2.661   2.851   3.848  0.4738  0.5199  1.4155
 1170SOL    HW215144   2.720   2.740   3.763 -0.1747 -1.2763 -0.0181
 1171SOL     OW15145   2.135   0.671   3.292 -0.1358 -0.7430 -0.3575
 1171SOL    HW115146   2.099   0.731   3.356 -0.2854  1.1008 -2.1918
 1171SOL    HW215147   2.179   0.607   3.349  0.5309  1.3876  1.5027
 1172SOL     OW15148   2.152   0.187  16.138 -0.1609 -0.6389 -0.0875
 1172SOL    HW115149   2.140   0.134  16.217 -0.8480 -0.3335  0.0072
 1172SOL    HW215150   2.071   0.237  16.135  0.3741  0.3562  2.4388
 1173SOL     OW15151   3.856   0.436   0.961 -0.8681 -0.5356 -0.0588
 1173SOL    HW115152   3.892   0.355   0.925 -2.3063 -0.0025 -2.7075
 1173SOL    HW215153   3.772   0.444   0.916 -0.9466  2.5567  0.6675
 1174SOL     OW15154   2.855   3.911   3.115 -0.4892 -0.1603 -0.2647
 1174SOL    HW115155   2.853   3.935   3.022  1.6167  1.4416  0.1108
 1174SOL    HW215156   2.833   3.995   3.155 -0.3183  0.6673 -1.8989
 1175SOL     OW15157   3.698   2.949   2.696 -0.4951 -0.7376  0.6151
 1175SOL    HW115158   3.791   2.942   2.719 -0.0086  0.1148 -1.1233
 1175SOL    HW215159   3.681   3.042   2.683  1.6435 -0.5740 -1.0667
 1176SOL     OW15160   3.509   4.042   2.193  0.0139  0.3634 -0.1645
 1176SOL    HW115161   3.600   4.012   2.184  0.5858  2.5570 -1.5874
 1176SOL    HW215162   3.488   4.061   2.102 -0.1677  1.0052  0.0094
 1177SOL     OW15163   1.085   1.197  10.787  0.1310 -0.1556 -0.1261
 1177SOL    HW115164   1.105   1.113  10.829 -0.4789  0.6778  1.8264
 1177SOL    HW215165   1.076   1.246  10.869 -1.3677 -0.0024 -0.3769
 1178SOL     OW15166   0.793   4.735   4.911 -0.1752 -0.0718  0.2018
 1178SOL    HW115167   0.733   4.668   4.944  0.7050 -0.9619  0.0175
 1178SOL    HW215168   0.877   4.706   4.947 -0.3592 -1.5448 -0.5594
 1179SOL     OW15169   1.733   0.839   3.755 -0.1990  0.4405  0.5041
 1179SOL    HW115170   1.661   0.802   3.805 -0.5872  1.9648  1.0827
 1179SOL    HW215171   1.786   0.896   3.811 -2.8148  2.1862  1.1926
 1180SOL     OW15172   0.268   3.847   8.212  0.1060  0.3729  0.1417
 1180SOL    HW115173   0.173   3.853   8.212  0.0771 -0.1482  1.8859
 1180SOL    HW215174   0.286   3.762   8.172 -1.7953 -0.6508  1.4318
 1181SOL     OW15175   0.856   1.663  15.471  0.9900  0.0084 -0.0868
 1181SOL    HW115176   0.772   1.691  15.437  0.8982 -1.2675 -0.8852
 1181SOL    HW215177   0.866   1.584  15.418 -1.4450 -0.7678  0.6405
 1182SOL     OW15178   3.761   4.056   2.413 -0.0164 -0.2404  1.0010
 1182SOL    HW115179   3.778   3.965   2.392 -0.7347 -0.1184 -0.0798
 1182SOL    HW215180   3.844   4.098   2.390  0.1813 -0.6892  0.9064
 1183SOL     OW15181   4.331   0.904   2.935 -0.1849  0.5507  0.4456
 1183SOL    HW115182   4.253   0.885   2.987 -0.0247 -1.6239 -0.0854
 1183SOL    HW215183   4.378   0.822   2.951 -1.7259 -0.6365 -1.0401
 1184SOL     OW15184   2.510   3.086  17.084 -0.3598  0.0286  0.4466
 1184SOL    HW115185   2.468   3.022  17.142 -0.0329 -0.5622  0.0377
 1184SOL    HW215186   2.476   3.171  17.112 -0.6998 -0.2430  0.8507
 1185SOL     OW15187   0.871   2.733   4.676 -0.5534  0.0272  1.1159
 1185SOL    HW115188   0.776   2.734   4.682 -0.4787  2.6393  1.8596
 1185SOL    HW215189   0.896   2.771   4.761 -0.9403  1.3906  0.6021
 1186SOL     OW15190   4.012   3.671  10.674  0.2579 -0.1471 -0.0220
 1186SOL    HW115191   4.070   3.713  10.610 -1.0738 -0.4470 -1.4179
 1186SOL    HW215192   4.076   3.622  10.726 -0.3473 -1.7917 -0.8458
 1187SOL     OW15193   1.398   2.297   3.322  0.4584  0.3375  0.0221
 1187SOL    HW115194   1.355   2.355   3.260  1.6382 -0.4709 -1.5785
 1187SOL    HW215195   1.429   2.361   3.386  1.7702  3.5706 -3.8555
 1188SOL     OW15196   2.662   3.849  13.747 -0.3538  0.1488 -0.7385
 1188SOL    HW115197   2.702   3.900  13.818 -0.4270 -1.0095  0.1511
 1188SOL    HW215198   2.574   3.886  13.743 -0.9466 -1.3124 -1.4069
 1189SOL     OW15199   3.422   3.758   9.940  0.1515 -0.3612  0.1183
 1189SOL    HW115200   3.387   3.846   9.949 -0.0663 -0.8492  3.9781
 1189SOL    HW215201   3.487   3.771   9.871  0.8783  0.7939  1.0382
 1190SOL     OW15202   2.519   2.045   4.577  0.2172 -0.9582  0.1244
 1190SOL    HW115203   2.451   1.985   4.549 -1.2169  1.6550 -2.0123
 1190SOL    HW215204   2.463   2.117   4.607  1.2869 -1.0368  2.3428
 1191SOL     OW15205   0.934   0.264  16.889  0.0008 -0.4972 -0.5706
 1191SOL    HW115206   0.847   0.257  16.930 -0.1214  2.7288 -0.3118
 1191SOL    HW215207   0.942   0.359  16.883 -1.7005 -0.4075 -1.6183
 1192SOL     OW15208   1.128   0.576   2.183 -0.1329 -0.3932 -0.3604
 1192SOL    HW115209   1.223   0.574   2.191 -0.3063  0.3295  1.8773
 1192SOL    HW215210   1.123   0.618   2.097 -1.3777  0.8931  0.3531
 1193SOL     OW15211   0.915   1.775   0.780  0.1136 -0.4012  0.1497
 1193SOL    HW115212   0.913   1.680   0.793  0.7216 -0.5586 -0.9186
 1193SOL    HW215213   0.829   1.787   0.739  0.1599 -1.1216 -0.1624
 1194SOL     OW15214   1.201   2.364   2.944 -0.0602  0.4607  0.3785
 1194SOL    HW115215   1.196   2.314   2.862 -3.1909  1.2717  0.1082
 1194SOL    HW215216   1.197   2.290   3.005  0.0250 -0.7073 -1.0147
 1195SOL     OW15217   0.974   2.914   3.894  0.4162 -0.1338 -0.0862
 1195SOL    HW115218   1.059   2.875   3.874  0.0092 -1.3040  0.4463
 1195SOL    HW215219   0.928   2.874   3.820 -1.5098  0.1271  0.9693
 1196SOL     OW15220   3.600   3.724  17.349  0.3844 -0.3083 -0.0023
 1196SOL    HW115221   3.511   3.720  17.383  1.5849 -0.2097  3.1606
 1196SOL    HW215222   3.636   3.676  17.424 -1.6671 -2.1315 -0.2060
 1197SOL     OW15223   2.235   1.087   1.658  0.3097 -0.2309 -0.1234
 1197SOL    HW115224   2.189   1.021   1.710  0.9043  1.3347  2.3960
 1197SOL    HW215225   2.302   1.107   1.724 -0.4051  1.6140  0.0395
 1198SOL     OW15226   0.294   2.217   1.857  0.6405 -0.2491  0.3512
 1198SOL    HW115227   0.366   2.238   1.917  1.1527 -3.0066  0.7143
 1198SOL    HW215228   0.229   2.244   1.922  0.7825  0.6627  0.1223
 1199SOL     OW15229   3.035   4.628   4.803 -0.4794  0.5942  0.7048
 1199SOL    HW115230   2.996   4.650   4.718 -0.9722  3.1760  1.6058
 1199SOL    HW215231   2.955   4.628   4.856 -1.1065 -0.1245 -0.2399
 1200SOL     OW15232   1.426   1.616   6.018 -0.4822 -0.0353 -0.4412
 1200SOL    HW115233   1.427   1.672   5.941  1.4473  0.0889 -0.3324
 1200SOL    HW215234   1.387   1.535   5.985 -0.4947 -0.1804 -0.0763
 1201SOL     OW15235   2.377   2.978  10.147  0.0703 -0.2362  0.2450
 1201SOL    HW115236   2.446   2.964  10.212 -0.8400 -0.5930  1.1339
 1201SOL    HW215237   2.349   3.062  10.182  1.5045  0.6354 -0.7375
 1202SOL     OW15238   0.306   0.595   5.669  0.8161 -0.3980 -0.4762
 1202SOL    HW115239   0.248   0.633   5.735 -0.0892 -0.8967 -0.9829
 1202SOL    HW215240   0.371   0.553   5.727  0.2561  0.7266  0.9643
 1203SOL     OW15241   2.817   2.900   8.371  0.9021  0.5366  0.0550
 1203SOL    HW115242   2.769   2.912   8.289  1.1390  2.1889  0.1512
 1203SOL    HW215243   2.849   2.811   8.361  0.8390  0.5296 -0.0804
 1204SOL     OW15244   1.789   2.053   9.862 -0.1039 -0.1343 -0.0188
 1204SOL    HW115245   1.823   1.977   9.813  0.7520 -0.7271  1.5131
 1204SOL    HW215246   1.836   2.129   9.827 -1.1119 -0.2315 -1.6082
 1205SOL     OW15247   2.259   0.961   6.820  0.1883  0.2071  0.3122
 1205SOL    HW115248   2.227   1.049   6.842 -3.1839 -0.8059 -0.5644
 1205SOL    HW215249   2.219   0.959   6.733 -0.1691  0.9764  0.4573
 1206SOL     OW15250   1.629   2.323   6.334  0.2526 -0.1772 -0.8460
 1206SOL    HW115251   1.638   2.312   6.239  1.1429  1.7125 -0.9933
 1206SOL    HW215252   1.687   2.251   6.357  0.2641  0.6972  1.8609
 1207SOL     OW15253   3.105   0.018  12.722  0.3125  0.0178 -0.1100
 1207SOL    HW115254   3.128   4.706  12.798  0.2103 -3.2855 -2.3703
 1207SOL    HW215255   3.031   0.067  12.758  1.0617  1.5306 -0.6197
 1208SOL     OW15256   1.592   2.209   9.545  0.3446  0.2842  0.0716
 1208SOL    HW115257   1.618   2.278   9.606  0.9630 -0.8014  1.0230
 1208SOL    HW215258   1.506   2.184   9.580 -0.7407  1.8210 -1.4771
 1209SOL     OW15259   4.736   3.736   8.478 -0.4783  0.0275  0.2452
 1209SOL    HW115260   4.714   3.722   8.570 -0.0967  2.4295  0.7175
 1209SOL    HW215261   0.041   3.659   8.444 -2.0579 -0.1718 -1.4244
 1210SOL     OW15262   3.099   2.263   4.248  0.3990  0.4895  0.8887
 1210SOL    HW115263   3.158   2.239   4.177 -2.2787 -0.1537 -1.1297
 1210SOL    HW215264   3.019   2.268   4.196  0.4297 -0.1136  0.7846
 1211SOL     OW15265   0.363   3.214   8.258 -0.0448 -0.2035 -0.1492
 1211SOL    HW115266   0.458   3.221   8.252  0.0989 -2.3773 -0.5618
 1211SOL    HW215267   0.331   3.304   8.261  0.0451 -0.1605 -0.5116
 1212SOL     OW15268   3.506   0.883  14.629 -0.0557 -0.5137 -0.2087
 1212SOL    HW115269   3.421   0.840  14.615 -1.0632  1.2775  0.3653
 1212SOL    HW215270   3.472   0.958  14.678 -1.4550  0.5911 -2.8975
 1213SOL     OW15271   3.979   4.195   8.432  0.1977 -0.1409  1.0532
 1213SOL    HW115272   3.893   4.228   8.405 -1.0926 -2.7411  1.9970
 1213SOL    HW215273   3.950   4.114   8.473 -2.1803 -1.4021 -3.1157
 1214SOL     OW15274   2.901   0.379  11.389 -0.2827 -0.0397 -0.0004
 1214SOL    HW115275   2.953   0.404  11.312  0.0107  3.2556  1.2484
 1214SOL    HW215276   2.844   0.323  11.338 -0.1313  0.5334 -0.7937
 1215SOL     OW15277   3.613   1.853   3.782 -0.2707  0.2299 -0.2860
 1215SOL    HW115278   3.582   1.772   3.823  1.1239 -0.2410 -0.1891
 1215SOL    HW215279   3.531   1.889   3.748 -0.2350 -0.6194 -1.2806
 1216SOL     OW15280   2.761   1.919   6.659  0.1135  0.2077  0.5505
 1216SOL    HW115281   2.669   1.902   6.679 -0.2346  1.3801  0.0089
 1216SOL    HW215282   2.752   1.994   6.599 -2.6044 -0.9946 -0.5527
 1217SOL     OW15283   2.799   2.245   9.001 -0.2580  0.2288 -0.0363
 1217SOL    HW115284   2.895   2.252   9.008 -0.2515  0.7952 -0.7392
 1217SOL    HW215285   2.791   2.218   8.910  1.9698  0.8521 -0.4264
 1218SOL     OW15286   1.856   3.663   2.258 -0.3165 -0.0771 -0.5576
 1218SOL    HW115287   1.945   3.653   2.290 -0.1806 -2.3991 -1.7071
 1218SOL    HW215288   1.859   3.670   2.163  3.7255 -1.3420 -0.5015
 1219SOL     OW15289   2.816   3.702   8.183 -0.1431  0.0955  0.0272
 1219SOL    HW115290   2.842   3.676   8.094  0.7443  1.8681 -0.2326
 1219SOL    HW215291   2.832   3.796   8.171  1.1564 -0.0834  0.4602
 1220SOL     OW15292   1.948   4.274  11.272 -0.0574  0.1507  0.7025
 1220SOL    HW115293   1.869   4.294  11.223 -0.0544  0.1611  0.7018
 1220SOL    HW215294   2.022   4.318  11.230 -0.7469 -0.1176 -0.7910
 1221SOL     OW15295   1.179   2.212   7.756  0.2019 -0.3462 -0.7368
 1221SOL    HW115296   1.161   2.306   7.759 -2.0143 -0.8207  0.8687
 1221SOL    HW215297   1.272   2.211   7.779 -0.5694  1.5050  2.4228
 1222SOL     OW15298   1.862   2.476   5.084  0.1832  0.4394 -0.2465
 1222SOL    HW115299   1.924   2.494   5.155 -0.3158 -1.2448  0.6264
 1222SOL    HW215300   1.816   2.401   5.122 -0.4227  0.1534 -1.5704
 1223SOL     OW15301   1.547   1.932  10.796  0.8233  0.1315 -0.2826
 1223SOL    HW115302   1.487   1.858  10.811  0.0330  1.1618  1.7351
 1223SOL    HW215303   1.538   1.942  10.701 -2.5793 -2.1011 -0.2074
 1224SOL     OW15304   3.335   1.995   8.115  0.3190 -0.1511 -0.0586
 1224SOL    HW115305   3.415   1.952   8.085  0.7272 -0.2154  1.1132
 1224SOL    HW215306   3.363   2.018   8.203 -0.7601 -0.0766  0.2607
 1225SOL     OW15307   3.929   3.976   4.196 -0.5440  0.3442  0.1778
 1225SOL    HW115308   3.843   4.015   4.207 -1.3729 -1.1227 -1.0836
 1225SOL    HW215309   3.983   4.053   4.180  1.9846 -1.8388 -1.9578
 1226SOL     OW15310   1.008   3.947   3.883  0.0123 -0.2096 -0.6609
 1226SOL    HW115311   0.953   4.018   3.850  1.2200  0.6686 -0.7620
 1226SOL    HW215312   0.956   3.869   3.863  1.2179 -0.2592 -3.5037
 1227SOL     OW15313   2.744   3.282  11.124  0.2462 -0.5265 -0.5959
 1227SOL    HW115314   2.787   3.204  11.088 -0.6547 -1.0020 -0.6585
 1227SOL    HW215315   2.812   3.299  11.188 -2.0098 -0.3961  1.7658
 1228SOL     OW15316   2.623   1.270   6.239  0.2169 -0.3185 -0.0506
 1228SOL    HW115317   2.642   1.274   6.145 -1.3141  2.2976 -0.2563
 1228SOL    HW215318   2.539   1.316   6.249  0.5936  0.2861  0.2763
 1229SOL     OW15319   3.493   2.824  14.797 -0.6236  0.4964  0.3350
 1229SOL    HW115320   3.477   2.733  14.771  0.3551 -0.5616  3.4374
 1229SOL    HW215321   3.555   2.863  14.735 -1.8217  0.9320 -0.5714
 1230SOL     OW15322   1.612   2.743  12.630  0.1898 -0.8477 -0.4431
 1230SOL    HW115323   1.608   2.805  12.703  0.2281  0.4152 -1.5199
 1230SOL    HW215324   1.589   2.665  12.680  0.8795  1.1336  2.9407
 1231SOL     OW15325   3.535   2.187   5.461  0.2268 -0.2064  0.0833
 1231SOL    HW115326   3.463   2.233   5.418 -0.3954  0.3607  1.7157
 1231SOL    HW215327   3.592   2.192   5.384  2.2223  1.6945  1.6841
 1232SOL     OW15328   2.744   4.708   8.798 -0.5284 -0.7927  0.3646
 1232SOL    HW115329   2.670   4.677   8.850 -0.4817  0.1024  0.9579
 1232SOL    HW215330   2.705   0.027   8.735  0.5225 -1.9331 -1.3666
 1233SOL     OW15331   2.327   3.912  10.632  0.7990 -0.3333 -0.0439
 1233SOL    HW115332   2.411   3.876  10.602 -0.4720 -2.0042 -1.6481
 1233SOL    HW215333   2.270   3.843  10.598  1.0679 -0.0005 -1.1990
 1234SOL     OW15334   2.544   1.013   4.988  0.3363 -0.0772 -0.7573
 1234SOL    HW115335   2.489   0.984   4.915 -1.0069  2.0682 -0.5952
 1234SOL    HW215336   2.478   1.013   5.058  1.1803 -1.0721  0.0351
 1235SOL     OW15337   0.782   4.402  17.667 -0.1149 -0.1693 -0.6240
 1235SOL    HW115338   0.833   4.405  17.586  4.2413 -0.0974  2.1164
 1235SOL    HW215339   0.854   4.439  17.719 -1.0562  0.8187 -0.0250
 1236SOL     OW15340   3.219   2.007   1.962  0.1588  0.1404 -0.2881
 1236SOL    HW115341   3.236   2.006   2.057 -1.6154 -0.7676  0.0164
 1236SOL    HW215342   3.222   2.103   1.953 -2.4408  0.0111 -2.6246
 1237SOL     OW15343   2.633   0.050   9.503  0.3265 -0.1734  0.3320
 1237SOL    HW115344   2.685   4.723   9.546 -0.0480 -0.3569  0.4977
 1237SOL    HW215345   2.664   0.130   9.546  0.1593  1.0731 -1.8708
 1238SOL     OW15346   1.143   2.020   6.406 -0.3171  0.2792 -0.9789
 1238SOL    HW115347   1.170   2.075   6.479 -0.8070  1.3208 -1.5878
 1238SOL    HW215348   1.080   1.968   6.457 -1.3576 -0.4597 -3.0269
 1239SOL     OW15349   3.141   3.198   6.623  0.7134 -0.0957 -0.5924
 1239SOL    HW115350   3.215   3.138   6.613  0.3273 -0.9154  1.5641
 1239SOL    HW215351   3.175   3.253   6.693  0.3507  0.5172 -0.8924
 1240SOL     OW15352   3.795   0.297   8.482 -0.4457  0.5498 -0.3640
 1240SOL    HW115353   3.720   0.311   8.424  0.4863 -1.5466 -2.0670
 1240SOL    HW215354   3.790   0.378   8.533  1.6478  1.0708 -0.9752
 1241SOL     OW15355   2.471   0.602  14.202 -0.1064  0.0508 -0.0122
 1241SOL    HW115356   2.438   0.678  14.249  1.7636  0.4629  0.6531
 1241SOL    HW215357   2.566   0.597  14.219 -0.3297 -1.7879  0.7544
 1242SOL     OW15358   4.315   3.892   8.265  0.6129  0.1344 -0.1337
 1242SOL    HW115359   4.249   3.959   8.245 -1.5865 -1.8913  0.3713
 1242SOL    HW215360   4.308   3.842   8.183 -1.3984  0.2410 -0.0467
 1243SOL     OW15361   4.258   2.602   4.815  0.3253  0.2601  0.4137
 1243SOL    HW115362   4.210   2.556   4.746 -0.1896  0.2819  0.7527
 1243SOL    HW215363   4.247   2.692   4.784  0.3908  0.4665  0.9806
 1244SOL     OW15364   2.716   0.376   6.579  0.1620 -0.1011  0.1471
 1244SOL    HW115365   2.766   0.320   6.519  1.8725  0.0157  1.4405
 1244SOL    HW215366   2.699   0.461   6.540  0.3895 -0.5045 -0.8355
 1245SOL     OW15367   4.592   1.836   1.208  0.5502 -0.3517  0.0768
 1245SOL    HW115368   4.598   1.776   1.133  0.1337  0.2363 -0.4309
 1245SOL    HW215369   4.547   1.913   1.172 -1.0902 -0.4634  1.8946
 1246SOL     OW15370   2.227   1.574   4.760  0.0499  0.1123 -0.3960
 1246SOL    HW115371   2.244   1.640   4.692  0.2515  0.5696  0.1036
 1246SOL    HW215372   2.312   1.572   4.803  0.3765 -0.5996 -1.0656
 1247SOL     OW15373   3.732   1.515   4.033  0.1289 -0.0655 -0.4674
 1247SOL    HW115374   3.804   1.576   4.048  0.1829 -0.4097  0.7314
 1247SOL    HW215375   3.741   1.506   3.938  0.6641 -0.1751 -0.4097
 1248SOL     OW15376   2.415   1.190  16.445  0.6569 -0.3280  0.2692
 1248SOL    HW115377   2.332   1.188  16.493  0.1537  0.7874 -0.5426
 1248SOL    HW215378   2.402   1.265  16.387  1.4355 -1.7342 -1.7266
 1249SOL     OW15379   2.585   3.666  10.922 -0.4869  0.2246  0.0374
 1249SOL    HW115380   2.669   3.647  10.965 -0.4193 -1.1423 -0.7080
 1249SOL    HW215381   2.616   3.714  10.845  0.1627  2.2147  1.5205
 1250SOL     OW15382   1.614   2.002   2.928 -0.4124  0.2320 -0.0064
 1250SOL    HW115383   1.608   2.074   2.991  0.1121  1.4715 -1.3672
 1250SOL    HW215384   1.708   1.986   2.934 -0.5108  0.9827  3.5225
 1251SOL     OW15385   4.227   3.917   4.718  0.0262  0.5015 -0.1474
 1251SOL    HW115386   4.286   3.923   4.793 -1.6317 -0.7774  1.2385
 1251SOL    HW215387   4.269   3.852   4.661 -1.1009  1.0715 -1.6290
 1252SOL     OW15388   3.547   3.064  15.022  0.1586  0.3023  0.1543
 1252SOL    HW115389   3.559   2.987  14.966  1.0783  1.5250 -1.3151
 1252SOL    HW215390   3.606   3.046  15.096 -0.5726  0.6023  0.8129
 1253SOL     OW15391   4.669   0.427  11.180  0.3530  0.2556  0.7316
 1253SOL    HW115392   4.592   0.380  11.211  1.3969 -1.9121  0.0392
 1253SOL    HW215393   4.739   0.369  11.209  0.6811  0.2350 -0.0955
 1254SOL     OW15394   4.731   1.466   1.354  0.0135 -0.1920 -0.2776
 1254SOL    HW115395   0.020   1.557   1.351 -1.4989  0.3466  0.9711
 1254SOL    HW215396   4.730   1.436   1.445 -1.2885  2.8758  0.7266
 1255SOL     OW15397   1.128   4.076  13.374  0.6856  0.5537  0.5535
 1255SOL    HW115398   1.132   4.162  13.415  0.9001  1.7608 -1.9922
 1255SOL    HW215399   1.143   4.104  13.284 -2.2336  1.1474  0.2300
 1256SOL     OW15400   4.506   2.931  17.504  0.2338 -0.0710 -0.3236
 1256SOL    HW115401   4.447   2.972  17.567 -1.3297 -1.3714 -0.9416
 1256SOL    HW215402   4.502   2.838  17.523  0.3241 -0.0136 -0.0262
 1257SOL     OW15403   0.698   4.134  14.880 -0.5894 -0.0937  0.4022
 1257SOL    HW115404   0.624   4.124  14.820 -0.6616  0.6837  0.3662
 1257SOL    HW215405   0.653   4.196  14.937  0.5417  1.2213 -0.1530
 1258SOL     OW15406   4.648   0.312   7.127  0.1864 -0.6424  0.0065
 1258SOL    HW115407   4.732   0.292   7.086 -1.1890 -0.8855 -2.7244
 1258SOL    HW215408   4.663   0.285   7.218  0.0900 -0.3930  0.0978
 1259SOL     OW15409   0.203   2.671   7.903 -0.1517  0.5605 -0.1383
 1259SOL    HW115410   0.285   2.628   7.929 -0.2267 -0.0416 -0.8947
 1259SOL    HW215411   0.226   2.705   7.817 -2.7110  2.4155 -0.0840
 1260SOL     OW15412   3.856   3.747  16.547 -0.0264  0.0527  0.8888
 1260SOL    HW115413   3.821   3.716  16.464 -0.6567 -1.6583  1.8156
 1260SOL    HW215414   3.908   3.826  16.528  0.9458 -0.6705  0.5059
 1261SOL     OW15415   0.157   1.848   8.507  0.2721 -0.2775  0.2353
 1261SOL    HW115416   0.150   1.773   8.448 -0.0120  1.2570 -1.6663
 1261SOL    HW215417   0.221   1.815   8.570 -0.2028 -0.3738  0.6684
 1262SOL     OW15418   1.332   0.424  13.951  0.8213  0.2822  0.3002
 1262SOL    HW115419   1.334   0.518  13.969 -0.7474  0.5537 -0.9762
 1262SOL    HW215420   1.411   0.399  13.903  0.6564  1.4314 -0.5687
 1263SOL     OW15421   0.539   3.903   8.174  0.1772  0.3452 -0.3663
 1263SOL    HW115422   0.447   3.902   8.198  0.6550  0.4560  1.5242
 1263SOL    HW215423   0.521   3.881   8.083  1.4282 -0.3489 -0.4491
 1264SOL     OW15424   4.213   2.022   5.875  0.5964 -0.8188  0.0301
 1264SOL    HW115425   4.119   2.005   5.874  0.2965  0.8831 -0.0684
 1264SOL    HW215426   4.254   1.939   5.852  0.7318 -1.2303  1.7042
 1265SOL     OW15427   3.247   0.665  10.033  0.0084 -0.7349  1.1916
 1265SOL    HW115428   3.332   0.682   9.994 -1.5301  1.3128 -1.3297
 1265SOL    HW215429   3.281   0.681  10.121  0.0733  0.4399  0.9621
 1266SOL     OW15430   1.927   4.539   0.887 -0.3483 -0.0327  0.4051
 1266SOL    HW115431   1.989   4.489   0.834  0.6554  0.2017  1.3675
 1266SOL    HW215432   1.992   4.597   0.928  1.0597 -1.0151 -0.4448
 1267SOL     OW15433   2.547   3.171   5.090  0.1866  0.1921  0.6324
 1267SOL    HW115434   2.500   3.161   5.008  0.8302  0.6693  0.2020
 1267SOL    HW215435   2.520   3.093   5.138  2.3007  0.2362  1.9240
 1268SOL     OW15436   0.903   3.885  11.047  0.3939 -0.1324  0.0583
 1268SOL    HW115437   0.937   3.923  11.128 -0.6995  0.3635  0.2760
 1268SOL    HW215438   0.823   3.937  11.040 -0.5040 -1.7224 -1.5533
 1269SOL     OW15439   1.434   0.240   6.488  0.6769 -0.6879 -0.0250
 1269SOL    HW115440   1.387   0.186   6.551  1.1091 -0.3140  0.6142
 1269SOL    HW215441   1.395   0.324   6.514  1.2329 -1.7112  4.0564
 1270SOL     OW15442   1.373   0.739  15.529  0.0434 -0.8818 -0.5434
 1270SOL    HW115443   1.462   0.731  15.565  0.3182  0.5850 -0.8712
 1270SOL    HW215444   1.387   0.797  15.454 -1.9220  1.7593  1.1337
 1271SOL     OW15445   2.799   0.828   9.808  0.3247 -0.3615 -0.2554
 1271SOL    HW115446   2.826   0.855   9.895 -1.4456  1.5757 -0.3228
 1271SOL    HW215447   2.804   0.918   9.778  2.0905 -1.2398 -2.5985
 1272SOL     OW15448   1.072   0.686  13.104 -0.1570 -0.6088  0.1887
 1272SOL    HW115449   1.059   0.692  13.010 -1.0841  1.1990  0.4422
 1272SOL    HW215450   1.161   0.650  13.107  0.3324  0.5042 -1.2108
 1273SOL     OW15451   1.001   4.532  16.371  1.2150  0.2820  0.5477
 1273SOL    HW115452   0.972   4.536  16.462 -0.4442 -0.6838  0.0757
 1273SOL    HW215453   0.952   4.608  16.338  1.3591 -1.2308 -3.1811
 1274SOL     OW15454   2.070   3.446  11.375  0.1055  0.0622 -0.4367
 1274SOL    HW115455   2.149   3.412  11.417  1.3483  1.7107 -1.4346
 1274SOL    HW215456   2.090   3.441  11.281  2.4290  1.5345 -0.0078
 1275SOL     OW15457   1.567   3.549   4.966  0.3507  0.1157  0.1904
 1275SOL    HW115458   1.519   3.514   4.891 -0.0528  0.8158  0.1256
 1275SOL    HW215459   1.575   3.470   5.020 -1.0752  0.1790  0.5062
 1276SOL     OW15460   2.693   1.608  12.721 -0.2759 -0.4305  0.5434
 1276SOL    HW115461   2.620   1.655  12.681  1.2815  1.2448 -0.3660
 1276SOL    HW215462   2.738   1.682  12.761 -1.6071 -0.0123  1.2461
 1277SOL     OW15463   2.511   0.343   4.659  0.2064 -0.1270  0.4143
 1277SOL    HW115464   2.511   0.358   4.564  0.0067 -1.1189  0.2551
 1277SOL    HW215465   2.591   0.389   4.684  0.7877 -0.1053 -1.5040
 1278SOL     OW15466   2.000   2.296   4.715  0.5420  0.3857  0.0239
 1278SOL    HW115467   2.008   2.323   4.623 -0.3918  1.2874  0.2099
 1278SOL    HW215468   1.909   2.267   4.710  1.0995 -1.2978 -0.4721
 1279SOL     OW15469   1.965   2.630   7.123 -0.5618 -0.0946 -0.2677
 1279SOL    HW115470   1.958   2.536   7.103 -0.1880 -0.3273  0.6680
 1279SOL    HW215471   2.059   2.643   7.108 -0.6077  1.8952  1.2409
 1280SOL     OW15472   4.197   4.554   4.845  0.3162  0.0815  0.2612
 1280SOL    HW115473   4.124   4.601   4.806  0.4375  0.7061  0.7947
 1280SOL    HW215474   4.170   4.463   4.834 -1.0104  0.7715 -2.1092
 1281SOL     OW15475   2.341   0.171   4.120 -0.2492 -0.0042 -0.0017
 1281SOL    HW115476   2.376   0.209   4.040  1.5245  0.4262  0.9835
 1281SOL    HW215477   2.284   0.244   4.146 -0.4392  0.6549 -2.2471
 1282SOL     OW15478   4.288   0.631   1.150  0.5080  0.2050  0.5495
 1282SOL    HW115479   4.224   0.628   1.079  2.2568 -0.7598 -0.9889
 1282SOL    HW215480   4.323   0.719   1.140  0.4908 -0.0934 -2.1111
 1283SOL     OW15481   0.356   1.541   5.921  0.0421 -0.1615  0.0533
 1283SOL    HW115482   0.261   1.529   5.920  0.0629 -0.3350  1.1558
 1283SOL    HW215483   0.390   1.483   5.989  2.8390  1.5669  0.1426
 1284SOL     OW15484   1.392   3.653   2.029  0.3460  0.4862 -0.1129
 1284SOL    HW115485   1.378   3.664   2.123 -1.4948 -0.9690 -0.2224
 1284SOL    HW215486   1.341   3.729   2.002  1.7193  0.8470 -1.6954
 1285SOL     OW15487   3.113   4.523  16.028  0.7229 -0.0200 -0.1188
 1285SOL    HW115488   3.121   4.525  15.933 -0.5039  1.6526 -0.2027
 1285SOL    HW215489   3.091   4.430  16.031  2.2790 -0.2835  2.5661
 1286SOL     OW15490   4.634   2.876   2.371  0.5064  0.2053 -0.1074
 1286SOL    HW115491   4.622   2.949   2.431  0.2009 -0.4223  0.5944
 1286SOL    HW215492   4.570   2.892   2.301  0.0435 -1.0870  0.0139
 1287SOL     OW15493   2.300   1.748   6.839 -0.0054 -0.0897 -0.2744
 1287SOL    HW115494   2.323   1.838   6.863  0.7276 -0.4314  0.2972
 1287SOL    HW215495   2.324   1.704   6.920  0.3377  0.4667 -0.0717
 1288SOL     OW15496   3.824   3.558   6.251 -0.4469 -0.3720 -0.5259
 1288SOL    HW115497   3.809   3.596   6.164 -0.6295  1.9836  0.5441
 1288SOL    HW215498   3.742   3.571   6.297 -1.0144  1.0193 -1.9400
 1289SOL     OW15499   0.561   3.249   3.526  0.1514  0.1068 -0.6585
 1289SOL    HW115500   0.485   3.306   3.513  0.0764  0.1684  0.0154
 1289SOL    HW215501   0.516   3.166   3.538 -1.0665  0.8301 -0.1011
 1290SOL     OW15502   4.653   0.720   6.459  0.4574  0.4329 -0.3440
 1290SOL    HW115503   4.726   0.782   6.454  1.6832 -0.6969  3.8089
 1290SOL    HW215504   4.628   0.712   6.551 -2.3870  1.3452 -1.0293
 1291SOL     OW15505   1.795   2.848   1.777 -0.0314  0.3222 -0.0535
 1291SOL    HW115506   1.857   2.853   1.850  0.0283  1.0605 -0.1573
 1291SOL    HW215507   1.734   2.790   1.823  1.0975 -0.4707  0.4193
 1292SOL     OW15508   0.394   3.569   6.528 -0.5679 -0.3607 -0.3195
 1292SOL    HW115509   0.428   3.595   6.613 -0.7182  1.0366 -0.6946
 1292SOL    HW215510   0.462   3.503   6.515 -1.2587 -1.0344 -0.5269
 1293SOL     OW15511   2.019   2.016   1.901  0.1899  0.1912  0.2836
 1293SOL    HW115512   1.981   1.928   1.903 -0.1246  0.3141 -0.2432
 1293SOL    HW215513   2.088   2.021   1.968 -1.3098  3.6235  1.5218
 1294SOL     OW15514   2.804   0.769   1.508  0.0900  0.0911  0.5137
 1294SOL    HW115515   2.773   0.808   1.590  1.1236  0.1541  0.8869
 1294SOL    HW215516   2.859   0.841   1.478 -2.2084  1.7200  0.2853
 1295SOL     OW15517   1.130   3.268  14.881 -0.1034 -0.5316 -0.1806
 1295SOL    HW115518   1.085   3.308  14.807 -1.4001  1.3289  1.6035
 1295SOL    HW215519   1.054   3.220  14.913  0.7640 -1.8259 -0.0494
 1296SOL     OW15520   3.244   2.413  10.663  0.4536 -0.1455  0.2953
 1296SOL    HW115521   3.171   2.375  10.614  1.6515 -0.2524 -1.3644
 1296SOL    HW215522   3.305   2.421  10.591  0.1685 -0.7387 -0.0124
 1297SOL     OW15523   2.922   1.192   4.472 -0.3115 -0.0995 -0.1227
 1297SOL    HW115524   2.929   1.216   4.380  0.1835  0.8343  0.1626
 1297SOL    HW215525   2.965   1.270   4.507 -1.3336  0.3902  0.0422
 1298SOL     OW15526   3.063   3.625  13.342 -0.2997  0.2168 -0.0459
 1298SOL    HW115527   3.097   3.671  13.419 -1.9808  0.3179  0.6399
 1298SOL    HW215528   3.004   3.690  13.304  0.2458  1.0545  0.5142
 1299SOL     OW15529   3.601   4.659  16.284  0.4274 -0.3975  0.2098
 1299SOL    HW115530   3.538   4.619  16.343 -1.4750  0.6513 -1.1282
 1299SOL    HW215531   3.655   4.580  16.274 -1.8331 -1.7572 -1.3006
 1300SOL     OW15532   4.493   0.815  16.394  0.3531  0.0762  0.2728
 1300SOL    HW115533   4.458   0.731  16.366  2.2024 -0.3449 -0.8168
 1300SOL    HW215534   4.551   0.790  16.465 -1.0512 -1.1896  0.9624
 1301SOL     OW15535   4.516   1.107  11.442  0.3387 -0.1790  0.5506
 1301SOL    HW115536   4.516   1.098  11.346 -1.5289 -1.1149  0.6514
 1301SOL    HW215537   4.501   1.201  11.452  0.3584 -0.1789  0.5764
 1302SOL     OW15538   1.430   3.295   1.946  1.0164  0.0470 -0.0943
 1302SOL    HW115539   1.337   3.311   1.932  0.4034 -1.3263  2.5478
 1302SOL    HW215540   1.461   3.345   1.870  0.0128  0.7412 -0.0431
 1303SOL     OW15541   3.143   2.108   8.969 -0.1416  0.3033  0.6770
 1303SOL    HW115542   3.080   2.040   8.993 -0.8713  0.6957 -0.1202
 1303SOL    HW215543   3.215   2.055   8.935 -1.9479  0.4300 -3.3292
 1304SOL     OW15544   2.865   1.536   1.045 -0.1633  0.0140 -0.1295
 1304SOL    HW115545   2.860   1.571   1.134 -0.9321  0.8923 -0.5240
 1304SOL    HW215546   2.863   1.443   1.067 -2.8801  0.8269  3.1019
 1305SOL     OW15547   1.268   1.413   5.935  0.3995 -0.4563 -0.0243
 1305SOL    HW115548   1.180   1.400   5.969  1.6661 -0.6877  3.1567
 1305SOL    HW215549   1.294   1.322   5.924  0.6206 -0.6732  2.3946
 1306SOL     OW15550   0.633   3.436   1.982 -0.0624  0.2413 -0.5459
 1306SOL    HW115551   0.568   3.456   1.915  1.0583  2.4344 -0.9940
 1306SOL    HW215552   0.575   3.413   2.054  1.2795  0.1276  0.5025
 1307SOL     OW15553   1.330   3.323  12.790  0.6959  0.5900  0.4636
 1307SOL    HW115554   1.415   3.282  12.778 -0.2490 -0.8631 -1.3413
 1307SOL    HW215555   1.326   3.344  12.883  1.3960  3.2773 -0.0861
 1308SOL     OW15556   0.756   4.669  14.508 -0.1804  1.3023  0.0323
 1308SOL    HW115557   0.799   0.012  14.528  1.1819  0.6567 -0.2046
 1308SOL    HW215558   0.754   4.624  14.592 -0.4591  0.2342 -0.5379
 1309SOL     OW15559   3.499   3.570   8.825  0.4478 -0.2996  0.1228
 1309SOL    HW115560   3.445   3.646   8.843 -0.1183 -0.5778 -0.4158
 1309SOL    HW215561   3.443   3.492   8.824 -2.4831  1.8318  0.9993
 1310SOL     OW15562   1.280   4.666   0.849 -0.2305  0.2794 -0.3883
 1310SOL    HW115563   1.328   4.725   0.791  0.8071  0.0132  0.1904
 1310SOL    HW215564   1.345   4.600   0.873 -1.4659 -0.2793  1.4118
 1311SOL     OW15565   1.261   1.065  17.637 -0.2839  0.5844 -0.3698
 1311SOL    HW115566   1.329   1.099  17.580 -0.4396 -0.7477 -1.3529
 1311SOL    HW215567   1.263   1.129  17.708 -1.4248 -0.0317  0.2290
 1312SOL     OW15568   2.126   0.356   6.957 -0.0049 -0.1053 -0.1448
 1312SOL    HW115569   2.199   0.327   6.902  0.9600 -0.4183  1.2988
 1312SOL    HW215570   2.111   0.286   7.021 -1.1236  1.0780  0.8877
 1313SOL     OW15571   3.055   0.941   7.001  0.6744  0.1692 -0.2787
 1313SOL    HW115572   3.115   0.996   7.051 -2.2261  2.3811  0.7596
 1313SOL    HW215573   3.121   0.876   6.978 -0.0059 -0.5606 -0.1573
 1314SOL     OW15574   4.291   4.526   7.847 -0.0813 -0.1987  0.2585
 1314SOL    HW115575   4.236   4.510   7.771  0.1406 -0.4561  0.1549
 1314SOL    HW215576   4.229   4.573   7.905 -0.3843 -0.2970  0.0151
 1315SOL     OW15577   2.015   4.637   1.461 -0.3296  0.7351 -0.1801
 1315SOL    HW115578   2.101   4.668   1.435 -1.1169  0.7389 -2.7469
 1315SOL    HW215579   1.972   4.660   1.379  1.5496 -0.1185 -1.4011
 1316SOL     OW15580   3.281   0.819  13.557 -0.9291 -0.0976  0.2048
 1316SOL    HW115581   3.368   0.826  13.595  0.2583 -0.0233 -2.5811
 1316SOL    HW215582   3.264   0.909  13.530  0.7799  0.3592  0.6777
 1317SOL     OW15583   2.254   0.402  14.205 -0.0824 -0.2211 -0.8573
 1317SOL    HW115584   2.197   0.459  14.153 -0.6194 -1.9284 -2.1163
 1317SOL    HW215585   2.322   0.462  14.236 -0.1481 -1.4699  1.6478
 1318SOL     OW15586   3.663   3.993   4.549  0.3444 -0.1384 -0.1831
 1318SOL    HW115587   3.608   3.936   4.495 -1.7551  2.3604 -0.6823
 1318SOL    HW215588   3.735   3.930   4.559  2.0906  1.7436 -0.9644
 1319SOL     OW15589   4.404   4.608   7.271 -0.0236  0.4582  0.4077
 1319SOL    HW115590   4.443   4.619   7.184 -2.7616 -1.9296 -1.1497
 1319SOL    HW215591   4.355   4.690   7.279 -1.1326 -0.1433 -0.1246
 1320SOL     OW15592   0.017   0.869  15.793  0.3478 -0.5723  0.1796
 1320SOL    HW115593   4.711   0.927  15.734  3.1376 -0.2415 -1.7056
 1320SOL    HW215594   0.004   0.905  15.880 -0.2552 -0.1654 -0.0793
 1321SOL     OW15595   2.585   3.264  12.672  0.1398  0.1700  0.0526
 1321SOL    HW115596   2.503   3.276  12.624  1.1221  0.3858 -1.5609
 1321SOL    HW215597   2.626   3.195  12.620  0.3345 -0.0653  0.5237
 1322SOL     OW15598   2.079   0.794   7.615 -0.1039 -0.1806  0.2751
 1322SOL    HW115599   1.995   0.837   7.600  1.0385  0.9520 -2.8616
 1322SOL    HW215600   2.064   0.702   7.596  0.5749 -0.5125  1.3073
 1323SOL     OW15601   4.275   4.697   4.169  0.0726 -0.2980  0.0464
 1323SOL    HW115602   4.216   4.679   4.095  0.8504  0.0324 -0.6513
 1323SOL    HW215603   4.357   4.680   4.123 -0.1707 -2.3098  0.3276
 1324SOL     OW15604   0.635   3.136   6.671 -0.4067  0.1614 -0.7272
 1324SOL    HW115605   0.600   3.184   6.746  1.4116 -1.5073  1.1677
 1324SOL    HW215606   0.639   3.045   6.698  0.6237  0.0374 -1.2813
 1325SOL     OW15607   0.478   3.594  15.274  0.7488 -0.4057  0.0783
 1325SOL    HW115608   0.523   3.564  15.195 -0.0007 -1.4463  0.0560
 1325SOL    HW215609   0.398   3.633  15.241  2.2469  1.8844 -0.8850
 1326SOL     OW15610   4.732   0.790   4.392  0.1948  0.4637 -0.3140
 1326SOL    HW115611   0.014   0.709   4.438 -1.5862  0.2433  0.1540
 1326SOL    HW215612   0.064   0.847   4.418  0.9233 -0.8552  0.5599
 1327SOL     OW15613   0.499   2.893   4.930 -0.7857 -0.0788  0.1171
 1327SOL    HW115614   0.438   2.830   4.968 -0.4823 -0.5385 -0.1496
 1327SOL    HW215615   0.444   2.970   4.921  0.6591  0.6003 -3.2274
 1328SOL     OW15616   1.781   1.283   6.362  0.4716 -0.0686  0.2403
 1328SOL    HW115617   1.686   1.288   6.366  0.5305  1.2403  0.0154
 1328SOL    HW215618   1.799   1.377   6.364  2.2881 -0.4589  3.2770
 1329SOL     OW15619   0.406   1.073   8.167  0.5890 -0.2782 -0.1747
 1329SOL    HW115620   0.378   1.024   8.244  0.7509  0.6350  0.4658
 1329SOL    HW215621   0.340   1.035   8.110 -0.1358 -0.2656  0.6517
 1330SOL     OW15622   0.532   2.894  12.003 -0.1749 -0.3154 -0.7285
 1330SOL    HW115623   0.486   2.906  11.919 -1.1653 -1.9118 -0.4040
 1330SOL    HW215624   0.479   2.823  12.040  1.0119 -0.8518 -0.0931
 1331SOL     OW15625   0.298   2.456   4.114 -0.6085  0.4118 -0.1890
 1331SOL    HW115626   0.312   2.451   4.208 -1.5170  0.0152 -0.0720
 1331SOL    HW215627   0.373   2.513   4.095 -2.0579  2.3823  0.0534
 1332SOL     OW15628   4.108   2.962  15.174 -0.5770  0.0862  0.4049
 1332SOL    HW115629   4.144   3.029  15.231 -2.0636  1.2598 -0.0326
 1332SOL    HW215630   4.137   3.001  15.092  0.8619 -0.6955  0.5403
 1333SOL     OW15631   1.851   3.689   4.721 -1.0093  0.0771  0.3554
 1333SOL    HW115632   1.901   3.669   4.801  0.1820 -0.8196 -0.6195
 1333SOL    HW215633   1.782   3.747   4.754  0.9464  1.9677  1.1080
 1334SOL     OW15634   2.009   3.217   5.327  0.2200 -0.0764 -0.3851
 1334SOL    HW115635   2.097   3.195   5.360 -0.7766 -1.1599  1.5184
 1334SOL    HW215636   1.963   3.133   5.326 -1.6575  0.9696  0.8389
 1335SOL     OW15637   4.715   2.401   1.706  0.5230 -0.2939 -0.3120
 1335SOL    HW115638   4.637   2.355   1.738  0.0219  1.9098  1.6855
 1335SOL    HW215639   0.021   2.429   1.785 -0.5944  1.5131 -0.2875
 1336SOL     OW15640   0.326   1.412   7.391 -0.3462  0.2118 -0.4008
 1336SOL    HW115641   0.407   1.373   7.424 -0.8329 -1.4983 -1.2148
 1336SOL    HW215642   0.331   1.375   7.302 -0.2692  2.2120 -1.2209
 1337SOL     OW15643   4.087   2.461   3.565  0.5910  0.3046 -0.6761
 1337SOL    HW115644   3.997   2.491   3.574  0.2665 -0.6942 -0.6785
 1337SOL    HW215645   4.114   2.477   3.655  0.3283  0.4339 -0.6210
 1338SOL     OW15646   2.317   0.372   5.569  0.4264 -0.0196  0.6151
 1338SOL    HW115647   2.276   0.434   5.509 -0.8719 -0.7037  0.7870
 1338SOL    HW215648   2.279   0.290   5.535  1.5989 -0.0828 -0.5337
 1339SOL     OW15649   2.328   3.980   9.207  0.2708  0.8438 -0.0440
 1339SOL    HW115650   2.356   4.057   9.256  0.0251  1.1658 -0.4094
 1339SOL    HW215651   2.305   4.011   9.119  1.6429 -1.9392 -1.3930
 1340SOL     OW15652   2.569   2.493  11.299 -0.4073  0.5150  0.2215
 1340SOL    HW115653   2.551   2.586  11.284 -0.3045  0.3409 -1.0187
 1340SOL    HW215654   2.582   2.458  11.211 -1.0470 -0.6720  0.6017
 1341SOL     OW15655   0.700   1.066   2.966 -0.0198  0.5169  0.5204
 1341SOL    HW115656   0.663   1.154   2.974  1.2552  0.9564  1.6133
 1341SOL    HW215657   0.771   1.067   3.030 -0.3441  1.1234  0.8654
 1342SOL     OW15658   1.106   4.648   2.372 -0.1330 -0.2602  0.3278
 1342SOL    HW115659   1.192   4.678   2.345 -0.9121  2.2550  0.5801
 1342SOL    HW215660   1.110   4.589   2.447 -0.7835 -0.8055 -0.0620
 1343SOL     OW15661   2.524   1.345   8.248  0.0525 -0.9348 -0.2053
 1343SOL    HW115662   2.478   1.427   8.265  2.0292  0.4807 -1.6701
 1343SOL    HW215663   2.516   1.337   8.153  0.2689  0.4494 -0.3310
 1344SOL     OW15664   2.468   1.679   4.828  0.0973  0.2349  0.0960
 1344SOL    HW115665   2.537   1.664   4.764 -0.6344 -1.3739 -0.3154
 1344SOL    HW215666   2.465   1.775   4.828 -0.9232  0.1769 -2.8736
 1345SOL     OW15667   1.648   1.020  17.296  0.0079  0.4504  0.4867
 1345SOL    HW115668   1.655   1.054  17.206  1.6004 -0.9383  0.0838
 1345SOL    HW215669   1.555   1.034  17.313  1.1096  3.5643  3.9681
 1346SOL     OW15670   0.452   0.250  10.148  0.0611 -0.0935  0.1593
 1346SOL    HW115671   0.498   0.301  10.081 -2.5594  1.1403 -0.7319
 1346SOL    HW215672   0.440   0.315  10.217  1.2600 -1.6191  1.7918
 1347SOL     OW15673   1.914   3.349   7.192  0.2553 -0.4690 -0.2126
 1347SOL    HW115674   2.001   3.385   7.176  0.9157 -1.9684  0.0286
 1347SOL    HW215675   1.889   3.344   7.100  0.0932  1.2813 -0.2719
 1348SOL     OW15676   0.849   3.739   7.118 -0.2692 -0.1603 -0.2369
 1348SOL    HW115677   0.887   3.770   7.036 -1.3691  0.5679 -0.4675
 1348SOL    HW215678   0.907   3.793   7.172  0.2469 -0.0193 -0.9463
 1349SOL     OW15679   2.873   1.307  16.618  0.1856 -0.2940 -0.6730
 1349SOL    HW115680   2.873   1.357  16.699  0.0100 -0.6448 -0.4590
 1349SOL    HW215681   2.788   1.264  16.626  1.2352 -2.1697  0.3393
 1350SOL     OW15682   2.148   2.799   4.875 -0.1646  0.5089  0.2320
 1350SOL    HW115683   2.097   2.800   4.956 -0.2318 -0.7812  0.1964
 1350SOL    HW215684   2.083   2.779   4.808  0.0864  2.5994 -0.6321
 1351SOL     OW15685   2.052   3.000   6.932 -0.2652  0.5573  0.3097
 1351SOL    HW115686   2.064   3.051   7.012  2.8900 -1.7898  1.3397
 1351SOL    HW215687   2.141   3.013   6.898 -0.5839 -0.2262 -0.8302
 1352SOL     OW15688   3.811   4.610   4.311  0.0775  0.9118  0.1203
 1352SOL    HW115689   3.886   4.569   4.268 -0.1631  0.8901 -0.2740
 1352SOL    HW215690   3.786   4.536   4.366 -1.5577 -0.2282 -2.1530
 1353SOL     OW15691   0.324   1.765  16.227 -0.5080  0.0635  0.5519
 1353SOL    HW115692   0.350   1.800  16.141  0.1431  0.5597  0.9539
 1353SOL    HW215693   0.307   1.843  16.280  1.0016 -0.4504  1.7793
 1354SOL     OW15694   1.112   2.501  11.800 -0.2139  0.6056  0.2214
 1354SOL    HW115695   1.180   2.545  11.852  1.2993 -2.3846  0.8122
 1354SOL    HW215696   1.068   2.458  11.873 -0.4211  0.8981  0.2653
 1355SOL     OW15697   1.958   0.557   3.146  0.1331 -0.1116 -0.3560
 1355SOL    HW115698   2.012   0.497   3.096  1.6450 -0.1211  1.2690
 1355SOL    HW215699   2.033   0.596   3.192 -0.0081  1.0862 -1.1356
 1356SOL     OW15700   0.576   3.298   4.211 -0.3622 -0.0516 -0.5441
 1356SOL    HW115701   0.582   3.205   4.191 -2.5701 -0.1095 -0.9210
 1356SOL    HW215702   0.535   3.298   4.298  0.1819  1.1646 -0.2861
 1357SOL     OW15703   2.306   3.297   5.801 -0.2004  0.1514 -0.0345
 1357SOL    HW115704   2.260   3.376   5.772  0.1077  0.6907  0.9396
 1357SOL    HW215705   2.385   3.305   5.747  1.5272 -0.1881  2.4431
 1358SOL     OW15706   1.969   3.106   5.675 -0.3765 -0.7498 -0.2052
 1358SOL    HW115707   1.975   3.168   5.602  0.3328 -0.7031 -0.0982
 1358SOL    HW215708   1.944   3.163   5.747  3.0370 -0.9132  1.0649
 1359SOL     OW15709   2.259   3.132  13.404 -0.4021 -0.7358  0.3009
 1359SOL    HW115710   2.350   3.150  13.377 -0.3782 -0.0591  0.8100
 1359SOL    HW215711   2.209   3.175  13.335 -1.0797 -0.5094  0.9292
 1360SOL     OW15712   0.978   1.494   8.388 -0.2123  0.0001 -0.1459
 1360SOL    HW115713   1.049   1.558   8.386 -1.4787  1.3559 -1.9988
 1360SOL    HW215714   0.905   1.555   8.391 -1.1760 -1.1589 -0.1877
 1361SOL     OW15715   1.198   3.591   7.582  0.4535 -0.3048  0.0474
 1361SOL    HW115716   1.255   3.592   7.659  0.9181  0.5614 -0.3030
 1361SOL    HW215717   1.240   3.519   7.535  2.5723  0.4389  0.7691
 1362SOL     OW15718   1.633   0.922  12.903 -0.0737 -0.0499  0.5082
 1362SOL    HW115719   1.678   0.935  12.819 -0.1606 -1.1756  0.2930
 1362SOL    HW215720   1.676   0.988  12.957  0.1381 -1.9437  2.6488
 1363SOL     OW15721   1.236   1.596   2.744  0.4263  0.4293 -0.3276
 1363SOL    HW115722   1.237   1.514   2.794  0.4271  0.3148 -0.5181
 1363SOL    HW215723   1.150   1.604   2.703  0.1755  1.3320  0.3814
 1364SOL     OW15724   2.226   2.314  13.643 -0.2227 -0.6348 -0.0958
 1364SOL    HW115725   2.275   2.319  13.561 -3.7872  0.8241 -2.1870
 1364SOL    HW215726   2.278   2.248  13.687 -2.6782 -0.8839  2.4661
 1365SOL     OW15727   4.546   3.824   5.719  0.0081  0.0458 -0.0798
 1365SOL    HW115728   4.488   3.765   5.767  0.3026 -2.4338 -2.7523
 1365SOL    HW215729   4.607   3.759   5.682 -1.5491 -1.4392 -0.0294
 1366SOL     OW15730   0.180   3.638   2.553  0.2900  0.2790 -0.1316
 1366SOL    HW115731   0.187   3.557   2.605  2.9296  1.5091  1.4517
 1366SOL    HW215732   0.257   3.626   2.497  0.5276 -1.9128  0.6401
 1367SOL     OW15733   1.631   3.756   7.445 -0.2052  0.2631 -0.4287
 1367SOL    HW115734   1.614   3.847   7.467  1.0199 -0.0910  1.9497
 1367SOL    HW215735   1.726   3.750   7.434 -0.4502 -0.4121 -2.1521
 1368SOL     OW15736   1.902   2.390  10.772 -0.2526  0.2884  0.1189
 1368SOL    HW115737   1.827   2.436  10.810 -0.5988  2.1860 -2.8369
 1368SOL    HW215738   1.868   2.304  10.798 -0.4374  0.5587  0.7652
 1369SOL     OW15739   3.773   3.383   2.140 -0.0965  0.3758 -0.2471
 1369SOL    HW115740   3.722   3.303   2.157 -1.4838  0.7478 -2.7367
 1369SOL    HW215741   3.809   3.366   2.053 -0.7735  1.4130 -0.7141
 1370SOL     OW15742   1.715   4.227   4.970  0.2598  0.0646  0.3729
 1370SOL    HW115743   1.664   4.234   4.890 -0.8589  1.5276  1.2236
 1370SOL    HW215744   1.805   4.242   4.941  0.5545 -0.0301  1.2395
 1371SOL     OW15745   0.297   2.167  13.110  0.7855 -0.0140  0.0607
 1371SOL    HW115746   0.204   2.158  13.093  0.8291 -0.6239  0.1404
 1371SOL    HW215747   0.332   2.237  13.055  0.0585 -1.3697 -2.1102
 1372SOL     OW15748   3.912   3.540   5.513 -0.1727  0.1647  0.2731
 1372SOL    HW115749   3.895   3.450   5.543 -1.3517 -0.2201 -1.5422
 1372SOL    HW215750   3.841   3.535   5.449  0.0172 -0.8441  0.1324
 1373SOL     OW15751   0.133   0.051  11.443  0.0337  0.1319  0.1710
 1373SOL    HW115752   0.073   0.122  11.419 -1.0878 -0.4140  1.3598
 1373SOL    HW215753   0.092   0.026  11.526 -1.1252  0.0952 -0.4120
 1374SOL     OW15754   1.709   4.055   2.904  0.1024 -0.4797  0.7146
 1374SOL    HW115755   1.788   4.054   2.850  0.1610  2.8540  0.7421
 1374SOL    HW215756   1.692   4.149   2.895 -0.9691 -0.8225 -0.9578
 1375SOL     OW15757   3.322   4.031   9.158  0.0401  0.3879 -0.2909
 1375SOL    HW115758   3.266   3.968   9.204 -1.4271  1.5717 -0.4620
 1375SOL    HW215759   3.258   4.099   9.137  0.3044  0.3343 -1.2859
 1376SOL     OW15760   0.876   1.830  17.098 -0.7362 -0.1758 -0.4992
 1376SOL    HW115761   0.781   1.818  17.104 -0.3517 -2.2251  1.4593
 1376SOL    HW215762   0.899   1.863  17.011  2.0217 -2.3589 -0.6094
 1377SOL     OW15763   0.464   0.891   6.719 -0.0063 -0.0562 -0.4361
 1377SOL    HW115764   0.516   0.875   6.640  1.2928  1.0973  0.1856
 1377SOL    HW215765   0.471   0.986   6.712 -1.7167  0.1589  0.6580
 1378SOL     OW15766   2.016   0.031   1.029 -0.0902 -0.4412 -0.0825
 1378SOL    HW115767   1.978   0.003   1.112  1.3777 -1.1467  0.3620
 1378SOL    HW215768   1.999   0.125   1.031 -1.1500 -0.6584  0.6926
 1379SOL     OW15769   1.319   0.731   7.798  0.2605 -0.2650 -0.3192
 1379SOL    HW115770   1.268   0.737   7.879  0.5762 -2.7773  0.0717
 1379SOL    HW215771   1.410   0.743   7.827  0.0506  0.7143 -0.0952
 1380SOL     OW15772   0.856   2.431   2.015 -0.1473  0.8791  0.0989
 1380SOL    HW115773   0.912   2.455   1.941 -2.8262 -2.1402 -2.9452
 1380SOL    HW215774   0.773   2.402   1.976 -0.2080  0.8174  0.2764
 1381SOL     OW15775   4.272   1.680   8.693 -0.0806  0.5763  0.1361
 1381SOL    HW115776   4.191   1.678   8.745 -0.8003 -0.7896 -1.0254
 1381SOL    HW215777   4.235   1.713   8.611 -1.3815  0.1499  0.5464
 1382SOL     OW15778   3.546   2.570   7.841  0.1923  0.0457  0.3245
 1382SOL    HW115779   3.590   2.530   7.916  1.2401 -1.7745 -1.2467
 1382SOL    HW215780   3.561   2.659   7.872  1.3726  0.7564 -2.2849
 1383SOL     OW15781   3.384   0.405   7.298 -0.1399 -0.7190  0.4440
 1383SOL    HW115782   3.334   0.480   7.269  0.4011 -0.9219 -1.0083
 1383SOL    HW215783   3.329   0.336   7.259 -1.2202  0.5968 -0.3511
 1384SOL     OW15784   1.294   0.876  11.797  0.3406  0.0300 -0.3209
 1384SOL    HW115785   1.337   0.962  11.798  1.8934 -0.7269 -2.1153
 1384SOL    HW215786   1.322   0.841  11.713  1.0766  0.6459 -0.3391
 1385SOL     OW15787   2.500   4.072   0.756  0.0722 -0.4723  0.1539
 1385SOL    HW115788   2.580   4.019   0.752 -0.7188 -1.8218  2.1648
 1385SOL    HW215789   2.438   4.005   0.786 -0.0926  0.3780  1.6923
 1386SOL     OW15790   3.138   0.331   9.579  0.3685 -0.2923 -0.0114
 1386SOL    HW115791   3.048   0.300   9.591 -0.6587  2.8722  0.6411
 1386SOL    HW215792   3.174   0.308   9.665 -2.6947  0.4958  1.4736
 1387SOL     OW15793   4.369   0.952   6.581 -0.3786  0.0550 -0.1381
 1387SOL    HW115794   4.318   1.025   6.615  0.1445  0.3025  0.1140
 1387SOL    HW215795   4.385   0.899   6.659 -1.2632 -2.3741 -1.5870
 1388SOL     OW15796   4.689   2.167   8.399 -0.0686 -0.6685  0.5229
 1388SOL    HW115797   0.012   2.219   8.448  0.8839 -1.2377 -0.1319
 1388SOL    HW215798   0.006   2.112   8.346  1.2135  1.2768 -0.1043
 1389SOL     OW15799   1.820   0.369   5.149 -0.5757 -0.2699  0.0699
 1389SOL    HW115800   1.790   0.320   5.073  0.5749  0.4152 -0.8260
 1389SOL    HW215801   1.914   0.367   5.130 -0.7054 -0.8256 -0.4770
 1390SOL     OW15802   0.598   4.172   2.181 -0.2907 -0.5868  0.6689
 1390SOL    HW115803   0.639   4.257   2.166  1.8689 -1.8846 -0.7198
 1390SOL    HW215804   0.549   4.148   2.103 -0.8742  2.6376  0.0196
 1391SOL     OW15805   4.560   4.392   6.531 -0.8094 -0.4645 -0.4326
 1391SOL    HW115806   4.580   4.325   6.466  1.7873 -1.4432  1.3309
 1391SOL    HW215807   4.552   4.339   6.611  0.3084 -0.3633 -0.2552
 1392SOL     OW15808   1.364   2.757  14.984 -0.2617  0.1234  0.3695
 1392SOL    HW115809   1.343   2.797  15.068  0.5470  0.4336  0.4206
 1392SOL    HW215810   1.296   2.690  14.976  1.9200 -2.1111  0.8072
 1393SOL     OW15811   0.140   2.863  10.874 -0.2726  0.3544  0.5087
 1393SOL    HW115812   0.214   2.923  10.863  0.2025 -0.9257 -3.2547
 1393SOL    HW215813   0.140   2.832  10.783 -2.0216  0.7545  0.3631
 1394SOL     OW15814   2.723   3.747   5.079 -0.2914  0.3761 -0.5675
 1394SOL    HW115815   2.658   3.802   5.124  0.6728  0.4942  0.6891
 1394SOL    HW215816   2.685   3.738   4.992  0.1958 -1.2648 -0.6195
 1395SOL     OW15817   4.379   4.310   2.359  0.5801  0.0248 -0.3886
 1395SOL    HW115818   4.412   4.223   2.382 -0.4813  0.1628  1.5830
 1395SOL    HW215819   4.400   4.314   2.265  0.1717  0.2597 -0.4712
 1396SOL     OW15820   3.216   2.989   7.838  0.3018  0.0480  0.2797
 1396SOL    HW115821   3.309   3.006   7.851  0.4245 -2.0780  2.2209
 1396SOL    HW215822   3.214   2.992   7.742 -0.6376  1.1433  0.3343
 1397SOL     OW15823   1.766   2.074   6.132 -0.3675  0.3940  0.6021
 1397SOL    HW115824   1.688   2.046   6.083  1.4684 -1.2372 -1.3717
 1397SOL    HW215825   1.732   2.063   6.221 -2.6046  2.8362  0.0504
 1398SOL     OW15826   0.193   2.500   3.241 -0.3510 -0.5844 -0.2361
 1398SOL    HW115827   0.162   2.418   3.201 -2.6654 -1.0947  2.6591
 1398SOL    HW215828   0.184   2.487   3.335 -0.5662 -0.7639 -0.2812
 1399SOL     OW15829   2.525   4.252  17.577  0.4664  0.3286  0.0484
 1399SOL    HW115830   2.454   4.238  17.514  0.5706 -0.7250  0.1656
 1399SOL    HW215831   2.573   4.324  17.536 -0.2425  0.3782 -0.7041
 1400SOL     OW15832   4.495   4.697   3.164  0.0761 -0.4404  0.2185
 1400SOL    HW115833   4.487   4.670   3.073 -0.1931  0.8482 -0.1360
 1400SOL    HW215834   4.548   4.630   3.207  1.8537  0.3151 -0.7712
 1401SOL     OW15835   0.815   0.481   8.946  0.1071 -0.2261 -0.2872
 1401SOL    HW115836   0.736   0.528   8.917  0.3327  0.5395  0.3087
 1401SOL    HW215837   0.781   0.432   9.021 -0.5650  0.8920  0.1553
 1402SOL     OW15838   3.566   3.879   1.943 -0.5429  0.0686  0.3099
 1402SOL    HW115839   3.532   3.805   1.993 -1.0433 -1.0782 -1.7226
 1402SOL    HW215840   3.649   3.884   1.989  1.1131 -1.0856 -2.5489
 1403SOL     OW15841   4.292   1.243   4.966  0.1701 -0.2868  0.0528
 1403SOL    HW115842   4.323   1.259   4.877 -0.1437 -2.6584 -0.4594
 1403SOL    HW215843   4.217   1.303   4.973  0.5991  0.2288  0.2657
 1404SOL     OW15844   4.421   0.320   2.605 -0.7287 -0.1188 -0.2479
 1404SOL    HW115845   4.495   0.377   2.583 -0.9648 -0.7314 -2.5695
 1404SOL    HW215846   4.458   0.241   2.566 -1.9199 -1.6268  1.7041
 1405SOL     OW15847   0.123   2.845  10.583 -0.2009  0.5003 -0.4737
 1405SOL    HW115848   0.174   2.924  10.564  1.1002 -0.1458  0.3173
 1405SOL    HW215849   0.133   2.790  10.505 -1.2137 -1.1744  0.5752
 1406SOL     OW15850   4.677   3.073   5.905  0.1745 -0.3439 -0.5659
 1406SOL    HW115851   4.650   3.064   5.813  0.4928  0.2833 -0.7172
 1406SOL    HW215852   4.606   3.122   5.945 -0.0016 -0.5581 -0.6164
 1407SOL     OW15853   4.177   2.978   2.926 -0.4186 -0.3171 -0.3922
 1407SOL    HW115854   4.182   3.024   2.842 -1.5004 -0.6203 -0.6270
 1407SOL    HW215855   4.265   2.996   2.957 -0.5553 -1.6578  0.7689
 1408SOL     OW15856   3.421   0.486   1.110 -0.2634 -0.0469  0.3173
 1408SOL    HW115857   3.470   0.558   1.148 -0.9089  0.4766  0.1624
 1408SOL    HW215858   3.334   0.525   1.097  0.4616  1.3858 -0.2771
 1409SOL     OW15859   4.097   4.545   7.659 -0.1059  0.2917 -0.5712
 1409SOL    HW115860   4.130   4.630   7.629 -1.0538  0.4633 -1.1343
 1409SOL    HW215861   4.025   4.560   7.720  0.3825  0.9002 -0.1480
 1410SOL     OW15862   1.813   4.712  12.892  0.0387  0.0505  0.2868
 1410SOL    HW115863   1.748   0.001  12.955  1.0451  0.3675  1.1771
 1410SOL    HW215864   1.892   0.009  12.931  1.7117 -0.3117 -2.7043
 1411SOL     OW15865   4.177   4.195   3.949  0.3067 -0.2036  0.8322
 1411SOL    HW115866   4.084   4.215   3.945  0.3275 -0.5063 -1.3466
 1411SOL    HW215867   4.207   4.202   3.858 -3.8099  0.7543 -0.4407
 1412SOL     OW15868   3.166   0.293  11.421  0.3468 -0.2345  0.3081
 1412SOL    HW115869   3.073   0.286  11.443  0.5810 -0.2630  1.2739
 1412SOL    HW215870   3.199   0.224  11.478 -1.6582 -0.4802  1.1822
 1413SOL     OW15871   1.987   2.764   5.088  0.0443 -0.1816 -0.6218
 1413SOL    HW115872   1.930   2.707   5.036 -0.9051 -2.1110  2.4998
 1413SOL    HW215873   1.937   2.765   5.170  0.5362  3.6916 -0.3538
 1414SOL     OW15874   3.586   1.835   4.117  0.0969 -0.3565  0.0252
 1414SOL    HW115875   3.677   1.823   4.146 -0.3378  0.2125  1.6752
 1414SOL    HW215876   3.561   1.744   4.130  0.4148 -0.5260 -0.6055
 1415SOL     OW15877   0.672   4.014  11.113 -0.2631 -0.4784 -0.0362
 1415SOL    HW115878   0.689   4.108  11.110 -0.2510 -0.4043  1.9917
 1415SOL    HW215879   0.646   4.005  11.205  0.2293  3.2441  0.4775
 1416SOL     OW15880   1.119   1.123   6.652  0.0326  0.8961 -0.3884
 1416SOL    HW115881   1.173   1.201   6.648  0.2449  0.9677  3.8646
 1416SOL    HW215882   1.154   1.065   6.584  0.5403 -1.5132  1.8988
 1417SOL     OW15883   1.407   0.676  13.948 -0.4499  0.5315  0.0517
 1417SOL    HW115884   1.465   0.719  14.012  0.7676 -0.6530 -0.2574
 1417SOL    HW215885   1.339   0.744  13.948 -0.0542  0.9332  1.0529
 1418SOL     OW15886   2.743   1.670   6.256 -0.3024  0.1592 -0.1361
 1418SOL    HW115887   2.809   1.721   6.303  0.6005 -0.0685 -1.1328
 1418SOL    HW215888   2.792   1.593   6.227  1.1532  0.7025  0.8777
 1419SOL     OW15889   3.079   0.073  12.116  0.0528  0.0288 -0.1911
 1419SOL    HW115890   3.114   4.725  12.120 -1.1067 -0.4885 -1.4450
 1419SOL    HW215891   2.989   0.062  12.144  0.6594 -1.0449  1.3082
 1420SOL     OW15892   0.287   3.602   6.277  0.4996 -0.1446  0.3505
 1420SOL    HW115893   0.321   3.590   6.366 -0.7115 -0.3351  0.7817
 1420SOL    HW215894   0.202   3.644   6.292  0.8294 -0.0358  1.9097
 1421SOL     OW15895   0.653   0.532  14.782 -0.0006  0.3711  0.1796
 1421SOL    HW115896   0.574   0.578  14.754 -0.1849 -1.2127 -1.9469
 1421SOL    HW215897   0.610   0.446  14.777  1.9914 -0.7414  2.0276
 1422SOL     OW15898   3.482   3.103   4.479  0.3422 -0.3251 -0.0764
 1422SOL    HW115899   3.401   3.064   4.445 -1.6941  1.4311  2.7728
 1422SOL    HW215900   3.487   3.179   4.421  0.3421  0.6764  1.2368
 1423SOL     OW15901   4.193   0.077  13.632 -0.0817  0.1377 -0.4613
 1423SOL    HW115902   4.225   0.018  13.700  0.8827  0.8451 -0.3006
 1423SOL    HW215903   4.196   0.030  13.548  0.7245  0.6782 -0.7423
 1424SOL     OW15904   2.202   1.576   3.943 -0.4336 -0.2306 -0.5737
 1424SOL    HW115905   2.239   1.569   3.854  2.1036 -0.1907  0.4830
 1424SOL    HW215906   2.193   1.482   3.960 -0.1742 -0.7592 -3.3243
 1425SOL     OW15907   3.464   3.943   5.862  0.0707  0.5511 -0.7718
 1425SOL    HW115908   3.471   4.005   5.789  2.4710  2.3197  0.9419
 1425SOL    HW215909   3.556   3.937   5.889 -0.9685  1.9693  3.0393
 1426SOL     OW15910   0.171   4.595   8.553  0.0601 -0.0053 -0.0289
 1426SOL    HW115911   0.085   4.601   8.594  0.7110 -1.2868  1.5172
 1426SOL    HW215912   0.227   4.647   8.611 -0.7734 -1.4405  2.0384
 1427SOL     OW15913   1.196   2.113  14.611  0.0438  0.3139  0.5696
 1427SOL    HW115914   1.160   2.177  14.673 -1.7815 -0.3974  0.2323
 1427SOL    HW215915   1.135   2.040  14.620 -0.8978  1.5376  4.0483
 1428SOL     OW15916   0.138   0.806  12.968 -0.8317 -0.8553  0.1291
 1428SOL    HW115917   0.131   0.802  13.064  0.6535 -0.8158  0.2417
 1428SOL    HW215918   0.231   0.830  12.977 -1.1835 -0.4319  2.5556
 1429SOL     OW15919   4.025   2.787   2.045  0.2381  0.2644  0.6202
 1429SOL    HW115920   4.020   2.742   1.961 -1.0822  1.2367  0.1929
 1429SOL    HW215921   3.975   2.736   2.109  1.2055  0.4236  1.5180
 1430SOL     OW15922   0.913   1.431   3.369 -0.2685  0.5190  0.2277
 1430SOL    HW115923   0.913   1.480   3.451  1.7792 -0.4001  0.7738
 1430SOL    HW215924   0.898   1.500   3.304  0.1244 -1.4604 -1.9927
 1431SOL     OW15925   3.664   0.292   2.091  0.1516  0.0305  0.5005
 1431SOL    HW115926   3.738   0.231   2.093  1.3264  1.4007 -0.8522
 1431SOL    HW215927   3.688   0.339   2.171 -0.0264 -1.9255  1.7059
 1432SOL     OW15928   1.885   2.001   8.346 -0.3043 -0.0113  0.1111
 1432SOL    HW115929   1.857   2.016   8.437  1.0326  1.2893  0.2952
 1432SOL    HW215930   1.928   2.084   8.328 -0.7015  0.2177  0.2068
 1433SOL     OW15931   4.263   1.935   2.382 -0.3193 -0.7643  0.0812
 1433SOL    HW115932   4.314   1.887   2.316 -0.8335  1.2116 -1.7338
 1433SOL    HW215933   4.284   1.886   2.461  0.6739 -0.9923 -0.3299
 1434SOL     OW15934   3.944   3.256   8.393 -0.0198  0.4271  0.0716
 1434SOL    HW115935   3.961   3.348   8.373  1.1945 -0.0407 -1.0029
 1434SOL    HW215936   4.029   3.214   8.399 -1.3365 -2.1297  1.1963
 1435SOL     OW15937   1.061   1.803  15.297 -0.1074  0.6796 -0.1693
 1435SOL    HW115938   0.998   1.736  15.323  2.4567 -0.8227  2.0997
 1435SOL    HW215939   1.122   1.785  15.368  1.1394  1.4201 -1.0506
 1436SOL     OW15940   2.949   0.469   7.415  0.1937  0.8299 -0.1999
 1436SOL    HW115941   2.984   0.531   7.479 -1.7724  0.0046  1.7241
 1436SOL    HW215942   2.941   0.522   7.336  0.3990  3.0741  1.2786
 1437SOL     OW15943   4.536   4.270   6.805 -0.4539  0.6330  1.0242
 1437SOL    HW115944   4.591   4.335   6.849  2.3272 -0.2735 -1.0723
 1437SOL    HW215945   4.462   4.259   6.864 -1.4855  0.3563 -0.3236
 1438SOL     OW15946   4.064   0.079  15.520  0.2733  0.5753 -0.2494
 1438SOL    HW115947   4.027   0.147  15.464  0.3986  2.4813  1.9717
 1438SOL    HW215948   4.064   0.123  15.605  0.2273  1.1352 -0.5391
 1439SOL     OW15949   2.370   4.599   8.622 -0.2520 -0.1394 -0.2656
 1439SOL    HW115950   2.429   4.566   8.690 -0.0451  1.0664  0.1421
 1439SOL    HW215951   2.367   4.520   8.568 -0.5606  0.9292 -1.8134
 1440SOL     OW15952   4.602   1.193   4.837  0.1923 -0.0139  0.4009
 1440SOL    HW115953   4.566   1.143   4.764  0.3226 -0.0471  0.3605
 1440SOL    HW215954   4.693   1.165   4.846  0.4901  0.1232 -2.2166
 1441SOL     OW15955   0.275   3.479   6.919 -0.6584  0.0917 -0.3581
 1441SOL    HW115956   0.225   3.438   6.989 -3.6992  2.4711 -1.1499
 1441SOL    HW215957   0.237   3.427   6.848 -0.9532 -0.5781  0.2896
 1442SOL     OW15958   2.752   2.782   5.266  0.0464  0.0648  0.4611
 1442SOL    HW115959   2.678   2.757   5.210 -0.7605 -0.0541  1.5834
 1442SOL    HW215960   2.693   2.812   5.335  0.3722  2.2110 -0.1952
 1443SOL     OW15961   0.650   1.128   8.964  0.0739  0.3514  0.6343
 1443SOL    HW115962   0.650   1.099   9.055 -1.1272  1.2670  0.9227
 1443SOL    HW215963   0.736   1.166   8.951  1.5926 -2.7803  1.5481
 1444SOL     OW15964   3.122   4.570   4.112 -0.0610  0.4595  0.1598
 1444SOL    HW115965   3.189   4.590   4.046  0.1396  3.2657  1.1910
 1444SOL    HW215966   3.167   4.608   4.188 -0.2760 -0.1546  0.5873
 1445SOL     OW15967   0.033   0.627  15.651  0.1512 -0.0019 -0.2185
 1445SOL    HW115968   0.026   0.710  15.699 -0.1349 -0.9729  1.4160
 1445SOL    HW215969   0.083   0.659  15.576 -0.5452 -1.0450 -1.1112
 1446SOL     OW15970   1.157   0.840   8.728 -0.2331  0.3779  0.0698
 1446SOL    HW115971   1.237   0.881   8.695 -1.2045  2.3514  0.1398
 1446SOL    HW215972   1.093   0.869   8.663  0.4114 -3.3023 -2.1760
 1447SOL     OW15973   2.166   1.308   2.885 -0.2701  0.0981 -0.0227
 1447SOL    HW115974   2.176   1.402   2.877  0.1738 -0.1196 -2.0110
 1447SOL    HW215975   2.076   1.297   2.852 -0.2956 -0.1418  0.1220
 1448SOL     OW15976   2.494   1.292   9.142  0.2036 -0.2255  0.4751
 1448SOL    HW115977   2.571   1.321   9.092 -0.5146  3.4457  1.4746
 1448SOL    HW215978   2.523   1.320   9.229 -1.8305 -2.0551  1.7498
 1449SOL     OW15979   2.533   4.556   3.256  0.4129  0.5517 -0.1872
 1449SOL    HW115980   2.621   4.530   3.285 -0.7328  0.2611  3.0196
 1449SOL    HW215981   2.479   4.502   3.314  1.6211  0.3071  0.7047
 1450SOL     OW15982   1.806   0.658   2.909  1.1250 -0.3832  0.3281
 1450SOL    HW115983   1.728   0.707   2.936  1.4927 -0.8340  2.2267
 1450SOL    HW215984   1.847   0.640   2.994 -0.4736  0.6204  1.3007
 1451SOL     OW15985   2.113   0.264   3.091  1.0901 -0.0854 -0.1345
 1451SOL    HW115986   2.133   0.183   3.138 -1.8341 -0.7559 -0.0531
 1451SOL    HW215987   2.202   0.274   3.057 -0.1960  0.2222 -3.4346
 1452SOL     OW15988   4.461   2.167  14.980 -0.3017 -0.2464  0.1816
 1452SOL    HW115989   4.488   2.249  14.939 -1.4568 -0.1477 -0.3757
 1452SOL    HW215990   4.545   2.120  14.982  0.9174  1.8522 -1.8765
 1453SOL     OW15991   0.018   1.217   8.341  0.3323 -0.0774 -0.0034
 1453SOL    HW115992   4.734   1.255   8.256  1.5469  0.1901 -0.2304
 1453SOL    HW215993   4.678   1.168   8.357 -0.9016  1.5791 -1.0885
 1454SOL     OW15994   1.284   3.595   6.377 -0.4285 -0.3513  0.2680
 1454SOL    HW115995   1.250   3.618   6.291  3.7340  2.3205 -0.6912
 1454SOL    HW215996   1.210   3.627   6.428  0.6549 -0.2997  1.8331
 1455SOL     OW15997   4.482   1.164   0.785 -0.1845  0.2685 -0.4645
 1455SOL    HW115998   4.506   1.116   0.705 -0.1961 -0.7115  0.1240
 1455SOL    HW215999   4.510   1.097   0.848 -0.7596  0.4494 -0.0186
 1456SOL     OW16000   0.532   2.656  15.421  0.1701 -0.6562  0.4336
 1456SOL    HW116001   0.524   2.567  15.456  0.1971 -0.8857 -0.1366
 1456SOL    HW216002   0.555   2.685  15.509  1.1268  0.6516 -0.2575
 1457SOL     OW16003   3.840   1.861   3.190  0.0608  0.7473 -0.1529
 1457SOL    HW116004   3.903   1.854   3.119  1.3869  1.8263  0.9193
 1457SOL    HW216005   3.893   1.838   3.266 -0.6807 -0.0400  0.1152
 1458SOL     OW16006   1.880   4.449   9.049 -0.1614 -0.7067 -0.5357
 1458SOL    HW116007   1.940   4.510   9.093  0.2540 -3.0656  2.1537
 1458SOL    HW216008   1.798   4.499   9.046  1.0680  1.3901  0.5117
 1459SOL     OW16009   1.957   4.617   2.521 -0.6240 -0.1043  0.8861
 1459SOL    HW116010   1.903   4.693   2.543 -1.2454 -0.3502  0.2110
 1459SOL    HW216011   2.026   4.632   2.585  0.3297  0.9785 -0.3996
 1460SOL     OW16012   4.556   1.144   6.243  0.3918  0.3505 -0.3299
 1460SOL    HW116013   4.619   1.213   6.222 -0.2307  0.7546 -0.8609
 1460SOL    HW216014   4.596   1.124   6.328 -2.0137 -2.9230  0.0411
 1461SOL     OW16015   1.468   3.053   4.269 -0.1012 -0.6499 -0.5793
 1461SOL    HW116016   1.541   3.024   4.323 -0.8737  1.4621  1.5944
 1461SOL    HW216017   1.397   3.030   4.329  0.0402 -2.0473 -0.9462
 1462SOL     OW16018   1.885   2.301   9.125  0.9710 -0.5337 -0.0485
 1462SOL    HW116019   1.808   2.341   9.166  0.4245 -1.8352  0.1843
 1462SOL    HW216020   1.888   2.244   9.202 -0.3685 -1.9059 -1.0212
 1463SOL     OW16021   4.522   0.449  10.612 -0.1787  0.3034 -0.1546
 1463SOL    HW116022   4.546   0.376  10.556  1.7008 -0.5164  1.7093
 1463SOL    HW216023   4.429   0.438  10.632 -0.2963  2.0515  0.3275
 1464SOL     OW16024   1.606   3.714  12.990 -0.3585  0.1599  1.0862
 1464SOL    HW116025   1.601   3.682  13.080  2.0207 -0.4995  0.9924
 1464SOL    HW216026   1.605   3.809  13.003 -0.2167  0.3217 -0.1202
 1465SOL     OW16027   3.981   2.990   4.088 -0.0343  0.5919  0.1959
 1465SOL    HW116028   4.019   3.049   4.024  0.2388  0.6976  0.4574
 1465SOL    HW216029   3.930   2.928   4.035  3.1283  0.6137 -2.9021
 1466SOL     OW16030   0.695   1.189  16.512 -0.1687 -0.1681  0.1087
 1466SOL    HW116031   0.620   1.235  16.476 -0.0528  0.5202  0.7287
 1466SOL    HW216032   0.664   1.102  16.537 -0.5151 -0.0756  0.0022
 1467SOL     OW16033   2.258   1.653  13.360  0.7354 -0.0640  0.1988
 1467SOL    HW116034   2.252   1.713  13.434  0.8228  1.1159 -0.7456
 1467SOL    HW216035   2.299   1.721  13.306 -1.0448 -0.0628 -1.1860
 1468SOL     OW16036   3.661   2.247   0.925  0.1140  0.1475  0.0863
 1468SOL    HW116037   3.584   2.212   0.880  1.1151 -0.1354 -1.4217
 1468SOL    HW216038   3.669   2.186   0.998 -2.5584 -0.2966 -0.0085
 1469SOL     OW16039   1.687   1.725  10.888  0.2299  0.1688  0.0381
 1469SOL    HW116040   1.656   1.812  10.860  0.6001  0.1645 -0.3781
 1469SOL    HW216041   1.776   1.742  10.919  0.4536  0.9213 -1.0347
 1470SOL     OW16042   1.371   2.348  12.416  0.2658 -0.0298  0.0095
 1470SOL    HW116043   1.420   2.271  12.446 -0.2174  0.4815  2.0837
 1470SOL    HW216044   1.348   2.387  12.500 -0.0280 -0.8748  0.3263
 1471SOL     OW16045   3.288   2.909  14.932 -0.3348 -0.0889  0.5746
 1471SOL    HW116046   3.360   2.888  14.873 -0.0047 -1.2504  1.3962
 1471SOL    HW216047   3.268   2.819  14.959 -0.0977  0.1793  1.6185
 1472SOL     OW16048   4.570   2.124  14.447  0.8719  0.3506 -0.3968
 1472SOL    HW116049   4.565   2.160  14.536  2.7380  0.8435 -0.4884
 1472SOL    HW216050   4.477   2.099  14.443  0.4721  2.1036 -2.3161
 1473SOL     OW16051   2.894   0.628   2.663 -0.2493  0.1306 -0.2783
 1473SOL    HW116052   2.918   0.653   2.574 -2.1874  0.3237 -0.7481
 1473SOL    HW216053   2.836   0.702   2.674 -1.6058 -0.6139 -2.3098
 1474SOL     OW16054   0.036   0.309  11.418 -0.2927  0.6497 -0.3566
 1474SOL    HW116055   0.088   0.360  11.480 -2.1239  0.2429  1.5384
 1474SOL    HW216056   4.693   0.352  11.439  0.4203  1.7557  0.2383
 1475SOL     OW16057   0.695   3.470  12.624  0.8837  0.3640 -0.2969
 1475SOL    HW116058   0.653   3.550  12.656 -0.2818 -1.4953  2.7264
 1475SOL    HW216059   0.624   3.408  12.640  0.8922  0.3701 -0.2340
 1476SOL     OW16060   1.999   3.216  13.542  0.0807 -0.6453  0.1427
 1476SOL    HW116061   2.071   3.213  13.479 -0.1773  0.6191 -0.2186
 1476SOL    HW216062   2.051   3.195  13.619  0.0282 -0.1375  0.3160
 1477SOL     OW16063   3.563   3.801   4.395  0.2815 -0.1674 -0.3650
 1477SOL    HW116064   3.529   3.716   4.424  1.9241 -1.3159 -1.7802
 1477SOL    HW216065   3.634   3.776   4.336  0.6625 -2.0470  0.8566
 1478SOL     OW16066   4.149   1.896  12.109 -0.4086 -0.0729 -1.3037
 1478SOL    HW116067   4.224   1.858  12.154 -0.6401  1.3873  0.3472
 1478SOL    HW216068   4.095   1.819  12.086 -3.1283  1.1578  0.8859
 1479SOL     OW16069   0.840   3.856   8.686 -0.2137 -0.3566 -0.6799
 1479SOL    HW116070   0.906   3.853   8.755  1.5620  0.2648 -2.3450
 1479SOL    HW216071   0.893   3.886   8.612 -0.2553 -0.4397 -0.7427
 1480SOL     OW16072   0.945   2.393  14.679 -0.6758 -0.5371 -0.2473
 1480SOL    HW116073   0.981   2.478  14.704 -1.9598  0.9201 -3.4814
 1480SOL    HW216074   0.851   2.410  14.682 -0.4459  0.3802  1.6715
 1481SOL     OW16075   0.427   1.601   3.202  0.0931  0.7742  0.1728
 1481SOL    HW116076   0.478   1.678   3.229 -0.9026  1.0526  1.2223
 1481SOL    HW216077   0.431   1.588   3.107 -0.4814  0.0711  0.2461
 1482SOL     OW16078   1.109   2.184   1.142  0.7684 -0.1692 -0.2392
 1482SOL    HW116079   1.031   2.177   1.087  0.6293 -1.3929  0.1154
 1482SOL    HW216080   1.146   2.266   1.109  0.0110  0.5154  0.5817
 1483SOL     OW16081   4.166   3.594   5.939 -0.6290  0.3857  0.0947
 1483SOL    HW116082   4.114   3.643   6.003  0.6903  1.4174  0.3667
 1483SOL    HW216083   4.102   3.564   5.875 -3.5849  1.4979  2.5297
 1484SOL     OW16084   2.125   3.027   7.731 -0.0518  0.8544  0.6964
 1484SOL    HW116085   2.142   3.025   7.825 -0.6782  3.3297  0.8752
 1484SOL    HW216086   2.052   2.966   7.723  3.0932 -2.5769 -1.2260
 1485SOL     OW16087   0.136   3.982   3.515 -0.1244  0.1525 -0.6060
 1485SOL    HW116088   0.115   4.062   3.466  4.2813  1.8087  0.1584
 1485SOL    HW216089   0.052   3.937   3.506  0.2023 -0.3461 -1.1857
 1486SOL     OW16090   3.625   2.785  16.410 -0.4944 -0.6267  0.2174
 1486SOL    HW116091   3.646   2.839  16.487 -0.2812  1.6787 -1.4847
 1486SOL    HW216092   3.604   2.861  16.356  0.3386 -1.5771 -1.4395
 1487SOL     OW16093   1.830   4.090  16.263  0.0366 -0.0952  0.8801
 1487SOL    HW116094   1.819   4.011  16.316 -0.6377 -0.6832 -0.1346
 1487SOL    HW216095   1.742   4.127  16.263  0.6234  1.2625 -1.9008
 1488SOL     OW16096   3.762   0.157   6.167 -0.1363 -0.5035 -0.1315
 1488SOL    HW116097   3.721   0.088   6.115  0.0839  0.2388 -1.2887
 1488SOL    HW216098   3.825   0.179   6.099 -0.4262 -0.0991 -0.2724
 1489SOL     OW16099   1.316   4.609   7.258 -0.3054 -0.2935  0.1654
 1489SOL    HW116100   1.272   4.692   7.277  3.7333  1.8127  0.3317
 1489SOL    HW216101   1.362   4.639   7.180 -1.5425  0.3959 -0.2986
 1490SOL     OW16102   0.608   4.181  17.757  0.5046 -0.6586 -0.2731
 1490SOL    HW116103   0.654   4.223  17.684  2.0579 -0.7638  0.6456
 1490SOL    HW216104   0.523   4.176  17.715  0.7439  1.6373 -1.0608
 1491SOL     OW16105   2.142   0.285   1.567  0.0630  0.0184 -0.4623
 1491SOL    HW116106   2.121   0.274   1.474  1.1130 -0.7430 -0.6032
 1491SOL    HW216107   2.205   0.217   1.590 -1.6917 -1.1146  0.9970
 1492SOL     OW16108   3.264   1.071   6.641  0.1543  0.1954 -0.0092
 1492SOL    HW116109   3.266   1.066   6.545 -0.4636  3.5315 -0.1728
 1492SOL    HW216110   3.270   1.164   6.661 -1.1813  0.3420 -0.3593
 1493SOL     OW16111   1.639   2.012  11.909 -0.0163  0.4529  0.0344
 1493SOL    HW116112   1.680   1.986  11.992 -0.3180  1.1161  0.3877
 1493SOL    HW216113   1.632   1.926  11.868  0.3218  0.3556  0.1788
 1494SOL     OW16114   0.221   2.310   4.789  0.5835  0.0778  0.4186
 1494SOL    HW116115   0.279   2.249   4.834 -1.6564 -1.4161  1.2877
 1494SOL    HW216116   0.143   2.257   4.772  0.6646  0.0490  0.1286
 1495SOL     OW16117   2.298   3.455  11.839  0.0062 -0.5001 -0.3817
 1495SOL    HW116118   2.252   3.526  11.794  0.7694  0.5844  0.5443
 1495SOL    HW216119   2.391   3.469  11.819  0.3575 -0.4266  1.3238
 1496SOL     OW16120   2.458   3.154  12.924 -0.4324  0.1381  0.2378
 1496SOL    HW116121   2.457   3.200  12.840  0.8659  0.4506  0.4009
 1496SOL    HW216122   2.455   3.233  12.978 -0.0350  1.7465 -2.0987
 1497SOL     OW16123   3.921   2.401   8.102  0.5035 -0.1859 -0.0880
 1497SOL    HW116124   3.843   2.456   8.092  0.5217  0.2031  1.8164
 1497SOL    HW216125   3.965   2.406   8.017 -0.5005  0.2510 -0.5843
 1498SOL     OW16126   2.770   0.179  10.411  0.4497 -0.6971 -0.2646
 1498SOL    HW116127   2.722   0.096  10.407  3.3236 -2.3650  0.1521
 1498SOL    HW216128   2.810   0.176  10.324  0.9100  0.4204 -0.0838
 1499SOL     OW16129   3.654   0.604   7.084  0.1120 -0.5859  0.0619
 1499SOL    HW116130   3.690   0.603   7.173  0.0864  0.5587  0.0951
 1499SOL    HW216131   3.621   0.516   7.071  2.1871 -1.5084  0.9593
 1500SOL     OW16132   0.784   0.318   3.024 -0.3716 -0.0321  0.6758
 1500SOL    HW116133   0.786   0.225   3.001  1.7062  0.2652 -0.4289
 1500SOL    HW216134   0.879   0.327   3.013 -0.4498 -2.0441 -1.8262
 1501SOL     OW16135   0.929   4.110   3.577 -0.3044 -0.3951 -0.2833
 1501SOL    HW116136   0.864   4.049   3.614  2.2001 -0.8981  3.2491
 1501SOL    HW216137   0.901   4.103   3.485  1.0819 -0.4099 -0.6998
 1502SOL     OW16138   4.180   4.414  12.986  0.7058 -0.0529  0.3137
 1502SOL    HW116139   4.175   4.368  12.902  1.2810 -1.5576  1.1048
 1502SOL    HW216140   4.232   4.349  13.033  1.2182 -0.8618 -1.3712
 1503SOL     OW16141   2.084   2.047   5.307 -0.2709 -0.5187  0.2307
 1503SOL    HW116142   2.174   2.077   5.315 -0.2234 -0.4981 -0.3782
 1503SOL    HW216143   2.070   2.064   5.214  3.4877  1.6978  0.0890
 1504SOL     OW16144   2.045   3.782   3.332  0.2260  0.2866  1.3371
 1504SOL    HW116145   2.010   3.863   3.296  0.3197  0.1833  1.0086
 1504SOL    HW216146   2.049   3.797   3.426  0.5693  0.5240  1.2829
 1505SOL     OW16147   1.507   2.252   3.984 -0.1111  0.3376 -0.3309
 1505SOL    HW116148   1.421   2.276   4.019  0.3329  1.4099  0.0369
 1505SOL    HW216149   1.544   2.340   3.982 -1.1826  0.8300  2.1489
 1506SOL     OW16150   2.714   2.007   1.808  0.1479 -0.7781  0.4419
 1506SOL    HW116151   2.776   1.935   1.796 -1.8438 -2.3910 -0.1461
 1506SOL    HW216152   2.630   1.973   1.778  0.4778  0.0049 -1.3235
 1507SOL     OW16153   0.464   0.967   8.523 -0.9214 -0.2751 -0.5119
 1507SOL    HW116154   0.456   1.008   8.609  0.3975  0.8059 -0.8986
 1507SOL    HW216155   0.543   1.004   8.483 -0.1123  0.0397  1.3504
 1508SOL     OW16156   4.655   0.662   6.739 -0.3937  0.3304 -0.2944
 1508SOL    HW116157   4.687   0.736   6.790 -0.7557  0.9089 -0.9110
 1508SOL    HW216158   4.638   0.600   6.810  0.3966  1.3283  0.7712
 1509SOL     OW16159   0.999   2.851  14.951  0.7687  0.1140 -0.7262
 1509SOL    HW116160   1.032   2.837  14.863  0.1129 -0.9003 -0.8108
 1509SOL    HW216161   0.959   2.767  14.973 -1.3656  1.6086  1.0827
 1510SOL     OW16162   4.274   1.378   9.539  0.3663  0.5670  0.4049
 1510SOL    HW116163   4.232   1.353   9.621  0.8219 -3.1535 -0.4992
 1510SOL    HW216164   4.367   1.382   9.562  1.0682  0.2368 -2.3152
 1511SOL     OW16165   1.195   1.112   3.931  0.1507  0.1377 -0.8904
 1511SOL    HW116166   1.147   1.073   3.859  0.3948  0.2932 -1.1354
 1511SOL    HW216167   1.175   1.039   3.990 -0.7075  1.1914  0.1333
 1512SOL     OW16168   3.483   2.693   4.267  0.7771 -0.3716  0.0196
 1512SOL    HW116169   3.541   2.617   4.266  0.6504 -0.4999  1.3340
 1512SOL    HW216170   3.498   2.716   4.359 -2.6536  0.1782  0.4507
 1513SOL     OW16171   0.675   2.474   7.059 -0.5327  0.0252 -0.1322
 1513SOL    HW116172   0.623   2.554   7.067 -1.7498 -0.6617 -1.3097
 1513SOL    HW216173   0.612   2.422   7.009 -0.3469 -1.2493  0.9493
 1514SOL     OW16174   4.726   4.021   5.093  0.3459 -0.2744  0.7924
 1514SOL    HW116175   0.066   4.047   5.138 -0.0068  0.7076  0.8719
 1514SOL    HW216176   4.658   4.066   5.142  0.3749  2.5676 -1.7501
 1515SOL     OW16177   3.314   0.524   7.561 -0.2946 -0.1944  0.2780
 1515SOL    HW116178   3.320   0.491   7.471  0.5099  0.8748 -0.0567
 1515SOL    HW216179   3.296   0.442   7.608 -1.6645 -0.1519 -0.1819
 1516SOL     OW16180   1.842   0.327   7.150  0.0895  0.1704 -0.3882
 1516SOL    HW116181   1.768   0.267   7.165  0.1684 -0.1820 -1.3874
 1516SOL    HW216182   1.845   0.331   7.054 -2.3904  1.3984 -0.4096
 1517SOL     OW16183   4.252   3.498  12.874  0.1039  0.0622 -0.0769
 1517SOL    HW116184   4.228   3.529  12.787 -0.9834  0.5920  0.4030
 1517SOL    HW216185   4.239   3.404  12.862 -1.6196  0.4619 -1.4324
 1518SOL     OW16186   0.020   3.588   2.313  0.4012  0.0975  0.2689
 1518SOL    HW116187   0.090   3.626   2.258 -0.6447  0.1964 -0.9908
 1518SOL    HW216188   4.724   3.667   2.352 -0.8485 -0.6621  0.6290
 1519SOL     OW16189   4.367   4.099   2.043  0.0043  0.0035  0.1679
 1519SOL    HW116190   4.288   4.139   2.079 -0.2517  0.3450 -0.7593
 1519SOL    HW216191   4.400   4.178   2.000 -0.8891 -0.2189 -0.9314
 1520SOL     OW16192   3.466   0.871   4.890 -0.3285  0.2178 -0.0870
 1520SOL    HW116193   3.478   0.806   4.959  1.9930  0.7905  0.0351
 1520SOL    HW216194   3.472   0.951   4.943 -1.9029  0.6293 -0.5117
 1521SOL     OW16195   1.944   1.442   8.743 -0.7221 -0.4864  0.2776
 1521SOL    HW116196   2.027   1.406   8.712 -0.8470 -0.6362  0.1188
 1521SOL    HW216197   1.888   1.435   8.665 -1.2633  1.1811  0.5333
 1522SOL     OW16198   1.639   2.968  12.248  0.5248  0.2070 -0.1558
 1522SOL    HW116199   1.553   2.990  12.213 -0.4548  0.4048  2.3606
 1522SOL    HW216200   1.687   2.927  12.176 -1.1171 -1.4892 -0.2902
 1523SOL     OW16201   2.606   0.759  12.284  0.0139 -0.4287 -0.2081
 1523SOL    HW116202   2.585   0.819  12.355 -1.5475 -0.8811 -0.3035
 1523SOL    HW216203   2.702   0.753  12.288  0.2712  3.4699 -0.7089
 1524SOL     OW16204   1.564   3.164  13.771 -0.8100  0.0021  0.0293
 1524SOL    HW116205   1.584   3.070  13.777 -2.9762 -0.2859  2.5508
 1524SOL    HW216206   1.507   3.169  13.847 -0.3813  0.1742  0.3347
 1525SOL     OW16207   2.791   0.432   6.867 -0.4984 -0.0712  0.1811
 1525SOL    HW116208   2.769   0.525   6.875  0.1570  0.1007 -0.0684
 1525SOL    HW216209   2.749   0.416   6.782  0.3553  2.4692 -0.7267
 1526SOL     OW16210   3.506   3.105   5.332 -0.2934  0.9409  0.4394
 1526SOL    HW116211   3.414   3.081   5.319  0.1850  0.0999 -1.3437
 1526SOL    HW216212   3.500   3.109   5.428  0.9523 -0.0696  0.5704
 1527SOL     OW16213   0.743   0.946   5.282  0.2364 -0.0906 -0.3190
 1527SOL    HW116214   0.680   1.011   5.251  2.0991  2.9281  2.2419
 1527SOL    HW216215   0.720   0.864   5.240  0.6229 -0.2252 -0.2685
 1528SOL     OW16216   1.284   2.093   4.163  0.1551 -0.2283 -0.5516
 1528SOL    HW116217   1.290   2.184   4.134 -0.7369 -0.0225 -0.0863
 1528SOL    HW216218   1.378   2.078   4.174 -0.1022 -1.1823  0.3945
 1529SOL     OW16219   4.475   1.342  15.625  0.3939  0.1961  0.1710
 1529SOL    HW116220   4.417   1.400  15.576  1.0451 -0.0014 -0.8411
 1529SOL    HW216221   4.431   1.263  15.656  0.1989  0.2770  0.0948
 1530SOL     OW16222   2.165   1.341   3.164  0.6513  0.0029  0.3837
 1530SOL    HW116223   2.093   1.401   3.143  1.8649  0.5476 -2.2191
 1530SOL    HW216224   2.195   1.319   3.076  1.3476  0.1992  0.5758
 1531SOL     OW16225   1.511   0.905  12.192  0.0683 -0.6897  0.2776
 1531SOL    HW116226   1.548   0.829  12.237  0.2995 -0.6198  0.2030
 1531SOL    HW216227   1.521   0.969  12.262  2.9272  1.1517 -1.8252
 1532SOL     OW16228   2.838   0.927   4.276  0.1903 -0.6386 -0.0919
 1532SOL    HW116229   2.786   0.895   4.202  0.7609 -0.7773 -0.4326
 1532SOL    HW216230   2.881   0.851   4.314  0.2874 -0.2402  0.6027
 1533SOL     OW16231   3.004   0.539   4.529  0.0285 -0.0515 -0.4678
 1533SOL    HW116232   3.069   0.552   4.598 -0.7387 -0.0139  0.2393
 1533SOL    HW216233   3.003   0.443   4.530 -2.2885 -0.0380 -1.2904
 1534SOL     OW16234   4.119   2.849   5.347  0.3855  0.2706  0.0486
 1534SOL    HW116235   4.148   2.866   5.258  2.1015  2.7538  1.0664
 1534SOL    HW216236   4.201   2.825   5.390  0.1769 -0.0563  0.2651
 1535SOL     OW16237   3.124   4.427   6.724 -0.1259 -0.5232 -0.3061
 1535SOL    HW116238   3.077   4.346   6.743  2.3557 -2.1042 -0.9090
 1535SOL    HW216239   3.057   4.472   6.672  1.3621  1.9282 -0.0965
 1536SOL     OW16240   3.171   0.913   0.914  0.3364  0.1876 -0.8872
 1536SOL    HW116241   3.121   0.838   0.882  0.4258  0.3399 -1.3789
 1536SOL    HW216242   3.113   0.985   0.889 -0.7441 -0.0111  0.9721
 1537SOL     OW16243   2.964   3.138   5.510 -0.5441 -0.6068  0.0519
 1537SOL    HW116244   2.963   3.054   5.465  1.6555 -1.1460  0.9650
 1537SOL    HW216245   3.058   3.157   5.511 -0.5880 -0.3890  0.4171
 1538SOL     OW16246   1.457   3.010  10.967  0.2853  0.1984  0.5631
 1538SOL    HW116247   1.462   2.973  10.879 -1.4563 -0.6049  0.7906
 1538SOL    HW216248   1.541   3.054  10.979  0.5899 -0.2253 -0.0322
 1539SOL     OW16249   0.275   1.425   3.370  0.3414 -0.8138  0.1739
 1539SOL    HW116250   0.337   1.453   3.302  0.2233 -0.4433  0.2214
 1539SOL    HW216251   0.315   1.453   3.452  1.9381 -1.2755 -0.4422
 1540SOL     OW16252   1.817   1.364   8.477  0.5232 -0.6948  0.2387
 1540SOL    HW116253   1.791   1.275   8.453  0.7047 -0.6083 -0.2780
 1540SOL    HW216254   1.734   1.410   8.485  2.1464  2.0872  0.8912
 1541SOL     OW16255   2.666   0.627   8.008  0.1489 -0.4936  0.0205
 1541SOL    HW116256   2.590   0.646   8.062 -1.0567  0.9836 -2.1831
 1541SOL    HW216257   2.672   0.706   7.954 -0.3428 -0.2253  0.3595
 1542SOL     OW16258   1.901   0.545   2.659 -0.5075 -0.0875  0.1931
 1542SOL    HW116259   1.842   0.581   2.726  0.9336 -0.2266  1.5605
 1542SOL    HW216260   1.872   0.457   2.636  0.5213  0.2069 -2.2454
 1543SOL     OW16261   1.508   1.377  13.386  0.2328 -0.1008  0.0131
 1543SOL    HW116262   1.576   1.408  13.326  1.5878  2.2832  2.8443
 1543SOL    HW216263   1.553   1.319  13.447 -1.3347  1.9932  3.1728
 1544SOL     OW16264   3.215   4.043   6.575 -0.1392  0.1619  0.0579
 1544SOL    HW116265   3.304   4.076   6.568 -0.6388  1.5470  0.2521
 1544SOL    HW216266   3.184   4.036   6.485 -0.8803  0.3627  0.2952
 1545SOL     OW16267   4.543   2.160   8.649  0.0879 -0.1331  0.1838
 1545SOL    HW116268   4.569   2.074   8.680 -1.0725 -0.7790 -0.6439
 1545SOL    HW216269   4.575   2.160   8.559 -0.5219  1.8530 -0.0516
 1546SOL     OW16270   4.024   2.461   9.132  0.1944 -0.1415  0.4743
 1546SOL    HW116271   4.030   2.437   9.040 -0.6988  0.4659  0.2494
 1546SOL    HW216272   3.958   2.530   9.128 -0.5194 -0.8613 -0.1528
 1547SOL     OW16273   1.607   4.075  13.267  0.0002 -0.6762 -0.0307
 1547SOL    HW116274   1.577   4.027  13.345  0.5030 -0.4337  0.3157
 1547SOL    HW216275   1.536   4.138  13.256  1.5472  0.9415 -0.6151
 1548SOL     OW16276   4.286   2.082   0.860  0.1924  0.6919 -0.0759
 1548SOL    HW116277   4.236   2.131   0.794  1.7861  2.6668  0.1856
 1548SOL    HW216278   4.337   2.022   0.804 -1.0677 -0.0030 -0.4832
 1549SOL     OW16279   3.805   3.184  16.441  0.4866 -0.1126 -0.3109
 1549SOL    HW116280   3.755   3.243  16.498  1.0419  0.3198 -0.2763
 1549SOL    HW216281   3.748   3.170  16.365  2.2863 -2.3546 -1.2424
 1550SOL     OW16282   1.919   2.379   7.068 -0.4732 -0.7315  0.0813
 1550SOL    HW116283   1.912   2.301   7.013  0.6896 -1.9634  1.6709
 1550SOL    HW216284   1.831   2.414   7.082 -0.1580  0.4932 -0.9879
 1551SOL     OW16285   3.554   1.193   6.741 -0.5637 -0.5039 -0.0167
 1551SOL    HW116286   3.471   1.166   6.701 -0.7143  0.4108 -0.3164
 1551SOL    HW216287   3.618   1.136   6.698 -0.4998  0.1852 -0.8314
 1552SOL     OW16288   1.469   2.664   3.075 -0.3238 -0.0288  0.4682
 1552SOL    HW116289   1.387   2.626   3.106 -1.5606 -0.0181 -2.8307
 1552SOL    HW216290   1.510   2.593   3.026  1.5076  1.2264  0.1984
 1553SOL     OW16291   0.407   1.506   8.337 -0.4208  0.5409  0.2093
 1553SOL    HW116292   0.474   1.443   8.311  0.0542  0.3009  2.0195
 1553SOL    HW216293   0.370   1.531   8.252  0.5085  1.2309  0.0014
 1554SOL     OW16294   4.468   3.795   1.471  0.1913 -0.5888 -0.3399
 1554SOL    HW116295   4.501   3.798   1.560 -0.8931  0.0478  0.0486
 1554SOL    HW216296   4.526   3.855   1.424  2.2439  0.3624  3.3864
 1555SOL     OW16297   2.154   0.935   3.157  0.2348  0.4872 -0.2759
 1555SOL    HW116298   2.195   0.860   3.201  0.3222 -0.1047 -1.3789
 1555SOL    HW216299   2.164   0.999   3.227  0.7359 -0.7604  0.7957
 1556SOL     OW16300   3.689   1.083   4.277  0.0340  0.3502 -0.0889
 1556SOL    HW116301   3.720   0.998   4.246 -2.7735 -0.6477 -0.1478
 1556SOL    HW216302   3.595   1.067   4.273 -0.4076  2.1685  2.7334
 1557SOL     OW16303   1.402   4.380   2.461 -0.4952 -0.1541  0.3633
 1557SOL    HW116304   1.447   4.326   2.396 -0.2470 -0.4051  0.7427
 1557SOL    HW216305   1.313   4.372   2.427 -0.0127 -0.8419 -0.7420
 1558SOL     OW16306   1.747   0.457   2.194 -0.1231 -0.5523  0.0651
 1558SOL    HW116307   1.824   0.445   2.138  0.6465  0.5601  0.8713
 1558SOL    HW216308   1.682   0.480   2.128 -1.0512  3.0824  2.1842
 1559SOL     OW16309   2.918   3.748   5.801 -0.2606 -0.1549 -0.1451
 1559SOL    HW116310   2.977   3.672   5.798 -2.4327 -1.9190  1.2663
 1559SOL    HW216311   2.883   3.736   5.712 -0.5516 -2.5115  0.2650
 1560SOL     OW16312   4.587   3.351   4.256  0.1256  0.3652 -0.2419
 1560SOL    HW116313   4.611   3.259   4.250  0.0044  0.2188  1.4726
 1560SOL    HW216314   4.542   3.372   4.174 -0.1450 -3.3819 -1.0288
 1561SOL     OW16315   3.792   4.378   2.920  0.0806  0.4927 -0.5803
 1561SOL    HW116316   3.847   4.415   2.989  1.1039 -2.3167  0.0922
 1561SOL    HW216317   3.856   4.342   2.859 -0.7741  0.5293 -1.4986
 1562SOL     OW16318   4.210   1.000   5.744 -0.3104 -0.0426  0.0577
 1562SOL    HW116319   4.271   1.017   5.815  0.3283 -0.9013 -0.2879
 1562SOL    HW216320   4.160   0.931   5.786  0.5517 -0.0543  1.0619
 1563SOL     OW16321   4.276   1.638  11.549  0.0896  0.0681  0.2674
 1563SOL    HW116322   4.289   1.666  11.640  0.1174  1.4494 -0.1567
 1563SOL    HW216323   4.329   1.699  11.498  1.3665 -0.5956  0.8117
 1564SOL     OW16324   2.695   1.780   2.879  0.0581 -0.0229 -0.0980
 1564SOL    HW116325   2.628   1.845   2.900  0.7441  0.1189  1.6428
 1564SOL    HW216326   2.775   1.826   2.906 -0.5371  0.5877  0.6303
 1565SOL     OW16327   3.345   4.329  12.068 -0.5467 -0.5460  0.0930
 1565SOL    HW116328   3.311   4.416  12.087 -2.7414 -1.5883  0.9184
 1565SOL    HW216329   3.367   4.342  11.976 -4.5326  1.3698 -0.5762
 1566SOL     OW16330   3.565   1.994  13.791  0.5216 -0.6996  0.1115
 1566SOL    HW116331   3.514   1.960  13.717  0.0037 -1.2324  0.7051
 1566SOL    HW216332   3.541   1.929  13.857  0.5393 -0.1114  0.6950
 1567SOL     OW16333   1.156   1.885   9.225  0.2894 -0.7383 -0.3963
 1567SOL    HW116334   1.095   1.832   9.174 -1.9405  3.0572 -1.6890
 1567SOL    HW216335   1.201   1.821   9.280 -2.3978  0.4151  3.1555
 1568SOL     OW16336   1.447   3.751   3.530 -0.5175  0.0350 -0.3910
 1568SOL    HW116337   1.382   3.749   3.600  0.7840 -1.4942  0.7674
 1568SOL    HW216338   1.403   3.736   3.447  1.4368 -2.0462 -1.0490
 1569SOL     OW16339   4.673   4.628   6.552  0.0609 -0.7152 -0.3730
 1569SOL    HW116340   4.638   4.540   6.545  2.1028 -1.5920  0.3766
 1569SOL    HW216341   4.620   4.666   6.621  1.0448  1.4127 -0.7716
 1570SOL     OW16342   2.318   0.701   7.819  0.3050 -0.4535  0.1521
 1570SOL    HW116343   2.240   0.653   7.848  1.4334 -1.7745  0.9772
 1570SOL    HW216344   2.378   0.627   7.812 -0.0811 -0.6971 -0.6028
 1571SOL     OW16345   4.294   0.794   6.849  0.0432  0.0813  0.6444
 1571SOL    HW116346   4.230   0.821   6.915  1.7186  0.3624  2.1586
 1571SOL    HW216347   4.376   0.804   6.898  0.2284  1.3351  0.0691
 1572SOL     OW16348   2.334   0.867   2.714 -0.2005 -0.1767  0.2106
 1572SOL    HW116349   2.309   0.908   2.631  2.1814 -1.8518 -1.3239
 1572SOL    HW216350   2.304   0.780   2.688  0.2726 -0.5278  0.8519
 1573SOL     OW16351   0.349   0.661  17.642  0.3921  0.4059  0.1089
 1573SOL    HW116352   0.272   0.614  17.610  0.2225 -0.0260  1.1631
 1573SOL    HW216353   0.402   0.584  17.659  0.0215  0.3076  0.8366
 1574SOL     OW16354   1.665   2.470   2.129  0.3806  0.3812 -0.1341
 1574SOL    HW116355   1.614   2.508   2.200  1.1179  1.0369  0.0521
 1574SOL    HW216356   1.705   2.388   2.160 -0.0309  1.1455  2.4253
 1575SOL     OW16357   1.777   3.134   2.141  0.4338  0.3912 -0.3950
 1575SOL    HW116358   1.808   3.084   2.216  2.5432 -1.1202 -2.2792
 1575SOL    HW216359   1.691   3.154   2.179  1.8676  1.9278  2.0266
 1576SOL     OW16360   0.038   2.560  17.754  1.1111 -0.1294  0.2681
 1576SOL    HW116361   0.037   2.573  17.659  2.2859  0.5003  0.3350
 1576SOL    HW216362   0.122   2.604   0.008  0.5041  1.3863 -0.7723
 1577SOL     OW16363   1.982   1.563   3.165 -0.0414  0.3630  0.0773
 1577SOL    HW116364   1.896   1.604   3.171 -0.8423 -1.0911 -1.2755
 1577SOL    HW216365   2.024   1.614   3.234  0.9415 -2.7045  1.7208
 1578SOL     OW16366   3.821   1.924   2.857  0.4080  0.2504  0.1828
 1578SOL    HW116367   3.766   1.855   2.819 -1.0594  0.9868  0.9776
 1578SOL    HW216368   3.754   1.956   2.917  0.8209  1.2845  0.0916
 1579SOL     OW16369   1.414   4.258   5.703 -0.2248  0.0149  0.0988
 1579SOL    HW116370   1.430   4.192   5.770  1.0565 -1.0957 -1.3027
 1579SOL    HW216371   1.504   4.289   5.691 -0.1402  0.1425  1.0245
 1580SOL     OW16372   2.572   3.715  14.897  0.3820 -0.2445 -0.4284
 1580SOL    HW116373   2.509   3.739  14.829  0.1459  0.1248 -0.0767
 1580SOL    HW216374   2.616   3.792  14.933  0.7541 -1.3702  1.4831
 1581SOL     OW16375   4.034   4.649   6.649  0.2260  0.3829 -0.4117
 1581SOL    HW116376   4.112   4.616   6.692  0.4575  0.4020 -0.8193
 1581SOL    HW216377   4.032   4.568   6.597 -2.3074 -0.3262  0.7582
 1582SOL     OW16378   1.131   3.670   4.506 -0.1717 -0.1416 -0.0331
 1582SOL    HW116379   1.216   3.664   4.549  0.1886 -1.1071 -0.8840
 1582SOL    HW216380   1.060   3.644   4.564  0.6218  0.0522  1.0194
 1583SOL     OW16381   1.336   2.193   9.689 -0.0625  0.0065 -0.3450
 1583SOL    HW116382   1.274   2.257   9.725 -0.6949 -0.9899  0.3290
 1583SOL    HW216383   1.361   2.145   9.768  0.9207 -0.5680 -1.0052
 1584SOL     OW16384   2.967   4.568   7.595  0.3833  0.5850  0.5079
 1584SOL    HW116385   2.912   4.644   7.612  2.8045  2.1220  1.5367
 1584SOL    HW216386   2.948   4.524   7.679 -0.1462  0.6876  0.4413
 1585SOL     OW16387   4.443   4.706  11.188  0.4463 -0.1786  0.5595
 1585SOL    HW116388   4.518   4.647  11.183 -0.8774 -1.8397  0.4601
 1585SOL    HW216389   4.467   0.005  11.104 -2.3522  1.7626  0.6480
 1586SOL     OW16390   1.390   3.555   9.268  0.0422  0.7901  0.1326
 1586SOL    HW116391   1.339   3.520   9.341  0.1113 -1.9607 -1.1244
 1586SOL    HW216392   1.399   3.648   9.286 -1.1729  0.9935 -0.3309
 1587SOL     OW16393   4.009   4.155   2.436 -0.4886 -0.3660  0.0470
 1587SOL    HW116394   4.090   4.104   2.432  1.1712  2.4771 -2.2815
 1587SOL    HW216395   4.049   4.211   2.502  1.4383 -0.4626 -1.0192
 1588SOL     OW16396   0.701   4.384   1.656 -0.4671  0.3820  0.0677
 1588SOL    HW116397   0.738   4.472   1.670  0.6638  0.0013 -0.5231
 1588SOL    HW216398   0.769   4.336   1.703 -1.6716  0.2011  1.6330
 1589SOL     OW16399   1.676   2.798   4.891  0.1717 -0.6995 -0.1692
 1589SOL    HW116400   1.700   2.712   4.855  1.9022 -0.0567 -0.5432
 1589SOL    HW216401   1.583   2.802   4.870 -0.1755  1.4538  1.8323
 1590SOL     OW16402   1.531   2.119   3.712 -0.9070  0.7914 -0.1602
 1590SOL    HW116403   1.490   2.190   3.662 -1.6038 -1.0776 -2.2820
 1590SOL    HW216404   1.530   2.156   3.800 -0.4953  1.4935 -0.4478
 1591SOL     OW16405   1.043   0.066  16.710 -0.0543  0.0170  0.0284
 1591SOL    HW116406   0.967   0.110  16.675 -1.0094 -2.1102 -0.5991
 1591SOL    HW216407   1.059   0.126  16.783  0.4797 -1.9553  1.5480
 1592SOL     OW16408   0.647   4.537   2.570  0.2416 -0.0456  0.6074
 1592SOL    HW116409   0.625   4.482   2.645  0.1210 -0.7790  0.0318
 1592SOL    HW216410   0.694   4.610   2.610  0.0798  1.2123 -1.5314
 1593SOL     OW16411   2.193   4.424   0.896 -0.2575 -0.3595 -0.2607
 1593SOL    HW116412   2.231   4.345   0.856 -0.5799  0.6938 -2.6761
 1593SOL    HW216413   2.236   4.490   0.842  0.2903 -0.0806  0.5306
 1594SOL     OW16414   4.021   4.478  16.944 -0.1002  0.1794 -0.0524
 1594SOL    HW116415   4.116   4.471  16.936 -0.0749 -1.1759  1.4377
 1594SOL    HW216416   4.021   4.573  16.957  1.2139  0.3418 -1.2753
 1595SOL     OW16417   3.226   1.672   4.435 -0.1041  0.2852 -0.1905
 1595SOL    HW116418   3.285   1.598   4.447 -2.3615 -1.3664  0.6071
 1595SOL    HW216419   3.190   1.652   4.348 -1.1094  1.9582 -0.1779
 1596SOL     OW16420   3.599   1.230   3.266 -0.0175 -0.0691  0.2082
 1596SOL    HW116421   3.582   1.261   3.177 -0.5673 -0.6396  0.1161
 1596SOL    HW216422   3.678   1.280   3.288 -0.4116  1.1905 -1.2398
 1597SOL     OW16423   0.753   4.282   3.140  0.0346 -1.0190  0.1764
 1597SOL    HW116424   0.741   4.377   3.133 -0.6065 -1.2080 -1.3057
 1597SOL    HW216425   0.830   4.261   3.088 -0.9926  1.7110 -2.4859
 1598SOL     OW16426   1.652   4.040   5.222  0.0088 -0.3322  0.4932
 1598SOL    HW116427   1.673   4.060   5.131 -2.6414 -1.2505 -0.3217
 1598SOL    HW216428   1.559   4.043   5.198  0.0820 -1.1019  0.1268
 1599SOL     OW16429   2.648   1.842  15.224 -0.3194  0.1563  0.1448
 1599SOL    HW116430   2.735   1.804  15.237 -1.8135 -2.6042  2.2147
 1599SOL    HW216431   2.612   1.846  15.312 -2.2718  0.3783 -0.6537
 1600SOL     OW16432   1.161   4.496  14.545  0.2096  0.1269 -0.2568
 1600SOL    HW116433   1.137   4.551  14.471 -2.2484 -0.0306  0.3850
 1600SOL    HW216434   1.082   4.498  14.599  0.9464 -0.0479  0.8273
 1601SOL     OW16435   1.855   3.007   4.885  0.3433  0.0732 -0.3448
 1601SOL    HW116436   1.821   2.917   4.883 -0.8751  0.4670  2.0276
 1601SOL    HW216437   1.888   3.025   4.797 -1.5624 -0.5992 -1.2007
 1602SOL     OW16438   0.361   1.584   5.250 -0.2668 -0.1271  0.4839
 1602SOL    HW116439   0.404   1.516   5.302  1.5278  0.5075 -0.1760
 1602SOL    HW216440   0.436   1.642   5.240  0.0667 -0.3929  1.3858
 1603SOL     OW16441   0.982   2.020   8.561  0.0558 -0.6423 -0.5117
 1603SOL    HW116442   0.957   1.956   8.494 -0.4743  0.9898 -1.8997
 1603SOL    HW216443   0.965   2.101   8.512  2.8895 -0.7273 -1.6705
 1604SOL     OW16444   3.562   4.307   9.533  0.2009  0.0375 -0.1341
 1604SOL    HW116445   3.560   4.401   9.553 -3.2594  0.1051 -0.7638
 1604SOL    HW216446   3.646   4.283   9.572  0.6362  1.5297 -0.1571
 1605SOL     OW16447   3.135   3.589   5.782 -0.0966 -0.0035 -0.0620
 1605SOL    HW116448   3.177   3.515   5.738  0.6354 -0.6545  1.7726
 1605SOL    HW216449   3.198   3.613   5.849  0.4192 -0.3690 -0.4204
 1606SOL     OW16450   3.265   0.831  14.509  0.0688  0.1138 -0.0010
 1606SOL    HW116451   3.254   0.763  14.576 -2.2902  2.9163  2.4522
 1606SOL    HW216452   3.242   0.910  14.558 -1.9260 -0.1013 -0.6053
 1607SOL     OW16453   4.658   1.529   2.349  0.1878 -0.4358 -0.1278
 1607SOL    HW116454   4.627   1.466   2.414  0.8123 -1.6421 -1.0231
 1607SOL    HW216455   4.686   1.607   2.398  2.7338 -1.2592 -0.2360
 1608SOL     OW16456   0.744   1.582   3.034 -0.2068  0.1128 -0.0852
 1608SOL    HW116457   0.814   1.610   3.092 -1.8737  0.1373  1.8923
 1608SOL    HW216458   0.791   1.593   2.951 -1.9589  2.4511 -0.7740
 1609SOL     OW16459   0.429   2.751   1.589  0.1252 -0.7133 -0.7029
 1609SOL    HW116460   0.495   2.819   1.605 -0.4592  0.0869 -1.6545
 1609SOL    HW216461   0.379   2.796   1.521  1.6666  0.4830 -1.0464
 1610SOL     OW16462   3.180   1.219   4.717 -0.5948 -0.1051  0.0827
 1610SOL    HW116463   3.226   1.187   4.795 -0.1056 -1.5836 -0.8111
 1610SOL    HW216464   3.237   1.172   4.655  0.1292  2.7903 -1.4668
 1611SOL     OW16465   0.993   4.735  11.909 -0.2033  0.7044  0.1459
 1611SOL    HW116466   0.998   0.089  11.925 -2.6126  0.6847  1.0530
 1611SOL    HW216467   0.903   4.731  11.876  0.0034 -2.0605 -0.0823
 1612SOL     OW16468   3.534   2.560   8.533  0.0926 -0.2333  0.0785
 1612SOL    HW116469   3.629   2.549   8.537  0.0003 -1.2964 -0.6676
 1612SOL    HW216470   3.530   2.648   8.493 -0.3040  0.5534  1.8642
 1613SOL     OW16471   3.191   2.873  10.656 -1.1685 -0.2257  0.4183
 1613SOL    HW116472   3.203   2.836  10.743 -0.1040  2.7439  1.5307
 1613SOL    HW216473   3.205   2.963  10.685  1.5584 -0.4843 -0.0998
 1614SOL     OW16474   2.547   1.805   7.740  0.0916  0.2185  0.1463
 1614SOL    HW116475   2.639   1.832   7.731  1.0027 -2.2819  1.9509
 1614SOL    HW216476   2.542   1.768   7.828  3.9303 -0.6589  0.0066
 1615SOL     OW16477   4.606   4.622   9.529  0.0157 -0.3143  0.3909
 1615SOL    HW116478   4.550   4.568   9.584 -0.8086 -1.0437 -1.1379
 1615SOL    HW216479   4.621   4.694   9.589 -3.0612 -0.4919  1.3796
 1616SOL     OW16480   2.583   1.137   6.720 -0.2374  0.6106  0.0955
 1616SOL    HW116481   2.633   1.212   6.686  1.3348  0.5205  2.1904
 1616SOL    HW216482   2.511   1.174   6.770 -1.3897 -0.9022 -0.4732
 1617SOL     OW16483   4.509   3.296   7.203 -0.1146  0.1745 -0.5191
 1617SOL    HW116484   4.599   3.316   7.228 -0.2890  0.3219 -0.0049
 1617SOL    HW216485   4.476   3.385   7.220 -0.8182  0.0565 -1.2618
 1618SOL     OW16486   3.643   2.923  17.337  0.6012  0.5945  0.1504
 1618SOL    HW116487   3.702   2.903  17.410  1.3975 -2.8455 -1.4213
 1618SOL    HW216488   3.688   3.000  17.301  1.2999  1.0948  2.0550
 1619SOL     OW16489   4.422   4.558   2.635 -0.7025  0.0135  0.7820
 1619SOL    HW116490   4.394   4.467   2.626 -1.2143  0.0409  2.2023
 1619SOL    HW216491   4.509   4.551   2.594 -0.6092  2.5796  0.5312
 1620SOL     OW16492   4.284   2.140  12.263  0.0830  0.0663 -0.6724
 1620SOL    HW116493   4.239   2.216  12.227 -0.0900  0.1590 -0.2623
 1620SOL    HW216494   4.371   2.176  12.283  1.1010 -2.2891 -0.9044
 1621SOL     OW16495   1.895   4.691   6.044 -0.2542  0.2550  0.6398
 1621SOL    HW116496   1.886   0.035   6.088  2.0433 -0.4129  2.4152
 1621SOL    HW216497   1.855   4.710   5.959 -0.1527 -0.6312  0.3974
 1622SOL     OW16498   0.222   3.491  15.046 -0.1981  0.6303  0.8050
 1622SOL    HW116499   0.131   3.482  15.075 -0.0625  0.2283  1.1018
 1622SOL    HW216500   0.216   3.581  15.013  2.7940  0.8656  0.8803
 1623SOL     OW16501   0.807   2.136   8.238  0.2557  0.3124  0.1269
 1623SOL    HW116502   0.752   2.143   8.160 -3.6183 -1.7839  2.6333
 1623SOL    HW216503   0.748   2.081   8.289  1.6383 -0.3034  1.0464
 1624SOL     OW16504   2.099   1.253   9.566 -0.3830  0.2335 -0.6719
 1624SOL    HW116505   2.048   1.334   9.576 -0.4307  0.1048  0.1929
 1624SOL    HW216506   2.048   1.210   9.498 -0.1147 -2.0381  0.5656
 1625SOL     OW16507   1.279   3.019  14.706 -0.4141  0.3088 -0.1697
 1625SOL    HW116508   1.342   3.005  14.776  1.1437  1.0956 -1.4247
 1625SOL    HW216509   1.226   3.094  14.730 -0.7420 -0.0985  0.3858
 1626SOL     OW16510   2.850   2.863  10.572 -0.5085  0.2491  0.9578
 1626SOL    HW116511   2.900   2.904  10.501 -1.8076  0.4991  0.1942
 1626SOL    HW216512   2.900   2.782  10.579  0.6789  0.7013 -2.1511
 1627SOL     OW16513   1.321   2.846  15.224 -0.3743 -0.1299 -0.0239
 1627SOL    HW116514   1.329   2.822  15.316  1.6388 -2.6069 -0.8554
 1627SOL    HW216515   1.262   2.921  15.237  0.0038  0.6242 -2.6118
 1628SOL     OW16516   4.669   3.652  11.635  0.3062 -0.3088  0.2844
 1628SOL    HW116517   4.713   3.711  11.575  0.7288  0.1212  1.0220
 1628SOL    HW216518   4.718   3.574  11.608 -0.2518 -0.0323 -1.5224
 1629SOL     OW16519   0.828   2.693   8.358  0.1775 -0.4365 -0.5950
 1629SOL    HW116520   0.900   2.695   8.422 -0.0114 -0.0390 -0.3939
 1629SOL    HW216521   0.818   2.603   8.328 -2.3108 -0.2978 -0.1900
 1630SOL     OW16522   3.705   4.733   7.332 -0.1437  0.3805 -0.0394
 1630SOL    HW116523   3.739   4.688   7.255  2.8101  1.2532  0.7480
 1630SOL    HW216524   3.611   4.738   7.312 -0.1941 -1.1984 -0.2005
 1631SOL     OW16525   0.105   0.573   8.491 -0.0662 -0.7985 -0.7896
 1631SOL    HW116526   0.143   0.654   8.523  0.9145 -0.9378 -1.6357
 1631SOL    HW216527   0.090   0.521   8.570  1.1585 -1.1438 -0.7866
 1632SOL     OW16528   4.305   1.772   5.825 -0.0747  0.0871  1.2131
 1632SOL    HW116529   4.321   1.680   5.846  3.2743  0.3543 -0.2385
 1632SOL    HW216530   4.287   1.773   5.731 -0.3129 -0.0379  1.2560
 1633SOL     OW16531   3.582   4.237   4.608 -0.7896 -0.3351  0.3531
 1633SOL    HW116532   3.492   4.221   4.580 -0.8877 -1.1454  1.1296
 1633SOL    HW216533   3.619   4.149   4.594  0.2772  0.0342  0.8307
 1634SOL     OW16534   2.602   4.143   2.244 -0.2868 -0.0082  0.3829
 1634SOL    HW116535   2.686   4.168   2.206 -0.2964 -0.9815 -0.2752
 1634SOL    HW216536   2.633   4.136   2.334 -1.2261  1.2123  0.8106
 1635SOL     OW16537   1.880   2.717   5.327 -0.2014  0.0752 -0.1903
 1635SOL    HW116538   1.951   2.656   5.348 -1.1131 -0.4932  1.2047
 1635SOL    HW216539   1.803   2.674   5.363  0.0054  0.3186  0.5474
 1636SOL     OW16540   1.992   4.231   1.141 -0.5539 -0.1370  0.3870
 1636SOL    HW116541   1.963   4.293   1.074 -1.9437 -0.2571  0.8851
 1636SOL    HW216542   2.082   4.227   1.106 -1.9918 -2.6403 -3.0310
 1637SOL     OW16543   3.356   3.424  10.354  0.3490 -0.0993 -1.0108
 1637SOL    HW116544   3.365   3.470  10.271  0.4859  2.1089  0.2287
 1637SOL    HW216545   3.301   3.484  10.405  1.3339  0.1573 -0.2560
 1638SOL     OW16546   0.410   1.064   9.247  0.1058  0.0506  0.1251
 1638SOL    HW116547   0.505   1.068   9.261 -0.0175 -0.7551  1.2057
 1638SOL    HW216548   0.402   1.114   9.166  1.5014  1.0629  0.5993
 1639SOL     OW16549   2.659   4.223   7.721 -0.0770 -0.1336 -0.3440
 1639SOL    HW116550   2.752   4.238   7.734 -0.3647  0.8924  0.5819
 1639SOL    HW216551   2.661   4.128   7.738 -0.2690  0.1126  1.0695
 1640SOL     OW16552   0.035   3.907   2.502  0.0776 -0.1764 -0.4734
 1640SOL    HW116553   0.111   3.960   2.479 -1.2562  1.9628 -0.0064
 1640SOL    HW216554   0.085   3.827   2.516  0.9731  0.5396  0.4075
 1641SOL     OW16555   1.357   2.365   6.536  0.3479 -0.2584 -0.2081
 1641SOL    HW116556   1.453   2.359   6.535  0.4244  0.5751  2.8774
 1641SOL    HW216557   1.345   2.383   6.443 -0.2617  2.2110  0.3591
 1642SOL     OW16558   0.949   0.167  12.268  0.4150  0.0260  0.3661
 1642SOL    HW116559   0.938   0.078  12.235  3.2458 -0.7501  1.5731
 1642SOL    HW216560   0.902   0.225  12.208  1.0750 -0.7044 -0.8686
 1643SOL     OW16561   3.559   1.944   5.933  0.1379 -0.7784  0.3165
 1643SOL    HW116562   3.629   1.991   5.887  1.1807 -0.2602  2.4448
 1643SOL    HW216563   3.598   1.921   6.017  1.3944 -0.1242 -0.0885
 1644SOL     OW16564   3.195   4.257   1.285 -0.0336  0.0422  0.1229
 1644SOL    HW116565   3.224   4.205   1.210  0.0252 -0.7827  0.7100
 1644SOL    HW216566   3.214   4.198   1.358 -3.2696 -0.0312  0.8885
 1645SOL     OW16567   1.912   4.227   1.427 -0.3958  0.2043  0.3632
 1645SOL    HW116568   1.952   4.210   1.341  0.3409 -0.3987  0.8178
 1645SOL    HW216569   1.820   4.244   1.409 -1.0361 -1.6738  1.7633
 1646SOL     OW16570   2.377   1.107   3.531 -0.0313 -0.4553  0.4829
 1646SOL    HW116571   2.287   1.098   3.564 -0.8668  0.7541 -1.4655
 1646SOL    HW216572   2.372   1.188   3.481 -0.2753 -2.6387 -3.0055
 1647SOL     OW16573   2.073   4.234   4.125  0.0246 -0.2764  0.0711
 1647SOL    HW116574   2.071   4.266   4.035 -0.3581  0.5896  0.3958
 1647SOL    HW216575   2.161   4.265   4.147  0.3059  0.4472 -2.0990
 1648SOL     OW16576   2.412   2.964   5.994  0.4415 -0.6404 -0.2025
 1648SOL    HW116577   2.376   2.875   5.992 -0.4209 -0.2686 -2.2577
 1648SOL    HW216578   2.330   3.013   5.984  0.2735 -0.6104  1.3353
 1649SOL     OW16579   0.826   3.105  10.264 -0.0341 -0.0003 -0.0554
 1649SOL    HW116580   0.753   3.071  10.315 -1.0026  1.6524 -0.3397
 1649SOL    HW216581   0.887   3.142  10.328 -0.7668  1.7765 -0.3751
 1650SOL     OW16582   1.361   4.365   8.678 -0.1194 -0.2470 -0.2285
 1650SOL    HW116583   1.344   4.299   8.745  1.2486 -1.1311 -0.7404
 1650SOL    HW216584   1.273   4.401   8.671 -0.1161 -0.2870 -0.4895
 1651SOL     OW16585   2.725   3.423   2.638 -0.8664 -0.0288  0.4222
 1651SOL    HW116586   2.661   3.392   2.702  0.0689  1.4466  2.0657
 1651SOL    HW216587   2.772   3.484   2.694  0.8182 -1.3700  0.4778
 1652SOL     OW16588   2.640   2.142  17.662 -0.1209 -0.1650 -0.0317
 1652SOL    HW116589   2.683   2.059  17.680 -2.4905 -1.2361  0.6501
 1652SOL    HW216590   2.566   2.131  17.721 -0.6237  2.3467 -0.1646
 1653SOL     OW16591   3.563   0.336   8.367 -0.2101  0.2003  0.3576
 1653SOL    HW116592   3.585   0.271   8.300  0.1780  0.9225 -0.2079
 1653SOL    HW216593   3.484   0.373   8.326  1.1125  0.1442 -2.2216
 1654SOL     OW16594   0.586   2.359   5.004  0.0028 -0.2222  0.1262
 1654SOL    HW116595   0.578   2.427   4.937  0.0241  0.1908  0.5441
 1654SOL    HW216596   0.538   2.408   5.071 -1.5507 -0.7072 -0.6451
 1655SOL     OW16597   2.796   4.640   4.944  0.2409 -0.1864 -0.1325
 1655SOL    HW116598   2.732   4.654   4.874 -0.1514  3.5677  1.0084
 1655SOL    HW216599   2.747   4.600   5.016  1.7591 -0.2211  0.8988
 1656SOL     OW16600   2.906   1.457   6.146 -0.2148  0.4575 -0.0457
 1656SOL    HW116601   2.993   1.471   6.110 -0.0223  0.1742  0.2977
 1656SOL    HW216602   2.927   1.405   6.225  1.0855  2.1228  0.6974
 1657SOL     OW16603   3.488   2.889   8.833  0.2236 -0.4269  0.0419
 1657SOL    HW116604   3.409   2.876   8.780  1.0000 -0.1511 -1.1675
 1657SOL    HW216605   3.532   2.966   8.797 -1.6487  0.5036 -0.2514
 1658SOL     OW16606   1.616   3.549   8.526 -0.2841 -0.0778  0.0478
 1658SOL    HW116607   1.583   3.461   8.542 -0.3471 -0.3202 -1.3654
 1658SOL    HW216608   1.540   3.606   8.535  0.0947  0.7960 -2.0813
 1659SOL     OW16609   3.808   2.077   5.123 -0.6648  0.5861  0.1734
 1659SOL    HW116610   3.743   2.054   5.190 -0.0351  2.5211  1.4395
 1659SOL    HW216611   3.757   2.079   5.041 -2.8205 -1.3040  1.4676
 1660SOL     OW16612   0.862   0.660  12.286  0.1330 -0.4920  0.1717
 1660SOL    HW116613   0.922   0.676  12.359 -1.7700 -1.7786  2.0135
 1660SOL    HW216614   0.775   0.660  12.325 -0.1842  0.2173 -0.5168
 1661SOL     OW16615   0.442   2.977   5.940  0.7393  0.1452  0.4591
 1661SOL    HW116616   0.427   2.974   5.846 -2.2539  0.7090  0.9238
 1661SOL    HW216617   0.532   2.948   5.951  1.5332  0.5013 -5.0439
 1662SOL     OW16618   0.672   0.568  15.757 -0.2293  0.1692  0.2657
 1662SOL    HW116619   0.679   0.499  15.691 -1.6136  0.1425  0.1464
 1662SOL    HW216620   0.619   0.636  15.716  0.0678  1.7349  2.4136
 1663SOL     OW16621   1.670   4.079  15.339 -0.4189  0.1077  0.5001
 1663SOL    HW116622   1.643   4.171  15.335 -2.2511 -0.4937 -1.0426
 1663SOL    HW216623   1.669   4.057  15.246  2.8781  1.0094  0.2558
 1664SOL     OW16624   0.412   0.528   7.572 -0.2580 -0.2482 -0.1833
 1664SOL    HW116625   0.398   0.476   7.493 -0.7513 -0.6534  0.1727
 1664SOL    HW216626   0.334   0.582   7.579 -0.1316 -0.1424  0.4687
 1665SOL     OW16627   0.959   1.961   1.763 -0.3038 -0.3171 -0.3377
 1665SOL    HW116628   0.881   2.015   1.750 -0.1174  0.0486  0.0893
 1665SOL    HW216629   1.014   2.020   1.814 -3.9461 -0.1269  3.3949
 1666SOL     OW16630   0.697   0.451  16.677 -0.3215 -0.2481  0.7233
 1666SOL    HW116631   0.764   0.423  16.615 -0.5205 -1.3852  1.0206
 1666SOL    HW216632   0.755   0.469  16.750  0.9556  0.7115 -0.5171
 1667SOL     OW16633   3.268   2.812  17.254 -0.0527  0.4172 -0.0066
 1667SOL    HW116634   3.219   2.805  17.173 -1.1355  0.5332  0.6363
 1667SOL    HW216635   3.310   2.898  17.251 -0.2171  0.4268 -1.8738
 1668SOL     OW16636   2.207   0.064   1.367 -0.4555 -0.0035  0.1149
 1668SOL    HW116637   2.298   0.084   1.348 -0.4467  2.0051  2.2522
 1668SOL    HW216638   2.198   4.727   1.313 -0.8349  1.2740 -1.6556
 1669SOL     OW16639   4.578   4.197  10.769  0.4555  0.2238  0.4406
 1669SOL    HW116640   4.564   4.241  10.853  0.5016  2.1493 -0.5545
 1669SOL    HW216641   4.651   4.135  10.772  0.1645 -0.1756 -0.7817
 1670SOL     OW16642   2.654   2.376   4.556  0.5843 -0.0671 -0.1084
 1670SOL    HW116643   2.686   2.465   4.543 -1.4680  0.2862 -2.8480
 1670SOL    HW216644   2.675   2.345   4.468  1.8345  0.9588 -0.1659
 1671SOL     OW16645   0.405   0.778  14.854 -0.3306  0.2123  0.3643
 1671SOL    HW116646   0.350   0.715  14.901  0.1877 -1.7477 -1.6299
 1671SOL    HW216647   0.421   0.723  14.777 -0.3463  0.8691 -0.1068
 1672SOL     OW16648   2.859   3.218   4.460 -0.1821  0.5857  0.0098
 1672SOL    HW116649   2.885   3.167   4.384  0.8084  0.7720  0.2247
 1672SOL    HW216650   2.947   3.228   4.497 -1.3978  1.3210  2.6656
 1673SOL     OW16651   1.038   2.411   8.176  0.2778 -0.1137  0.0461
 1673SOL    HW116652   1.081   2.360   8.107  0.5521 -0.5649  0.5550
 1673SOL    HW216653   1.091   2.490   8.167  0.5925 -0.1865  1.3329
 1674SOL     OW16654   0.271   2.570  15.322 -0.2394 -0.0819 -0.1077
 1674SOL    HW116655   0.365   2.556  15.332 -0.3020 -0.3343  0.1288
 1674SOL    HW216656   0.269   2.660  15.290  1.5187 -0.5416 -1.4892
 1675SOL     OW16657   1.484   1.624   3.489  0.2971 -0.0104 -0.3059
 1675SOL    HW116658   1.504   1.705   3.536  1.1318 -0.7242  0.5621
 1675SOL    HW216659   1.396   1.617   3.527  0.4395  1.3437  0.2607
 1676SOL     OW16660   0.192   1.814  15.198 -0.0300  0.0333  0.0811
 1676SOL    HW116661   0.152   1.900  15.186 -0.1174 -0.1095 -0.6931
 1676SOL    HW216662   0.202   1.779  15.109 -1.3439 -1.4963  0.5301
 1677SOL     OW16663   4.691   3.959  10.556 -0.2541  0.7611 -0.4603
 1677SOL    HW116664   4.686   3.879  10.505 -0.5288 -0.6426  1.7481
 1677SOL    HW216665   4.712   4.014  10.481 -1.9476  1.5066 -0.3877
 1678SOL     OW16666   2.464   1.294   3.758 -0.4086 -0.5774 -0.2828
 1678SOL    HW116667   2.479   1.288   3.853  1.6021 -0.6723 -0.6018
 1678SOL    HW216668   2.539   1.245   3.726  1.1801  1.0817  0.8447
 1679SOL     OW16669   2.719   0.872   1.738  0.1958 -0.0384  0.1513
 1679SOL    HW116670   2.661   0.822   1.795  0.4916  1.2803  1.6296
 1679SOL    HW216671   2.778   0.903   1.807  0.3562  1.5518 -0.6880
 1680SOL     OW16672   1.911   1.050   1.984  0.7378  0.1023  0.5994
 1680SOL    HW116673   1.991   1.047   1.932  0.8915 -0.7897  0.8800
 1680SOL    HW216674   1.842   1.047   1.917  0.1054  2.6951  1.1377
 1681SOL     OW16675   1.146   1.506  14.681 -0.2540 -0.2558 -0.5498
 1681SOL    HW116676   1.189   1.554  14.751 -0.0413  0.0340 -0.8769
 1681SOL    HW216677   1.093   1.449  14.736 -0.5604  0.4227 -0.1455
 1682SOL     OW16678   0.067   1.864  16.290  0.6941 -0.1386 -0.4227
 1682SOL    HW116679   0.093   1.813  16.366  0.4353 -1.3086 -1.1167
 1682SOL    HW216680   0.074   1.801  16.218 -0.3642 -0.1845 -0.4786
 1683SOL     OW16681   1.933   0.537   3.944 -0.2724 -0.2377  0.1239
 1683SOL    HW116682   1.892   0.465   3.895  1.8644 -0.4099 -1.4067
 1683SOL    HW216683   2.013   0.537   3.892  0.5524 -1.3554  1.3827
 1684SOL     OW16684   0.036   1.206   4.388  0.1774  0.2974 -0.0181
 1684SOL    HW116685   0.124   1.217   4.424  0.6787 -2.5673 -0.3873
 1684SOL    HW216686   0.002   1.295   4.399 -1.0233  0.1363 -2.4921
 1685SOL     OW16687   0.689   0.936  15.501 -0.9943  0.0182 -0.5194
 1685SOL    HW116688   0.747   0.900  15.568 -0.2462 -0.9059 -1.6500
 1685SOL    HW216689   0.708   0.869  15.435 -0.4568 -1.1187  0.7895
 1686SOL     OW16690   3.678   4.227   5.228  0.1147 -0.2193  0.1332
 1686SOL    HW116691   3.659   4.319   5.212 -0.1893  0.1658  2.6427
 1686SOL    HW216692   3.691   4.234   5.323  2.1569  0.6737 -0.2114
 1687SOL     OW16693   3.152   1.639   4.174 -0.2367  0.1956 -0.3031
 1687SOL    HW116694   3.187   1.639   4.085 -2.3780 -1.2919 -1.1135
 1687SOL    HW216695   3.096   1.562   4.173 -0.1589  0.1647 -1.7373
 1688SOL     OW16696   2.782   0.733   3.273 -0.2177  0.0206  0.0053
 1688SOL    HW116697   2.854   0.792   3.294 -1.8182  2.1286 -0.5013
 1688SOL    HW216698   2.769   0.755   3.181  2.6744  0.8323 -0.1982
 1689SOL     OW16699   4.689   1.461   2.043 -0.3498  0.0641 -0.2033
 1689SOL    HW116700   4.726   1.478   2.129 -1.9381  0.2071  0.4550
 1689SOL    HW216701   4.596   1.479   2.059  0.3761  0.0638  3.9267
 1690SOL     OW16702   3.160   1.878  17.392 -0.5699  0.3915 -0.2306
 1690SOL    HW116703   3.083   1.913  17.348 -2.6461  0.0425  3.1075
 1690SOL    HW216704   3.232   1.913  17.339  1.1549  0.6155  2.2206
 1691SOL     OW16705   2.047   2.031   6.506 -0.3146 -0.5567 -0.1546
 1691SOL    HW116706   2.077   1.941   6.491 -0.3780 -1.1993  3.6308
 1691SOL    HW216707   2.121   2.078   6.468 -1.1619 -1.3371 -2.8215
 1692SOL     OW16708   4.269   0.050  17.148 -0.1820 -0.1769  0.6274
 1692SOL    HW116709   4.234   4.722  17.205 -3.5284  1.3633  0.4954
 1692SOL    HW216710   4.338   0.085  17.204 -0.4027 -0.3200  0.9887
 1693SOL     OW16711   1.118   3.659   0.354 -0.4966  0.1829 -0.3333
 1693SOL    HW116712   1.158   3.739   0.390  3.3756 -2.0010  0.2292
 1693SOL    HW216713   1.051   3.698   0.298  0.1728  1.5002 -0.2165
 1694SOL     OW16714   4.351   1.732  16.383 -0.6366 -0.3886  0.2636
 1694SOL    HW116715   4.349   1.707  16.476  1.1344 -0.8419  0.1718
 1694SOL    HW216716   4.440   1.706  16.358  0.0584  1.7303  0.5272
 1695SOL     OW16717   1.284   1.200   6.961 -0.0835 -0.3665 -0.4523
 1695SOL    HW116718   1.340   1.251   7.020 -3.2148  1.1690  1.1874
 1695SOL    HW216719   1.244   1.266   6.904 -0.0139 -0.3276 -0.4569
 1696SOL     OW16720   0.832   3.209  13.479  0.4110 -0.0994 -0.1966
 1696SOL    HW116721   0.744   3.177  13.501 -0.0729 -0.2799 -2.4227
 1696SOL    HW216722   0.829   3.183  13.387  1.1614 -0.2335 -0.1823
 1697SOL     OW16723   1.919   1.183   4.151  0.4359 -0.2833 -0.2357
 1697SOL    HW116724   1.879   1.167   4.236  0.5327 -0.3700 -0.2053
 1697SOL    HW216725   1.884   1.269   4.129  0.7072  0.0221  0.5433
 1698SOL     OW16726   0.466   3.648   5.089  0.8307  0.0919 -0.5875
 1698SOL    HW116727   0.561   3.646   5.079  0.9722 -0.1230  0.7571
 1698SOL    HW216728   0.433   3.660   5.000  1.6118  0.1651 -0.8706
 1699SOL     OW16729   3.989   1.043   2.575 -0.5488  0.1670 -0.0767
 1699SOL    HW116730   3.945   0.962   2.600  0.5287 -1.0118 -1.9157
 1699SOL    HW216731   4.015   1.013   2.488 -0.4790 -2.0517  0.7223
 1700SOL     OW16732   0.210   3.564   1.554  0.3664  0.1425  0.1108
 1700SOL    HW116733   0.280   3.501   1.573  2.0536  2.1219  0.5042
 1700SOL    HW216734   0.149   3.503   1.512  0.9746 -0.9065  0.7342
 1701SOL     OW16735   3.562   2.961  11.055  0.2783  0.3822 -0.5641
 1701SOL    HW116736   3.592   3.037  11.007  1.9739  0.8857  1.2856
 1701SOL    HW216737   3.642   2.913  11.079 -0.6725 -1.4742 -1.0839
 1702SOL     OW16738   1.274   1.699   9.362  0.2255 -0.0417 -0.4487
 1702SOL    HW116739   1.312   1.734   9.443 -0.9649  1.7655 -0.6590
 1702SOL    HW216740   1.222   1.631   9.406 -0.3094  0.1757 -0.7426
 1703SOL     OW16741   2.663   3.953   6.016 -0.8224 -0.6617  0.0717
 1703SOL    HW116742   2.592   4.010   6.044 -1.7071 -1.5748 -0.3005
 1703SOL    HW216743   2.661   3.975   5.923  0.2619 -1.1461 -0.0743
 1704SOL     OW16744   0.014   1.645   7.935 -0.4635 -0.6148  0.2417
 1704SOL    HW116745   4.666   1.667   7.962 -0.9524 -1.1850 -0.9045
 1704SOL    HW216746   0.064   1.702   7.994 -1.5310 -0.8604  1.3948
 1705SOL     OW16747   0.910   4.105   4.178  0.6173  0.6112 -0.0599
 1705SOL    HW116748   0.898   4.051   4.100 -4.3278 -1.4195  2.1100
 1705SOL    HW216749   0.962   4.050   4.237  1.6111  0.3181 -1.2117
 1706SOL     OW16750   2.396   2.018   3.236 -0.1819 -0.1728 -0.1897
 1706SOL    HW116751   2.332   2.001   3.167  0.5790  1.1611 -1.2285
 1706SOL    HW216752   2.473   2.050   3.188  0.1994  0.0024  0.5425
 1707SOL     OW16753   2.789   1.628   6.631  0.0142 -0.3038  0.1690
 1707SOL    HW116754   2.860   1.671   6.584 -1.1140  1.5979  0.2056
 1707SOL    HW216755   2.718   1.685   6.602 -0.7546 -0.6480  1.3332
 1708SOL     OW16756   4.385   3.494   1.691 -0.2566 -0.0438  0.1020
 1708SOL    HW116757   4.374   3.411   1.644  0.2023 -0.0675  0.0401
 1708SOL    HW216758   4.298   3.531   1.708 -0.3830  0.9763 -2.7467
 1709SOL     OW16759   1.828   3.289  12.760 -0.5896  0.3061  0.4442
 1709SOL    HW116760   1.769   3.298  12.835 -0.1502 -1.0287  0.9480
 1709SOL    HW216761   1.919   3.292  12.789 -0.1782 -0.2933 -0.7796
 1710SOL     OW16762   1.256   2.446   0.468  0.7552  0.2745  0.3527
 1710SOL    HW116763   1.184   2.420   0.410 -0.9487  2.7611  1.3648
 1710SOL    HW216764   1.271   2.366   0.518 -2.7677 -1.3418 -1.1873
 1711SOL     OW16765   1.573   4.245   4.713 -0.1843 -0.1691  0.1154
 1711SOL    HW116766   1.619   4.249   4.629 -1.1142 -0.0028 -0.3863
 1711SOL    HW216767   1.485   4.235   4.677  0.2262 -2.1326 -0.3516
 1712SOL     OW16768   1.315   2.354   1.496 -0.5969 -0.2156 -0.2933
 1712SOL    HW116769   1.329   2.403   1.416  0.9503 -0.6462 -0.2872
 1712SOL    HW216770   1.243   2.294   1.479  0.3874 -1.8226  1.2579
 1713SOL     OW16771   4.495   2.930  12.009 -0.4549 -0.8948  0.3055
 1713SOL    HW116772   4.405   2.946  11.979 -0.3324 -1.8826 -0.5975
 1713SOL    HW216773   4.544   2.959  11.932 -0.8877 -0.6785  0.1095
 1714SOL     OW16774   2.539   1.765   0.477  0.2184  0.2772 -0.1386
 1714SOL    HW116775   2.446   1.787   0.481  0.3338  1.4387 -3.6415
 1714SOL    HW216776   2.542   1.703   0.550 -2.4083  0.4273  0.0983
 1715SOL     OW16777   4.573   0.103   9.267 -0.2147 -0.1958 -0.5555
 1715SOL    HW116778   4.657   0.109   9.221 -0.4200 -0.5197 -0.9725
 1715SOL    HW216779   4.604   0.089   9.357 -1.6564 -2.3446 -0.4137
 1716SOL     OW16780   2.678   0.191  17.137  0.4297 -0.0512 -0.2842
 1716SOL    HW116781   2.653   0.125  17.071 -0.2944 -1.7568  1.6880
 1716SOL    HW216782   2.596   0.197  17.186 -0.8290 -2.0023 -2.1033
 1717SOL     OW16783   0.629   1.997  15.275 -0.1351 -0.0856 -0.3909
 1717SOL    HW116784   0.723   1.977  15.269  0.5158  1.9796  2.8937
 1717SOL    HW216785   0.600   2.020  15.187 -0.7104  0.9423  0.0706
 1718SOL     OW16786   3.718   0.928   2.316  0.5382  0.2298 -0.2374
 1718SOL    HW116787   3.775   0.858   2.349  0.0012 -0.2021 -0.2246
 1718SOL    HW216788   3.643   0.940   2.374 -0.4892  1.3963 -1.8227
 1719SOL     OW16789   2.467   1.813   5.319 -0.0442  0.7755  0.0259
 1719SOL    HW116790   2.440   1.780   5.234 -1.1205  1.4445  0.0954
 1719SOL    HW216791   2.545   1.860   5.290  0.0644  2.4995  3.0430
 1720SOL     OW16792   0.255   3.030   5.205 -0.7077 -0.3712 -0.6701
 1720SOL    HW116793   0.159   3.036   5.213 -0.4825 -1.5757  3.0238
 1720SOL    HW216794   0.293   3.117   5.193 -0.1335 -0.6945 -1.1463
 1721SOL     OW16795   1.322   2.177   9.190  0.4980  0.2549  0.4079
 1721SOL    HW116796   1.239   2.200   9.149  0.6678  1.8562  0.9438
 1721SOL    HW216797   1.293   2.182   9.281  0.2362  1.6415  0.2570
 1722SOL     OW16798   0.013   0.183   6.514 -0.6988  0.7185 -0.2727
 1722SOL    HW116799   0.086   0.220   6.464 -0.0981  0.9926  0.8146
 1722SOL    HW216800   0.022   0.234   6.594  0.3940  1.2387 -0.7264
 1723SOL     OW16801   2.373   3.724   4.486  0.6120 -0.5730  0.1172
 1723SOL    HW116802   2.328   3.687   4.562 -1.2710  2.2546  0.3518
 1723SOL    HW216803   2.429   3.651   4.459  2.0511  0.7806 -0.5284
 1724SOL     OW16804   3.592   0.427   9.447  0.7528  0.5413 -0.3282
 1724SOL    HW116805   3.652   0.372   9.497 -0.6559  0.1505  0.9523
 1724SOL    HW216806   3.566   0.491   9.513  0.7443  1.4616 -1.2264
 1725SOL     OW16807   1.072   1.495   6.179  0.1275  0.0235  0.0041
 1725SOL    HW116808   1.105   1.419   6.227 -1.4177 -0.7746 -0.1965
 1725SOL    HW216809   1.027   1.450   6.107 -0.0030 -3.2744  2.1302
 1726SOL     OW16810   4.025   1.080   6.387 -0.0585 -0.3946  0.2527
 1726SOL    HW116811   4.120   1.090   6.387  0.0102 -0.9892 -0.8232
 1726SOL    HW216812   4.011   1.012   6.453  1.6744 -0.3216  0.6819
 1727SOL     OW16813   0.790   2.249  14.851 -0.0615  0.5988 -0.1976
 1727SOL    HW116814   0.872   2.285  14.818 -0.5186  0.3743 -1.5838
 1727SOL    HW216815   0.755   2.221  14.767  0.7275 -0.1576 -0.2701
 1728SOL     OW16816   3.380   4.170   4.822  0.2321  0.1035 -0.2216
 1728SOL    HW116817   3.291   4.167   4.858  0.6286  0.9006  0.8230
 1728SOL    HW216818   3.364   4.210   4.737 -1.3436 -0.3941 -0.1568
 1729SOL     OW16819   4.112   2.351   2.685  0.4877  0.5208 -0.4651
 1729SOL    HW116820   4.152   2.359   2.772 -0.7284  0.6756  0.0835
 1729SOL    HW216821   4.153   2.273   2.647 -1.4931 -0.6507 -0.1778
 1730SOL     OW16822   3.231   0.977   3.775 -0.0002  0.2217 -0.2637
 1730SOL    HW116823   3.302   1.041   3.777  1.2412 -1.1653 -0.3379
 1730SOL    HW216824   3.270   0.899   3.737  1.3686 -0.3998  2.4688
 1731SOL     OW16825   3.160   0.300  13.638  0.7634 -0.3624  0.0083
 1731SOL    HW116826   3.212   0.369  13.598  1.2412  0.2745  1.7399
 1731SOL    HW216827   3.134   0.249  13.562 -0.0196  2.7078 -1.7795
 1732SOL     OW16828   3.663   0.241   1.368 -0.2885 -1.0190 -0.2995
 1732SOL    HW116829   3.711   0.316   1.336 -1.4975  0.0542  0.3933
 1732SOL    HW216830   3.573   0.270   1.352  0.4653  1.4402 -0.0343
 1733SOL     OW16831   1.403   0.753  14.479  0.4961  0.1481  0.4475
 1733SOL    HW116832   1.428   0.845  14.472 -0.8686  0.5559  0.8552
 1733SOL    HW216833   1.332   0.741  14.416 -1.1582  0.7091  2.1955
 1734SOL     OW16834   0.631   1.973   8.395 -0.1720 -0.2605 -0.3458
 1734SOL    HW116835   0.618   2.024   8.475  0.7387  1.1275 -1.0883
 1734SOL    HW216836   0.596   1.888   8.422  0.2498 -0.8108 -1.5077
 1735SOL     OW16837   2.150   0.753   7.164 -0.2750 -0.1748 -0.2497
 1735SOL    HW116838   2.203   0.694   7.217 -2.7100 -0.8067  1.4692
 1735SOL    HW216839   2.097   0.686   7.121  0.1325 -0.5261 -0.2045
 1736SOL     OW16840   1.477   0.335   3.107 -0.1611 -0.6051  0.5415
 1736SOL    HW116841   1.475   0.243   3.134 -1.0511 -0.2401  1.7282
 1736SOL    HW216842   1.560   0.372   3.138  0.4468 -1.7941  0.3181
 1737SOL     OW16843   1.258   2.442   5.832 -0.0558 -0.0933 -0.2656
 1737SOL    HW116844   1.282   2.532   5.852 -1.2600 -0.0807  1.1410
 1737SOL    HW216845   1.341   2.409   5.797  0.4345 -0.5910  1.3669
 1738SOL     OW16846   1.667   3.980  13.914  0.0718 -0.2769  0.9040
 1738SOL    HW116847   1.679   3.911  13.978 -2.1876 -0.3235  1.2696
 1738SOL    HW216848   1.575   4.003  13.922 -0.4885 -1.2789 -2.5425
 1739SOL     OW16849   3.434   4.546   3.519 -0.1426 -0.0887 -0.1444
 1739SOL    HW116850   3.493   4.578   3.586 -0.1292 -1.3776  0.4618
 1739SOL    HW216851   3.458   4.595   3.440  1.3624  1.7700  1.4990
 1740SOL     OW16852   3.685   3.907   6.446 -0.2742 -0.0254 -0.0645
 1740SOL    HW116853   3.611   3.964   6.468  0.3792  1.0348 -0.6277
 1740SOL    HW216854   3.739   3.913   6.524  0.2214  0.5456 -0.4484
 1741SOL     OW16855   3.271   2.405   8.068  0.1610 -0.1311 -0.2102
 1741SOL    HW116856   3.340   2.383   8.131 -0.3758 -1.1615  0.0144
 1741SOL    HW216857   3.266   2.325   8.015  0.5041 -1.5233  1.8841
 1742SOL     OW16858   1.676   2.825   0.756  0.7248  0.2688  0.4299
 1742SOL    HW116859   1.714   2.774   0.828  0.0251 -1.0934 -0.1559
 1742SOL    HW216860   1.601   2.859   0.805 -0.1031  0.9280 -1.3014
 1743SOL     OW16861   1.418   4.530   5.350 -0.0772  0.1959 -0.0180
 1743SOL    HW116862   1.447   4.444   5.320 -0.9086  0.8613 -2.6860
 1743SOL    HW216863   1.325   4.514   5.363  0.1799 -0.4203  1.0878
 1744SOL     OW16864   1.459   4.321  13.218 -0.1275  0.6634 -0.0069
 1744SOL    HW116865   1.482   4.368  13.298 -0.9761 -0.0714  0.6602
 1744SOL    HW216866   1.524   4.373  13.171  0.9431  0.8945  1.7529
 1745SOL     OW16867   1.914   0.806  13.331 -0.1943  0.0509  0.3698
 1745SOL    HW116868   1.839   0.847  13.374 -2.0748 -2.3105 -0.7025
 1745SOL    HW216869   1.906   0.722  13.377 -1.1647 -1.1482 -1.9861
 1746SOL     OW16870   4.617   0.990   0.926  0.3678 -0.5442 -0.4940
 1746SOL    HW116871   4.635   1.006   1.019  1.5159  1.9459 -1.1638
 1746SOL    HW216872   4.643   0.898   0.918 -1.1163 -1.0933  0.8989
 1747SOL     OW16873   4.149   2.906   2.556  0.1617  0.6040  0.0238
 1747SOL    HW116874   4.188   2.970   2.496 -0.6378 -1.0154 -2.2598
 1747SOL    HW216875   4.204   2.829   2.539  0.7794  1.3057 -1.1813
 1748SOL     OW16876   2.642   2.082   6.121 -0.0507 -0.5715  0.3103
 1748SOL    HW116877   2.675   2.043   6.202  1.5246  0.2862  0.0724
 1748SOL    HW216878   2.702   2.051   6.054  0.1552  0.5006  0.0139
 1749SOL     OW16879   1.561   4.210   2.325  0.2863  0.4748 -0.3481
 1749SOL    HW116880   1.644   4.207   2.373 -1.3394  1.8057  2.5014
 1749SOL    HW216881   1.583   4.154   2.250 -1.9285 -0.3087 -0.4097
 1750SOL     OW16882   0.825   1.747   1.431 -0.5492  0.5003 -0.4571
 1750SOL    HW116883   0.743   1.795   1.442 -0.8820 -0.0893 -0.3121
 1750SOL    HW216884   0.831   1.712   1.520  2.5473 -0.9858 -1.2173
 1751SOL     OW16885   3.114   2.222   7.610  0.6885 -0.1752 -0.4520
 1751SOL    HW116886   3.190   2.268   7.575  0.4134  0.0465 -0.7555
 1751SOL    HW216887   3.061   2.220   7.530 -0.3657 -0.1385  0.2465
 1752SOL     OW16888   2.241   0.188  13.058 -0.2080  0.4500 -0.2179
 1752SOL    HW116889   2.286   0.107  13.082 -0.4687  1.3614  3.3268
 1752SOL    HW216890   2.282   0.244  13.125 -0.7698 -0.8632  1.2320
 1753SOL     OW16891   1.895   3.221   7.967 -0.2662  0.5464  0.1659
 1753SOL    HW116892   1.901   3.254   7.877 -0.1186 -0.6981 -0.2845
 1753SOL    HW216893   1.850   3.290   8.015  1.1211  0.7566  1.1810
 1754SOL     OW16894   1.659   3.022   9.771  0.0396  0.9696 -0.2725
 1754SOL    HW116895   1.721   3.065   9.830  2.0580 -0.3397 -1.4108
 1754SOL    HW216896   1.642   3.095   9.711  2.1092  0.5393 -1.3965
 1755SOL     OW16897   0.220   4.093   0.866 -0.0362 -0.6439 -0.2918
 1755SOL    HW116898   0.202   4.082   0.772 -0.8930 -1.2920 -0.0556
 1755SOL    HW216899   0.145   4.049   0.907  0.4407  1.0249  2.3613
 1756SOL     OW16900   4.161   3.637  14.984  0.2849  0.0643 -0.0897
 1756SOL    HW116901   4.098   3.580  14.939  0.9976 -1.7650  1.2345
 1756SOL    HW216902   4.112   3.640  15.066  1.9704  0.0584  0.9135
 1757SOL     OW16903   2.936   3.810   6.949 -0.5024  0.6561  1.0355
 1757SOL    HW116904   2.860   3.856   6.985 -1.1545  0.4812 -0.1110
 1757SOL    HW216905   2.902   3.722   6.930  1.6731 -0.1190  0.7625
 1758SOL     OW16906   2.649   2.945   5.486  0.3804 -0.4656 -0.0821
 1758SOL    HW116907   2.568   2.964   5.534  0.2062  0.8570 -0.8894
 1758SOL    HW216908   2.696   2.893   5.551  0.4506 -1.5580 -1.0213
 1759SOL     OW16909   0.710   1.722  11.694 -0.3999 -0.1385 -0.0645
 1759SOL    HW116910   0.634   1.684  11.739 -1.3438  1.1542 -0.5914
 1759SOL    HW216911   0.666   1.774  11.628  1.7161 -1.3477 -2.4251
 1760SOL     OW16912   4.199   1.174  14.130 -0.0107 -0.4739  0.0001
 1760SOL    HW116913   4.135   1.141  14.193 -1.0388  2.8791  0.7284
 1760SOL    HW216914   4.266   1.225  14.176 -3.1527  1.0926  2.9280
 1761SOL     OW16915   1.757   4.526   9.646  0.2835 -0.4717 -0.2272
 1761SOL    HW116916   1.842   4.525   9.602  1.3888  0.8761  1.9051
 1761SOL    HW216917   1.692   4.526   9.575 -1.3419  1.2156  1.2540
 1762SOL     OW16918   2.797   1.204  12.936 -0.0790 -0.4146 -0.5299
 1762SOL    HW116919   2.816   1.110  12.934  0.0567 -0.4095  0.7026
 1762SOL    HW216920   2.716   1.199  12.987 -0.2268  1.2484 -0.6147
 1763SOL     OW16921   4.452   2.435  11.169 -0.7386  0.5141  0.1928
 1763SOL    HW116922   4.423   2.466  11.254 -0.5630  1.1317  0.0317
 1763SOL    HW216923   4.483   2.348  11.192 -0.1981  0.1501 -1.9082
 1764SOL     OW16924   0.108   1.668   8.798 -0.0926 -0.3112  0.8430
 1764SOL    HW116925   0.138   1.722   8.871 -0.9491 -1.5697  2.1220
 1764SOL    HW216926   0.023   1.710   8.781  1.4566  2.4170 -0.1863
 1765SOL     OW16927   2.466   1.223  12.782 -0.2583  0.7678  0.1877
 1765SOL    HW116928   2.378   1.234  12.745 -1.2628 -2.6607  1.5490
 1765SOL    HW216929   2.522   1.280  12.729  0.3036  0.1227  0.0850
 1766SOL     OW16930   4.318   4.380   8.184 -0.1182 -0.2360  0.1712
 1766SOL    HW116931   4.266   4.427   8.249 -1.0851 -0.8019 -0.1827
 1766SOL    HW216932   4.245   4.325   8.154  0.4249 -2.2669  2.5933
 1767SOL     OW16933   3.807   1.561   1.404  0.2780 -0.7181  0.7902
 1767SOL    HW116934   3.791   1.650   1.372  0.6792 -0.2502  1.8752
 1767SOL    HW216935   3.736   1.554   1.467 -2.4727 -2.2482 -2.5260
 1768SOL     OW16936   1.852   2.527  11.108  0.2243 -0.3367 -0.1934
 1768SOL    HW116937   1.860   2.488  11.196  0.5309 -1.9950 -0.9567
 1768SOL    HW216938   1.765   2.567  11.102 -0.2280 -1.2771  0.0546
 1769SOL     OW16939   3.949   0.763   4.780 -0.3415 -0.0741  0.2482
 1769SOL    HW116940   3.983   0.708   4.711 -0.7537  1.3207 -1.0601
 1769SOL    HW216941   3.858   0.775   4.752  0.0413  1.4738 -0.2899
 1770SOL     OW16942   4.708   0.992   7.499  0.4515 -0.8269  0.4888
 1770SOL    HW116943   4.640   0.931   7.470  1.4265 -0.6546 -2.1349
 1770SOL    HW216944   4.653   1.059   7.539 -0.1898 -0.2802 -1.2911
 1771SOL     OW16945   0.746   1.760  14.623 -0.4127 -0.0960  0.0711
 1771SOL    HW116946   0.672   1.791  14.571  0.3781  1.5877 -0.0199
 1771SOL    HW216947   0.807   1.830  14.603 -0.5337  0.3094  1.0813
 1772SOL     OW16948   1.323   0.883   4.023  0.2053 -0.0193  0.5882
 1772SOL    HW116949   1.410   0.905   4.057  0.7366  0.2828 -0.9250
 1772SOL    HW216950   1.273   0.855   4.099  1.0952  0.1685  1.2478
 1773SOL     OW16951   0.243   2.094   8.399  0.2250 -0.0153  0.2995
 1773SOL    HW116952   0.214   2.140   8.478  1.9549  1.1889  0.2283
 1773SOL    HW216953   0.206   2.006   8.412 -0.9816  0.1287 -2.0213
 1774SOL     OW16954   2.692   4.684   2.050  0.2990  0.7018 -0.4808
 1774SOL    HW116955   2.669   0.025   2.007  1.4745  0.8533 -0.8278
 1774SOL    HW216956   2.637   4.620   2.005 -0.0526  0.8590 -0.2753
 1775SOL     OW16957   4.221   2.605   1.442 -0.3801  0.2283 -0.3695
 1775SOL    HW116958   4.142   2.586   1.492  1.7783 -2.2362  2.0873
 1775SOL    HW216959   4.273   2.525   1.451 -1.0731  0.0771  2.4442
 1776SOL     OW16960   2.973   4.433  14.929  0.2158 -0.0560 -0.5286
 1776SOL    HW116961   2.957   4.454  14.837 -0.9708  1.0994 -0.0543
 1776SOL    HW216962   2.919   4.504  14.964  0.9892  0.4667 -0.3899
 1777SOL     OW16963   3.928   4.598   1.456 -0.6638 -0.1742  0.4604
 1777SOL    HW116964   3.933   4.679   1.405 -1.4323  0.3976  1.2922
 1777SOL    HW216965   3.908   4.533   1.388  2.4345 -1.2396  0.5714
 1778SOL     OW16966   2.706   3.185  17.529  0.3530  0.3478 -0.6010
 1778SOL    HW116967   2.727   3.278  17.540  2.8820 -0.3770  0.8777
 1778SOL    HW216968   2.790   3.152  17.563 -0.1595  0.7316  1.0202
 1779SOL     OW16969   0.017   3.645   5.584 -0.2412 -0.2730  0.1390
 1779SOL    HW116970   0.094   3.604   5.622 -0.8488 -1.1854  0.3785
 1779SOL    HW216971   0.065   3.716   5.543  0.6288 -0.5158  0.7440
 1780SOL     OW16972   3.706   1.164   5.463  0.0644  0.2892 -0.1838
 1780SOL    HW116973   3.770   1.164   5.533  1.8685  1.0834 -1.8489
 1780SOL    HW216974   3.645   1.230   5.495  0.1925  0.4739 -0.3239
 1781SOL     OW16975   1.920   1.370   9.005  0.0234  0.9122  0.1302
 1781SOL    HW116976   1.923   1.386   8.911 -0.9079  0.6947  0.0646
 1781SOL    HW216977   1.836   1.410   9.024 -0.6029 -0.0412 -0.6663
 1782SOL     OW16978   0.822   3.305   8.734  0.1224  0.0868 -0.1569
 1782SOL    HW116979   0.918   3.310   8.735  0.2728 -2.9588  1.1230
 1782SOL    HW216980   0.802   3.331   8.824 -1.2070 -0.2568 -0.3605
 1783SOL     OW16981   1.740   2.577   4.374  0.8488 -0.3911 -0.3920
 1783SOL    HW116982   1.690   2.612   4.300 -0.9641  0.1032  1.0763
 1783SOL    HW216983   1.670   2.592   4.438  2.3704  1.0199  0.9302
 1784SOL     OW16984   0.342   3.456   3.190  0.8126  0.0635 -0.5324
 1784SOL    HW116985   0.267   3.433   3.134 -1.7410  2.0240  2.0672
 1784SOL    HW216986   0.300   3.513   3.254 -0.4498 -1.8190  0.3361
 1785SOL     OW16987   4.139   2.406   7.589 -0.3464  0.1187 -0.0526
 1785SOL    HW116988   4.204   2.371   7.527 -1.5440 -1.8850 -0.1852
 1785SOL    HW216989   4.128   2.493   7.551  1.1463  0.1330 -0.4937
 1786SOL     OW16990   4.260   0.339  10.071 -0.7713 -0.0123  0.1555
 1786SOL    HW116991   4.256   0.244  10.081  1.5966  0.1960  2.8964
 1786SOL    HW216992   4.335   0.363  10.124  1.8991  1.5436 -4.2899
 1787SOL     OW16993   1.088   3.947   8.070  0.4549 -0.0120 -0.3361
 1787SOL    HW116994   1.075   3.938   7.975 -2.7186 -0.8451  0.1806
 1787SOL    HW216995   1.183   3.955   8.062  0.3519  2.3116  0.9346
 1788SOL     OW16996   3.327   1.397  15.600  0.2163 -0.5748 -0.1737
 1788SOL    HW116997   3.402   1.385  15.658 -0.0760  1.4142  0.6118
 1788SOL    HW216998   3.365   1.411  15.514  1.5546  1.2004  0.7170
 1789SOL     OW16999   2.032   1.292  16.142  0.0992  0.1528  0.1769
 1789SOL    HW117000   1.983   1.322  16.219  0.7514  1.4768  0.0719
 1789SOL    HW217001   2.017   1.365  16.083  0.9649  0.0959 -0.1010
 1790SOL     OW17002   3.051   4.273   7.565 -0.2061  0.0624 -0.0380
 1790SOL    HW117003   3.070   4.180   7.573  3.0875  0.8721  1.3204
 1790SOL    HW217004   3.126   4.306   7.614  1.0291  1.2974 -2.7436
 1791SOL     OW17005   4.441   1.207  15.978  0.1499  0.6016  0.4118
 1791SOL    HW117006   4.373   1.273  15.969 -0.4753  0.1419  1.7604
 1791SOL    HW217007   4.507   1.255  16.029  2.8278 -1.7151 -0.8597
 1792SOL     OW17008   0.723   1.996   3.760  0.1044  0.2557 -0.0410
 1792SOL    HW117009   0.724   1.996   3.664  0.2146 -1.3663 -0.0411
 1792SOL    HW217010   0.630   1.980   3.775 -0.1716  2.3259  0.4103
 1793SOL     OW17011   3.677   2.754   1.489  0.1956  0.2959  0.0736
 1793SOL    HW117012   3.723   2.778   1.569  1.2294 -3.2033  0.5303
 1793SOL    HW217013   3.684   2.842   1.453 -1.2043 -1.0852 -3.5372
 1794SOL     OW17014   3.379   4.021   6.127  0.4482 -0.1606  0.6239
 1794SOL    HW117015   3.427   4.101   6.146 -0.9158  0.6940  0.4840
 1794SOL    HW217016   3.427   3.984   6.053  0.7728  0.2590  0.6240
 1795SOL     OW17017   2.723   0.034  11.386  0.0696  0.6849 -0.5579
 1795SOL    HW117018   2.748   0.097  11.454  2.7265 -1.9897  0.9632
 1795SOL    HW217019   2.766   0.076  11.311 -1.2808  2.1195 -0.5183
 1796SOL     OW17020   4.522   1.716   8.016  0.4260  0.5040 -0.0154
 1796SOL    HW117021   4.475   1.797   8.036  0.7982  0.5677  0.6025
 1796SOL    HW217022   4.480   1.651   8.073  1.7445  0.0922  0.4770
 1797SOL     OW17023   1.193   0.046   2.913 -0.2489 -0.1782 -0.0801
 1797SOL    HW117024   1.168   0.133   2.943  0.3983 -0.1797  0.4623
 1797SOL    HW217025   1.258   0.057   2.843  1.5076 -0.1357  1.5795
 1798SOL     OW17026   2.993   1.479   7.877 -0.3143  0.4764  0.3643
 1798SOL    HW117027   3.045   1.474   7.797 -0.6410  0.8160  0.1274
 1798SOL    HW217028   3.063   1.478   7.942  1.1287  1.2090 -1.1898
 1799SOL     OW17029   2.929   2.633   8.366  0.3265 -0.2249  0.2529
 1799SOL    HW117030   2.983   2.636   8.287 -0.1761  1.3659 -0.0191
 1799SOL    HW217031   2.985   2.572   8.416 -1.0707 -0.6084  1.3501
 1800SOL     OW17032   4.137   4.385   8.981  0.2834 -0.3248 -0.7700
 1800SOL    HW117033   4.173   4.447   8.918  2.3068  0.1105  0.7765
 1800SOL    HW217034   4.148   4.442   9.057  0.5447 -2.9525  1.1668
 1801SOL     OW17035   2.248   1.597   2.925 -0.4058 -0.2067  0.1989
 1801SOL    HW117036   2.216   1.632   3.009  1.6464  2.3692 -0.1138
 1801SOL    HW217037   2.341   1.605   2.946  0.0308 -2.4033 -0.8841
 1802SOL     OW17038   0.700   1.820   4.956 -0.0029 -0.2455 -0.1859
 1802SOL    HW117039   0.635   1.889   4.969  0.6803  0.3066  0.3212
 1802SOL    HW217040   0.738   1.853   4.875  0.6248 -0.0763  0.1807
 1803SOL     OW17041   3.820   3.788  10.793  0.3911  0.2183  0.5250
 1803SOL    HW117042   3.893   3.757  10.739  0.7336  0.4441  0.8573
 1803SOL    HW217043   3.865   3.868  10.822 -1.3540  2.2321 -2.3503
 1804SOL     OW17044   0.786   1.527   4.147 -0.5736  0.3508 -0.1796
 1804SOL    HW117045   0.852   1.460   4.164  0.5454  1.5303  0.0939
 1804SOL    HW217046   0.804   1.593   4.213 -0.5529  0.9964 -0.8271
 1805SOL     OW17047   2.684   0.966   9.518  0.3935 -0.2280 -0.3919
 1805SOL    HW117048   2.600   0.928   9.545  1.5196 -1.9313  0.6703
 1805SOL    HW217049   2.712   0.904   9.451 -1.2959 -0.9163 -0.4560
 1806SOL     OW17050   1.021   1.582   4.892 -0.1613  0.0618  0.2035
 1806SOL    HW117051   1.094   1.524   4.915 -1.2400 -1.2717  0.3075
 1806SOL    HW217052   0.950   1.542   4.942 -0.7315  2.1736  1.0601
 1807SOL     OW17053   0.039   3.442  12.078 -0.2260 -1.0477  0.2506
 1807SOL    HW117054   0.097   3.504  12.122  0.7069 -0.3191 -2.0465
 1807SOL    HW217055   0.094   3.419  12.003  1.1397  0.5105  0.7883
 1808SOL     OW17056   1.402   2.017   4.654 -0.1240  0.4997 -0.1031
 1808SOL    HW117057   1.378   1.930   4.684 -1.3819  0.4758 -1.1364
 1808SOL    HW217058   1.401   2.015   4.558 -1.0795  0.0774 -0.0801
 1809SOL     OW17059   3.560   1.420   6.142  0.0531  0.0397  0.3909
 1809SOL    HW117060   3.631   1.476   6.114 -0.6382 -0.0551 -1.5332
 1809SOL    HW217061   3.605   1.384   6.219  0.9483 -1.0816 -0.6511
 1810SOL     OW17062   1.039   4.647   8.265 -1.2610  0.6184  0.3952
 1810SOL    HW117063   0.981   4.714   8.300 -2.0888 -0.1672  0.5193
 1810SOL    HW217064   0.982   4.572   8.280 -1.8838  1.4374  2.1516
 1811SOL     OW17065   3.534   3.285   3.943  0.1238  0.1827 -0.1701
 1811SOL    HW117066   3.442   3.312   3.942 -0.1852 -0.8819 -0.7596
 1811SOL    HW217067   3.589   3.354   3.906  0.8694 -0.5919 -0.5035
 1812SOL     OW17068   1.113   1.574   8.736 -0.2481 -0.9808 -0.3572
 1812SOL    HW117069   1.175   1.614   8.798 -0.8686 -0.9685  0.2484
 1812SOL    HW217070   1.041   1.636   8.727 -0.7692 -1.2499  1.8722
 1813SOL     OW17071   0.914   0.622  15.904  0.1094 -0.2335  0.6852
 1813SOL    HW117072   0.876   0.706  15.932  0.5485  0.1340  0.1665
 1813SOL    HW217073   0.847   0.596  15.841  2.0919 -0.3947 -1.3269
 1814SOL     OW17074   0.982   4.316   7.111 -0.4421  0.3705  0.1536
 1814SOL    HW117075   0.944   4.379   7.173  2.1158  1.1733  0.9138
 1814SOL    HW217076   0.927   4.330   7.034 -0.9492  1.5424  0.7195
 1815SOL     OW17077   3.207   0.037   5.300 -0.1496 -0.6479 -0.7818
 1815SOL    HW117078   3.116   0.055   5.319  0.0929  0.8851 -1.1323
 1815SOL    HW217079   3.255   0.111   5.337 -3.0266  0.6754  0.2524
 1816SOL     OW17080   2.649   2.664   6.965  0.6735  0.3755 -0.0647
 1816SOL    HW117081   2.645   2.759   6.981  0.4833  0.3059  0.2981
 1816SOL    HW217082   2.644   2.630   7.054  3.0861 -1.5398 -0.6789
 1817SOL     OW17083   1.486   2.746   2.775  0.4920  0.9698  0.2144
 1817SOL    HW117084   1.550   2.675   2.772  0.9737  1.2887  3.2724
 1817SOL    HW217085   1.402   2.707   2.799  1.0481  0.4805  1.3480
 1818SOL     OW17086   4.116   2.360   0.455  0.5977 -0.4633 -0.5146
 1818SOL    HW117087   4.181   2.415   0.411  1.3945 -1.3592 -0.4649
 1818SOL    HW217088   4.106   2.287   0.394 -1.6478  0.4651 -1.2832
 1819SOL     OW17089   3.576   3.040  15.795 -0.0223 -0.0397 -0.4082
 1819SOL    HW117090   3.540   2.952  15.788  1.9785 -0.8052 -1.0001
 1819SOL    HW217091   3.655   3.040  15.741  0.3537  0.9448  0.1510
 1820SOL     OW17092   3.520   1.599   4.209  0.3157 -0.5068  0.2139
 1820SOL    HW117093   3.494   1.538   4.278  2.0598 -0.0250  1.3013
 1820SOL    HW217094   3.575   1.546   4.152  0.9863  0.9733 -0.5150
 1821SOL     OW17095   3.916   1.618   8.459 -0.3310  0.1223 -0.2738
 1821SOL    HW117096   3.833   1.614   8.411  0.5586  0.4143 -1.8467
 1821SOL    HW217097   3.947   1.529   8.439 -1.9243 -0.1808 -1.4167
 1822SOL     OW17098   2.837   4.536   5.326  0.0403 -0.5048 -0.5425
 1822SOL    HW117099   2.761   4.536   5.267  0.2755 -2.3981 -0.8595
 1822SOL    HW217100   2.806   4.487   5.402 -2.7131  2.2784  0.1548
 1823SOL     OW17101   3.547   2.789   8.361 -0.7480  0.3925 -0.5547
 1823SOL    HW117102   3.489   2.734   8.309 -1.4879  0.7400 -0.1023
 1823SOL    HW217103   3.588   2.844   8.294  1.3810 -1.1629 -0.5594
 1824SOL     OW17104   1.860   4.697   0.504  0.2274 -0.2774  0.2519
 1824SOL    HW117105   1.934   4.635   0.507 -1.1489 -1.9610 -0.4880
 1824SOL    HW217106   1.822   4.691   0.592 -1.4865  1.4389 -0.3802
 1825SOL     OW17107   3.222   4.613   7.501  0.5417 -0.1254  0.1099
 1825SOL    HW117108   3.207   4.645   7.413 -0.6961 -0.4506  0.2037
 1825SOL    HW217109   3.136   4.586   7.533  0.1259 -0.2579 -1.1194
 1826SOL     OW17110   3.440   0.415   9.024  0.3133 -0.0008  0.3223
 1826SOL    HW117111   3.385   0.427   9.101 -1.0658  2.5639 -1.0812
 1826SOL    HW217112   3.380   0.360   8.975 -0.7800  0.8034  0.7515
 1827SOL     OW17113   3.979   4.641   1.185 -0.2846  0.3694 -0.0798
 1827SOL    HW117114   3.903   4.656   1.129 -1.1600 -0.9552  0.7544
 1827SOL    HW217115   4.047   4.678   1.129  0.3530  2.3316  1.9423
 1828SOL     OW17116   2.696   2.551   1.448  0.3186  0.0875 -0.2364
 1828SOL    HW117117   2.639   2.624   1.424  1.5866  0.4302 -2.1700
 1828SOL    HW217118   2.741   2.529   1.367 -2.5171 -0.6680 -1.5962
 1829SOL     OW17119   4.189   4.325   6.331  0.0654  0.0667  0.0981
 1829SOL    HW117120   4.185   4.341   6.237  2.7777 -1.3421 -0.2637
 1829SOL    HW217121   4.210   4.231   6.325 -0.4874  0.1923 -3.6755
 1830SOL     OW17122   4.567   4.013   6.785 -0.0680 -0.3742  0.3000
 1830SOL    HW117123   4.552   4.105   6.807 -1.4928 -0.3039 -1.0668
 1830SOL    HW217124   4.484   3.967   6.774  0.9191 -1.0354 -4.2692
 1831SOL     OW17125   3.902   0.582   6.250 -0.5500  0.3594 -0.6872
 1831SOL    HW117126   3.864   0.651   6.196  2.8102  1.9618 -1.0179
 1831SOL    HW217127   3.997   0.592   6.241 -0.8210  1.8758 -1.8888
 1832SOL     OW17128   0.812   0.314  17.147  0.3325  0.2087 -0.2181
 1832SOL    HW117129   0.792   0.250  17.215  1.5036 -0.6852 -0.7261
 1832SOL    HW217130   0.750   0.285  17.080 -0.1117 -0.6802  0.5858
 1833SOL     OW17131   1.874   4.617   5.220  0.1210 -0.3701 -0.4620
 1833SOL    HW117132   1.817   4.566   5.162 -1.3266 -1.5050  1.9746
 1833SOL    HW217133   1.848   4.575   5.302 -0.5840 -0.7620 -0.8872
 1834SOL     OW17134   0.921   4.499  12.641  0.1287 -0.3191  0.3365
 1834SOL    HW117135   0.962   4.577  12.605  0.7538 -1.5379 -1.5611
 1834SOL    HW217136   0.880   4.464  12.562 -1.8740 -0.1752  1.2966
 1835SOL     OW17137   4.689   0.060   4.341 -0.1955  0.5485 -0.4777
 1835SOL    HW117138   4.602   0.096   4.359 -0.0466  1.0155 -0.6770
 1835SOL    HW217139   4.679   0.041   4.247 -1.9951  0.7592 -0.3264
 1836SOL     OW17140   2.530   1.459   5.603 -0.3680 -0.2580  0.4071
 1836SOL    HW117141   2.568   1.440   5.517  0.5506  1.6460  0.3912
 1836SOL    HW217142   2.465   1.523   5.574 -0.9129 -0.4947  1.1270
 1837SOL     OW17143   0.388   0.095   3.391 -0.6318  0.0017  0.1134
 1837SOL    HW117144   0.438   0.124   3.314 -1.7485 -0.8443 -0.9472
 1837SOL    HW217145   0.397   0.170   3.449  1.6728 -0.1362 -0.0761
 1838SOL     OW17146   3.777   3.835   4.821  0.3406 -0.3673 -0.1484
 1838SOL    HW117147   3.828   3.895   4.766 -1.4077 -0.2205 -1.6028
 1838SOL    HW217148   3.707   3.885   4.863 -1.3389 -2.6291 -0.2593
 1839SOL     OW17149   4.438   3.037   4.753  0.2967 -0.2920 -0.4725
 1839SOL    HW117150   4.473   3.125   4.736  2.9697 -0.7824  2.4715
 1839SOL    HW217151   4.488   3.000   4.826 -2.6453 -1.1414  1.1016
 1840SOL     OW17152   4.004   3.594   1.293  0.1219  0.2817 -0.2077
 1840SOL    HW117153   4.081   3.651   1.291 -1.4102  2.3671 -0.5606
 1840SOL    HW217154   3.977   3.609   1.383 -1.8337 -0.4009 -0.6818
 1841SOL     OW17155   3.296   2.433  17.625 -0.0447  0.3173 -0.2516
 1841SOL    HW117156   3.242   2.361  17.590  0.6269 -0.1218 -0.3824
 1841SOL    HW217157   3.325   2.399  17.709 -1.3424  0.2969  0.1806
 1842SOL     OW17158   4.650   4.081   2.677 -0.3001  0.6265  0.0496
 1842SOL    HW117159   4.724   4.058   2.733 -0.3005  0.4160 -0.0382
 1842SOL    HW217160   4.685   4.028   2.606  1.0785  0.7149  0.6593
 1843SOL     OW17161   1.381   4.180   3.844  0.1114 -0.1775  0.1302
 1843SOL    HW117162   1.466   4.141   3.825 -0.4742 -0.9369 -0.9477
 1843SOL    HW217163   1.343   4.108   3.895  0.7407  0.1089  1.0182
 1844SOL     OW17164   4.726   3.962   6.485  0.1370 -0.0405 -0.4721
 1844SOL    HW117165   0.030   4.045   6.466 -1.1047  0.8768  0.6774
 1844SOL    HW217166   4.635   3.990   6.493  0.0247 -0.8434  0.9016
 1845SOL     OW17167   0.999   3.544  11.692 -0.0273 -0.1007 -0.1708
 1845SOL    HW117168   0.976   3.635  11.710  1.8259  0.3270  0.0282
 1845SOL    HW217169   1.080   3.554  11.642  0.8458 -1.4999  0.9730
 1846SOL     OW17170   0.978   3.582  13.451  0.3616 -0.0891 -0.0719
 1846SOL    HW117171   1.034   3.506  13.462  2.6257  1.0407 -3.5614
 1846SOL    HW217172   1.028   3.633  13.387 -0.4348  0.7660 -0.0129
 1847SOL     OW17173   3.047   3.326  17.043  0.1443 -0.2652 -0.1565
 1847SOL    HW117174   3.011   3.347  16.957 -3.3796  0.7058  1.5595
 1847SOL    HW217175   3.047   3.230  17.043 -0.0709 -0.2684  1.3626
 1848SOL     OW17176   3.504   0.764   4.382 -0.1372  0.2051  0.2429
 1848SOL    HW117177   3.454   0.765   4.464 -0.7000  0.0504 -0.0950
 1848SOL    HW217178   3.581   0.720   4.418  0.1910  1.2402  0.8101
 1849SOL     OW17179   3.976   1.830  14.584 -0.8648  0.5750 -0.0723
 1849SOL    HW117180   4.013   1.806  14.669 -0.5209  0.9884 -0.1043
 1849SOL    HW217181   4.054   1.873  14.549  0.2195 -1.0748  0.2785
 1850SOL     OW17182   3.692   3.794  14.769 -0.2280  0.0064 -0.5302
 1850SOL    HW117183   3.605   3.804  14.808  0.5443 -0.6270  1.3133
 1850SOL    HW217184   3.721   3.725  14.828  1.7387  1.0886 -0.2346
 1851SOL     OW17185   1.340   3.494   0.915 -0.0556 -0.3303 -0.5023
 1851SOL    HW117186   1.315   3.583   0.892 -0.9227 -0.9922 -2.0892
 1851SOL    HW217187   1.268   3.449   0.872 -0.1662  1.2005 -1.8996
 1852SOL     OW17188   4.011   1.875   9.626 -0.0472 -0.6402  0.1790
 1852SOL    HW117189   4.072   1.933   9.581 -0.6002 -1.1018 -1.1866
 1852SOL    HW217190   4.069   1.810   9.665 -0.6501 -1.2121  0.1417
 1853SOL     OW17191   4.226   3.107   2.387  0.3665  0.1397 -0.3609
 1853SOL    HW117192   4.299   3.124   2.327  0.1989  3.9339  0.4617
 1853SOL    HW217193   4.170   3.177   2.352 -3.3850 -1.2640  2.7984
 1854SOL     OW17194   2.429   2.971  12.130  0.3531 -0.2906  0.1114
 1854SOL    HW117195   2.505   2.971  12.188 -0.9010 -1.6286  1.7727
 1854SOL    HW217196   2.431   3.062  12.100 -0.0096 -0.9953 -2.0592
 1855SOL     OW17197   3.821   0.831   7.593  0.4919 -0.4998 -0.3631
 1855SOL    HW117198   3.796   0.754   7.541  1.3831 -1.7029  0.9983
 1855SOL    HW217199   3.802   0.889   7.519  2.9268 -0.4649 -0.9818
 1856SOL     OW17200   4.218   4.501   6.071 -0.1765 -0.4691 -0.7379
 1856SOL    HW117201   4.256   4.542   6.148  0.1026  0.4765 -1.3773
 1856SOL    HW217202   4.258   4.547   5.997  1.3370 -1.1173 -0.3349
 1857SOL     OW17203   4.602   2.727  16.246 -0.0745  0.6032  0.7977
 1857SOL    HW117204   4.590   2.640  16.209  1.8052 -0.2845  2.3293
 1857SOL    HW217205   4.528   2.781  16.215 -0.3140 -0.0878  0.1561
 1858SOL     OW17206   0.784   0.702   8.516 -0.1003 -0.1837 -0.0154
 1858SOL    HW117207   0.693   0.701   8.543  0.4537 -3.8028  1.6267
 1858SOL    HW217208   0.819   0.632   8.571 -2.5336 -1.3911 -0.0076
 1859SOL     OW17209   3.250   0.713   9.325 -0.6595  0.0285 -0.8299
 1859SOL    HW117210   3.236   0.715   9.419  0.5663 -1.5355 -0.6116
 1859SOL    HW217211   3.168   0.740   9.284 -1.6707 -0.8319  0.6423
 1860SOL     OW17212   4.002   4.353  10.803 -0.1597  0.7566 -0.5506
 1860SOL    HW117213   3.961   4.437  10.824  2.4409  1.5379  1.3504
 1860SOL    HW217214   4.022   4.363  10.710  2.3052  2.2266  0.1418
 1861SOL     OW17215   0.610   1.115   3.562 -0.2831 -0.0989  0.2034
 1861SOL    HW117216   0.605   1.027   3.524  1.8690  0.9387 -2.5028
 1861SOL    HW217217   0.658   1.157   3.491 -2.1491 -1.6621 -2.0213
 1862SOL     OW17218   3.044   2.380   7.834  0.3138 -0.2814 -0.2884
 1862SOL    HW117219   3.060   2.454   7.775 -0.6206 -0.3090 -0.5755
 1862SOL    HW217220   3.085   2.312   7.782 -1.4929 -1.4451 -0.1894
 1863SOL     OW17221   1.342   0.441   6.654 -0.2196  0.7349 -0.2618
 1863SOL    HW117222   1.266   0.461   6.709 -0.1941 -0.7074  0.3001
 1863SOL    HW217223   1.360   0.523   6.607 -2.9503  2.7798  2.2058
 1864SOL     OW17224   4.013   4.491   4.157 -0.2229  0.6469 -0.0474
 1864SOL    HW117225   4.029   4.558   4.090  0.9866 -0.4686 -0.8762
 1864SOL    HW217226   3.976   4.416   4.111  0.3124  1.7343 -2.2762
 1865SOL     OW17227   0.930   4.026   2.411 -0.5256  0.2781 -0.5343
 1865SOL    HW117228   0.954   4.063   2.496  2.1066  1.9392 -1.9923
 1865SOL    HW217229   1.016   3.999   2.377  0.4560  2.5538  0.1037
 1866SOL     OW17230   2.127   0.441   8.918 -0.5574  0.1581 -0.1536
 1866SOL    HW117231   2.157   0.368   8.863  0.2622  0.0737  0.4113
 1866SOL    HW217232   2.124   0.514   8.856  1.2337  0.9222  0.6720
 1867SOL     OW17233   3.110   4.221   5.514  0.0118 -0.3903 -0.1606
 1867SOL    HW117234   3.067   4.178   5.440 -0.5023  1.5489 -1.0039
 1867SOL    HW217235   3.119   4.147   5.575 -4.2526  0.6787  1.7442
 1868SOL     OW17236   4.225   3.477  11.496 -0.2224  0.2735  0.2456
 1868SOL    HW117237   4.258   3.482  11.407  1.0958  0.9744  0.7736
 1868SOL    HW217238   4.247   3.391  11.532 -0.5232 -0.3823 -1.1730
 1869SOL     OW17239   0.762   4.587   3.286 -0.2996  0.4160  0.1229
 1869SOL    HW117240   0.780   4.648   3.357  0.1908 -0.8694  1.1121
 1869SOL    HW217241   0.671   4.616   3.273 -0.5346 -0.4395 -0.1886
 1870SOL     OW17242   3.781   2.928   5.175  0.2826  0.4360 -0.2476
 1870SOL    HW117243   3.805   2.858   5.237 -3.3090 -0.5002  0.0966
 1870SOL    HW217244   3.756   2.886   5.093  1.0979 -1.5293  0.5076
 1871SOL     OW17245   1.034   2.485   5.674  0.2364 -0.6981 -0.5040
 1871SOL    HW117246   0.978   2.446   5.741  0.2505  2.0351  1.0648
 1871SOL    HW217247   1.117   2.459   5.715  1.0065  1.1431 -0.9109
 1872SOL     OW17248   3.521   0.205   3.315 -0.2715 -0.0658  0.7354
 1872SOL    HW117249   3.578   0.248   3.251 -0.4729 -1.9431 -0.6951
 1872SOL    HW217250   3.452   0.269   3.333  0.4829  1.2677 -1.1534
 1873SOL     OW17251   4.408   1.825   1.753  0.0053 -0.7499 -0.3662
 1873SOL    HW117252   4.419   1.733   1.776  0.3284 -0.5031  0.5053
 1873SOL    HW217253   4.460   1.829   1.673  1.6234 -0.2038  0.6973
 1874SOL     OW17254   3.684   3.367   4.296  0.1924  0.5740 -0.0978
 1874SOL    HW117255   3.597   3.331   4.279  0.4413 -0.1279  0.0949
 1874SOL    HW217256   3.726   3.282   4.311  1.3391  1.1868  0.1888
 1875SOL     OW17257   1.620   1.847   9.244 -0.3629 -0.1835  0.7361
 1875SOL    HW117258   1.639   1.847   9.338 -2.6221  1.3186  1.1858
 1875SOL    HW217259   1.693   1.796   9.209 -1.5515 -0.7871 -0.8556
 1876SOL     OW17260   4.581   2.233  15.978 -0.4228 -0.0168 -0.5070
 1876SOL    HW117261   4.614   2.165  16.036  1.4047  1.8622  0.6722
 1876SOL    HW217262   4.664   2.250  15.933  0.5122 -1.7137  0.5985
 1877SOL     OW17263   3.196   4.659   6.890  0.0489 -0.9382 -0.1780
 1877SOL    HW117264   3.176   4.566   6.881 -1.1472 -0.4786 -2.2496
 1877SOL    HW217265   3.290   4.644   6.902  0.4748  2.3240  0.3311
 1878SOL     OW17266   1.042   4.678   9.088  0.0266  0.2418 -0.0174
 1878SOL    HW117267   1.084   4.613   9.145  0.3789  0.1207 -0.4151
 1878SOL    HW217268   1.032   4.625   9.009 -0.3311 -1.4887  1.1871
 1879SOL     OW17269   0.010   0.876   4.708  0.3934 -0.2408  0.0441
 1879SOL    HW117270   0.030   0.964   4.739 -1.5987  0.7040 -1.3350
 1879SOL    HW217271   0.085   0.826   4.741  0.2179  0.0632  0.9108
 1880SOL     OW17272   1.580   3.836   1.804 -0.8984 -0.7423  0.1457
 1880SOL    HW117273   1.599   3.798   1.718  3.1132  1.6213 -0.0308
 1880SOL    HW217274   1.595   3.930   1.790  1.5849 -1.3393 -1.2590
 1881SOL     OW17275   1.428   0.068   7.537  0.0982  0.4947  0.1473
 1881SOL    HW117276   1.345   0.091   7.579  0.3690 -0.3899  1.1576
 1881SOL    HW217277   1.411   0.005   7.466  0.0937  0.9083 -0.2193
 1882SOL     OW17278   2.078   1.707   6.204 -0.4092 -0.0208  0.0732
 1882SOL    HW117279   2.006   1.755   6.244 -0.0567  0.1874  0.4559
 1882SOL    HW217280   2.064   1.678   6.114  2.4862  1.6928 -0.9343
 1883SOL     OW17281   1.988   1.364  11.547 -0.9051  0.6104 -0.6490
 1883SOL    HW117282   2.013   1.432  11.484  0.5369  0.8753  0.2031
 1883SOL    HW217283   1.986   1.294  11.482 -4.1667  1.2178 -1.2133
 1884SOL     OW17284   2.793   0.180   5.863 -0.0770  0.1852 -0.4504
 1884SOL    HW117285   2.850   0.181   5.939 -1.2577  2.4579  0.4048
 1884SOL    HW217286   2.812   0.266   5.827  0.4920  0.1462 -0.2349
 1885SOL     OW17287   2.579   4.031   1.837  0.5614 -0.1535 -0.2251
 1885SOL    HW117288   2.538   4.115   1.816  0.3154 -0.3714 -0.6184
 1885SOL    HW217289   2.665   4.028   1.795  0.5343 -0.5534 -0.2551
 1886SOL     OW17290   4.435   3.131   6.018 -0.5087 -0.0963  0.0593
 1886SOL    HW117291   4.450   3.148   6.111  0.2685 -1.2727  0.1458
 1886SOL    HW217292   4.351   3.177   6.012 -0.5580 -0.2704 -0.5729
 1887SOL     OW17293   3.102   3.189   5.775  0.3078  0.4438 -0.2766
 1887SOL    HW117294   3.139   3.117   5.723 -0.3414  0.0277 -0.1673
 1887SOL    HW217295   3.010   3.165   5.768  0.8850 -1.5314 -1.2668
 1888SOL     OW17296   0.451   1.771   1.065  0.0413  0.3932  0.7011
 1888SOL    HW117297   0.497   1.815   0.993 -2.3123 -0.0729 -1.0847
 1888SOL    HW217298   0.528   1.741   1.113 -1.1609  0.7209  2.8594
 1889SOL     OW17299   0.748   1.186   4.708 -0.6684  0.3573 -0.9074
 1889SOL    HW117300   0.809   1.207   4.638  0.2693  0.4316 -0.0562
 1889SOL    HW217301   0.739   1.093   4.686  2.7437 -0.6432  1.9422
 1890SOL     OW17302   0.124   4.598   4.330  0.1900  0.3416 -0.3136
 1890SOL    HW117303   0.164   4.596   4.417  0.7736 -0.6763 -0.6095
 1890SOL    HW217304   0.060   4.666   4.351 -1.3296 -0.7148 -1.4662
 1891SOL     OW17305   1.290   3.364   7.505  0.2964 -1.1039  0.7741
 1891SOL    HW117306   1.227   3.333   7.440  0.4103  0.1167  0.0594
 1891SOL    HW217307   1.327   3.283   7.538 -0.5979 -0.4495  3.4205
 1892SOL     OW17308   3.928   4.601  10.845  0.2512 -0.3889 -0.2714
 1892SOL    HW117309   3.975   4.678  10.813  0.0245  0.0976  0.5686
 1892SOL    HW217310   3.934   4.614  10.940  0.6581 -0.0373 -0.3462
 1893SOL     OW17311   2.979   0.983   2.460  0.2763 -0.2272  0.3006
 1893SOL    HW117312   2.979   0.975   2.556  1.7113  0.9648  0.4097
 1893SOL    HW217313   2.997   0.889   2.448 -1.7321 -0.8229  2.0568
 1894SOL     OW17314   3.919   0.749   3.144  0.3256 -0.7964  0.4470
 1894SOL    HW117315   3.972   0.815   3.100 -2.6139  0.8382 -0.6884
 1894SOL    HW217316   3.840   0.801   3.161  0.6047 -0.2514  0.0700
 1895SOL     OW17317   2.974   3.073  10.416  0.4142 -0.2212  0.2546
 1895SOL    HW117318   2.929   3.060  10.332  1.1920 -0.9106 -0.0551
 1895SOL    HW217319   3.059   3.111  10.393  0.6717 -1.0551 -0.1779
 1896SOL     OW17320   2.127   0.835   3.931  0.2367  0.1745 -0.1943
 1896SOL    HW117321   2.163   0.818   3.844 -0.9874  0.4453 -0.7551
 1896SOL    HW217322   2.050   0.889   3.912 -0.7983 -1.3759 -0.4412
 1897SOL     OW17323   2.323   1.857   4.457 -0.6757 -0.6298 -0.5062
 1897SOL    HW117324   2.375   1.782   4.428 -0.4114 -0.5939 -0.1231
 1897SOL    HW217325   2.243   1.814   4.488 -2.3948  1.0444 -2.6491
 1898SOL     OW17326   3.672   1.642   3.151 -0.6131 -0.4228 -0.3170
 1898SOL    HW117327   3.724   1.629   3.072 -0.5350  0.8460 -0.4759
 1898SOL    HW217328   3.722   1.718   3.181  0.5016 -0.7963 -1.2576
 1899SOL     OW17329   0.246   1.766   3.505  0.3468  0.1665  0.5210
 1899SOL    HW117330   0.161   1.740   3.469 -0.8531  2.0699  1.9554
 1899SOL    HW217331   0.284   1.679   3.517  1.2958  0.7956  2.0478
 1900SOL     OW17332   3.422   4.095   5.609 -0.0757  0.4824 -0.2311
 1900SOL    HW117333   3.342   4.041   5.603  0.5823 -0.3622 -1.3950
 1900SOL    HW217334   3.412   4.151   5.532 -1.5124  0.6459  0.0733
 1901SOL     OW17335   0.820   2.942   8.610  0.1343  0.4845  0.1384
 1901SOL    HW117336   0.746   2.996   8.580 -0.7856 -0.4954  0.6843
 1901SOL    HW217337   0.889   3.000   8.575 -1.1624  0.9728 -1.6208
 1902SOL     OW17338   1.792   4.699   7.823 -0.1299  0.3304 -0.0964
 1902SOL    HW117339   1.760   4.615   7.789 -1.8156  1.7449 -1.9560
 1902SOL    HW217340   1.707   0.003   7.827  0.0042  0.5215  0.5244
 1903SOL     OW17341   3.558   0.902   2.908  1.2077 -0.4901 -0.4267
 1903SOL    HW117342   3.498   0.833   2.934  1.5587 -0.3091  0.8476
 1903SOL    HW217343   3.598   0.849   2.839  0.7828 -2.4186  0.8252
 1904SOL     OW17344   0.325   3.334   5.680  0.1156 -0.5129  0.0636
 1904SOL    HW117345   0.305   3.341   5.773 -0.8819 -2.2477 -0.0260
 1904SOL    HW217346   0.238   3.352   5.645 -0.5300 -1.7153  1.0751
 1905SOL     OW17347   3.835   2.995  15.134 -0.1817 -0.5668 -0.3334
 1905SOL    HW117348   3.918   2.953  15.157 -0.2836 -1.1982 -1.1352
 1905SOL    HW217349   3.861   3.071  15.081 -2.4063 -0.2196 -0.9279
 1906SOL     OW17350   1.148   1.143   5.234  0.0411  0.0875 -0.2534
 1906SOL    HW117351   1.211   1.135   5.306  1.3342 -2.1497 -1.6479
 1906SOL    HW217352   1.206   1.187   5.172 -0.7933  0.0338 -1.0689
 1907SOL     OW17353   1.239   3.324   9.423 -0.1199 -0.1162  0.1233
 1907SOL    HW117354   1.190   3.400   9.392  0.0193  0.8240  2.2257
 1907SOL    HW217355   1.197   3.251   9.378 -0.2506  0.8363 -1.3163
 1908SOL     OW17356   1.671   2.440   7.906 -0.0704 -0.4035 -0.7472
 1908SOL    HW117357   1.709   2.484   7.829 -1.3544 -0.4062 -1.3876
 1908SOL    HW217358   1.739   2.380   7.938  0.0356  0.5405  0.7866
 1909SOL     OW17359   4.193   2.475  15.319  0.5164  0.1914  1.1873
 1909SOL    HW117360   4.148   2.559  15.317 -1.7212 -0.9699  1.8224
 1909SOL    HW217361   4.126   2.419  15.359  1.8314 -1.2752  1.3271
 1910SOL     OW17362   0.491   1.322   1.995 -0.1965  0.1260 -0.4648
 1910SOL    HW117363   0.442   1.288   2.070  1.7594 -1.5521  0.0422
 1910SOL    HW217364   0.583   1.314   2.022 -0.0179 -4.1761 -2.2859
 1911SOL     OW17365   4.551   4.407   7.505 -0.0060 -0.3248  0.1967
 1911SOL    HW117366   4.599   4.458   7.570  2.0831 -1.3353 -0.5435
 1911SOL    HW217367   4.532   4.462   7.429 -0.3821 -0.5130  0.1540
 1912SOL     OW17368   0.122   1.976  10.697  0.2536  0.8132 -0.2024
 1912SOL    HW117369   0.196   2.029  10.667  0.1300  0.0109 -1.8944
 1912SOL    HW217370   0.057   2.046  10.698 -0.2459  0.3292  1.0935
 1913SOL     OW17371   0.168   1.543   7.111  0.4063  0.1720 -0.3776
 1913SOL    HW117372   0.143   1.578   7.026  1.9825 -0.5359 -1.1283
 1913SOL    HW217373   0.175   1.448   7.100  0.4855  0.2728 -1.1371
 1914SOL     OW17374   0.533   2.793   7.836  0.0645 -0.3180 -0.0580
 1914SOL    HW117375   0.525   2.707   7.794 -2.4817 -0.3602  0.5426
 1914SOL    HW217376   0.491   2.845   7.767  0.8006 -0.1236 -0.3675
 1915SOL     OW17377   2.351   1.781  13.607  0.1702  0.4448  0.3132
 1915SOL    HW117378   2.344   1.748  13.697 -2.3044 -0.7918 -0.3545
 1915SOL    HW217379   2.432   1.736  13.582 -0.6971 -1.9604  1.8106
 1916SOL     OW17380   4.662   1.607   6.036  0.0873 -0.1749  0.2203
 1916SOL    HW117381   4.734   1.606   6.099  1.2650  2.6992 -1.0738
 1916SOL    HW217382   4.631   1.696   6.053  0.5234  0.2801 -1.3187
 1917SOL     OW17383   0.127   1.301   5.219 -0.0381 -0.1687  0.3600
 1917SOL    HW117384   0.121   1.337   5.131 -0.3256 -1.7084 -0.2560
 1917SOL    HW217385   0.109   1.209   5.200 -1.6391  0.0610  0.8272
 1918SOL     OW17386   1.023   1.369   0.496 -0.1728 -0.1544 -0.1820
 1918SOL    HW117387   0.972   1.351   0.575  1.5635 -1.1241  0.7300
 1918SOL    HW217388   1.099   1.393   0.549 -1.0636  0.0265  1.0152
 1919SOL     OW17389   0.551   4.472  17.596 -0.2212 -0.3969 -0.1903
 1919SOL    HW117390   0.628   4.440  17.642 -0.6285  0.2989  0.9732
 1919SOL    HW217391   0.529   4.404  17.532  0.6283 -0.0028 -0.8949
 1920SOL     OW17392   2.519   3.934   0.057 -0.2364  0.0244 -0.2791
 1920SOL    HW117393   2.582   3.918  17.747 -0.5302  2.0552 -1.0137
 1920SOL    HW217394   2.438   3.911   0.012 -1.2662  0.9221  1.0946
 1921SOL     OW17395   4.377   4.586   1.437 -0.1243  0.0603 -0.0889
 1921SOL    HW117396   4.382   4.616   1.346  1.0815 -1.9327 -0.6958
 1921SOL    HW217397   4.445   4.640   1.477  1.6450 -0.6757 -2.0910
 1922SOL     OW17398   2.980   0.732   4.352 -0.0108 -0.3784 -0.5413
 1922SOL    HW117399   3.022   0.671   4.290  0.0975 -1.0279  0.1680
 1922SOL    HW217400   2.972   0.678   4.431 -1.2669  0.8845  0.1789
 1923SOL     OW17401   4.388   1.446  11.003 -0.0827  0.1285  0.4196
 1923SOL    HW117402   4.344   1.367  11.034 -0.2943 -0.3782 -1.1744
 1923SOL    HW217403   4.420   1.424  10.916  0.1540 -1.6838  0.9547
 1924SOL     OW17404   3.166   1.235   1.807 -0.1973  1.5833  0.4373
 1924SOL    HW117405   3.080   1.276   1.803 -0.7171  0.5050  0.4920
 1924SOL    HW217406   3.149   1.159   1.863  3.1557  1.6148  1.5185
 1925SOL     OW17407   2.637   2.505   0.972  0.3328 -0.1517 -0.0058
 1925SOL    HW117408   2.577   2.514   1.046  2.2660  0.0146  1.5347
 1925SOL    HW217409   2.709   2.452   1.006  0.9920  0.9351  0.3093
 1926SOL     OW17410   2.815   1.183  15.658 -0.0027 -0.3908 -0.1270
 1926SOL    HW117411   2.902   1.202  15.623 -0.8714  0.3108 -1.9146
 1926SOL    HW217412   2.791   1.115  15.595 -0.7000 -0.0047 -0.2772
 1927SOL     OW17413   4.062   4.189   7.784 -0.4967  0.0585 -0.2745
 1927SOL    HW117414   3.978   4.150   7.761  0.6901 -1.3749 -2.1958
 1927SOL    HW217415   4.106   4.112   7.820 -0.1811  1.4343  2.2916
 1928SOL     OW17416   2.260   1.660   8.500  0.5399 -0.9464 -0.3092
 1928SOL    HW117417   2.312   1.733   8.533 -1.2909 -0.0939  0.7022
 1928SOL    HW217418   2.183   1.704   8.463  1.2975 -1.0272 -1.9818
 1929SOL     OW17419   4.333   3.640   4.265 -0.1096 -0.3249  0.2611
 1929SOL    HW117420   4.264   3.686   4.218  1.6023 -0.0124 -1.9449
 1929SOL    HW217421   4.413   3.664   4.220  0.0703  1.0328  1.3181
 1930SOL     OW17422   3.901   0.132   3.107  0.4417  0.5336 -0.1683
 1930SOL    HW117423   3.852   0.171   3.034  0.0013 -0.4647 -0.4081
 1930SOL    HW217424   3.986   0.175   3.117  0.7908 -0.2519  0.1994
 1931SOL     OW17425   3.281   2.316   4.857 -0.7120  0.4341  0.4504
 1931SOL    HW117426   3.254   2.225   4.842 -0.2926 -0.2890  4.2201
 1931SOL    HW217427   3.366   2.296   4.895 -0.3511  2.2128  0.5591
 1932SOL     OW17428   0.357   1.041  17.437 -0.3083 -0.3285 -0.0049
 1932SOL    HW117429   0.273   1.008  17.469  0.0770  0.4481  1.8153
 1932SOL    HW217430   0.420   0.970  17.446 -0.1812 -0.3216 -0.7990
 1933SOL     OW17431   3.312   1.676   3.936 -0.0727 -0.1023  0.3924
 1933SOL    HW117432   3.267   1.759   3.924  0.3581  0.0024 -0.5056
 1933SOL    HW217433   3.357   1.691   4.019  0.2467  1.9126 -0.1514
 1934SOL     OW17434   3.597   3.757   8.235 -0.5789 -0.1079 -0.0873
 1934SOL    HW117435   3.580   3.846   8.266 -1.5477 -0.2819 -0.1359
 1934SOL    HW217436   3.666   3.739   8.298 -3.2035 -2.3243  2.1352
 1935SOL     OW17437   2.425   2.562   7.615 -0.0622 -0.5030  0.1657
 1935SOL    HW117438   2.435   2.654   7.591 -2.6526  0.3498  2.4002
 1935SOL    HW217439   2.375   2.550   7.534 -1.3781  1.4368  0.7089
 1936SOL     OW17440   1.263   3.859   7.322 -0.1854 -0.1333  0.3796
 1936SOL    HW117441   1.317   3.797   7.370  2.4281  3.2218  1.8025
 1936SOL    HW217442   1.299   3.844   7.235 -0.0741  0.2884  0.3523
 1937SOL     OW17443   0.755   3.389   7.428  0.0794 -0.5829 -0.3630
 1937SOL    HW117444   0.833   3.439   7.403  0.3030 -0.5979  0.3014
 1937SOL    HW217445   0.792   3.300   7.427 -2.0819 -1.4624 -2.2633
 1938SOL     OW17446   1.245   1.891   8.626 -0.4575 -0.1071 -0.1519
 1938SOL    HW117447   1.298   1.942   8.687  0.1651  0.4819 -1.1847
 1938SOL    HW217448   1.185   1.961   8.599  0.8847  0.7120 -0.9747
 1939SOL     OW17449   4.616   1.895   0.357 -0.2064  0.6834  0.1649
 1939SOL    HW117450   4.527   1.878   0.328  0.6852 -2.3463 -0.8127
 1939SOL    HW217451   4.652   1.921   0.272 -0.3492  1.7787  0.4429
 1940SOL     OW17452   4.438   2.088   0.569  0.2464 -0.0930 -0.5639
 1940SOL    HW117453   4.505   2.030   0.534 -1.1231 -1.5533 -0.7264
 1940SOL    HW217454   4.451   2.161   0.509  1.8167 -0.4728 -0.6764
 1941SOL     OW17455   1.020   3.949   7.816 -0.1131 -0.0151 -0.3780
 1941SOL    HW117456   1.057   3.919   7.733  3.8319  1.6126  0.7889
 1941SOL    HW217457   0.935   3.969   7.776  0.2457  0.4983 -0.8958
 1942SOL     OW17458   0.919   3.776   0.190 -0.0242  0.5201 -0.6501
 1942SOL    HW117459   0.932   3.727   0.109 -0.5639 -0.3186 -0.2322
 1942SOL    HW217460   0.850   3.828   0.150 -1.2429  0.2405  1.0671
 1943SOL     OW17461   0.116   1.416  11.089  0.0358  0.5663  0.4127
 1943SOL    HW117462   0.083   1.500  11.056  0.7576  0.7320  0.1245
 1943SOL    HW217463   0.190   1.434  11.147  1.0527  1.7110 -1.2550
 1944SOL     OW17464   3.741   4.389   7.340 -0.5542 -0.0644 -0.4231
 1944SOL    HW117465   3.734   4.413   7.432  1.7095  0.5816 -0.4031
 1944SOL    HW217466   3.825   4.344   7.347 -0.7270 -0.2839  0.1548
 1945SOL     OW17467   1.041   2.064   5.200 -0.3881  0.0634 -0.4405
 1945SOL    HW117468   1.053   2.111   5.117 -0.0691  2.0587  0.7376
 1945SOL    HW217469   0.963   2.108   5.233 -0.6585  0.4586 -1.6044
 1946SOL     OW17470   1.112   2.065   3.661  0.3189 -0.0451 -0.3266
 1946SOL    HW117471   1.146   2.068   3.572 -0.8536 -1.4822 -0.8301
 1946SOL    HW217472   1.144   2.146   3.701 -0.5538  1.2145 -2.1923
 1947SOL     OW17473   4.410   0.638   3.631 -0.1969 -0.5623  0.4125
 1947SOL    HW117474   4.347   0.706   3.655  1.6283  0.8244  1.2737
 1947SOL    HW217475   4.404   0.661   3.538 -5.0060 -0.5104  0.7240
 1948SOL     OW17476   0.889   4.258   6.575  0.0339 -0.1747 -0.2106
 1948SOL    HW117477   0.862   4.199   6.645 -0.1341 -0.4626 -0.5184
 1948SOL    HW217478   0.864   4.344   6.609 -1.1366 -0.3769 -0.5699
 1949SOL     OW17479   1.755   3.585   3.397  0.2215 -0.1477 -0.3781
 1949SOL    HW117480   1.839   3.556   3.431  0.7116  1.3579 -0.3104
 1949SOL    HW217481   1.785   3.618   3.312 -0.8620 -0.8790 -1.0429
 1950SOL     OW17482   4.165   3.617   4.871 -0.1400  0.0941 -0.1550
 1950SOL    HW117483   4.137   3.651   4.786  0.5352 -0.0235 -0.4281
 1950SOL    HW217484   4.078   3.600   4.907  0.2913  0.0577  0.8856
 1951SOL     OW17485   2.021   4.581   4.888 -0.1531  0.0542 -0.0211
 1951SOL    HW117486   2.038   4.612   4.977 -1.6146  3.1143 -0.7828
 1951SOL    HW217487   2.059   4.494   4.884  0.9481  0.5794 -1.1704
 1952SOL     OW17488   2.846   1.299   8.348 -0.1245 -0.1053 -0.3599
 1952SOL    HW117489   2.800   1.252   8.279  0.6447  1.5722 -2.0251
 1952SOL    HW217490   2.862   1.384   8.308  0.9264 -0.9431 -1.7345
 1953SOL     OW17491   0.671   4.565   5.076  0.6318 -0.4749 -0.6426
 1953SOL    HW117492   0.594   4.508   5.076 -1.8017  2.8295 -3.4929
 1953SOL    HW217493   0.695   4.547   5.167 -0.4620  0.2381 -0.2025
 1954SOL     OW17494   4.223   3.599   2.781 -0.2104  0.9889 -0.3453
 1954SOL    HW117495   4.284   3.576   2.850  1.6192  2.8938 -1.3209
 1954SOL    HW217496   4.251   3.686   2.751  0.1179  1.0140  0.0409
 1955SOL     OW17497   1.525   0.155  11.123 -0.3124 -0.4298  0.2604
 1955SOL    HW117498   1.567   0.106  11.052  0.1062  0.5671 -0.1849
 1955SOL    HW217499   1.537   0.247  11.098  0.7695 -1.6142 -3.6656
 1956SOL     OW17500   3.645   0.790   2.048  0.1029  0.6042 -0.0331
 1956SOL    HW117501   3.638   0.885   2.038  1.1242  0.2814 -4.0329
 1956SOL    HW217502   3.699   0.781   2.127 -0.2952 -0.5509  0.1116
 1957SOL     OW17503   3.185   0.804   6.616  0.2100  0.7557  0.5169
 1957SOL    HW117504   3.246   0.778   6.548  0.8001 -2.2905  2.1932
 1957SOL    HW217505   3.215   0.893   6.634 -0.9123  1.4361 -0.9936
 1958SOL     OW17506   2.761   2.143   7.322 -0.2000 -0.2198 -0.3966
 1958SOL    HW117507   2.817   2.218   7.344  1.7256 -1.2645 -1.7982
 1958SOL    HW217508   2.728   2.166   7.236  0.6773  0.1425 -0.6369
 1959SOL     OW17509   4.333   3.162   2.754  0.2002  0.5162  0.0239
 1959SOL    HW117510   4.389   3.124   2.823  1.4769  0.1008 -1.2397
 1959SOL    HW217511   4.392   3.138   2.683 -0.7275 -0.4673 -0.3994
 1960SOL     OW17512   1.034   0.913  14.055  0.5171  0.3325 -0.8142
 1960SOL    HW117513   1.028   0.818  14.047 -0.6033  0.6025 -3.0921
 1960SOL    HW217514   1.085   0.941  13.979  0.2782  2.7548 -0.0819
 1961SOL     OW17515   0.903   1.901   3.540 -0.2003  0.0633 -0.6138
 1961SOL    HW117516   0.955   1.966   3.586 -1.2404  0.3580  0.1324
 1961SOL    HW217517   0.910   1.941   3.453 -1.6987 -0.7429 -1.1230
 1962SOL     OW17518   2.803   3.092   6.141 -0.0392  0.0125  0.1060
 1962SOL    HW117519   2.884   3.044   6.124  0.4411  0.2797  1.6515
 1962SOL    HW217520   2.748   3.018   6.167  0.8668 -0.2517  1.2629
 1963SOL     OW17521   0.379   0.623   5.403 -0.0825  0.3973  0.5267
 1963SOL    HW117522   0.360   0.588   5.490 -3.2261  0.3609 -0.1812
 1963SOL    HW217523   0.394   0.716   5.420 -3.6931  0.5480  2.7757
 1964SOL     OW17524   0.531   4.635  13.887  0.2003  0.2200  0.0609
 1964SOL    HW117525   0.595   4.565  13.877 -1.1936 -1.0200 -0.2278
 1964SOL    HW217526   0.474   4.603  13.817  1.8912  1.1330 -1.7080
 1965SOL     OW17527   0.059   1.419  17.567  0.4750 -0.5398 -0.5270
 1965SOL    HW117528   0.128   1.357  17.593  2.4743  1.7634 -0.2543
 1965SOL    HW217529   4.738   1.360  17.524  2.9896 -1.1314 -3.3088
 1966SOL     OW17530   2.965   4.430   8.174  0.5862 -0.0473 -0.0109
 1966SOL    HW117531   2.958   4.404   8.265 -0.6773 -1.4876 -0.5281
 1966SOL    HW217532   3.039   4.491   8.169 -0.6839  1.6319  1.7488
 1967SOL     OW17533   1.440   0.905   8.726  0.1159  0.7064 -0.9799
 1967SOL    HW117534   1.496   0.982   8.725 -1.0526  1.5785  0.5138
 1967SOL    HW217535   1.498   0.836   8.759 -0.9241  1.2087  1.8740
 1968SOL     OW17536   0.520   0.340   1.969  0.3305  0.1606  0.2308
 1968SOL    HW117537   0.604   0.384   1.982  0.5234 -0.4067  0.9020
 1968SOL    HW217538   0.543   0.253   2.002 -1.3807 -0.5936 -0.5745
 1969SOL     OW17539   4.506   1.286   5.098  0.3884 -0.1188  0.1614
 1969SOL    HW117540   4.419   1.280   5.058  0.0141  0.9188  0.8064
 1969SOL    HW217541   4.564   1.278   5.022 -2.5902  2.3200 -2.3825
 1970SOL     OW17542   0.840   4.520  12.393  0.2944 -0.5552 -0.1676
 1970SOL    HW117543   0.812   4.609  12.371  3.5048  0.1591 -1.4873
 1970SOL    HW217544   0.896   4.505  12.317 -0.8087  1.1233 -1.3082
 1971SOL     OW17545   4.080   3.260  10.431  0.1415 -0.2455  0.3092
 1971SOL    HW117546   4.118   3.246  10.344 -0.9005 -1.8813  0.1083
 1971SOL    HW217547   4.133   3.337  10.451  1.4935 -1.0268 -0.2989
 1972SOL     OW17548   2.179   2.220   8.124  0.5829 -0.0289  0.4265
 1972SOL    HW117549   2.252   2.274   8.095  0.4825  0.4654  1.0826
 1972SOL    HW217550   2.168   2.174   8.041  2.4554 -0.8399  0.6184
 1973SOL     OW17551   1.776   3.566  10.626 -0.7439 -0.0451  0.0461
 1973SOL    HW117552   1.861   3.537  10.592 -0.5417 -0.8906  1.2883
 1973SOL    HW217553   1.782   3.650  10.580 -0.6045 -0.3593 -0.5157
 1974SOL     OW17554   4.149   4.338   3.554  0.4912  0.3699 -0.4616
 1974SOL    HW117555   4.137   4.402   3.625 -0.9280  0.1706 -0.5240
 1974SOL    HW217556   4.130   4.395   3.479 -1.5947 -0.5772 -0.6525
 1975SOL     OW17557   3.415   3.431   5.234 -0.3396 -0.0723 -0.1854
 1975SOL    HW117558   3.471   3.433   5.312 -0.0072  2.4738 -0.4919
 1975SOL    HW217559   3.334   3.464   5.271 -0.3986 -0.1141 -0.2777
 1976SOL     OW17560   0.669   2.701  14.868 -0.3848 -0.2302  0.0463
 1976SOL    HW117561   0.667   2.796  14.862  0.4968 -0.1316  1.5226
 1976SOL    HW217562   0.664   2.667  14.778  1.7869 -0.7042  0.1164
 1977SOL     OW17563   4.214   3.747   1.342  0.5016  0.3544 -0.1747
 1977SOL    HW117564   4.290   3.769   1.396 -0.1076 -0.4652  1.0348
 1977SOL    HW217565   4.143   3.801   1.378  1.3818  0.1534  1.8842
 1978SOL     OW17566   0.288   1.968   0.258  0.2671  0.3741  0.0965
 1978SOL    HW117567   0.335   2.046   0.287  3.9348 -1.6958 -0.3537
 1978SOL    HW217568   0.209   1.990   0.307  0.9130 -0.0565  1.3153
 1979SOL     OW17569   1.887   0.896   4.798 -0.1784 -0.0401 -0.1649
 1979SOL    HW117570   1.863   0.970   4.855 -0.6456  0.3124 -0.8195
 1979SOL    HW217571   1.911   0.936   4.715 -2.8248 -1.9907 -1.8722
 1980SOL     OW17572   4.215   3.274  13.560  0.3616 -0.2234  0.3334
 1980SOL    HW117573   4.199   3.328  13.637 -1.1726 -1.6558  1.0245
 1980SOL    HW217574   4.126   3.259  13.528 -0.5613 -0.5465  3.0522
 1981SOL     OW17575   3.292   3.467   4.428  1.0175 -0.1350 -0.0484
 1981SOL    HW117576   3.379   3.464   4.467  1.5191  1.7737 -1.0058
 1981SOL    HW217577   3.247   3.491   4.508 -0.1143  1.1414 -1.0646
 1982SOL     OW17578   0.592   4.315   7.142  0.3206 -0.2006  1.0325
 1982SOL    HW117579   0.615   4.275   7.226  0.6174 -1.6628  0.2591
 1982SOL    HW217580   0.598   4.233   7.093  0.3865 -0.3237  1.2498
 1983SOL     OW17581   0.218   3.661  10.516 -0.6772  0.3891 -0.5912
 1983SOL    HW117582   0.260   3.605  10.450  2.4477 -0.9077  2.5033
 1983SOL    HW217583   0.208   3.748  10.478  1.0558 -0.3813 -2.8638
 1984SOL     OW17584   3.531   0.072   1.170 -0.7840  0.1419  0.0338
 1984SOL    HW117585   3.546   0.137   1.238 -0.7100  2.0786 -1.8622
 1984SOL    HW217586   3.457   0.025   1.210 -2.2010  3.2746  1.0906
 1985SOL     OW17587   0.391   1.429  16.006  0.4840 -0.3809  0.4529
 1985SOL    HW117588   0.456   1.460  15.942 -0.7272 -0.1492 -0.6683
 1985SOL    HW217589   0.305   1.456  15.972  1.8621  0.7233 -2.1648
 1986SOL     OW17590   1.701   1.050   0.420  0.0079  0.4605 -0.5888
 1986SOL    HW117591   1.785   1.007   0.405  0.2365  0.8437 -0.4138
 1986SOL    HW217592   1.692   1.048   0.515 -1.0555  0.0539 -0.6921
 1987SOL     OW17593   2.667   1.931   0.713 -0.5941  0.1974  0.5001
 1987SOL    HW117594   2.645   1.943   0.621  1.8107 -3.1491 -0.5059
 1987SOL    HW217595   2.760   1.915   0.698 -0.7613  0.0571 -0.3827
 1988SOL     OW17596   2.080   0.017  16.326 -0.0370  0.4986 -0.0840
 1988SOL    HW117597   1.999   0.006  16.276  0.4188 -0.8678 -0.5219
 1988SOL    HW217598   2.043   4.731  16.410 -0.4215  2.1161  0.2565
 1989SOL     OW17599   2.418   0.267  11.798 -0.0343 -0.3010 -0.3350
 1989SOL    HW117600   2.426   0.214  11.878 -0.4991  0.4399  0.2084
 1989SOL    HW217601   2.323   0.276  11.790 -0.0993 -2.3106 -1.6306
 1990SOL     OW17602   2.377   2.266   4.639 -0.1568 -0.8320 -0.4061
 1990SOL    HW117603   2.456   2.315   4.619 -0.9793 -0.0543 -1.7543
 1990SOL    HW217604   2.335   2.304   4.716  2.5712  0.7256  0.3079
 1991SOL     OW17605   2.609   1.038   8.201  0.3992 -0.4542  0.2489
 1991SOL    HW117606   2.672   1.075   8.140  1.2405  0.6357  1.7556
 1991SOL    HW217607   2.555   1.115   8.220 -0.7645 -0.8660 -1.4592
 1992SOL     OW17608   2.210   1.269   7.071 -0.1129  0.1893 -0.4254
 1992SOL    HW117609   2.150   1.224   7.012  0.5989 -2.3052  0.7737
 1992SOL    HW217610   2.227   1.196   7.130  0.9356  0.2823 -0.6049
 1993SOL     OW17611   1.809   0.375   3.735 -0.1196  0.2748  0.0138
 1993SOL    HW117612   1.871   0.436   3.693 -0.7076 -0.5625 -2.0620
 1993SOL    HW217613   1.726   0.422   3.723 -0.1451 -0.1176 -1.3428
 1994SOL     OW17614   3.875   1.033   8.374 -0.6933 -0.3332  0.1410
 1994SOL    HW117615   3.914   1.018   8.288 -0.2179  0.0697  0.2852
 1994SOL    HW217616   3.782   1.025   8.354 -1.1567 -0.5725  2.4408
 1995SOL     OW17617   4.131   2.711  11.366 -0.2451 -0.2075  0.3100
 1995SOL    HW117618   4.117   2.784  11.426  0.1717  0.8356 -0.8524
 1995SOL    HW217619   4.130   2.751  11.279 -0.0172  0.8007  0.7773
 1996SOL     OW17620   0.556   1.625   2.219  0.1574 -0.4674  0.4361
 1996SOL    HW117621   0.565   1.623   2.124  1.9316 -0.1957  0.5998
 1996SOL    HW217622   0.560   1.531   2.239 -2.3946 -1.0443 -1.7275
 1997SOL     OW17623   2.113   0.187   7.165 -0.1667  0.2494  0.4439
 1997SOL    HW117624   2.135   0.167   7.256 -0.0032  1.6982  0.7241
 1997SOL    HW217625   2.049   0.120   7.143  0.5582 -0.5436  0.7284
 1998SOL     OW17626   0.929   1.835  11.809  0.0626 -0.2706 -0.2042
 1998SOL    HW117627   0.987   1.851  11.734 -0.3814 -0.9788 -0.7019
 1998SOL    HW217628   0.848   1.818  11.760  0.2119 -2.7713  0.4585
 1999SOL     OW17629   3.855   3.157   4.266  0.2715  0.6198 -0.3557
 1999SOL    HW117630   3.936   3.202   4.289 -0.5916  2.9561 -1.9270
 1999SOL    HW217631   3.888   3.080   4.220 -0.5449  0.2596 -0.3476
 2000SOL     OW17632   4.121   3.442   6.880  0.3217 -0.5400  0.4404
 2000SOL    HW117633   4.159   3.364   6.919 -0.1620  0.3111  2.6123
 2000SOL    HW217634   4.113   3.477   6.968  0.7433  1.1584 -0.1805
 2001SOL     OW17635   1.219   2.062  15.472  0.1814 -0.5443  0.3994
 2001SOL    HW117636   1.230   2.009  15.393  1.8894 -0.5515  0.6403
 2001SOL    HW217637   1.220   2.147  15.429 -2.1061 -0.8760 -0.2593
 2002SOL     OW17638   3.374   3.871   5.112 -0.5191 -0.0991 -0.2475
 2002SOL    HW117639   3.465   3.899   5.098  0.1668 -3.1342 -1.6486
 2002SOL    HW217640   3.384   3.779   5.089  1.0850 -0.1544  0.6682
 2003SOL     OW17641   2.999   1.107   0.817 -0.1172  0.4289 -0.1830
 2003SOL    HW117642   2.963   1.140   0.735 -0.5128  2.0789  0.6554
 2003SOL    HW217643   2.931   1.147   0.872 -0.0020 -1.6540  1.4832
 2004SOL     OW17644   2.052   2.487   8.731  0.1905  0.7704 -0.3105
 2004SOL    HW117645   1.960   2.510   8.747  0.3793  0.3172  1.3569
 2004SOL    HW217646   2.078   2.443   8.811  1.0428  0.7279 -0.6117
 2005SOL     OW17647   2.045   2.147   0.747 -0.3084 -0.3023  0.0228
 2005SOL    HW117648   1.960   2.181   0.772 -0.1943  1.9635 -2.7606
 2005SOL    HW217649   2.098   2.227   0.743  1.2475 -1.4332 -2.3389
 2006SOL     OW17650   4.619   4.275   4.856  0.2522 -0.3775  0.3882
 2006SOL    HW117651   4.631   4.182   4.837 -0.9733 -0.3422 -0.5659
 2006SOL    HW217652   4.706   4.288   4.893  1.1645  1.1455 -2.2253
 2007SOL     OW17653   3.897   0.322   9.144 -0.3160 -0.5838 -0.1481
 2007SOL    HW117654   3.966   0.310   9.079 -0.3501  2.0292 -0.6523
 2007SOL    HW217655   3.875   0.415   9.135  3.1702  0.3385  0.9988
 2008SOL     OW17656   0.286   2.707   1.806  1.0326 -0.5106 -0.3868
 2008SOL    HW117657   0.343   2.714   1.730  0.0836 -2.8727 -1.2857
 2008SOL    HW217658   0.353   2.685   1.871  1.6408  2.1492 -0.1208
 2009SOL     OW17659   0.353   4.352  16.910  0.8079  0.5421 -0.2667
 2009SOL    HW117660   0.379   4.284  16.847  2.2295 -1.4224  2.4439
 2009SOL    HW217661   0.377   4.431  16.861 -0.8347  1.0247 -0.2889
 2010SOL     OW17662   0.731   1.532   7.262 -0.5353 -0.4788 -0.4681
 2010SOL    HW117663   0.665   1.501   7.199 -0.4751  1.1635 -1.3571
 2010SOL    HW217664   0.683   1.594   7.317  0.4107 -0.4902  0.3576
 2011SOL     OW17665   3.540   0.079   6.534  0.2491  0.1547 -0.3982
 2011SOL    HW117666   3.489   0.075   6.453  1.2179 -0.6665 -0.9634
 2011SOL    HW217667   3.473   0.100   6.600  1.1714 -0.4856  0.7454
 2012SOL     OW17668   0.635   0.684   7.552 -1.3229 -0.0495  0.0996
 2012SOL    HW117669   0.563   0.636   7.593  0.3738  0.0137  3.1332
 2012SOL    HW217670   0.620   0.768   7.596 -1.6207 -1.0665  1.9042
 2013SOL     OW17671   1.104   2.117   0.231  0.1192 -0.3011  0.0153
 2013SOL    HW117672   1.109   2.206   0.196 -1.3015 -1.0186 -2.0336
 2013SOL    HW217673   1.195   2.103   0.256  0.5973  2.8508  0.0007
 2014SOL     OW17674   1.663   4.384  14.689 -0.5519  0.5559  0.4440
 2014SOL    HW117675   1.615   4.304  14.709  0.5830 -0.5374 -1.1655
 2014SOL    HW217676   1.595   4.451  14.687 -1.8704 -0.7994  0.3272
 2015SOL     OW17677   4.118   3.778   4.105  0.3048 -0.2373  0.2786
 2015SOL    HW117678   4.140   3.811   4.018  0.8401 -0.1564  0.4451
 2015SOL    HW217679   4.044   3.834   4.132  0.0061  0.1873 -1.4165
 2016SOL     OW17680   4.311   1.432   6.274 -0.4716 -0.0702  0.3278
 2016SOL    HW117681   4.366   1.412   6.198 -3.7878 -0.3254 -1.9940
 2016SOL    HW217682   4.295   1.525   6.255 -1.1803 -0.3431 -0.4117
 2017SOL     OW17683   1.680   3.890   8.147 -0.3530 -0.1273 -0.1956
 2017SOL    HW117684   1.682   3.897   8.243 -2.2751 -1.0417 -0.0879
 2017SOL    HW217685   1.727   3.968   8.117 -1.0414  0.0258 -0.8720
 2018SOL     OW17686   1.093   3.227   7.318  0.1944  0.4593 -0.0762
 2018SOL    HW117687   1.006   3.219   7.356 -0.0065 -1.2545 -0.8865
 2018SOL    HW217688   1.062   3.285   7.249  1.4864 -0.5184 -1.4816
 2019SOL     OW17689   3.622   0.782   3.422 -0.2524 -0.4663  0.2697
 2019SOL    HW117690   3.528   0.768   3.407 -0.9392  2.5938  1.7872
 2019SOL    HW217691   3.641   0.789   3.328  0.7040  0.3776  0.5331
 2020SOL     OW17692   2.410   4.508  12.211  0.1819  0.6793 -0.4609
 2020SOL    HW117693   2.415   4.417  12.181  1.0961  0.7099 -0.4037
 2020SOL    HW217694   2.381   4.497  12.302 -1.3415  0.9121 -0.9262
 2021SOL     OW17695   1.504   4.097   5.923  0.2408 -0.0955  0.3514
 2021SOL    HW117696   1.508   4.001   5.925 -0.2370 -0.0957  1.4759
 2021SOL    HW217697   1.541   4.117   6.009  0.5681 -0.9650  0.4171
 2022SOL     OW17698   4.739   0.621  10.537  0.0185  0.1147  0.2314
 2022SOL    HW117699   4.666   0.559  10.527 -1.2194  1.3445  1.7780
 2022SOL    HW217700   4.705   0.688  10.596  0.0889 -1.1978  1.7665
 2023SOL     OW17701   4.666   0.472   5.818 -0.0779  0.3117  0.7610
 2023SOL    HW117702   4.692   0.556   5.779 -0.0823  0.7207  1.6457
 2023SOL    HW217703   4.598   0.432   5.764 -1.6349  1.1325  2.1233
 2024SOL     OW17704   4.128   0.410   6.812 -0.0662 -0.0423 -0.3242
 2024SOL    HW117705   4.094   0.332   6.769 -2.5478  0.9400 -0.1557
 2024SOL    HW217706   4.204   0.425   6.756 -0.3161  2.6261  0.0777
 2025SOL     OW17707   0.327   1.678   8.634 -0.5349 -0.0133 -0.3738
 2025SOL    HW117708   0.341   1.583   8.641 -1.1211 -0.0524  0.3103
 2025SOL    HW217709   0.257   1.676   8.699 -0.0130  0.4908  0.1938
 2026SOL     OW17710   3.426   0.664   2.905 -0.0126  0.4678  0.6438
 2026SOL    HW117711   3.494   0.602   2.930  0.7494  1.0033 -0.0962
 2026SOL    HW217712   3.366   0.620   2.846  0.3256 -0.7340  1.2076
 2027SOL     OW17713   1.391   0.634   3.152 -0.1293 -0.4514  0.1138
 2027SOL    HW117714   1.410   0.541   3.165 -1.0907 -0.6093  0.3474
 2027SOL    HW217715   1.378   0.661   3.242  1.3589  0.1576  0.1515
 2028SOL     OW17716   2.556   3.046  10.350  0.3156  0.4237  0.0054
 2028SOL    HW117717   2.614   3.081  10.282 -1.7400  1.2385 -1.3413
 2028SOL    HW217718   2.603   3.049  10.434  0.2305 -1.9162  0.1322
 2029SOL     OW17719   1.596   0.530   3.670 -0.3539  0.2571  0.7652
 2029SOL    HW117720   1.523   0.482   3.631  0.5334 -1.5900  1.3489
 2029SOL    HW217721   1.554   0.593   3.727 -0.8097 -1.1723  2.0060
 2030SOL     OW17722   0.482   1.142   6.674 -0.1671  0.5289 -0.1723
 2030SOL    HW117723   0.548   1.177   6.614  0.1347  0.4997  0.1436
 2030SOL    HW217724   0.484   1.208   6.743 -1.2105  0.5535 -0.1648
 2031SOL     OW17725   0.711   3.154  11.407 -0.3326  0.0703 -0.3767
 2031SOL    HW117726   0.753   3.230  11.366  0.6180 -0.8875 -1.1919
 2031SOL    HW217727   0.759   3.075  11.381  1.3704  0.9793  0.0252
 2032SOL     OW17728   1.397   4.246  16.465  0.1360  0.7533  0.8569
 2032SOL    HW117729   1.321   4.287  16.424 -2.0372 -1.8737  2.3037
 2032SOL    HW217730   1.463   4.261  16.397  0.0155  0.1292  0.6056
 2033SOL     OW17731   1.519   2.325   4.749 -0.2451 -0.1985 -0.0522
 2033SOL    HW117732   1.440   2.371   4.721  0.9819  1.4797 -0.7684
 2033SOL    HW217733   1.568   2.300   4.670 -1.7111  0.7938 -1.2793
 2034SOL     OW17734   1.378   3.383  13.587 -0.1459 -0.0363 -0.2317
 2034SOL    HW117735   1.451   3.433  13.623  2.1244 -2.4235 -1.4691
 2034SOL    HW217736   1.344   3.330  13.659 -0.6812 -1.4361 -1.4952
 2035SOL     OW17737   4.642   1.021   9.438 -0.1759  0.0739 -0.2823
 2035SOL    HW117738   4.720   1.001   9.387 -0.1360 -0.9600  0.1966
 2035SOL    HW217739   4.676   1.068   9.515 -0.0031  0.6620 -0.7123
 2036SOL     OW17740   3.045   0.278   7.005 -0.0665 -0.1288 -0.3105
 2036SOL    HW117741   2.957   0.307   7.026  0.7243 -0.2881  3.2230
 2036SOL    HW217742   3.015   0.227   6.930  0.0093 -1.8506  0.8297
 2037SOL     OW17743   4.289   4.700   5.865 -0.3718 -0.1631  0.4797
 2037SOL    HW117744   4.229   4.737   5.800  0.8766 -1.2856 -1.3145
 2037SOL    HW217745   4.333   4.647   5.799 -0.9069  0.6858 -0.5756
 2038SOL     OW17746   2.292   2.755   5.460  0.1583 -0.3523 -0.3110
 2038SOL    HW117747   2.292   2.719   5.371 -1.8122 -1.6957  0.2265
 2038SOL    HW217748   2.203   2.790   5.463 -0.5435 -2.2721  0.9896
 2039SOL     OW17749   0.232   3.988  15.099 -0.6025  0.1919 -0.7773
 2039SOL    HW117750   0.146   4.003  15.060 -0.8165  1.0518  0.0263
 2039SOL    HW217751   0.292   4.033  15.039 -1.0375 -1.2221 -2.2619
 2040SOL     OW17752   4.275   3.860  10.717 -0.3410  0.2587 -0.7669
 2040SOL    HW117753   4.235   3.831  10.634 -0.5057 -1.1810 -0.1807
 2040SOL    HW217754   4.272   3.956  10.711 -1.3959  0.1909 -1.3460
 2041SOL     OW17755   2.162   3.633   7.392  0.5521  0.0440  0.1884
 2041SOL    HW117756   2.194   3.585   7.469 -0.8196 -1.0806  0.0467
 2041SOL    HW217757   2.211   3.714   7.381 -1.2137  0.7967 -2.0552
 2042SOL     OW17758   3.522   3.981   2.528 -0.0218  0.1560  0.4114
 2042SOL    HW117759   3.493   3.928   2.454 -0.9115  1.6378 -0.3107
 2042SOL    HW217760   3.597   4.031   2.494  0.7445 -1.2010  0.1280
 2043SOL     OW17761   4.101   3.476   2.007 -0.3882 -0.6356  0.8231
 2043SOL    HW117762   4.009   3.451   1.999  0.0923 -1.9614 -0.6210
 2043SOL    HW217763   4.143   3.412   1.949 -0.7104 -0.0384 -0.0796
 2044SOL     OW17764   3.944   1.833   1.591  0.4052  0.2174 -0.1885
 2044SOL    HW117765   3.903   1.822   1.505  2.8012  1.4696 -1.4982
 2044SOL    HW217766   3.899   1.911   1.624  1.4134  0.1016  1.4408
 2045SOL     OW17767   4.543   4.475  11.420 -0.1665 -0.4338  0.6593
 2045SOL    HW117768   4.517   4.567  11.413 -0.4940 -0.7240 -1.7724
 2045SOL    HW217769   4.634   4.477  11.390 -0.3227  1.5799  0.3258
 2046SOL     OW17770   1.908   1.451   5.083 -0.2336 -0.1543  0.6120
 2046SOL    HW117771   1.921   1.496   4.999  0.4217 -1.5239 -0.0208
 2046SOL    HW217772   1.829   1.498   5.111 -1.6694 -1.8052 -0.6748
 2047SOL     OW17773   3.613   4.431  11.333  0.4383  0.0981 -0.3500
 2047SOL    HW117774   3.542   4.433  11.268  1.0098 -2.0238 -1.0382
 2047SOL    HW217775   3.584   4.400  11.418  0.5220 -0.2784 -0.4583
 2048SOL     OW17776   2.393   0.176   0.137 -0.7282  0.0367  0.1448
 2048SOL    HW117777   2.394   0.180   0.232  1.4775  0.8956  0.0936
 2048SOL    HW217778   2.365   0.089   0.111 -0.0785  0.5402 -2.2716
 2049SOL     OW17779   0.814   2.365   4.638  0.1777  0.6681 -0.7280
 2049SOL    HW117780   0.792   2.271   4.640  0.9786  0.5505  2.4456
 2049SOL    HW217781   0.738   2.401   4.683  0.7266 -0.9249  1.5024
 2050SOL     OW17782   0.177   0.190   8.395  0.0884  0.1003 -0.0644
 2050SOL    HW117783   0.090   0.180   8.356  0.1410 -0.0474 -0.1417
 2050SOL    HW217784   0.218   0.111   8.362  2.6064  1.8280 -1.1281
 2051SOL     OW17785   0.472   1.116   2.481 -0.5759 -0.2473  0.0146
 2051SOL    HW117786   0.447   1.026   2.502 -0.6454 -0.2051  0.1121
 2051SOL    HW217787   0.565   1.120   2.504 -0.3190 -0.6368 -0.9674
 2052SOL     OW17788   3.205   2.725   6.075  0.4009  0.5048  0.5597
 2052SOL    HW117789   3.281   2.741   6.019 -0.3867  0.9726 -0.3840
 2052SOL    HW217790   3.159   2.680   6.004  0.1878 -1.0128  1.6622
 2053SOL     OW17791   2.459   2.731   7.190  0.0094 -0.2185  0.1291
 2053SOL    HW117792   2.531   2.674   7.216  0.9857  1.2457  0.6582
 2053SOL    HW217793   2.467   2.797   7.259  1.0240 -1.2917  1.0412
 2054SOL     OW17794   0.544   2.384  15.546  0.2440  0.7205  0.2653
 2054SOL    HW117795   0.582   2.422  15.626  1.6671  1.0872 -0.5757
 2054SOL    HW217796   0.557   2.291  15.565  0.6360  0.6191 -0.5151
 2055SOL     OW17797   0.536   3.913  10.190  0.0650  0.1125 -0.1990
 2055SOL    HW117798   0.624   3.886  10.218  0.5051  0.1357 -1.5376
 2055SOL    HW217799   0.548   3.902  10.096 -0.5973 -0.7345 -0.1857
 2056SOL     OW17800   4.223   2.456   2.428 -0.6275 -0.5869 -0.0813
 2056SOL    HW117801   4.248   2.417   2.511  0.0983  1.4944  0.6816
 2056SOL    HW217802   4.183   2.383   2.380  0.2120  0.2826 -2.1133
 2057SOL     OW17803   3.509   4.665   8.238  0.4644 -0.2514 -0.0028
 2057SOL    HW117804   3.514   0.013   8.203 -3.5735  0.4103  1.1529
 2057SOL    HW217805   3.457   4.678   8.318  2.0943 -0.5744  1.1299
 2058SOL     OW17806   1.661   4.521   3.780  0.0069  0.5732  0.6959
 2058SOL    HW117807   1.667   4.498   3.687  1.7234  1.8582  0.4843
 2058SOL    HW217808   1.640   4.614   3.771  1.0875  0.5752 -1.9541
 2059SOL     OW17809   1.261   0.387   1.350 -0.3240 -0.2897 -0.1886
 2059SOL    HW117810   1.276   0.355   1.260 -0.6637  1.9556 -1.0330
 2059SOL    HW217811   1.166   0.391   1.346 -0.4043 -1.5942  0.5250
 2060SOL     OW17812   3.704   2.479  12.949 -0.0066  0.6246  0.6741
 2060SOL    HW117813   3.762   2.517  13.014  1.5728 -0.6554 -0.0059
 2060SOL    HW217814   3.731   2.388  12.959  0.0262  0.7626  1.7649
 2061SOL     OW17815   3.286   2.128   2.226 -0.5806  0.3120  0.1935
 2061SOL    HW117816   3.262   2.206   2.178  0.3170  1.9236  2.3642
 2061SOL    HW217817   3.365   2.149   2.276  0.9713 -3.7022 -0.5629
 2062SOL     OW17818   1.009   3.284   2.001  0.0337  0.1058 -0.6538
 2062SOL    HW117819   1.048   3.231   1.932 -2.3410 -1.1279 -1.0364
 2062SOL    HW217820   1.078   3.348   2.019  1.4304 -1.7914  0.6669
 2063SOL     OW17821   3.443   4.098   7.482 -0.3290 -0.0462  0.2811
 2063SOL    HW117822   3.391   4.125   7.406  1.3837  0.1285 -0.8345
 2063SOL    HW217823   3.447   4.182   7.528 -0.2563  0.6830 -1.0394
 2064SOL     OW17824   2.856   1.280   4.872  0.0364  0.6311  0.7838
 2064SOL    HW117825   2.818   1.213   4.928 -0.1346 -0.2569 -0.4110
 2064SOL    HW217826   2.866   1.357   4.929  2.0502  2.2694 -1.7649
 2065SOL     OW17827   0.272   0.714  15.190  0.2174  0.2086 -0.6707
 2065SOL    HW117828   0.296   0.807  15.190 -2.1149  0.8070  0.0275
 2065SOL    HW217829   0.314   0.691  15.273 -1.9522  1.9443  0.9192
 2066SOL     OW17830   0.198   3.396  11.859 -0.0787  0.1539  0.0599
 2066SOL    HW117831   0.270   3.342  11.824 -2.1455 -2.0610 -0.7939
 2066SOL    HW217832   0.232   3.484  11.845  0.5973 -0.2533 -0.9297
 2067SOL     OW17833   4.666   3.854   3.871  0.5579  0.5826 -0.2193
 2067SOL    HW117834   4.624   3.824   3.951  0.7890  0.7916 -0.0217
 2067SOL    HW217835   4.646   3.947   3.865  1.4734  0.8171  0.4300
 2068SOL     OW17836   4.435   1.690  10.650  0.4284 -0.2038 -0.3506
 2068SOL    HW117837   4.530   1.707  10.647  0.7496 -1.5913  2.5522
 2068SOL    HW217838   4.400   1.775  10.622 -0.4984 -0.2188  0.7687
 2069SOL     OW17839   4.212   0.604   6.476 -0.0624  0.1947  0.1225
 2069SOL    HW117840   4.277   0.650   6.423 -2.0910  0.6260 -1.9979
 2069SOL    HW217841   4.262   0.571   6.551  0.9100 -1.8754 -1.4506
 2070SOL     OW17842   0.097   4.562   9.364  0.5633 -0.0653 -0.1034
 2070SOL    HW117843   0.065   4.528   9.280  1.3454 -2.3327  0.5339
 2070SOL    HW217844   0.018   4.592   9.409 -0.2574 -2.2423 -0.0765
 2071SOL     OW17845   2.090   2.350  15.786  0.4878  0.3164  0.9083
 2071SOL    HW117846   2.099   2.367  15.880 -0.2510  0.5355  0.9435
 2071SOL    HW217847   2.001   2.316  15.774  0.2691  0.8753  0.9396
 2072SOL     OW17848   3.722   1.547  10.078  0.5586 -0.3026  0.4389
 2072SOL    HW117849   3.784   1.609  10.116  1.8498 -0.5537 -1.2382
 2072SOL    HW217850   3.702   1.486  10.149  2.1637 -0.1120  1.0614
 2073SOL     OW17851   0.547   0.710   9.277  0.1712  0.6420  0.5010
 2073SOL    HW117852   0.577   0.733   9.365 -1.0131 -1.4996  1.4741
 2073SOL    HW217853   0.625   0.718   9.221 -0.6700 -2.4061 -1.1126
 2074SOL     OW17854   3.176   3.022   8.979 -0.1467 -0.3578 -0.3991
 2074SOL    HW117855   3.205   3.058   8.895  3.0456  0.0220  0.8571
 2074SOL    HW217856   3.246   2.961   9.001 -0.3070 -1.1974 -2.1971
 2075SOL     OW17857   0.064   2.423  15.919  0.4969  0.1898  0.0966
 2075SOL    HW117858   0.100   2.456  15.837  2.3203 -0.4097  0.6366
 2075SOL    HW217859   0.137   2.379  15.963 -1.8462 -2.5788  1.1919
 2076SOL     OW17860   2.068   1.145   6.027  0.0253 -0.4446  0.0384
 2076SOL    HW117861   2.105   1.232   6.012 -1.8042  0.4177  0.5979
 2076SOL    HW217862   1.978   1.176   6.027  0.5728  1.1715  0.9543
 2077SOL     OW17863   4.103   1.280  13.779  0.5914  0.4880  0.4503
 2077SOL    HW117864   4.077   1.341  13.848 -0.8395  1.1018 -0.6225
 2077SOL    HW217865   4.195   1.271  13.805  1.0812  0.5567 -1.2705
 2078SOL     OW17866   1.976   3.391   7.706 -0.0016 -0.4055  0.3809
 2078SOL    HW117867   2.024   3.473   7.702  1.1931 -1.0397  1.9922
 2078SOL    HW217868   1.950   3.388   7.614 -1.1650 -1.1958  0.7273
 2079SOL     OW17869   0.438   2.993  13.805  0.4012  0.4143  0.4953
 2079SOL    HW117870   0.457   3.078  13.846 -2.7415  0.7937  1.1956
 2079SOL    HW217871   0.344   2.994  13.823  0.0314  2.2833 -1.6491
 2080SOL     OW17872   1.290   2.225   0.625 -0.6799 -0.0941 -0.2110
 2080SOL    HW117873   1.331   2.139   0.627 -2.3967 -0.9075  0.0822
 2080SOL    HW217874   1.202   2.205   0.594 -1.1942  0.6411  0.7580
 2081SOL     OW17875   3.879   1.449   1.166  0.4041  0.3004 -0.4274
 2081SOL    HW117876   3.841   1.471   1.251  0.0576  2.7546 -1.1998
 2081SOL    HW217877   3.799   1.420   1.122 -0.3166  0.4815  0.7866
 2082SOL     OW17878   3.173   0.152  16.852  0.3129  0.2140  0.1146
 2082SOL    HW117879   3.101   0.202  16.814  0.4090  0.4217  0.2087
 2082SOL    HW217880   3.177   0.186  16.941  1.2958  0.2148  0.0757
 2083SOL     OW17881   0.867   0.857   5.892 -0.2499  0.2471  0.2491
 2083SOL    HW117882   0.958   0.886   5.890 -0.6210  1.5227  1.5509
 2083SOL    HW217883   0.877   0.765   5.868 -0.1373  0.0713  0.9861
 2084SOL     OW17884   0.489   0.398   5.829  0.4702  0.1838  0.5736
 2084SOL    HW117885   0.509   0.307   5.849 -2.5680 -0.7565 -0.7107
 2084SOL    HW217886   0.559   0.432   5.772  2.3320 -1.4429  1.8991
 2085SOL     OW17887   2.965   1.595   4.475 -0.1892  0.3643 -0.2720
 2085SOL    HW117888   2.960   1.514   4.526 -2.4558  0.8326  0.2521
 2085SOL    HW217889   3.052   1.631   4.492 -0.4271 -0.7302  3.3289
 2086SOL     OW17890   2.868   4.678  15.027  0.0982 -0.3858  0.1942
 2086SOL    HW117891   2.785   4.723  15.038  1.0936  1.0983  1.7382
 2086SOL    HW217892   2.917   4.719  15.099 -1.0722 -1.2059  1.4500
 2087SOL     OW17893   1.009   0.266   4.808 -0.2898 -0.2354 -0.6792
 2087SOL    HW117894   0.931   0.214   4.788  0.4571 -1.6858  0.2212
 2087SOL    HW217895   1.041   0.281   4.719 -0.7230  0.4897 -0.7102
 2088SOL     OW17896   3.003   4.417   8.986 -0.5405  0.0457  0.0343
 2088SOL    HW117897   3.034   4.391   8.899  2.9361 -0.2790  1.3970
 2088SOL    HW217898   2.914   4.382   8.979 -0.9039  0.9652 -0.0429
 2089SOL     OW17899   4.241   3.817   3.134  0.9737  0.3147 -0.2187
 2089SOL    HW117900   4.211   3.897   3.176  1.2575  0.9275 -1.1943
 2089SOL    HW217901   4.160   3.788   3.092  0.9206 -0.4972  0.4402
 2090SOL     OW17902   3.944   3.901   7.810  0.0985  0.0125  0.0933
 2090SOL    HW117903   3.939   3.810   7.840  1.2198 -0.0220  0.1969
 2090SOL    HW217904   4.021   3.887   7.754  0.8582  0.1142  1.1006
 2091SOL     OW17905   1.946   4.220  17.525  0.1256 -0.6619 -0.1783
 2091SOL    HW117906   2.030   4.220  17.571 -0.9546 -2.2447  1.7449
 2091SOL    HW217907   1.973   4.157  17.459 -0.2100 -1.1361  0.1448
 2092SOL     OW17908   0.393   0.073  15.070 -0.6022 -0.2554 -0.1934
 2092SOL    HW117909   0.421   0.128  15.143  3.0599 -1.8900 -0.4118
 2092SOL    HW217910   0.322   0.119  15.024  0.2328  0.0298 -1.2167
 2093SOL     OW17911   2.377   1.197  10.471  0.1315  0.7801 -0.0265
 2093SOL    HW117912   2.455   1.233  10.513 -0.2981  1.2164  0.3947
 2093SOL    HW217913   2.385   1.102  10.480 -0.1981  0.5667 -2.0162
 2094SOL     OW17914   1.031   3.153   2.282 -0.8063 -0.7861  0.0498
 2094SOL    HW117915   0.992   3.068   2.263 -2.3841 -0.3727  1.5490
 2094SOL    HW217916   1.020   3.213   2.208 -3.2431 -1.3915 -0.0660
 2095SOL     OW17917   2.565   1.095  14.286 -0.2719 -0.7824 -0.0084
 2095SOL    HW117918   2.602   1.126  14.368 -1.6180 -1.1813  0.7476
 2095SOL    HW217919   2.535   1.179  14.252 -1.4331 -1.8878 -1.7059
 2096SOL     OW17920   2.836   4.358   7.446  0.4551 -0.5275 -0.1123
 2096SOL    HW117921   2.849   4.440   7.492  1.2844  0.6528 -2.4445
 2096SOL    HW217922   2.920   4.324   7.475  1.5642  0.4029 -2.2241
 2097SOL     OW17923   4.107   3.486   7.621 -0.3184  0.3081  0.2019
 2097SOL    HW117924   4.106   3.417   7.688  0.8833  0.0760 -0.0177
 2097SOL    HW217925   4.181   3.542   7.642 -0.9523  1.4666 -0.6347
 2098SOL     OW17926   0.991   4.386   9.555  0.1560 -0.1938  0.4120
 2098SOL    HW117927   1.049   4.444   9.605 -0.6413  1.4915 -0.6419
 2098SOL    HW217928   0.932   4.452   9.519 -0.5766 -1.0620  0.0201
 2099SOL     OW17929   2.517   4.132   2.539  0.0947 -0.4877  0.0155
 2099SOL    HW117930   2.433   4.132   2.493  0.6618 -1.4627 -1.0014
 2099SOL    HW217931   2.496   4.172   2.624  3.3444 -0.7527  0.9299
 2100SOL     OW17932   0.204   3.442   6.038 -0.9392 -0.1270 -0.5172
 2100SOL    HW117933   0.205   3.479   6.126 -0.3448  0.7299 -0.8864
 2100SOL    HW217934   0.179   3.350   6.044 -0.6573  0.0067  2.3434
 2101SOL     OW17935   2.246   3.512  16.841  0.4421 -0.0439 -0.2800
 2101SOL    HW117936   2.332   3.504  16.801  0.8204 -0.9288  0.7119
 2101SOL    HW217937   2.241   3.604  16.864  0.0848  0.2173 -1.4068
 2102SOL     OW17938   4.271   3.755   7.062  0.1082 -0.4928  0.3784
 2102SOL    HW117939   4.355   3.710   7.067 -0.6689 -2.0304 -0.3733
 2102SOL    HW217940   4.205   3.686   7.053 -3.1861  2.5309  1.0439
 2103SOL     OW17941   4.544   0.695   4.789  0.0330 -0.5444 -0.4801
 2103SOL    HW117942   4.622   0.639   4.793  0.6549  0.2740 -1.3369
 2103SOL    HW217943   4.584   0.769   4.743 -0.9373  0.1971 -0.1332
 2104SOL     OW17944   4.140   3.938   2.761 -0.1108 -0.0689  0.3788
 2104SOL    HW117945   4.164   3.949   2.669 -0.4779  1.1296  0.4335
 2104SOL    HW217946   4.074   3.869   2.760 -1.5573  1.3194 -0.0614
 2105SOL     OW17947   1.759   4.204   5.447  0.2570  0.2849  0.3461
 2105SOL    HW117948   1.721   4.153   5.375  0.4757  2.7795 -1.5291
 2105SOL    HW217949   1.725   4.162   5.526  0.7711  0.0171  0.4277
 2106SOL     OW17950   0.620   4.289  12.833 -0.2138  0.2238 -0.7347
 2106SOL    HW117951   0.579   4.375  12.825 -0.0432  0.3746  0.0030
 2106SOL    HW217952   0.642   4.280  12.925  0.6248 -1.1680 -1.0754
 2107SOL     OW17953   0.625   1.568   4.900 -0.3980 -0.3850 -0.1815
 2107SOL    HW117954   0.677   1.548   4.822 -0.0097 -0.1798  0.0278
 2107SOL    HW217955   0.653   1.658   4.919  0.4052 -0.7101  0.1440
 2108SOL     OW17956   2.052   0.714  12.077  0.3097  0.4350  0.4229
 2108SOL    HW117957   2.012   0.630  12.055  0.4149  0.2217  1.0541
 2108SOL    HW217958   2.137   0.708  12.033 -1.4313 -1.5564 -2.6844
 2109SOL     OW17959   3.509   0.651   6.668 -0.5106  0.3100 -0.3180
 2109SOL    HW117960   3.477   0.710   6.599  0.3758 -1.4329 -2.2217
 2109SOL    HW217961   3.484   0.567   6.628 -1.1200  1.5680 -2.6096
 2110SOL     OW17962   1.040   2.701   6.597 -0.5683  0.2524 -0.2383
 2110SOL    HW117963   1.027   2.744   6.512  1.6673  0.3750 -0.5015
 2110SOL    HW217964   1.089   2.768   6.644  0.8260  0.4246 -1.9376
 2111SOL     OW17965   1.204   0.139   7.339 -0.2347 -0.0741 -0.6319
 2111SOL    HW117966   1.253   0.198   7.282  3.0738 -2.0459  0.1781
 2111SOL    HW217967   1.125   0.193   7.332 -2.6901 -3.8196 -1.8777
 2112SOL     OW17968   3.597   0.567  11.449 -0.7446 -0.1402  0.0676
 2112SOL    HW117969   3.504   0.557  11.469 -1.1208  2.6467 -0.2928
 2112SOL    HW217970   3.619   0.633  11.514 -1.2049  0.8315 -0.7634
 2113SOL     OW17971   1.527   3.126  16.426 -0.3082 -0.3475  0.2685
 2113SOL    HW117972   1.572   3.210  16.432 -2.9504  1.1948 -1.1979
 2113SOL    HW217973   1.591   3.076  16.476 -0.7675 -2.9015 -1.7396
 2114SOL     OW17974   3.897   4.592   7.818  0.1236  0.4233  0.5024
 2114SOL    HW117975   3.960   4.561   7.883  1.5752 -0.5765 -1.3909
 2114SOL    HW217976   3.815   4.583   7.867  0.7773 -0.1427  1.4858
 2115SOL     OW17977   3.795   4.418   8.732 -0.6721 -0.1167  0.2040
 2115SOL    HW117978   3.739   4.479   8.685  0.0050  0.5746  0.3056
 2115SOL    HW217979   3.788   4.338   8.681  2.0747  0.3721 -0.9247
 2116SOL     OW17980   0.026   3.979   1.028  0.4125 -0.4639  0.6363
 2116SOL    HW117981   4.705   3.979   0.955  0.3292 -0.7339  0.7085
 2116SOL    HW217982   0.022   3.899   1.080 -1.1133 -0.0515  1.1295
 2117SOL     OW17983   1.569   3.275   4.610 -0.0958 -0.4171  0.2213
 2117SOL    HW117984   1.626   3.304   4.681 -0.1709  2.3258 -0.8504
 2117SOL    HW217985   1.625   3.219   4.556  0.5186  0.7885 -0.3910
 2118SOL     OW17986   3.656   3.013   1.404  0.1616 -0.1699 -0.3001
 2118SOL    HW117987   3.652   3.058   1.319  0.0371 -0.9410 -0.7078
 2118SOL    HW217988   3.649   3.086   1.465  0.4307 -0.1737 -0.2637
 2119SOL     OW17989   1.156   0.507   8.669  1.0077  0.0240 -0.0595
 2119SOL    HW117990   1.212   0.555   8.730  0.7751 -0.7503  0.7830
 2119SOL    HW217991   1.222   0.466   8.613 -0.8091  0.8033 -2.7515
 2120SOL     OW17992   1.177   4.120  11.113 -0.2595  0.3935 -0.0748
 2120SOL    HW117993   1.216   4.033  11.122 -1.9563 -0.4708 -0.9544
 2120SOL    HW217994   1.086   4.102  11.136 -0.8665  0.4849 -2.3812
 2121SOL     OW17995   0.656   1.981  17.639 -0.0191  0.1005 -0.3279
 2121SOL    HW117996   0.571   1.963  17.678  0.9421 -0.2712  1.6152
 2121SOL    HW217997   0.665   2.069  17.676  2.3476 -0.2505 -0.0319
 2122SOL     OW17998   1.755   3.885  13.667  0.1838  0.5599 -0.7320
 2122SOL    HW117999   1.838   3.841  13.687  0.8104  2.9461  1.8175
 2122SOL    HW218000   1.725   3.924  13.749  0.6887  2.2191 -1.3482
 2123SOL     OW18001   3.515   1.984  17.658 -0.2060  0.2617 -0.3146
 2123SOL    HW118002   3.588   2.027  17.703 -1.6079  1.3251  0.9333
 2123SOL    HW218003   3.512   2.031  17.575  1.2812  2.1690  0.7093
 2124SOL     OW18004   1.006   3.406  14.672  0.5773 -0.2135 -0.5719
 2124SOL    HW118005   0.982   3.388  14.581  0.2126 -1.4410 -0.2400
 2124SOL    HW218006   1.036   3.496  14.674 -1.7530  0.5956 -1.9339
 2125SOL     OW18007   1.165   1.303   4.193  0.3129 -0.2376  0.1610
 2125SOL    HW118008   1.158   1.227   4.136 -0.5038 -0.4046  0.4855
 2125SOL    HW218009   1.163   1.382   4.139 -1.8956  1.1909  2.3310
 2126SOL     OW18010   4.138   3.155   3.929  0.0904  0.4769  0.1262
 2126SOL    HW118011   4.122   3.147   3.835 -1.0573 -1.7769  0.5126
 2126SOL    HW218012   4.225   3.117   3.933  0.0936  0.3639 -0.9214
 2127SOL     OW18013   4.022   1.602   4.144 -0.6667  0.3112  0.1847
 2127SOL    HW118014   4.088   1.670   4.136 -0.3204  0.1392  1.5223
 2127SOL    HW218015   4.058   1.570   4.227  0.2802 -0.4405 -0.5260
 2128SOL     OW18016   2.208   4.326   6.472 -0.2127  0.0396  0.2009
 2128SOL    HW118017   2.266   4.397   6.444  0.3679 -0.7219 -0.5192
 2128SOL    HW218018   2.226   4.270   6.397 -2.0525  0.9436 -0.9204
 2129SOL     OW18019   3.397   3.002   2.719  0.8652 -0.5036 -0.0175
 2129SOL    HW118020   3.491   2.992   2.703  1.2181  0.5001  1.4399
 2129SOL    HW218021   3.406   3.057   2.796  1.0897  3.1288 -2.6180
 2130SOL     OW18022   4.548   4.641   1.206 -0.2524  0.1013  0.0773
 2130SOL    HW118023   4.620   4.669   1.263  1.1594 -1.5769 -0.8894
 2130SOL    HW218024   4.561   4.704   1.135  1.3863  1.1931  1.3444
 2131SOL     OW18025   0.473   4.594  16.798 -0.8154 -0.1755  0.2378
 2131SOL    HW118026   0.460   4.685  16.823  1.7479 -0.0440  1.1296
 2131SOL    HW218027   0.556   4.592  16.752 -0.5895  1.6880  0.5856
 2132SOL     OW18028   2.640   3.757   6.657 -0.0086 -0.4360  0.2427
 2132SOL    HW118029   2.607   3.807   6.582 -0.0296 -0.8753 -0.0397
 2132SOL    HW218030   2.716   3.714   6.618 -0.0338 -0.3282  0.0728
 2133SOL     OW18031   3.365   2.665   7.044 -0.0080  0.0826  0.0631
 2133SOL    HW118032   3.451   2.657   7.002  0.7415 -1.6798  1.9107
 2133SOL    HW218033   3.380   2.617   7.125  0.3153  1.1286  0.6283
 2134SOL     OW18034   1.443   3.673   2.826 -0.0671 -0.1833 -0.3474
 2134SOL    HW118035   1.440   3.585   2.864  0.4719 -0.5162 -1.0630
 2134SOL    HW218036   1.517   3.702   2.879 -0.7535  0.6512  0.1581
 2135SOL     OW18037   0.108   2.391  12.402  0.1403  0.1958 -0.1700
 2135SOL    HW118038   0.049   2.317  12.391  0.2417 -0.1171  1.4064
 2135SOL    HW218039   0.164   2.360  12.474 -1.8509 -1.6587  0.5885
 2136SOL     OW18040   4.514   4.523  16.644  0.6938 -0.6737  0.4896
 2136SOL    HW118041   4.591   4.478  16.678  0.6224  0.0199  1.5595
 2136SOL    HW218042   4.530   4.503  16.551 -1.3537 -1.1574  0.2405
 2137SOL     OW18043   2.748   0.881   7.417 -0.2885 -0.1195 -0.3198
 2137SOL    HW118044   2.842   0.891   7.402  0.1043  0.0222  2.2264
 2137SOL    HW218045   2.724   0.818   7.348  3.8375 -2.4057  0.3503
 2138SOL     OW18046   4.072   1.640   1.723  0.5306  0.3158 -0.3411
 2138SOL    HW118047   4.028   1.705   1.669 -0.6904  0.6012  0.9990
 2138SOL    HW218048   4.138   1.601   1.667  0.4701  1.0907 -0.9443
 2139SOL     OW18049   1.189   3.651  11.499  0.0786  0.0171  0.3850
 2139SOL    HW118050   1.222   3.635  11.411  0.5654 -1.8149  0.9007
 2139SOL    HW218051   1.273   3.660  11.544  0.6147  3.4946 -1.3009
 2140SOL     OW18052   3.941   2.241  16.150  0.5795 -0.4923 -0.3813
 2140SOL    HW118053   4.019   2.192  16.124  0.8939 -0.6010  0.7697
 2140SOL    HW218054   3.938   2.211  16.241  1.9914  0.7203  0.0678
 2141SOL     OW18055   2.194   3.332   6.835  0.1117  0.0332  0.1916
 2141SOL    HW118056   2.235   3.253   6.870  0.1122 -0.0438  0.0206
 2141SOL    HW218057   2.215   3.324   6.742  0.7184 -0.2051  0.3497
 2142SOL     OW18058   1.085   4.152  16.175  0.0818  0.5995  0.1688
 2142SOL    HW118059   1.072   4.186  16.087 -0.8107  0.2139  0.1480
 2142SOL    HW218060   0.998   4.115  16.190  0.3961 -0.2832 -0.1991
 2143SOL     OW18061   3.435   0.321  13.314  0.2414  0.4213  0.2996
 2143SOL    HW118062   3.416   0.380  13.386 -0.7497 -0.8219  1.0532
 2143SOL    HW218063   3.441   0.381  13.239  0.2907  0.6614  0.4979
 2144SOL     OW18064   1.542   3.712   9.718 -0.1286 -0.1853  0.4017
 2144SOL    HW118065   1.579   3.683   9.635 -1.0238 -0.0494 -0.0497
 2144SOL    HW218066   1.619   3.745   9.764 -0.9833  1.9729  0.3182
 2145SOL     OW18067   4.739   3.749   1.183 -0.2237  0.0706  0.4754
 2145SOL    HW118068   0.090   3.726   1.196 -0.8749 -1.3044  2.6299
 2145SOL    HW218069   4.697   3.667   1.208  1.5462 -1.0244 -0.1211
 2146SOL     OW18070   0.478   2.446   6.264 -0.3896 -0.0021 -0.3332
 2146SOL    HW118071   0.453   2.497   6.187 -0.2935 -2.0510 -1.7185
 2146SOL    HW218072   0.521   2.373   6.217 -0.1599 -0.4533  0.5770
 2147SOL     OW18073   4.577   1.391   9.805  0.2887 -0.0624 -0.6526
 2147SOL    HW118074   4.527   1.334   9.864 -0.8950 -0.5695 -2.1358
 2147SOL    HW218075   4.564   1.479   9.838  0.4677 -0.3053  0.0660
 2148SOL     OW18076   3.983   3.833   8.358 -0.2540  0.1932 -0.3827
 2148SOL    HW118077   3.944   3.907   8.404  2.3176  1.0886  0.3693
 2148SOL    HW218078   4.065   3.824   8.407 -0.2876  3.6480  0.3123
 2149SOL     OW18079   0.327   1.123   3.309  0.3901 -0.3757 -0.4243
 2149SOL    HW118080   0.278   1.198   3.344 -0.9227 -1.5397  0.2259
 2149SOL    HW218081   0.295   1.062   3.376 -2.0584  0.1101 -1.1284
 2150SOL     OW18082   2.283   4.551  16.350  0.6245 -0.4563 -0.5584
 2150SOL    HW118083   2.320   4.499  16.278  1.6240 -0.9650  0.3252
 2150SOL    HW218084   2.210   4.604  16.318  0.1016 -1.6913 -1.4255
 2151SOL     OW18085   1.912   2.583   9.050 -0.0640 -0.2788 -0.0601
 2151SOL    HW118086   1.875   2.590   8.962 -2.0669 -0.9638  0.7150
 2151SOL    HW218087   1.904   2.491   9.073 -1.9109 -0.6588 -2.2510
 2152SOL     OW18088   3.771   4.155   7.712 -0.1887  0.3445  0.9432
 2152SOL    HW118089   3.759   4.087   7.646  0.6490 -1.0220  2.1967
 2152SOL    HW218090   3.739   4.233   7.666  0.7895  0.2489  0.1066
 2153SOL     OW18091   1.670   0.431   8.516 -0.1518 -0.0511 -0.4743
 2153SOL    HW118092   1.688   0.437   8.610  0.0874  0.4294 -0.5500
 2153SOL    HW218093   1.662   0.336   8.511 -0.1069 -0.1449  1.1186
 2154SOL     OW18094   3.934   4.225   4.573  0.4786 -0.0951 -0.1990
 2154SOL    HW118095   3.907   4.134   4.561 -0.6665  0.2496 -0.2776
 2154SOL    HW218096   4.024   4.220   4.605  0.2552 -1.6267  0.1434
 2155SOL     OW18097   0.091   3.283   1.699 -0.3025 -0.0866 -0.5669
 2155SOL    HW118098   0.006   3.324   1.717  1.0359  1.8860  1.2181
 2155SOL    HW218099   0.125   3.295   1.788 -0.3967 -1.3004 -0.3716
 2156SOL     OW18100   4.362   1.856  13.539 -0.0710 -0.3608 -0.0260
 2156SOL    HW118101   4.420   1.930  13.559 -1.6364  0.3207  1.9855
 2156SOL    HW218102   4.273   1.885  13.558  0.0867 -1.5020  2.4260
 2157SOL     OW18103   1.891   3.194   5.081 -0.7483 -0.0297 -0.4321
 2157SOL    HW118104   1.961   3.186   5.146  1.3339  1.1187 -2.5251
 2157SOL    HW218105   1.897   3.110   5.036  3.0737 -0.8631  1.6105
 2158SOL     OW18106   1.726   2.105   3.947  0.0831 -0.2188 -0.2652
 2158SOL    HW118107   1.731   2.126   3.854  0.5455  2.2911  0.3293
 2158SOL    HW218108   1.640   2.140   3.971  0.2484  0.0699 -0.0993
 2159SOL     OW18109   3.029   3.074   8.662 -0.6466 -0.5344  0.0247
 2159SOL    HW118110   3.108   3.126   8.679 -0.1799 -1.1183 -0.3726
 2159SOL    HW218111   3.065   2.987   8.679 -0.9799 -0.5038  0.8920
 2160SOL     OW18112   2.035   1.709   3.388  0.1334  0.0657  0.8512
 2160SOL    HW118113   2.020   1.775   3.455  0.5228 -1.0906  2.0759
 2160SOL    HW218114   2.081   1.636   3.429 -0.4578 -0.1588  1.1049
 2161SOL     OW18115   1.061   0.612   4.122  0.0746 -0.1211 -0.3319
 2161SOL    HW118116   1.148   0.614   4.161 -0.5421  1.2861  0.9786
 2161SOL    HW218117   1.028   0.524   4.137  0.1982 -0.1449 -0.2021
 2162SOL     OW18118   1.086   3.983   5.411  0.0771 -0.1227 -0.5551
 2162SOL    HW118119   1.009   3.957   5.461  0.2630  2.8633  1.2722
 2162SOL    HW218120   1.055   3.935   5.333 -0.7662 -1.5956  0.6874
 2163SOL     OW18121   1.636   1.827   9.723  0.6419  0.3219 -0.3735
 2163SOL    HW118122   1.618   1.838   9.817 -1.3579 -0.6593 -0.6401
 2163SOL    HW218123   1.731   1.817   9.729  0.8515  2.6061  0.1830
 2164SOL     OW18124   2.791   3.441  14.313  0.1975 -0.2307  0.2488
 2164SOL    HW118125   2.861   3.422  14.376  0.0413  1.0168  0.7911
 2164SOL    HW218126   2.790   3.534  14.332 -0.8460  0.4843 -3.2839
 2165SOL     OW18127   4.251   4.352   7.262  0.5374  0.0346 -0.0720
 2165SOL    HW118128   4.322   4.412   7.287  2.6608 -2.0636 -0.9685
 2165SOL    HW218129   4.208   4.336   7.346 -1.9498 -0.6108 -1.4948
 2166SOL     OW18130   1.090   0.477   6.815 -0.4379 -0.0860  0.2348
 2166SOL    HW118131   1.016   0.464   6.755 -1.5818 -1.2925  1.8777
 2166SOL    HW218132   1.043   0.532   6.877 -0.7031 -0.9971  0.8515
 2167SOL     OW18133   0.841   2.430  13.667  0.1620 -0.2206 -0.1445
 2167SOL    HW118134   0.887   2.464  13.590  0.3522 -2.0811 -0.8641
 2167SOL    HW218135   0.750   2.456  13.651  0.4602 -1.7109 -4.1768
 2168SOL     OW18136   3.631   4.192  10.302  0.3205  0.0796  0.5980
 2168SOL    HW118137   3.670   4.136  10.369 -0.2381 -2.9115 -1.5743
 2168SOL    HW218138   3.624   4.272  10.353  0.7970  0.7013 -0.3096
 2169SOL     OW18139   2.759   3.311   2.388  1.2377 -0.9287 -0.2216
 2169SOL    HW118140   2.803   3.382   2.342 -2.3569  1.6956  0.4473
 2169SOL    HW218141   2.740   3.360   2.468  1.3169 -1.1810 -0.0474
 2170SOL     OW18142   3.780   2.040  15.343  0.0963  0.0300 -0.4147
 2170SOL    HW118143   3.839   2.113  15.358  0.0396  0.0242 -0.1466
 2170SOL    HW218144   3.829   1.966  15.379  0.7049 -0.0597 -1.4466
 2171SOL     OW18145   3.028   0.950   4.709 -0.2502  0.6549 -0.1269
 2171SOL    HW118146   3.036   1.040   4.676 -2.2617  0.2458 -1.7211
 2171SOL    HW218147   3.087   0.967   4.783 -0.5999  1.5576 -0.0522
 2172SOL     OW18148   0.666   0.212   8.810 -0.4774  0.8758 -1.0351
 2172SOL    HW118149   0.674   0.145   8.878  0.3730  1.2804 -0.7449
 2172SOL    HW218150   0.622   0.280   8.861  0.3070  0.1692  0.5845
 2173SOL     OW18151   2.515   1.217   4.092  0.1166 -0.3846 -0.3270
 2173SOL    HW118152   2.594   1.266   4.114 -0.3308  0.2695 -0.1774
 2173SOL    HW218153   2.481   1.195   4.179 -1.4878  0.8467 -0.6551
 2174SOL     OW18154   3.813   3.872   9.588  0.0313  0.7604  1.2412
 2174SOL    HW118155   3.849   3.911   9.667  1.0930  0.1411  1.0623
 2174SOL    HW218156   3.740   3.824   9.627 -1.6354  1.2452 -1.2932
 2175SOL     OW18157   2.992   1.382   4.646  0.5525  0.0318 -0.3565
 2175SOL    HW118158   2.964   1.349   4.732  1.4162 -1.5517 -0.6924
 2175SOL    HW218159   3.070   1.327   4.643  2.3273  2.5059  1.8385
 2176SOL     OW18160   2.220   2.865  11.238 -0.8149 -0.0619 -0.2044
 2176SOL    HW118161   2.194   2.956  11.228  0.4944  0.4491  0.8938
 2176SOL    HW218162   2.195   2.837  11.150 -2.8349  1.0933  0.0147
 2177SOL     OW18163   0.074   3.492   0.116  0.6197 -0.4204  0.5452
 2177SOL    HW118164   0.011   3.461   0.051  0.4134 -0.7896  0.9146
 2177SOL    HW218165   0.048   3.432   0.187  0.8590 -0.3238  0.7142
 2178SOL     OW18166   3.610   2.062   4.915 -0.0259  0.2089 -0.1555
 2178SOL    HW118167   3.657   2.026   4.840  0.8756  0.4855  0.2864
 2178SOL    HW218168   3.516   2.043   4.909  0.2637 -0.7897 -1.4046
 2179SOL     OW18169   0.444   2.157   6.187  0.2640 -0.5374  0.3709
 2179SOL    HW118170   0.392   2.163   6.107  0.9566 -1.7544 -0.1775
 2179SOL    HW218171   0.377   2.182   6.251 -1.1346 -1.2174 -0.8270
 2180SOL     OW18172   3.914   4.660   4.784  0.2075  0.2976  0.6907
 2180SOL    HW118173   3.947   4.665   4.694  2.8333  2.6146  1.7771
 2180SOL    HW218174   3.821   4.662   4.762  0.6615  2.9557 -1.0966
 2181SOL     OW18175   0.549   1.567   4.553 -0.1785  1.4773  0.5086
 2181SOL    HW118176   0.488   1.640   4.564 -1.2263  0.7476 -0.4500
 2181SOL    HW218177   0.629   1.607   4.588  1.2618 -1.8750  1.0536
 2182SOL     OW18178   0.831   1.862  14.861 -0.2656 -0.3728  0.1312
 2182SOL    HW118179   0.814   1.802  14.788  0.6539  1.5728 -1.7082
 2182SOL    HW218180   0.743   1.894  14.879 -0.8341 -2.0089  0.2090
 2183SOL     OW18181   2.088   4.399  11.073 -0.0304  0.6193 -0.6996
 2183SOL    HW118182   2.034   4.436  11.003 -0.8828 -0.0316 -0.3866
 2183SOL    HW218183   2.144   4.343  11.020 -0.6073 -2.1083  1.5484
 2184SOL     OW18184   1.341   0.283  14.190  0.1039  0.3077  0.4081
 2184SOL    HW118185   1.346   0.334  14.109  0.5182 -1.5596 -0.7438
 2184SOL    HW218186   1.312   0.357  14.245 -0.5046  0.4120 -0.0566
 2185SOL     OW18187   1.912   2.668   2.676 -0.2178 -0.4309 -0.1662
 2185SOL    HW118188   1.827   2.662   2.719 -0.8553  0.7821 -1.2669
 2185SOL    HW218189   1.892   2.642   2.586  2.6495 -1.4066 -0.5332
 2186SOL     OW18190   3.123   3.723  10.885  0.0157  0.5114  0.1873
 2186SOL    HW118191   3.136   3.661  10.956 -1.2147  0.0454  0.0181
 2186SOL    HW218192   3.144   3.808  10.925 -0.3300  1.6147 -1.9461
 2187SOL     OW18193   1.441   3.646   4.587  0.2466 -0.6165 -0.1676
 2187SOL    HW118194   1.520   3.629   4.535  0.6521 -1.0355  0.5923
 2187SOL    HW218195   1.437   3.573   4.649 -1.1267  0.4304  0.9524
 2188SOL     OW18196   1.670   1.395   4.558 -0.2688  0.0371  0.2977
 2188SOL    HW118197   1.643   1.409   4.649 -0.3599 -2.1537  0.6211
 2188SOL    HW218198   1.585   1.374   4.520 -1.0466 -0.0894  2.0725
 2189SOL     OW18199   3.195   1.652   2.887 -0.5909  0.2661  0.6407
 2189SOL    HW118200   3.223   1.697   2.807 -2.3496  0.0246 -0.1054
 2189SOL    HW218201   3.269   1.591   2.884 -1.9929 -1.4052 -0.0408
 2190SOL     OW18202   4.613   3.178   3.730 -0.1950  0.5682 -0.0202
 2190SOL    HW118203   4.658   3.097   3.703  0.6524  0.8254  0.6041
 2190SOL    HW218204   4.695   3.219   3.757  0.0736  0.7361 -1.0698
 2191SOL     OW18205   2.561   2.584   9.169  0.1291  0.4889  0.0156
 2191SOL    HW118206   2.564   2.490   9.154 -0.2595  0.9060 -2.6341
 2191SOL    HW218207   2.656   2.590   9.179  0.1740  1.8361 -1.1315
 2192SOL     OW18208   0.257   3.730  15.242  0.7225  0.1802  0.1355
 2192SOL    HW118209   0.165   3.731  15.271  0.4400 -0.3260 -0.7544
 2192SOL    HW218210   0.265   3.804  15.183 -0.2561  1.3083  1.3973
 2193SOL     OW18211   0.057   0.071   4.768 -0.1134 -0.3619  0.1617
 2193SOL    HW118212   0.009   4.735   4.799  1.8857 -2.0049 -0.7574
 2193SOL    HW218213   4.729   0.137   4.769 -1.8816 -2.1127 -4.0624
 2194SOL     OW18214   3.240   3.133   0.965  0.5476  0.1777 -0.0906
 2194SOL    HW118215   3.176   3.190   1.008 -0.1715  1.2262 -2.5083
 2194SOL    HW218216   3.286   3.103   1.044 -1.8127 -3.6802 -0.1877
 2195SOL     OW18217   1.993   1.300   3.368 -0.1530  0.4442 -0.1688
 2195SOL    HW118218   2.044   1.296   3.287 -0.6657 -0.9621 -0.4182
 2195SOL    HW218219   2.018   1.380   3.415 -1.6628  1.1646 -0.5943
 2196SOL     OW18220   1.351   0.020   2.344 -0.0907  0.0691  0.5101
 2196SOL    HW118221   1.348   0.111   2.314 -0.7629 -0.8796 -2.3209
 2196SOL    HW218222   1.392   0.037   2.429 -0.3302 -0.1391  0.6680
 2197SOL     OW18223   3.682   4.332  16.790  0.3884 -0.1862 -0.2447
 2197SOL    HW118224   3.603   4.383  16.769  0.1684 -0.9315 -1.2176
 2197SOL    HW218225   3.659   4.242  16.767  0.1824  0.3109 -1.9884
 2198SOL     OW18226   0.699   4.635  16.635  0.0670  0.8708  0.2315
 2198SOL    HW118227   0.638   4.587  16.578 -2.0827  0.7378  2.6502
 2198SOL    HW218228   0.753   4.561  16.663 -1.4355  0.0789  1.0099
 2199SOL     OW18229   2.723   0.764  14.184  0.4616 -0.1497  0.2157
 2199SOL    HW118230   2.662   0.756  14.111  0.6987  0.1876 -0.0169
 2199SOL    HW218231   2.792   0.816  14.142  1.2124 -1.0201  0.3654
 2200SOL     OW18232   1.091   3.614  12.435 -0.0939 -0.2128 -0.1160
 2200SOL    HW118233   1.115   3.536  12.384  0.4472  0.7170 -1.2865
 2200SOL    HW218234   1.128   3.598  12.522  2.5338 -0.9513 -1.3588
 2201SOL     OW18235   2.822   3.247  17.281  0.3684  0.3736 -0.5062
 2201SOL    HW118236   2.879   3.171  17.272 -2.4044 -1.6973 -0.8301
 2201SOL    HW218237   2.750   3.213  17.334 -0.2589  0.6357 -1.1703
 2202SOL     OW18238   1.457   1.866   7.294 -0.6075  0.2934 -0.5456
 2202SOL    HW118239   1.518   1.818   7.349 -1.0630 -0.1481 -0.4285
 2202SOL    HW218240   1.432   1.945   7.343 -2.7269  0.6017 -2.0992
 2203SOL     OW18241   0.695   1.849   7.055 -0.9332  0.3342  0.0459
 2203SOL    HW118242   0.717   1.921   7.114 -1.7190  0.3125  0.3661
 2203SOL    HW218243   0.654   1.788   7.117  0.1061  0.8130  1.2006
 2204SOL     OW18244   0.235   3.814   4.232  0.6599  0.3964  0.4342
 2204SOL    HW118245   0.220   3.760   4.154  0.1845  0.5577  0.4147
 2204SOL    HW218246   0.216   3.902   4.201 -1.6457 -1.1884 -2.8149
 2205SOL     OW18247   3.102   2.879   6.613  0.7131 -0.9220  0.1823
 2205SOL    HW118248   3.139   2.880   6.701  0.0626 -1.2424  0.4496
 2205SOL    HW218249   3.186   2.895   6.568 -0.0422 -1.3881 -1.3741
 2206SOL     OW18250   1.592   0.849   5.276 -0.3964  0.3229 -0.5023
 2206SOL    HW118251   1.688   0.852   5.282 -0.4416 -0.7830  0.7447
 2206SOL    HW218252   1.592   0.753   5.277 -2.1324  0.3443  0.3407
 2207SOL     OW18253   3.930   2.639  16.733  0.0192 -0.0603  0.2598
 2207SOL    HW118254   3.840   2.610  16.724 -0.1618  0.4813  0.3251
 2207SOL    HW218255   3.931   2.714  16.673  0.2530 -1.5066 -1.5380
 2208SOL     OW18256   2.897   1.023   5.778  0.5756  0.1415  1.0814
 2208SOL    HW118257   2.894   0.952   5.714  1.9624  0.7721  0.3183
 2208SOL    HW218258   2.960   0.984   5.840  0.8207 -2.3694 -0.7832
 2209SOL     OW18259   2.671   4.486  16.731  0.3817 -0.1669  0.6427
 2209SOL    HW118260   2.634   4.409  16.687  1.7575 -0.5577  0.1653
 2209SOL    HW218261   2.590   4.528  16.758 -0.0541 -1.7722  1.8655
 2210SOL     OW18262   1.030   2.237   3.901  0.0271  0.4770 -0.1801
 2210SOL    HW118263   0.971   2.309   3.881  0.6980  0.0776 -3.6165
 2210SOL    HW218264   0.995   2.167   3.845 -1.2060  0.3313  0.7715
 2211SOL     OW18265   2.039   1.585   9.460  0.3084  0.1883 -0.6245
 2211SOL    HW118266   1.950   1.550   9.465 -0.4802  2.6208  2.3443
 2211SOL    HW218267   2.086   1.514   9.417 -1.2169 -0.4547 -1.2337
 2212SOL     OW18268   4.148   3.413   3.582 -0.2385  0.7409 -0.1187
 2212SOL    HW118269   4.055   3.418   3.561  0.0283 -1.2296 -1.7824
 2212SOL    HW218270   4.194   3.433   3.501  0.6166  2.6290  0.8264
 2213SOL     OW18271   3.599   2.803   7.967  0.3115  0.4889 -0.3053
 2213SOL    HW118272   3.506   2.820   7.980 -0.2501 -1.7559 -1.2721
 2213SOL    HW218273   3.624   2.851   8.046 -2.7843  1.0121  0.3375
 2214SOL     OW18274   2.037   3.893  14.509 -0.3361  0.4394  0.4623
 2214SOL    HW118275   2.018   3.825  14.574  1.1154 -1.3470 -1.0043
 2214SOL    HW218276   2.103   3.854  14.452  0.5377 -1.6393  2.9253
 2215SOL     OW18277   1.442   2.350  10.124 -0.2050 -0.0498  0.3113
 2215SOL    HW118278   1.509   2.323  10.187  0.3013  1.3200  0.3650
 2215SOL    HW218279   1.490   2.410  10.067  2.2180 -0.1028  2.2976
 2216SOL     OW18280   3.070   1.971   3.474 -0.1773 -0.2443  0.3920
 2216SOL    HW118281   3.076   1.900   3.537  1.0953  0.6370  1.2852
 2216SOL    HW218282   3.162   1.998   3.466 -0.3847  0.9848  2.1386
 2217SOL     OW18283   2.830   1.581  16.356 -0.0412 -0.2721 -0.2941
 2217SOL    HW118284   2.782   1.650  16.401 -0.3903  0.3089 -1.5759
 2217SOL    HW218285   2.913   1.592  16.404 -0.5139 -1.9825  0.9525
 2218SOL     OW18286   1.659   2.613   7.335  0.0570  0.5524 -0.0377
 2218SOL    HW118287   1.630   2.700   7.306 -1.4366  0.0308 -0.1404
 2218SOL    HW218288   1.677   2.569   7.252 -1.0929  0.3950 -0.2020
 2219SOL     OW18289   0.793   1.241   4.269  0.1216 -0.3418  0.4347
 2219SOL    HW118290   0.698   1.227   4.273  0.1940 -1.1775 -0.6374
 2219SOL    HW218291   0.820   1.157   4.233  2.2338  0.0931  0.9900
 2220SOL     OW18292   1.610   2.754   8.635  0.1471  0.0263  1.1925
 2220SOL    HW118293   1.518   2.733   8.650 -0.5955  2.1642 -0.5193
 2220SOL    HW218294   1.632   2.683   8.574  5.4362 -0.5055  3.7039
 2221SOL     OW18295   0.985   3.033   4.135  0.6169 -0.0557  0.0400
 2221SOL    HW118296   0.969   2.986   4.053  0.7948 -0.1751  0.0739
 2221SOL    HW218297   0.917   3.101   4.135 -1.4070 -2.1312  1.2591
 2222SOL     OW18298   3.905   0.663   5.053 -0.1084 -0.5053 -0.1442
 2222SOL    HW118299   3.930   0.732   5.114 -2.5800 -0.6330  1.0162
 2222SOL    HW218300   3.897   0.715   4.973 -1.5176 -0.8612 -0.2382
 2223SOL     OW18301   3.574   3.508  12.000 -0.6418 -0.4797  0.0730
 2223SOL    HW118302   3.638   3.478  12.065 -0.0153  0.9201  0.1062
 2223SOL    HW218303   3.499   3.533  12.053 -1.9778 -0.3038 -1.9263
 2224SOL     OW18304   2.785   1.364  16.200  0.3118  0.4283 -0.0060
 2224SOL    HW118305   2.782   1.441  16.257 -0.3576 -0.5909  1.3330
 2224SOL    HW218306   2.722   1.401  16.138  1.2863 -1.1232 -1.9213
 2225SOL     OW18307   1.617   0.222   2.847 -0.9332  0.7273 -0.2824
 2225SOL    HW118308   1.689   0.281   2.873 -0.4097  0.3136 -0.7852
 2225SOL    HW218309   1.574   0.202   2.930 -1.1278  1.5657 -0.1818
 2226SOL     OW18310   1.891   2.648  13.110  0.0733 -0.4537 -0.4265
 2226SOL    HW118311   1.975   2.605  13.099  1.1687  1.2629  1.0787
 2226SOL    HW218312   1.904   2.712  13.040 -0.0335  0.5364  0.4534
 2227SOL     OW18313   0.284   3.845  15.519  0.4398 -0.1618 -0.0918
 2227SOL    HW118314   0.225   3.897  15.464  0.4826  0.2470  0.2563
 2227SOL    HW218315   0.342   3.803  15.456 -1.6745  0.5276 -2.5163
 2228SOL     OW18316   3.434   4.466  16.752  0.5740 -0.2155 -0.0717
 2228SOL    HW118317   3.452   4.550  16.710  0.0520  0.2540  0.6313
 2228SOL    HW218318   3.345   4.472  16.788  0.8816 -1.1270  0.8527
 2229SOL     OW18319   1.586   3.870   2.457 -0.1747 -0.1044 -0.3901
 2229SOL    HW118320   1.497   3.838   2.475 -0.7964  1.3649 -0.7891
 2229SOL    HW218321   1.570   3.871   2.363 -1.6124 -0.6062 -0.1596
 2230SOL     OW18322   3.997   0.680   3.629  0.1676  0.0564  0.4744
 2230SOL    HW118323   3.952   0.757   3.594  1.8765  1.5508  1.5509
 2230SOL    HW218324   3.979   0.600   3.579  1.2519 -0.0884  0.3064
 2231SOL     OW18325   0.215   4.404   6.292  0.2640  0.1102  0.2167
 2231SOL    HW118326   0.297   4.395   6.341  1.5997  0.6725 -1.9297
 2231SOL    HW218327   0.184   4.488   6.326 -0.2129  0.1452 -0.3145
 2232SOL     OW18328   3.330   1.844   9.519 -0.1346  0.3381 -0.5006
 2232SOL    HW118329   3.333   1.750   9.503  0.2572  0.6333 -2.1589
 2232SOL    HW218330   3.313   1.851   9.613  0.1400  0.6491 -0.4712
 2233SOL     OW18331   1.450   1.718   2.608  0.7889  0.0290 -0.3842
 2233SOL    HW118332   1.395   1.660   2.661 -0.0339  0.2838 -0.9711
 2233SOL    HW218333   1.505   1.654   2.562  0.2949  0.9081 -2.1640
 2234SOL     OW18334   0.208   3.739   2.175 -0.1243  0.2641  0.1359
 2234SOL    HW118335   0.164   3.736   2.090 -1.4240 -0.0519  0.8183
 2234SOL    HW218336   0.247   3.825   2.161  0.2886  0.5023  2.7004
 2235SOL     OW18337   0.391   1.791   5.947  0.6148  0.4860  0.0663
 2235SOL    HW118338   0.384   1.696   5.937  0.6958  0.4346  0.4994
 2235SOL    HW218339   0.410   1.824   5.860 -2.0904  0.1134 -0.6616
 2236SOL     OW18340   4.581   4.550   5.199  0.6948 -0.2489  0.3039
 2236SOL    HW118341   4.555   4.624   5.254  0.2603  1.3320 -2.0458
 2236SOL    HW218342   4.496   4.534   5.159  0.4001  0.0688  0.8013
 2237SOL     OW18343   2.334   2.013   6.921  0.2019  0.1525  0.3203
 2237SOL    HW118344   2.336   1.990   7.014 -3.5316 -1.7738 -0.0782
 2237SOL    HW218345   2.338   2.107   6.933 -1.0573  0.4583 -1.6384
 2238SOL     OW18346   0.082   2.202   3.586  0.3911  0.3785  0.3921
 2238SOL    HW118347   0.124   2.283   3.556  1.5857 -0.6658 -0.7679
 2238SOL    HW218348   4.739   2.233   3.619  0.3260  1.6324 -0.9297
 2239SOL     OW18349   3.633   4.534   3.137  0.1109 -0.4920  0.5831
 2239SOL    HW118350   3.725   4.542   3.162  0.3983 -0.6869 -0.4078
 2239SOL    HW218351   3.636   4.547   3.042 -2.2278 -0.5628  0.4980
 2240SOL     OW18352   3.459   0.244   7.578  0.4979 -0.8890 -0.3097
 2240SOL    HW118353   3.509   0.163   7.573  2.0797  0.0015  1.2768
 2240SOL    HW218354   3.371   0.212   7.556 -0.6465  0.1382  2.7343
 2241SOL     OW18355   1.693   2.355  13.640 -0.2861 -0.2300 -0.4770
 2241SOL    HW118356   1.788   2.347  13.631 -0.3895  0.7970 -2.4350
 2241SOL    HW218357   1.700   2.415  13.714  0.8911 -1.1704  0.1629
 2242SOL     OW18358   3.407   0.382   6.571  0.1361 -0.7738 -0.5162
 2242SOL    HW118359   3.403   0.292   6.604  1.6286 -0.3954  0.6782
 2242SOL    HW218360   3.486   0.378   6.516  0.8109  0.3276  0.3830
 2243SOL     OW18361   4.716   0.919   8.892  0.1561 -0.0904  0.1316
 2243SOL    HW118362   4.648   0.879   8.837  0.4791 -0.1854 -0.1970
 2243SOL    HW218363   4.655   0.960   8.953 -1.1868 -0.6982 -0.7891
 2244SOL     OW18364   1.804   1.856   4.352 -0.3431  0.3262  0.0858
 2244SOL    HW118365   1.872   1.839   4.287  0.0757 -0.4018  0.7198
 2244SOL    HW218366   1.848   1.917   4.411 -1.4293 -0.7514  2.0030
 2245SOL     OW18367   2.532   1.936  14.773 -0.2011 -0.4275 -0.2106
 2245SOL    HW118368   2.510   1.846  14.749  0.9988 -0.3070 -1.7351
 2245SOL    HW218369   2.627   1.938  14.776 -0.2419  0.8011  0.2538
 2246SOL     OW18370   4.089   3.911  13.679 -0.0195 -0.2658 -0.6043
 2246SOL    HW118371   4.043   3.838  13.637  0.4102 -0.7649 -0.2171
 2246SOL    HW218372   4.180   3.882  13.681 -0.1195 -0.6295 -1.6297
 2247SOL     OW18373   4.305   0.151  13.304  0.1510  0.1989  0.0344
 2247SOL    HW118374   4.228   0.188  13.348 -0.0519 -1.1595  0.7976
 2247SOL    HW218375   4.286   0.059  13.286 -0.3253  0.1838  0.6000
 2248SOL     OW18376   2.686   2.950   7.050 -0.1077 -0.2130 -0.2253
 2248SOL    HW118377   2.765   2.997   7.023 -0.0900 -0.2538 -0.2429
 2248SOL    HW218378   2.618   3.012   7.022  0.3215  0.4906  0.2822
 2249SOL     OW18379   2.830   1.601   1.325  0.5699 -0.2318  0.1628
 2249SOL    HW118380   2.775   1.673   1.294 -0.1118  0.8555  3.8848
 2249SOL    HW218381   2.821   1.602   1.420  0.4798 -1.1684  0.1565
 2250SOL     OW18382   1.179   1.807  13.144  0.5034 -0.2671 -0.3756
 2250SOL    HW118383   1.157   1.740  13.208  1.0560 -0.3412 -0.2589
 2250SOL    HW218384   1.098   1.809  13.094 -0.0679 -2.0360  0.4859
 2251SOL     OW18385   0.126   0.390  13.421 -0.2875 -0.0331  0.1967
 2251SOL    HW118386   0.220   0.370  13.429 -1.1038 -3.9595 -0.1115
 2251SOL    HW218387   0.086   0.305  13.436 -0.1764  0.0010  0.6764
 2252SOL     OW18388   2.009   1.625   2.379 -0.1196  0.3396 -0.1926
 2252SOL    HW118389   1.947   1.591   2.443 -0.8601  0.4597 -0.8477
 2252SOL    HW218390   2.012   1.713   2.416  1.9714  0.6928 -1.2073
 2253SOL     OW18391   0.995   4.457  14.767 -0.0157  0.1590 -0.2214
 2253SOL    HW118392   0.928   4.517  14.800 -0.4137 -0.2155 -0.3528
 2253SOL    HW218393   0.942   4.397  14.715 -0.2298 -1.8259  2.2454
 2254SOL     OW18394   4.337   0.245  10.763 -0.0824 -0.8137  0.5996
 2254SOL    HW118395   4.312   0.219  10.674  0.0237 -0.0928  0.3580
 2254SOL    HW218396   4.272   0.197  10.813 -0.0860 -1.6192 -0.1875
 2255SOL     OW18397   3.923   2.930  16.877  0.3765  0.5232  0.5285
 2255SOL    HW118398   3.938   2.900  16.787 -0.7469 -1.6530  1.0749
 2255SOL    HW218399   3.829   2.950  16.878 -0.0949 -1.6604  0.2062
 2256SOL     OW18400   4.251   1.161   9.124  0.3930  0.2110  0.4755
 2256SOL    HW118401   4.335   1.202   9.146  0.8859 -1.1223  1.1051
 2256SOL    HW218402   4.239   1.090   9.187 -0.0641  2.0339  2.4449
 2257SOL     OW18403   3.467   2.777   5.948  0.3656  0.3103 -0.8378
 2257SOL    HW118404   3.553   2.784   5.907  0.1856  1.6428 -0.9613
 2257SOL    HW218405   3.416   2.786   5.868 -1.5555 -4.0817 -0.1200
 2258SOL     OW18406   0.323   0.436   4.684 -0.2421  0.0118  0.4078
 2258SOL    HW118407   0.403   0.418   4.635 -1.2268 -0.7866 -0.8907
 2258SOL    HW218408   0.302   0.346   4.708 -3.8905  0.5631 -0.7479
 2259SOL     OW18409   4.107   2.836   1.664  0.4484  0.5734  0.4545
 2259SOL    HW118410   4.069   2.832   1.576 -1.7636 -2.1348  1.5307
 2259SOL    HW218411   4.127   2.744   1.676  1.4945  0.3328 -3.0028
 2260SOL     OW18412   1.624   3.369   7.640 -0.6445  0.1783 -0.0867
 2260SOL    HW118413   1.697   3.390   7.582 -0.2167  0.0701  0.4153
 2260SOL    HW218414   1.601   3.456   7.674 -1.5006 -1.1994  2.8274
 2261SOL     OW18415   0.110   0.161   3.844 -0.3652 -0.1653  0.3296
 2261SOL    HW118416   0.024   0.152   3.886  0.0559  1.2673  1.5176
 2261SOL    HW218417   0.154   0.080   3.867 -2.5244 -2.0392 -2.0303
 2262SOL     OW18418   0.418   2.125   8.976  0.1487 -0.4730  0.1142
 2262SOL    HW118419   0.363   2.082   8.910 -0.8922  0.4417  0.3950
 2262SOL    HW218420   0.389   2.079   9.055  1.0899  0.2143  0.8566
 2263SOL     OW18421   0.436   3.974   7.221  0.7683  0.2561  0.2811
 2263SOL    HW118422   0.371   3.995   7.288  0.1304  1.1854 -0.6267
 2263SOL    HW218423   0.458   3.887   7.255 -0.4979  0.6435  2.0467
 2264SOL     OW18424   2.215   2.697   6.994 -0.4858  0.5781  0.0988
 2264SOL    HW118425   2.254   2.784   7.001  1.7503 -0.3653 -0.6641
 2264SOL    HW218426   2.273   2.643   7.048 -2.3890 -0.5554  0.9927
 2265SOL     OW18427   0.755   2.972   1.826 -0.5124 -0.5110 -0.9245
 2265SOL    HW118428   0.723   3.045   1.878  1.1314  0.5645 -1.4046
 2265SOL    HW218429   0.810   2.929   1.892 -3.5765 -1.9377  0.6765
 2266SOL     OW18430   2.237   1.892   3.778  0.1443  0.5465 -0.3320
 2266SOL    HW118431   2.198   1.869   3.694 -1.0492 -0.7544  0.5873
 2266SOL    HW218432   2.165   1.895   3.840 -1.5784 -1.7507 -2.2585
 2267SOL     OW18433   0.621   2.162   4.398  0.5395 -0.2472  0.1575
 2267SOL    HW118434   0.611   2.254   4.374  2.5978 -0.1333 -0.2615
 2267SOL    HW218435   0.634   2.129   4.309 -1.5151  0.0074 -0.2400
 2268SOL     OW18436   4.070   0.359   7.435  0.5364  0.3495 -0.1492
 2268SOL    HW118437   4.147   0.363   7.378  1.8127 -2.9192  1.3602
 2268SOL    HW218438   4.030   0.279   7.402  0.6930 -0.8690  2.6426
 2269SOL     OW18439   4.613   4.099  15.329 -0.0486  0.4564  0.4691
 2269SOL    HW118440   4.568   4.033  15.382  0.7192  0.7166  1.4435
 2269SOL    HW218441   4.603   4.076  15.237 -0.4613  0.3195  0.5486
 2270SOL     OW18442   1.851   2.629  13.382  0.5779 -0.5170  0.3690
 2270SOL    HW118443   1.873   2.547  13.339  0.3628 -0.0996 -0.5246
 2270SOL    HW218444   1.828   2.683  13.307  0.9487 -0.3262  0.3897
 2271SOL     OW18445   4.317   2.704   2.439  0.0511  0.1217 -0.6049
 2271SOL    HW118446   4.393   2.714   2.382 -0.4765 -0.9271 -1.4955
 2271SOL    HW218447   4.288   2.619   2.405 -0.4550  0.3871 -0.8324
 2272SOL     OW18448   2.372   4.178   4.222  0.3357  0.6259 -0.2385
 2272SOL    HW118449   2.399   4.087   4.237  0.6018  0.4345 -1.9480
 2272SOL    HW218450   2.444   4.207   4.166  0.0581 -2.2995 -2.0878
 2273SOL     OW18451   0.929   1.245   4.502  0.1990  0.1758  0.4053
 2273SOL    HW118452   1.005   1.302   4.508  0.8800 -0.6145 -0.6116
 2273SOL    HW218453   0.915   1.259   4.408 -1.1127 -2.2405  0.2432
 2274SOL     OW18454   3.191   3.188  10.304 -0.4596  1.0442 -0.1397
 2274SOL    HW118455   3.172   3.266  10.356  0.3380  1.9411 -1.2195
 2274SOL    HW218456   3.281   3.187  10.273  0.1865 -3.2915  1.8314
 2275SOL     OW18457   1.893   3.377   5.629 -0.3131 -0.6167  0.4766
 2275SOL    HW118458   1.874   3.370   5.722 -1.1626  2.2576  0.5023
 2275SOL    HW218459   1.968   3.436   5.621 -1.2104  0.6449  1.3989
 2276SOL     OW18460   2.323   2.317   2.555 -0.0923 -0.1711 -0.5348
 2276SOL    HW118461   2.392   2.365   2.508  0.1956  1.0671  1.1341
 2276SOL    HW218462   2.262   2.388   2.576 -0.8803 -1.2211  0.7391
 2277SOL     OW18463   3.351   3.870   8.571  0.2367  0.0012 -0.0234
 2277SOL    HW118464   3.328   3.800   8.509  0.0875  0.9605 -1.0394
 2277SOL    HW218465   3.446   3.858   8.567  0.3080 -0.2212  2.6494
 2278SOL     OW18466   4.179   0.267   3.689 -0.0366  0.1070 -0.1099
 2278SOL    HW118467   4.258   0.218   3.666  1.0000  1.3660  0.6872
 2278SOL    HW218468   4.193   0.288   3.781  0.6353 -1.2817  0.1096
 2279SOL     OW18469   0.147   0.301   7.004  0.8861  0.6703 -0.8125
 2279SOL    HW118470   0.232   0.258   6.998  1.2701  1.3009  0.0606
 2279SOL    HW218471   0.174   0.381   7.050 -1.4965  0.2358  1.3782
 2280SOL     OW18472   4.721   0.211   8.208 -0.4023  0.0727  0.1117
 2280SOL    HW118473   4.671   0.246   8.134 -0.8914  0.6586  0.7176
 2280SOL    HW218474   4.658   0.141   8.221 -0.8697  0.7000  1.2990
 2281SOL     OW18475   2.464   1.320   6.906  0.2931  0.3606  0.1662
 2281SOL    HW118476   2.384   1.299   6.955  0.6066 -2.1600 -0.3873
 2281SOL    HW218477   2.527   1.295   6.973 -0.3728 -1.1103  0.2358
 2282SOL     OW18478   4.435   1.482   0.675  0.4309 -0.7755 -0.1697
 2282SOL    HW118479   4.528   1.487   0.652  0.3760  0.1731 -0.1679
 2282SOL    HW218480   4.402   1.448   0.592  2.0872 -0.7567 -0.8253
 2283SOL     OW18481   4.729   1.146  14.438 -0.3707  0.4511  0.4816
 2283SOL    HW118482   0.079   1.139  14.470  0.2266 -0.9381 -1.4920
 2283SOL    HW218483   4.739   1.106  14.351 -2.7730 -0.7971  0.7848
 2284SOL     OW18484   3.380   0.295   1.341  0.9600 -0.0280 -0.1161
 2284SOL    HW118485   3.340   0.327   1.422  0.5547  0.5106 -0.5308
 2284SOL    HW218486   3.323   0.344   1.282 -0.4554 -1.9033 -0.2770
 2285SOL     OW18487   1.107   3.549   7.150 -0.0046 -0.0821  0.0939
 2285SOL    HW118488   1.073   3.631   7.113 -0.8255  0.2785  1.6418
 2285SOL    HW218489   1.187   3.527   7.103  0.2375 -1.2099  1.0428
 2286SOL     OW18490   1.659   0.162  13.266  0.0053 -0.7594  0.1322
 2286SOL    HW118491   1.665   0.241  13.212 -1.3582  0.3036  1.5453
 2286SOL    HW218492   1.624   0.207  13.343  1.6341 -0.6357  0.8212
 2287SOL     OW18493   2.317   4.137  11.256 -0.0753 -0.3490 -0.1836
 2287SOL    HW118494   2.366   4.219  11.252  1.9431 -1.4695  1.3691
 2287SOL    HW218495   2.386   4.076  11.231  0.3024 -0.0830  0.2187
 2288SOL     OW18496   2.523   3.184   9.092 -0.8740  0.3555  0.6640
 2288SOL    HW118497   2.468   3.120   9.138 -0.0899 -1.9546 -1.5850
 2288SOL    HW218498   2.465   3.260   9.090  1.4926  2.1117 -1.3583
 2289SOL     OW18499   4.082   3.172   3.667  0.1119 -0.7044  0.5177
 2289SOL    HW118500   4.106   3.264   3.658  2.9699 -1.4686  0.4664
 2289SOL    HW218501   3.993   3.163   3.632  0.6226 -2.1706 -0.4092
 2290SOL     OW18502   0.691   2.891   5.912  0.0284  0.2757 -0.4691
 2290SOL    HW118503   0.786   2.887   5.903  0.1834  2.9916  0.0144
 2290SOL    HW218504   0.669   2.918   5.823  3.2525 -2.7576 -2.1873
 2291SOL     OW18505   0.975   3.791  16.996  0.0363 -0.1127  0.5245
 2291SOL    HW118506   0.978   3.715  17.055  1.8931 -1.6185 -1.5153
 2291SOL    HW218507   0.967   3.745  16.912  1.8687  1.0061 -0.2604
 2292SOL     OW18508   2.987   1.401   4.177  0.1308  0.2109  0.2768
 2292SOL    HW118509   2.895   1.386   4.156 -0.3210  0.9922  1.7495
 2292SOL    HW218510   3.017   1.312   4.160  1.9643  0.1916  3.6609
 2293SOL     OW18511   3.614   2.365   8.925  0.6739 -0.2355  0.6617
 2293SOL    HW118512   3.662   2.282   8.923 -2.4082 -2.0338  2.3560
 2293SOL    HW218513   3.681   2.433   8.934 -0.1048  1.1359 -3.9288
 2294SOL     OW18514   0.114   2.584   8.807 -0.2278  0.3640 -1.1174
 2294SOL    HW118515   0.178   2.625   8.749  2.0085 -0.3292  0.8925
 2294SOL    HW218516   0.102   2.653   8.871 -0.6530 -1.4777  0.7873
 2295SOL     OW18517   4.174   1.252  12.190  0.2950 -0.3194 -0.1009
 2295SOL    HW118518   4.101   1.208  12.147  0.7321  0.8873 -2.0875
 2295SOL    HW218519   4.175   1.335  12.141 -2.6149 -2.0353 -3.0503
 2296SOL     OW18520   2.223   4.603   7.310  0.3889 -0.4042  0.3834
 2296SOL    HW118521   2.251   4.627   7.221  0.3476 -0.3364  0.3895
 2296SOL    HW218522   2.227   4.508   7.299 -2.6980 -0.6556  1.6485
 2297SOL     OW18523   2.181   2.094   8.859  0.0302 -0.2016 -0.3206
 2297SOL    HW118524   2.148   2.024   8.915 -0.6151  1.3787  1.2674
 2297SOL    HW218525   2.126   2.171   8.873 -0.1848 -0.1061 -1.7526
 2298SOL     OW18526   2.026   1.485   7.084  0.1129  0.1149  0.6410
 2298SOL    HW118527   2.097   1.429   7.053 -0.1328  0.4309 -0.4890
 2298SOL    HW218528   2.068   1.554   7.135 -1.6169  1.2784  0.5191
 2299SOL     OW18529   3.192   2.443   5.125  0.5774  0.0346  0.3376
 2299SOL    HW118530   3.222   2.532   5.142  3.9060 -1.1309  0.5097
 2299SOL    HW218531   3.223   2.417   5.038  1.5302 -1.2374  1.0486
 2300SOL     OW18532   1.163   4.604   6.460 -0.0264 -0.1621 -0.4844
 2300SOL    HW118533   1.236   4.546   6.438  0.9311  0.2103  1.6192
 2300SOL    HW218534   1.129   4.650   6.384  0.4362 -1.3743 -1.4133
 2301SOL     OW18535   3.018   1.855   1.074  0.4678  0.2676  0.1113
 2301SOL    HW118536   2.965   1.805   1.012  0.5742  0.3042 -0.0094
 2301SOL    HW218537   3.089   1.797   1.101 -1.4310 -1.3881  1.6084
 2302SOL     OW18538   1.755   4.359   1.004  0.6408  0.1237 -0.2198
 2302SOL    HW118539   1.760   4.263   0.995  1.0970  0.2299 -1.1337
 2302SOL    HW218540   1.799   4.391   0.925  1.3448 -0.2350  0.0238
 2303SOL     OW18541   2.988   3.400  10.866 -0.2070  0.1378 -0.2797
 2303SOL    HW118542   3.058   3.369  10.923 -1.8477 -2.2840  0.4181
 2303SOL    HW218543   2.940   3.317  10.872 -0.2059  0.0792 -1.1351
 2304SOL     OW18544   4.074   4.364   1.279 -0.1371  0.0691 -0.5739
 2304SOL    HW118545   4.060   4.431   1.212 -1.6526  0.4080  0.0911
 2304SOL    HW218546   4.152   4.394   1.325  0.1625 -1.9241  0.2091
 2305SOL     OW18547   3.193   4.698   9.082 -0.2318 -0.0986 -0.3334
 2305SOL    HW118548   3.224   4.694   9.172 -1.6994 -0.2983  0.1626
 2305SOL    HW218549   3.101   4.717   9.102  0.2517  0.3604  1.4367
 2306SOL     OW18550   3.817   1.896  16.432  0.0745 -0.1676  0.2226
 2306SOL    HW118551   3.774   1.974  16.467 -0.2440 -1.0360  1.7518
 2306SOL    HW218552   3.777   1.898  16.345 -0.9134  3.6079  0.7737
 2307SOL     OW18553   0.845   4.019  16.203  0.9610 -0.5059  0.1788
 2307SOL    HW118554   0.768   4.012  16.261 -0.5422 -2.8817 -2.0914
 2307SOL    HW218555   0.804   3.995  16.120  2.6318 -1.7507 -0.2586
 2308SOL     OW18556   4.475   0.892   5.286  0.2289 -0.3955 -0.0074
 2308SOL    HW118557   4.403   0.944   5.323  0.5315 -0.6251  0.8992
 2308SOL    HW218558   4.467   0.910   5.192  1.1785 -1.3556 -0.2630
 2309SOL     OW18559   3.681   1.992  14.088 -0.1957 -0.4186 -0.3413
 2309SOL    HW118560   3.639   1.919  14.043  0.3528  0.7665 -2.7716
 2309SOL    HW218561   3.733   2.044  14.027 -0.3227  0.6931  0.5011
 2310SOL     OW18562   0.609   4.037   7.027 -0.2981  0.0284  0.7886
 2310SOL    HW118563   0.539   4.024   7.092  0.2234 -1.5589  1.0454
 2310SOL    HW218564   0.559   4.048   6.947 -0.9177 -0.7738  1.0536
 2311SOL     OW18565   3.708   3.427   9.513  0.2847 -0.6435  0.1162
 2311SOL    HW118566   3.768   3.366   9.469  1.2221  0.2046  0.2292
 2311SOL    HW218567   3.707   3.401   9.605 -0.5642 -0.6158  0.1159
 2312SOL     OW18568   1.842   0.581  13.459  0.0962  0.0093  0.1584
 2312SOL    HW118569   1.870   0.518  13.393  0.2276 -0.4596  0.6615
 2312SOL    HW218570   1.872   0.556  13.547 -2.2745  1.9452  1.5239
 2313SOL     OW18571   4.320   0.427   4.497 -0.4250 -0.3598 -0.4213
 2313SOL    HW118572   4.322   0.498   4.561  1.5430 -1.9573  1.2580
 2313SOL    HW218573   4.232   0.395   4.518  0.0020 -0.2019  1.5918
 2314SOL     OW18574   3.742   0.865   5.187 -0.2748  0.5460 -0.2219
 2314SOL    HW118575   3.787   0.949   5.191 -0.7656  0.8130 -0.2743
 2314SOL    HW218576   3.759   0.834   5.276  0.1864 -0.8689 -0.8041
 2315SOL     OW18577   0.368   4.658   2.292 -0.1543  0.1609  0.5136
 2315SOL    HW118578   0.353   0.006   2.259  1.0684  0.6395  1.2605
 2315SOL    HW218579   0.463   4.664   2.303  0.0663 -0.5646 -0.9412
 2316SOL     OW18580   0.603   2.651  15.686 -0.6766  0.4751 -0.0918
 2316SOL    HW118581   0.660   2.583  15.721  0.5056  0.4351 -2.0614
 2316SOL    HW218582   0.547   2.672  15.760 -1.4265  2.7672 -1.2999
 2317SOL     OW18583   4.245   3.962   7.872 -0.0393 -0.2065  0.2712
 2317SOL    HW118584   4.334   3.995   7.856  0.3061 -0.7257  1.0912
 2317SOL    HW218585   4.258   3.893   7.937 -0.0219 -0.7594 -0.3235
 2318SOL     OW18586   3.749   4.410   4.475  0.0324  0.7555 -0.1346
 2318SOL    HW118587   3.683   4.370   4.532  0.7118  1.2771  1.0138
 2318SOL    HW218588   3.808   4.335   4.472 -1.8006 -0.7604  2.3615
 2319SOL     OW18589   4.615   2.136   7.665 -0.5946 -0.0311  0.1156
 2319SOL    HW118590   4.630   2.058   7.718 -2.5716  0.5494  1.5190
 2319SOL    HW218591   4.676   2.197   7.707  2.1252 -2.3160 -0.5003
 2320SOL     OW18592   0.265   0.805  10.342 -0.0540 -0.1807  0.1127
 2320SOL    HW118593   0.267   0.872  10.411 -0.5203  0.8361 -0.8645
 2320SOL    HW218594   0.349   0.820  10.299  0.7686 -2.9778  0.7447
 2321SOL     OW18595   0.565   0.947  10.522  0.0549 -0.7132 -0.3048
 2321SOL    HW118596   0.500   0.977  10.585  0.8992  0.5988 -0.0427
 2321SOL    HW218597   0.648   0.964  10.568  0.7667 -2.8331 -0.8054
 2322SOL     OW18598   3.828   0.452   8.056 -0.4010  0.4388  0.2805
 2322SOL    HW118599   3.866   0.448   8.144 -0.2967  0.6656  0.2449
 2322SOL    HW218600   3.819   0.358   8.040  2.6773  0.1386  0.2564
 2323SOL     OW18601   2.972   4.642  11.728 -0.6339 -0.1772  0.1765
 2323SOL    HW118602   3.040   4.600  11.676  0.3489 -1.5111  2.5236
 2323SOL    HW218603   2.960   4.583  11.803  2.1467 -2.2980 -1.0739
 2324SOL     OW18604   3.684   2.919   7.450  0.0311 -0.1480 -0.5294
 2324SOL    HW118605   3.597   2.923   7.412 -0.9318 -0.0190  1.6630
 2324SOL    HW218606   3.682   2.842   7.506  0.8928 -0.3020 -0.7051
 2325SOL     OW18607   1.760   3.316   2.623  0.0187  0.1955  0.8807
 2325SOL    HW118608   1.723   3.395   2.583 -2.2086 -1.9847 -1.3457
 2325SOL    HW218609   1.831   3.299   2.562  0.5152  2.0562  0.9301
 2326SOL     OW18610   0.290   1.336   2.474 -0.1387  0.1811 -0.0401
 2326SOL    HW118611   0.340   1.255   2.473  2.4425  1.7569 -0.2919
 2326SOL    HW218612   0.254   1.341   2.563 -0.0728 -0.3679  0.0112
 2327SOL     OW18613   2.086   4.723   9.755  0.6372  0.4617  0.2348
 2327SOL    HW118614   2.167   0.032   9.740  1.8687 -1.5422  0.2692
 2327SOL    HW218615   2.083   4.678   9.670  1.3668 -2.7569  1.9435
 2328SOL     OW18616   4.008   4.162  13.794  0.2021  0.6800  0.1582
 2328SOL    HW118617   3.954   4.196  13.723  0.5231  0.4325 -0.1997
 2328SOL    HW218618   4.031   4.079  13.753 -2.1540 -1.0468  2.3024
 2329SOL     OW18619   0.767   2.372  16.312 -0.2857 -0.3397 -0.2428
 2329SOL    HW118620   0.863   2.374  16.302 -0.3147  1.7570 -0.0011
 2329SOL    HW218621   0.755   2.338  16.401 -0.4711 -0.7919 -0.4381
 2330SOL     OW18622   3.545   2.913  10.554  0.3064 -0.0370  1.0057
 2330SOL    HW118623   3.526   2.917  10.461  0.8270  0.0181  0.9040
 2330SOL    HW218624   3.501   2.995  10.574 -1.3462 -1.2597  2.4443
 2331SOL     OW18625   0.519   1.732   8.455 -0.7926  0.5201  0.1950
 2331SOL    HW118626   0.454   1.732   8.525 -0.5071 -0.5045  0.4764
 2331SOL    HW218627   0.496   1.650   8.410 -0.5027 -0.7817  2.4090
 2332SOL     OW18628   1.371   0.873   2.148  0.0559 -0.2361  0.0962
 2332SOL    HW118629   1.312   0.912   2.213  0.4896  0.7803 -0.1247
 2332SOL    HW218630   1.442   0.937   2.155 -1.1275  1.2127 -1.1347
 2333SOL     OW18631   2.140   3.264   0.937  0.2581  0.0625 -0.2997
 2333SOL    HW118632   2.195   3.335   0.969  1.0762  0.0519 -1.6785
 2333SOL    HW218633   2.176   3.189   0.983 -0.4475  0.5896  1.1047
 2334SOL     OW18634   1.909   1.445   2.929  0.4705  0.3020  0.3143
 2334SOL    HW118635   1.815   1.467   2.928  0.6796  1.3576  3.1446
 2334SOL    HW218636   1.928   1.466   3.021  0.4552  1.1709  0.1206
 2335SOL     OW18637   0.423   0.413  16.687 -0.3219  0.5983  0.5532
 2335SOL    HW118638   0.516   0.410  16.666  0.0744  0.3035  2.3641
 2335SOL    HW218639   0.401   0.321  16.702  0.0382  0.3290 -0.6251
 2336SOL     OW18640   3.487   0.032   5.759 -0.9242 -0.2387  0.1220
 2336SOL    HW118641   3.412   0.091   5.751 -0.7109  0.1001  0.6579
 2336SOL    HW218642   3.441   4.702   5.804 -1.6884 -0.3628 -0.8584
 2337SOL     OW18643   0.421   3.713   3.374  0.2368  0.7038 -0.3530
 2337SOL    HW118644   0.498   3.752   3.414  0.0437  0.5705  0.1389
 2337SOL    HW218645   0.410   3.768   3.296  0.3754 -0.0268 -0.8834
 2338SOL     OW18646   0.526   4.095   6.787 -0.1738 -0.2369  0.3258
 2338SOL    HW118647   0.453   4.044   6.753  0.3611  0.1626 -1.4485
 2338SOL    HW218648   0.490   4.184   6.782 -0.5170 -0.3568  0.7380
 2339SOL     OW18649   0.337   1.016  11.322 -0.3218 -0.0390 -0.0023
 2339SOL    HW118650   0.246   1.038  11.344 -0.4164  0.7693 -1.1993
 2339SOL    HW218651   0.373   1.027  11.409  0.0631  1.5815 -0.3778
 2340SOL     OW18652   4.182   2.449   5.964 -0.1923  0.0488  0.7281
 2340SOL    HW118653   4.253   2.512   5.968  0.5416 -0.7274 -0.0075
 2340SOL    HW218654   4.129   2.483   5.892 -0.9380 -0.2823  1.1207
 2341SOL     OW18655   2.485   1.915  13.313  0.4767 -0.5743 -0.1537
 2341SOL    HW118656   2.526   1.840  13.356  0.5222  0.3880  1.4812
 2341SOL    HW218657   2.403   1.924  13.362  0.0754 -1.7107 -0.6247
 2342SOL     OW18658   4.138   0.883   8.948  0.2160 -0.0146 -0.2011
 2342SOL    HW118659   4.187   0.860   9.027  0.6201 -1.8395 -0.9688
 2342SOL    HW218660   4.214   0.927   8.910  0.3965  1.7309  2.1760
 2343SOL     OW18661   0.947   2.503   7.562 -0.5422 -0.1587 -0.3982
 2343SOL    HW118662   1.020   2.488   7.503 -1.1661  0.0100 -1.2153
 2343SOL    HW218663   0.885   2.440   7.525 -1.2783  0.2806  0.0717
 2344SOL     OW18664   3.537   3.687   4.093 -0.3749  0.4360  0.1704
 2344SOL    HW118665   3.523   3.693   3.999  2.1797  2.5672 -0.0825
 2344SOL    HW218666   3.608   3.624   4.108 -1.8479 -1.7279 -1.9859
 2345SOL     OW18667   4.532   4.262   5.857  0.4674 -0.4582  0.6757
 2345SOL    HW118668   4.606   4.322   5.870  0.6772 -0.5890  0.0654
 2345SOL    HW218669   4.515   4.264   5.763  2.9708 -0.8271  0.2025
 2346SOL     OW18670   2.116   3.266   2.648  0.1603  1.0374  0.1229
 2346SOL    HW118671   2.121   3.358   2.672  0.6526  0.7927  0.9623
 2346SOL    HW218672   2.087   3.288   2.560  0.3663 -0.0247 -0.2092
 2347SOL     OW18673   0.426   1.179  14.113 -0.0455  0.2445 -0.2913
 2347SOL    HW118674   0.422   1.118  14.040 -0.0529  1.6570 -1.4643
 2347SOL    HW218675   0.515   1.213  14.119 -0.6671  1.9111 -0.5767
 2348SOL     OW18676   4.031   0.212  13.950 -0.4993  0.5536  0.9491
 2348SOL    HW118677   4.042   0.122  13.920 -2.1401  0.7681 -0.2532
 2348SOL    HW218678   3.981   0.190  14.029 -1.5453  2.1905  0.7387
 2349SOL     OW18679   2.794   1.935   4.878 -0.0646 -0.2807  1.0493
 2349SOL    HW118680   2.839   1.993   4.815  0.4768 -0.1933  1.5209
 2349SOL    HW218681   2.862   1.943   4.945  0.6403  1.6665  0.1004
 2350SOL     OW18682   1.514   4.442   3.140 -0.5846  0.1017 -0.5647
 2350SOL    HW118683   1.493   4.496   3.215 -0.5626 -1.2451  0.4032
 2350SOL    HW218684   1.432   4.457   3.092 -0.3439 -0.3036 -1.1176
 2351SOL     OW18685   0.041   2.660   6.510  0.0710 -0.0474  0.0285
 2351SOL    HW118686   0.017   2.677   6.601  0.2365 -1.8486  0.4070
 2351SOL    HW218687   4.700   2.677   6.463 -0.9118 -0.7671  1.5188
 2352SOL     OW18688   2.439   1.699  14.697  0.7882  0.9078  0.2102
 2352SOL    HW118689   2.359   1.658  14.730 -0.0283  0.1929 -2.7098
 2352SOL    HW218690   2.442   1.647  14.617 -1.1438 -0.6367  1.1111
 2353SOL     OW18691   2.625   4.173   9.247  0.1564 -0.7141  0.0242
 2353SOL    HW118692   2.710   4.129   9.254  1.8193  2.5609  0.4329
 2353SOL    HW218693   2.635   4.248   9.188 -0.0924  0.2081  1.1533
 2354SOL     OW18694   1.225   0.150   9.074  0.2372  0.0976 -0.1804
 2354SOL    HW118695   1.170   0.229   9.081 -0.4876 -0.4194 -0.0709
 2354SOL    HW218696   1.153   0.087   9.065  1.9479 -1.9535  0.5214
 2355SOL     OW18697   2.000   2.247   2.569  0.5888  0.3509  0.2101
 2355SOL    HW118698   2.026   2.177   2.508 -1.8274 -0.9368  0.6551
 2355SOL    HW218699   2.006   2.327   2.517  0.3199  0.2209 -0.0242
 2356SOL     OW18700   3.474   3.400   7.064  0.1162 -0.1317 -0.3805
 2356SOL    HW118701   3.532   3.355   7.003 -0.0829 -1.1198  0.1531
 2356SOL    HW218702   3.479   3.340   7.138 -0.0354 -0.1002 -0.3435
 2357SOL     OW18703   1.469   2.354  17.489  0.0644  0.3528  0.0513
 2357SOL    HW118704   1.417   2.422  17.447 -0.4077 -1.2628 -2.0104
 2357SOL    HW218705   1.396   2.310  17.533  0.4958 -0.0276  0.3867
 2358SOL     OW18706   1.254   4.626   8.508  0.3264  0.2602  0.1442
 2358SOL    HW118707   1.186   4.623   8.441  0.9027  2.1812 -0.5113
 2358SOL    HW218708   1.240   4.548   8.562  0.8353 -0.4234 -0.7062
 2359SOL     OW18709   4.009   0.104  16.518 -0.1316  0.0398  0.1933
 2359SOL    HW118710   3.952   0.037  16.556 -0.7325 -0.2863 -1.2782
 2359SOL    HW218711   3.944   0.158  16.473  1.1314  0.8425 -0.6303
 2360SOL     OW18712   3.302   3.495  10.830  0.3620  0.1352  0.4315
 2360SOL    HW118713   3.228   3.550  10.855 -0.9484 -0.5867 -1.8667
 2360SOL    HW218714   3.285   3.423  10.891 -2.0473 -1.4246 -2.1199
 2361SOL     OW18715   2.480   3.060   8.237 -1.0060  0.4203  0.3823
 2361SOL    HW118716   2.544   3.130   8.252  0.1496 -0.6239  0.3658
 2361SOL    HW218717   2.538   2.983   8.244 -1.4679  0.1063  0.7342
 2362SOL     OW18718   4.604   3.175  11.094 -0.5767 -0.8671  0.3974
 2362SOL    HW118719   4.687   3.150  11.135  0.3415 -2.7130 -2.5303
 2362SOL    HW218720   4.603   3.266  11.121 -0.0131 -1.1991  1.5246
 2363SOL     OW18721   2.236   0.156   2.011  0.1546 -0.0089 -0.1163
 2363SOL    HW118722   2.303   0.089   2.021  2.6367  2.3976 -0.4925
 2363SOL    HW218723   2.181   0.143   2.088 -0.5665  1.3576 -0.4043
 2364SOL     OW18724   2.089   1.545   2.707  0.8638 -0.2798 -0.2190
 2364SOL    HW118725   2.138   1.615   2.750  2.1877 -1.6271  0.4496
 2364SOL    HW218726   2.031   1.522   2.780  0.8554  0.5131  0.0185
 2365SOL     OW18727   2.523   0.035  12.207 -0.3857  0.5159 -0.0790
 2365SOL    HW118728   2.475   4.693  12.212  1.7404 -0.7708 -0.8179
 2365SOL    HW218729   2.489   0.078  12.286  0.0527 -0.2407  0.5252
 2366SOL     OW18730   3.034   4.442   7.082 -0.1317  0.0566  0.6011
 2366SOL    HW118731   2.996   4.448   6.994  2.0724  0.3716 -0.3329
 2366SOL    HW218732   3.088   4.364   7.076 -1.0907 -0.5561  0.0005
 2367SOL     OW18733   2.666   3.427   4.821  0.1592  0.0740  0.5130
 2367SOL    HW118734   2.743   3.371   4.820  0.2933  0.2643  0.2099
 2367SOL    HW218735   2.603   3.364   4.856 -2.1837  1.9635 -0.2892
 2368SOL     OW18736   3.475   4.659   6.836  0.3701 -0.1521  0.7856
 2368SOL    HW118737   3.509   4.604   6.907  0.1342 -0.0799  0.9542
 2368SOL    HW218738   3.549   4.646   6.777  0.1519  0.0807  0.4564
 2369SOL     OW18739   1.035   2.458   4.765 -0.2118 -0.6103 -0.4542
 2369SOL    HW118740   0.980   2.454   4.843  0.6974 -1.9605  0.1044
 2369SOL    HW218741   0.962   2.431   4.710  0.6344  1.0255 -2.3829
 2370SOL     OW18742   1.774   3.998   9.749  0.3286 -0.1659 -0.1319
 2370SOL    HW118743   1.784   4.092   9.739 -3.5410  0.2283 -0.2518
 2370SOL    HW218744   1.765   3.998   9.845  1.2781  1.9173 -0.0386
 2371SOL     OW18745   1.577   4.009  16.062 -0.1007  0.3000 -0.3578
 2371SOL    HW118746   1.550   4.039  15.975 -0.9682  0.5102 -0.0111
 2371SOL    HW218747   1.491   4.009  16.103 -0.7447 -0.6030 -1.7205
 2372SOL     OW18748   2.397   3.753   6.074  0.7713  0.5578  0.3134
 2372SOL    HW118749   2.466   3.706   6.028 -1.2343 -2.9159  0.8610
 2372SOL    HW218750   2.371   3.811   6.002 -3.1594 -0.7494  0.7049
 2373SOL     OW18751   0.104   2.219   1.511  0.1463  0.4880 -0.2251
 2373SOL    HW118752   0.082   2.256   1.426  1.1389  0.1872 -0.6155
 2373SOL    HW218753   0.090   2.293   1.570  0.5072 -0.1088  0.6125
 2374SOL     OW18754   1.957   1.561   4.842 -0.5048 -0.3912 -0.0143
 2374SOL    HW118755   1.922   1.598   4.761  0.0942 -0.9231 -0.5150
 2374SOL    HW218756   2.038   1.526   4.806 -0.3873  0.6131 -0.7130
 2375SOL     OW18757   4.239   2.768   4.221 -0.2069  0.2333  0.2237
 2375SOL    HW118758   4.264   2.708   4.290 -0.1318  0.2937  0.2490
 2375SOL    HW218759   4.297   2.844   4.227  1.8343 -1.1418 -2.2357
 2376SOL     OW18760   0.788   4.527   8.643  0.4333  0.4695  1.1755
 2376SOL    HW118761   0.707   4.555   8.685  0.6676  1.7550  0.7623
 2376SOL    HW218762   0.746   4.502   8.561  2.3416  0.3811  0.2218
 2377SOL     OW18763   4.052   4.135   8.891  0.4198  0.2154 -0.2895
 2377SOL    HW118764   4.072   4.218   8.935  0.1275  0.2354 -0.1935
 2377SOL    HW218765   4.042   4.067   8.958 -1.1668  1.1428  0.4195
 2378SOL     OW18766   3.672   0.370   2.353 -0.2930 -0.1098  0.8331
 2378SOL    HW118767   3.726   0.436   2.396  0.9266 -1.3851  1.2509
 2378SOL    HW218768   3.728   0.294   2.369  1.0371  0.8706  0.7700
 2379SOL     OW18769   1.699   0.995   9.086  0.2360  0.1950 -0.5259
 2379SOL    HW118770   1.750   0.918   9.062 -0.6841 -0.6769  0.3546
 2379SOL    HW218771   1.733   1.067   9.032  0.9687  0.6926  0.5996
 2380SOL     OW18772   0.245   1.130   3.053  0.0670  0.5585 -0.5402
 2380SOL    HW118773   0.296   1.168   3.124 -1.0535 -0.5479  0.8501
 2380SOL    HW218774   0.317   1.085   3.008  1.8594  1.0306  1.8363
 2381SOL     OW18775   0.451   0.320   9.008 -0.2719 -0.0271  0.1061
 2381SOL    HW118776   0.529   0.300   9.060 -2.0918 -0.2849  2.6896
 2381SOL    HW218777   0.411   0.393   9.055  1.6377  1.6430 -0.8285
 2382SOL     OW18778   1.856   1.948   3.019  0.1091  0.0006 -0.5433
 2382SOL    HW118779   1.901   2.032   3.003  0.2788 -0.4419 -2.4062
 2382SOL    HW218780   1.909   1.926   3.095  0.0071  2.0995  0.1373
 2383SOL     OW18781   4.110   4.335  14.692 -0.3457  0.5982 -0.0393
 2383SOL    HW118782   4.043   4.387  14.737 -0.2821  0.8244 -0.2033
 2383SOL    HW218783   4.062   4.264  14.650 -0.9682 -0.5977  2.6999
 2384SOL     OW18784   3.015   1.847   7.154  0.0008  0.3959  0.5173
 2384SOL    HW118785   3.041   1.933   7.122  0.4400  1.0517  2.6618
 2384SOL    HW218786   3.031   1.808   7.068 -1.3133 -0.4518  0.6726
 2385SOL     OW18787   4.219   2.364   1.707  0.2124  0.2404  0.9746
 2385SOL    HW118788   4.225   2.279   1.749 -1.7102 -0.9359 -1.1204
 2385SOL    HW218789   4.268   2.345   1.627 -0.5993 -3.8188  1.4726
 2386SOL     OW18790   1.632   4.409   9.993 -0.3075 -0.0073  0.2354
 2386SOL    HW118791   1.706   4.469  10.003 -0.9744  0.9389 -0.4567
 2386SOL    HW218792   1.630   4.371  10.081 -2.9469  0.6401  0.4721
 2387SOL     OW18793   4.290   2.758   6.184  0.1800 -0.9579  0.0087
 2387SOL    HW118794   4.345   2.720   6.115 -2.0311 -0.0545 -2.2471
 2387SOL    HW218795   4.235   2.819   6.136  0.2666 -0.5848  0.3829
 2388SOL     OW18796   2.434   0.757   2.304 -0.0612  0.0248 -0.8387
 2388SOL    HW118797   2.445   0.671   2.346 -0.7916  0.4004  0.1397
 2388SOL    HW218798   2.382   0.739   2.226 -1.2059 -0.0268 -0.0570
 2389SOL     OW18799   1.525   0.019   4.173  0.1208  0.3393 -0.1213
 2389SOL    HW118800   1.561   4.696   4.112  0.3839 -0.9379  1.3801
 2389SOL    HW218801   1.610   0.039   4.211 -0.7692  1.6825  1.1953
 2390SOL     OW18802   4.324   1.513  15.173 -0.5096 -0.4771 -0.2017
 2390SOL    HW118803   4.311   1.466  15.090  0.2441 -0.9590 -0.0485
 2390SOL    HW218804   4.414   1.488  15.193 -1.2694 -3.8051 -0.9486
 2391SOL     OW18805   4.346   3.965  10.301 -0.0909 -0.6463  0.8317
 2391SOL    HW118806   4.384   3.993  10.218 -2.9215 -0.4071 -0.3718
 2391SOL    HW218807   4.416   3.917  10.346 -0.0878 -0.7051  0.7643
 2392SOL     OW18808   4.436   0.867   2.440 -0.0337  0.5992  0.2246
 2392SOL    HW118809   4.426   0.773   2.425 -1.3799  0.7828 -0.0167
 2392SOL    HW218810   4.382   0.879   2.518 -2.3890 -1.7611 -1.0287
 2393SOL     OW18811   1.158   4.502  11.940 -0.2179 -0.4217 -0.4201
 2393SOL    HW118812   1.086   4.564  11.930  0.9120  1.0520  0.4478
 2393SOL    HW218813   1.205   4.544  12.012 -2.8919  0.7113  0.6480
 2394SOL     OW18814   1.920   3.375   6.918 -0.4418  0.4711 -0.8906
 2394SOL    HW118815   1.909   3.470   6.909  0.5822  0.7021  0.3673
 2394SOL    HW218816   2.014   3.365   6.907 -0.1952  2.3340 -0.4807
 2395SOL     OW18817   4.188   0.648   8.483 -0.1680 -0.1345 -0.2124
 2395SOL    HW118818   4.252   0.705   8.440  0.5743 -0.8253 -0.0199
 2395SOL    HW218819   4.104   0.688   8.459 -0.4948 -1.8882 -1.9628
 2396SOL     OW18820   3.471   1.463   8.505  0.1391  0.0324 -0.1326
 2396SOL    HW118821   3.425   1.500   8.579  0.6930  1.4697 -0.5081
 2396SOL    HW218822   3.443   1.372   8.517 -1.2661  0.4413 -0.3418
 2397SOL     OW18823   3.465   1.125   3.800  0.2371  0.4159  0.1397
 2397SOL    HW118824   3.478   1.201   3.743 -1.4586 -0.5795 -1.5639
 2397SOL    HW218825   3.519   1.156   3.873  0.2620  0.6455  0.0254
 2398SOL     OW18826   0.602   2.097  15.527  0.1463  0.1010  0.5476
 2398SOL    HW118827   0.619   2.063  15.440  0.4754 -0.6261  0.8968
 2398SOL    HW218828   0.567   2.016  15.564 -0.0099  0.9366  2.2613
 2399SOL     OW18829   2.210   1.157   5.652 -0.2871  0.2079  0.0453
 2399SOL    HW118830   2.270   1.219   5.692 -0.6028  0.5375  0.0030
 2399SOL    HW218831   2.251   1.075   5.680  1.2139  1.4001  1.3146
 2400SOL     OW18832   2.507   1.928   3.683  0.0110 -0.0912 -0.4498
 2400SOL    HW118833   2.416   1.916   3.711  0.5170  1.0077  1.7040
 2400SOL    HW218834   2.532   1.837   3.695  1.6033  0.1022 -2.4098
 2401SOL     OW18835   0.382   0.909  13.074 -0.5035  0.0593 -0.2711
 2401SOL    HW118836   0.456   0.938  13.127 -0.4058  1.0386 -0.9354
 2401SOL    HW218837   0.370   0.993  13.030  1.6018  0.9389  0.8533
 2402SOL     OW18838   0.647   2.704   6.522 -0.2196  0.1717 -0.7042
 2402SOL    HW118839   0.599   2.779   6.556  0.0685  0.5511 -1.1244
 2402SOL    HW218840   0.734   2.733   6.549  0.2568 -1.1538 -0.8339
 2403SOL     OW18841   1.836   4.497  12.723  0.5807  0.0472 -0.2680
 2403SOL    HW118842   1.793   4.434  12.780  0.9634 -0.3006 -0.3624
 2403SOL    HW218843   1.845   4.571  12.783  1.6577  0.2605 -0.6992
 2404SOL     OW18844   0.868   1.755  15.739  0.0907 -0.0789 -0.1724
 2404SOL    HW118845   0.866   1.731  15.646  0.6962 -0.5082 -0.0807
 2404SOL    HW218846   0.843   1.847  15.733 -0.9457 -0.2325  1.8583
 2405SOL     OW18847   0.366   0.705  15.432  0.0208  0.2658  0.2922
 2405SOL    HW118848   0.410   0.735  15.512  1.5594 -2.0768  0.3222
 2405SOL    HW218849   0.291   0.765  15.435  0.3779  0.7934 -1.2031
 2406SOL     OW18850   4.063   4.022   6.832  0.0442  0.4886  0.0666
 2406SOL    HW118851   4.055   4.104   6.882 -0.2568  1.4976 -1.6243
 2406SOL    HW218852   4.150   4.001   6.864  0.1862  0.9101 -0.0390
 2407SOL     OW18853   0.737   3.563   2.928 -0.3047 -0.5653 -0.3933
 2407SOL    HW118854   0.747   3.472   2.899  0.4715 -0.5954 -0.0480
 2407SOL    HW218855   0.751   3.552   3.022 -0.9415 -1.7783 -0.4431
 2408SOL     OW18856   3.168   4.688   3.555  0.4255 -0.1803  0.7532
 2408SOL    HW118857   3.167   4.596   3.584  0.1782 -0.2836  0.4167
 2408SOL    HW218858   3.242   4.726   3.602  1.8458 -1.1203 -0.7554
 2409SOL     OW18859   3.246   0.989   7.207  0.4919  0.1197 -0.3013
 2409SOL    HW118860   3.267   0.907   7.164 -0.5162 -0.5508  0.4807
 2409SOL    HW218861   3.327   1.017   7.248  1.2197 -2.8264  0.2347
 2410SOL     OW18862   2.650   2.098   3.140  0.0560 -0.5304 -0.4791
 2410SOL    HW118863   2.690   2.070   3.222  0.7418  0.6430 -0.4179
 2410SOL    HW218864   2.683   2.187   3.139 -1.3005 -0.0147  0.1587
 2411SOL     OW18865   4.614   2.781  12.201 -0.2039  0.2396 -0.3936
 2411SOL    HW118866   4.586   2.819  12.118  1.9176 -0.1462 -1.3036
 2411SOL    HW218867   4.702   2.749  12.181  0.0425  0.3116  0.5371
 2412SOL     OW18868   2.430   1.773   0.822 -0.0720  1.1497  0.4249
 2412SOL    HW118869   2.362   1.837   0.804 -0.1404  0.7192 -0.8609
 2412SOL    HW218870   2.503   1.830   0.796  1.8303 -0.8085  1.4159
 2413SOL     OW18871   3.941   1.918  10.516 -0.3907  0.7957 -0.4995
 2413SOL    HW118872   3.941   1.823  10.504 -2.4001  0.6965  0.2262
 2413SOL    HW218873   3.939   1.938  10.609 -0.4849 -2.1922  0.1156
 2414SOL     OW18874   4.697   2.216   0.402  0.2661 -0.1051 -0.0433
 2414SOL    HW118875   4.729   2.256   0.321  1.0806  1.3276  0.9885
 2414SOL    HW218876   4.622   2.275   0.409  1.7917  2.0226 -1.7380
 2415SOL     OW18877   3.842   2.351  13.598  0.8091 -0.4503 -0.0561
 2415SOL    HW118878   3.809   2.374  13.510 -1.2771  0.4594  0.9631
 2415SOL    HW218879   3.779   2.288  13.631 -2.9633  2.7016 -1.1191
 2416SOL     OW18880   0.506   2.332   3.914  0.1437 -0.4554 -0.0919
 2416SOL    HW118881   0.472   2.339   3.825 -2.8942 -0.8838  1.0419
 2416SOL    HW218882   0.434   2.286   3.958 -1.4113  1.5412 -0.5060
 2417SOL     OW18883   2.482   1.873   2.393 -0.2315 -0.5414 -0.6688
 2417SOL    HW118884   2.440   1.882   2.478  3.1304 -0.5778  1.0084
 2417SOL    HW218885   2.413   1.833   2.340  0.9490  0.1833 -2.7742
 2418SOL     OW18886   0.276   1.356  13.250 -0.1362 -0.2553 -0.0861
 2418SOL    HW118887   0.249   1.383  13.162 -0.5676 -1.5282 -0.3302
 2418SOL    HW218888   0.199   1.380  13.302  0.3337 -1.4540  1.1645
 2419SOL     OW18889   1.812   0.465   4.675 -0.2313  0.4522  0.1161
 2419SOL    HW118890   1.906   0.451   4.686 -0.5861  0.3380  2.8221
 2419SOL    HW218891   1.777   0.378   4.656  0.2235  0.1523  0.6683
 2420SOL     OW18892   0.425   2.248   3.618  0.0554 -0.3184  0.3485
 2420SOL    HW118893   0.378   2.168   3.639  0.4531 -0.7558 -0.4333
 2420SOL    HW218894   0.503   2.210   3.577 -1.6053 -1.3481 -1.8833
 2421SOL     OW18895   3.544   1.258   2.693  0.6661 -0.2817  0.2463
 2421SOL    HW118896   3.503   1.180   2.655 -2.6373  0.5731  2.0196
 2421SOL    HW218897   3.548   1.233   2.786 -0.7227  0.5720  0.5415
 2422SOL     OW18898   0.295   2.942   3.229  0.0730  0.7131  0.8467
 2422SOL    HW118899   0.257   2.858   3.203  1.2593  0.0223  1.3415
 2422SOL    HW218900   0.214   2.979   3.262 -0.0529 -0.3078  1.6897
 2423SOL     OW18901   1.733   2.178   7.366 -0.2083 -0.1711 -0.2483
 2423SOL    HW118902   1.786   2.220   7.433  1.8707 -0.2431 -1.8629
 2423SOL    HW218903   1.700   2.101   7.413 -1.0304  0.5868  0.3998
 2424SOL     OW18904   0.079   2.329   2.094 -0.0250 -0.2231 -0.1776
 2424SOL    HW118905   0.050   2.404   2.041 -0.2864  0.4497  0.9146
 2424SOL    HW218906   0.062   2.374   2.177  2.1427 -2.2159  1.3300
 2425SOL     OW18907   0.728   2.237  10.810 -0.6229  0.0484  0.7629
 2425SOL    HW118908   0.824   2.241  10.802 -0.6200 -1.1146  0.1511
 2425SOL    HW218909   0.706   2.239  10.717 -1.7061 -1.4663  0.9945
 2426SOL     OW18910   0.507   1.579  14.316  0.1749 -0.0680  0.3985
 2426SOL    HW118911   0.517   1.519  14.242  1.9788  0.4935  0.1714
 2426SOL    HW218912   0.418   1.607  14.295  0.8253  1.8995  0.3180
 2427SOL     OW18913   4.502   2.948   8.894 -0.6229 -0.7712 -0.3212
 2427SOL    HW118914   4.587   2.908   8.914  0.6443  1.9601 -0.1490
 2427SOL    HW218915   4.517   3.005   8.818  1.3750 -1.7800 -0.6808
 2428SOL     OW18916   0.987   1.275  12.044 -0.1255  0.2782 -0.0456
 2428SOL    HW118917   0.995   1.285  12.139  0.8076 -1.2813  0.0469
 2428SOL    HW218918   1.063   1.328  12.017 -0.3101  1.1837  1.1857
 2429SOL     OW18919   2.714   4.528   2.419  0.2770  0.1013 -0.3409
 2429SOL    HW118920   2.752   4.446   2.452  2.4944  1.1078 -0.4097
 2429SOL    HW218921   2.793   4.558   2.374  0.2794 -0.9862 -1.0901
 2430SOL     OW18922   1.629   2.932   6.860 -0.1046 -0.7247 -0.1190
 2430SOL    HW118923   1.689   3.006   6.856  1.2811 -1.8421  0.4008
 2430SOL    HW218924   1.688   2.863   6.889 -4.4763 -3.1426  3.1035
 2431SOL     OW18925   0.459   4.543  13.009 -0.2360  0.4638  0.5083
 2431SOL    HW118926   0.494   4.629  13.033  2.8268 -0.6100 -0.2039
 2431SOL    HW218927   0.506   4.489  13.071 -0.0558  0.6249  0.5113
 2432SOL     OW18928   4.162   3.492  14.633 -0.0408 -0.2245 -0.2998
 2432SOL    HW118929   4.102   3.485  14.708 -0.4193  1.9447 -0.4010
 2432SOL    HW218930   4.206   3.408  14.643  1.8145  0.7970  0.0546
 2433SOL     OW18931   4.037   3.165  17.211 -0.4565  0.2692 -0.3012
 2433SOL    HW118932   4.036   3.070  17.199 -2.2474  0.0596  1.4664
 2433SOL    HW218933   4.084   3.188  17.131 -1.4716  3.0230 -0.1082
 2434SOL     OW18934   4.141   1.881  12.738  0.1909 -0.5471  0.5427
 2434SOL    HW118935   4.222   1.860  12.783 -0.6933  1.2312  2.9390
 2434SOL    HW218936   4.163   1.904  12.647 -1.0408 -1.5000 -0.0013
 2435SOL     OW18937   3.764   4.224   8.256 -0.0037 -0.2052  0.0909
 2435SOL    HW118938   3.751   4.319   8.256  1.6350  0.0054  0.9147
 2435SOL    HW218939   3.767   4.208   8.161  2.3850  3.0295 -0.3681
 2436SOL     OW18940   0.931   0.995   6.807  0.6779 -0.3514 -0.1543
 2436SOL    HW118941   0.876   1.000   6.728  1.8403 -2.0528 -1.0673
 2436SOL    HW218942   1.015   1.030   6.778 -0.0435  1.4697 -0.0209
 2437SOL     OW18943   1.671   1.654   5.007  0.4223 -0.1563  0.6919
 2437SOL    HW118944   1.592   1.674   5.056  0.8218  1.7427  0.5815
 2437SOL    HW218945   1.708   1.742   4.997 -1.3575  0.5247 -0.0319
 2438SOL     OW18946   4.439   1.499   5.768  0.6397  0.3056 -0.1021
 2438SOL    HW118947   4.504   1.550   5.816  2.7695 -1.5704 -0.9745
 2438SOL    HW218948   4.502   1.443   5.722  0.9674 -0.1948  0.9329
 2439SOL     OW18949   0.973   3.541   7.398  0.0224 -0.1903  0.0126
 2439SOL    HW118950   1.014   3.538   7.311 -0.8843 -1.6731 -0.3716
 2439SOL    HW218951   1.053   3.550   7.450 -0.1824  1.1876  0.0767
 2440SOL     OW18952   1.584   2.354   5.032  0.2641 -0.4398  0.9704
 2440SOL    HW118953   1.580   2.411   4.956  0.9275 -0.5816  0.8289
 2440SOL    HW218954   1.575   2.265   4.998 -0.2280  0.3497 -0.9383
 2441SOL     OW18955   1.468   2.001   1.613  0.1237  0.2124  0.1309
 2441SOL    HW118956   1.377   1.985   1.638 -0.2572  0.4039 -1.1701
 2441SOL    HW218957   1.481   1.967   1.525  0.5952  0.5554  0.0620
 2442SOL     OW18958   1.309   3.497  12.293 -0.2340  0.3155  0.3582
 2442SOL    HW118959   1.359   3.577  12.279  1.3949 -0.7452  0.0062
 2442SOL    HW218960   1.358   3.456  12.366 -2.2042 -0.1960  1.3960
 2443SOL     OW18961   4.305   1.269   4.659  0.0286  0.2210  0.1181
 2443SOL    HW118962   4.369   1.223   4.605  0.0855  0.0719  0.3123
 2443SOL    HW218963   4.292   1.341   4.597 -1.3869  1.2193  1.5741
 2444SOL     OW18964   0.642   0.769   2.140  0.2028 -0.2730  0.0141
 2444SOL    HW118965   0.683   0.693   2.099 -1.1217 -1.4801  0.9242
 2444SOL    HW218966   0.575   0.788   2.074 -0.9158 -2.3308  0.5723
 2445SOL     OW18967   1.851   2.684  14.979 -0.0806 -0.0261 -0.5780
 2445SOL    HW118968   1.760   2.676  14.949 -0.0581  0.4987 -0.7906
 2445SOL    HW218969   1.831   2.700  15.072 -2.1081 -0.3422 -0.9620
 2446SOL     OW18970   1.751   1.727   3.185  0.2276  0.1478  0.3830
 2446SOL    HW118971   1.739   1.807   3.236  0.1627  0.4413 -0.0963
 2446SOL    HW218972   1.669   1.734   3.136  0.2080 -2.4649  0.0032
 2447SOL     OW18973   0.154   1.032   9.987 -0.2734 -0.1632  0.6165
 2447SOL    HW118974   0.206   1.052  10.064  0.2275  2.3431 -0.3873
 2447SOL    HW218975   0.157   1.120   9.949 -1.1970 -0.5319 -0.3194
 2448SOL     OW18976   4.367   2.312   1.492  0.0253  0.0514  0.3070
 2448SOL    HW118977   4.426   2.255   1.541 -2.6820 -2.1663  0.9772
 2448SOL    HW218978   4.439   2.355   1.446 -0.8814  0.8375 -0.4021
 2449SOL     OW18979   4.069   0.274  16.120 -0.0670  0.0241  0.1095
 2449SOL    HW118980   4.036   0.203  16.065 -0.2590  1.2711 -1.3572
 2449SOL    HW218981   3.982   0.309  16.140 -1.7002 -4.1853  0.3882
 2450SOL     OW18982   1.944   4.062  10.559 -0.0111 -0.2407  0.4998
 2450SOL    HW118983   1.874   4.105  10.511  0.1054  1.5564  1.9447
 2450SOL    HW218984   2.019   4.118  10.542  0.7146 -0.7428  2.0042
 2451SOL     OW18985   0.237   2.210  13.791  0.0209  0.4894 -0.1038
 2451SOL    HW118986   0.246   2.278  13.724 -1.9558  0.6931 -0.1624
 2451SOL    HW218987   0.308   2.237  13.849 -0.0599  1.7031 -0.5672
 2452SOL     OW18988   4.286   1.626   1.351  0.3873 -0.5382 -0.2786
 2452SOL    HW118989   4.244   1.712   1.353  0.2809 -0.5759 -1.2182
 2452SOL    HW218990   4.242   1.587   1.276 -0.0705  2.8485 -1.7884
 2453SOL     OW18991   3.154   1.474   5.344 -0.5903  0.4698 -0.2798
 2453SOL    HW118992   3.072   1.495   5.389  0.5467  1.6999  1.2154
 2453SOL    HW218993   3.131   1.402   5.286  0.1282  0.2568 -0.2896
 2454SOL     OW18994   0.533   4.410  16.567 -0.6882  0.0107 -0.0301
 2454SOL    HW118995   0.499   4.329  16.605  0.2799 -0.7163 -0.7423
 2454SOL    HW218996   0.512   4.396  16.475  1.5782 -0.8852 -0.4029
 2455SOL     OW18997   3.487   3.693  16.595 -0.4555  0.5353  0.1618
 2455SOL    HW118998   3.468   3.785  16.610  0.7344  0.2348  3.5647
 2455SOL    HW218999   3.544   3.686  16.519 -1.1130  1.3103 -0.3975
 2456SOL     OW19000   0.722   3.886  13.036 -0.9676  0.1115  0.5539
 2456SOL    HW119001   0.745   3.823  12.968  0.8881  0.3429  0.9709
 2456SOL    HW219002   0.746   3.961  12.982 -1.8989 -1.6937 -2.3382
 2457SOL     OW19003   1.127   1.047  16.824 -0.0643  0.7411 -0.1111
 2457SOL    HW119004   1.174   1.050  16.908 -0.4284  3.4332  0.0005
 2457SOL    HW219005   1.193   1.040  16.755 -0.4690 -3.2961 -0.0678
 2458SOL     OW19006   3.503   1.812  13.989  0.3716  0.4389  0.1554
 2458SOL    HW119007   3.524   1.743  13.926  3.1160  1.7549 -0.3615
 2458SOL    HW219008   3.447   1.775  14.057 -0.0013 -2.3015 -1.6529
 2459SOL     OW19009   2.450   2.154  15.703  0.3881  0.7262  0.3597
 2459SOL    HW119010   2.449   2.164  15.608  0.8868  0.5116  0.3268
 2459SOL    HW219011   2.419   2.239  15.733  1.0079  0.9432  0.3900
 2460SOL     OW19012   4.286   0.400   4.213  0.1548  0.1621 -0.3463
 2460SOL    HW119013   4.289   0.422   4.306  1.0595  0.5241 -0.4612
 2460SOL    HW219014   4.351   0.460   4.177  0.3104 -0.3102 -0.8559
 2461SOL     OW19015   3.818   3.909   8.848  0.0148  0.4842 -0.2475
 2461SOL    HW119016   3.871   3.967   8.903 -0.0574  2.2216 -2.0182
 2461SOL    HW219017   3.752   3.885   8.913  0.2153  0.2908 -0.1143
 2462SOL     OW19018   4.061   0.179   8.441 -0.2820  0.0442 -0.4247
 2462SOL    HW119019   3.979   0.218   8.472 -0.5888 -0.2618 -0.8460
 2462SOL    HW219020   4.118   0.189   8.516 -2.2244 -1.6806  1.2994
 2463SOL     OW19021   0.999   0.335   7.233  0.0030 -0.3168 -0.2963
 2463SOL    HW119022   1.000   0.420   7.189  1.3708  0.0203  0.4068
 2463SOL    HW219023   0.983   0.358   7.325  0.6624  1.1924 -0.5716
 2464SOL     OW19024   1.979   4.535   3.264  0.2590 -0.1852 -0.0683
 2464SOL    HW119025   1.993   4.487   3.182 -0.7139  1.0163 -0.9322
 2464SOL    HW219026   1.904   4.493   3.306 -0.5003  0.8587 -0.3815
 2465SOL     OW19027   1.859   2.644  17.007  1.0653  0.0300 -0.3645
 2465SOL    HW119028   1.814   2.653  17.091 -0.6075 -0.7912 -1.1715
 2465SOL    HW219029   1.883   2.734  16.988 -0.3603  1.0114  2.5816
 2466SOL     OW19030   1.476   3.588   6.586 -0.5993  0.1341  0.4300
 2466SOL    HW119031   1.453   3.496   6.596  0.9105 -0.3382 -0.4466
 2466SOL    HW219032   1.411   3.607   6.519 -0.4736 -1.7110 -0.2109
 2467SOL     OW19033   0.835   3.997   4.683 -0.5222 -0.7323 -0.0608
 2467SOL    HW119034   0.767   4.046   4.729 -2.4287 -1.0619 -2.5445
 2467SOL    HW219035   0.809   3.995   4.591 -0.5493 -0.2918 -0.0617
 2468SOL     OW19036   3.010   0.562   0.548 -0.0246 -0.7686  0.0454
 2468SOL    HW119037   2.992   0.504   0.621  2.5671  0.7607  1.9004
 2468SOL    HW219038   2.975   0.505   0.480 -2.2076  0.8570 -0.2098
 2469SOL     OW19039   2.995   0.206   7.351 -0.0852  0.9395  0.0239
 2469SOL    HW119040   2.926   0.187   7.287  0.3658 -1.5367  0.2637
 2469SOL    HW219041   2.981   0.299   7.363 -1.5678  0.4414  2.1066
 2470SOL     OW19042   4.543   2.009   4.542  0.5060 -0.9208  0.1530
 2470SOL    HW119043   4.596   1.929   4.535  2.5659  0.4684  0.1318
 2470SOL    HW219044   4.505   1.985   4.627  2.1090 -0.0126  1.1155
 2471SOL     OW19045   0.427   1.780   6.311  0.1548  0.1085 -0.2669
 2471SOL    HW119046   0.394   1.780   6.401  0.0875  2.4461 -0.2853
 2471SOL    HW219047   0.361   1.836   6.269 -2.2658 -1.2634  1.7003
 2472SOL     OW19048   1.167   1.896   5.917 -0.0012 -0.1999 -0.1189
 2472SOL    HW119049   1.216   1.956   5.973  3.0434 -1.0265 -1.9278
 2472SOL    HW219050   1.150   1.838   5.992  0.6422 -0.2294  0.0002
 2473SOL     OW19051   0.052   1.823  15.586  0.3984 -0.1611  0.2810
 2473SOL    HW119052   0.136   1.870  15.580  0.8695 -1.0213  0.1283
 2473SOL    HW219053   0.072   1.757  15.519 -2.2607 -1.0468  0.3699
 2474SOL     OW19054   0.564   4.663   3.647  0.4321  0.3031 -0.4220
 2474SOL    HW119055   0.583   4.737   3.705 -1.8596  2.7825 -2.8155
 2474SOL    HW219056   0.571   4.592   3.710 -1.0011  0.8392  0.3290
 2475SOL     OW19057   3.700   0.476   5.156 -0.2674  0.1938 -0.1423
 2475SOL    HW119058   3.749   0.557   5.139 -1.4271  1.5957  3.1370
 2475SOL    HW219059   3.775   0.418   5.147 -1.6921 -2.0001  2.0692
 2476SOL     OW19060   3.517   2.199   7.248 -0.4356  0.1336  0.0235
 2476SOL    HW119061   3.599   2.245   7.231 -0.7232  1.2719  1.7371
 2476SOL    HW219062   3.501   2.230   7.337  0.0052 -1.0165  0.5058
 2477SOL     OW19063   1.506   2.321   4.402  0.0473 -0.1395  0.1760
 2477SOL    HW119064   1.550   2.324   4.487 -1.9185 -0.6320  1.2275
 2477SOL    HW219065   1.548   2.245   4.362 -0.5089  0.6245 -1.8762
 2478SOL     OW19066   0.414   0.137   2.563  0.4166 -0.1149  0.1412
 2478SOL    HW119067   0.503   0.110   2.541 -0.2602 -1.9860 -0.3378
 2478SOL    HW219068   0.428   0.225   2.597 -1.7440 -1.3345  4.2962
 2479SOL     OW19069   3.319   0.535   4.494 -0.1044  0.0336  0.3587
 2479SOL    HW119070   3.410   0.507   4.502 -0.6692 -1.4370  1.5379
 2479SOL    HW219071   3.302   0.546   4.587 -1.8509 -0.6860  0.1253
 2480SOL     OW19072   1.178   3.934   2.974 -0.1355  0.1323  0.3957
 2480SOL    HW119073   1.166   3.983   3.056 -0.4861 -1.0543  1.0597
 2480SOL    HW219074   1.270   3.907   2.982 -0.5110 -1.3929 -0.4885
 2481SOL     OW19075   0.621   3.288   5.959  0.3384 -0.5634  0.0487
 2481SOL    HW119076   0.612   3.262   5.868 -0.1207 -0.9440  0.2055
 2481SOL    HW219077   0.645   3.380   5.953  1.5014 -0.9213 -0.8384
 2482SOL     OW19078   1.173   2.172   4.714 -0.0460  0.7454  0.0502
 2482SOL    HW119079   1.169   2.259   4.675 -0.2927  0.6493 -0.1388
 2482SOL    HW219080   1.252   2.142   4.667 -1.6802 -0.9001 -1.6493
 2483SOL     OW19081   4.177   0.068   5.185  0.0314  0.1863 -0.4818
 2483SOL    HW119082   4.141   0.053   5.272  0.7105 -2.0957 -0.6089
 2483SOL    HW219083   4.102   0.107   5.140 -1.1298  0.0787  1.3504
 2484SOL     OW19084   1.662   0.738   4.737  0.1704  0.2965 -0.2993
 2484SOL    HW119085   1.692   0.720   4.648 -0.5313  1.6043 -0.7963
 2484SOL    HW219086   1.737   0.795   4.757  0.0650  0.5009 -0.4948
 2485SOL     OW19087   1.080   4.210  15.421 -0.2614  0.0195 -0.3023
 2485SOL    HW119088   1.124   4.146  15.366 -0.9551 -0.7083  0.0023
 2485SOL    HW219089   1.011   4.249  15.367  0.1403  2.3424  0.8568
 2486SOL     OW19090   4.338   2.075   6.914 -0.2992  0.6772  0.0887
 2486SOL    HW119091   4.253   2.115   6.932 -1.5199 -0.3126 -3.3609
 2486SOL    HW219092   4.401   2.138   6.949 -0.8396  0.9871  0.5024
 2487SOL     OW19093   3.762   0.346   6.906 -0.1772  0.0053  0.4350
 2487SOL    HW119094   3.699   0.331   6.977 -1.7171 -0.5772 -1.0699
 2487SOL    HW219095   3.709   0.347   6.827  1.5385 -1.1368 -0.7444
 2488SOL     OW19096   2.246   2.623   4.530 -0.7003  0.3123  0.0861
 2488SOL    HW119097   2.274   2.629   4.622 -0.4828  0.7452 -0.0088
 2488SOL    HW219098   2.330   2.642   4.489 -0.2115  1.1160  1.4648
 2489SOL     OW19099   0.432   1.505   0.243  0.0963  0.4439  0.5203
 2489SOL    HW119100   0.486   1.432   0.273 -1.1757 -0.8453 -0.3314
 2489SOL    HW219101   0.367   1.448   0.203  0.6632 -0.3747  0.7512
 2490SOL     OW19102   3.159   3.555  16.807  0.3672  0.2872 -0.2145
 2490SOL    HW119103   3.197   3.597  16.729  1.4473 -0.2241  0.0436
 2490SOL    HW219104   3.230   3.546  16.869  1.2058  0.4322 -1.1441
 2491SOL     OW19105   2.170   1.790   1.564  0.7517 -0.4849 -0.0095
 2491SOL    HW119106   2.099   1.727   1.554  0.9206 -0.5179 -1.0468
 2491SOL    HW219107   2.124   1.874   1.560 -1.2473 -1.4974  1.5483
 2492SOL     OW19108   0.426   1.923   9.603  0.4971  0.5550 -0.6781
 2492SOL    HW119109   0.440   1.968   9.686 -1.9050 -0.1573  0.1127
 2492SOL    HW219110   0.511   1.880   9.590  0.4572  0.1449  0.4651
 2493SOL     OW19111   3.457   4.445  10.278 -0.3459 -0.3060  0.5525
 2493SOL    HW119112   3.493   4.398  10.353  1.9277  3.4175  1.8167
 2493SOL    HW219113   3.391   4.383  10.249 -0.6908  1.3944 -2.2239
 2494SOL     OW19114   4.711   2.464   2.308  0.1540  0.2834  0.2166
 2494SOL    HW119115   0.048   2.508   2.343  0.3211 -0.0803  0.3046
 2494SOL    HW219116   4.660   2.539   2.278 -1.2201 -1.2760 -1.3427
 2495SOL     OW19117   3.759   2.788  13.530  0.1584 -0.2464  0.0033
 2495SOL    HW119118   3.775   2.883  13.533  0.6984 -0.3533  0.3519
 2495SOL    HW219119   3.703   2.786  13.453  1.7422 -1.7878 -1.0953
 2496SOL     OW19120   0.381   1.653   0.715 -0.0238  0.4282 -0.0571
 2496SOL    HW119121   0.347   1.726   0.767  0.7546  0.5980  0.2015
 2496SOL    HW219122   0.379   1.694   0.629 -1.6086 -0.1451 -0.2961
 2497SOL     OW19123   2.126   2.534   5.761  0.7531 -0.3133 -0.2514
 2497SOL    HW119124   2.111   2.628   5.761 -1.1583 -0.6230  0.6499
 2497SOL    HW219125   2.176   2.524   5.842  0.1652  0.4140  0.1908
 2498SOL     OW19126   2.953   1.007   3.729  0.1169  0.2224 -0.3174
 2498SOL    HW119127   3.041   0.997   3.765 -0.1551 -2.1851 -0.3251
 2498SOL    HW219128   2.927   0.915   3.721  1.5302 -0.1283 -0.8553
 2499SOL     OW19129   3.527   0.153   4.356 -0.0104 -0.3520 -0.5894
 2499SOL    HW119130   3.477   0.135   4.436  0.5908 -0.5427 -0.2578
 2499SOL    HW219131   3.554   0.243   4.374 -1.0132 -0.2414  0.3448
 2500SOL     OW19132   2.315   0.462   4.935 -0.2147  0.2319 -0.1504
 2500SOL    HW119133   2.408   0.457   4.916 -0.3980 -0.6008 -0.8154
 2500SOL    HW219134   2.306   0.531   5.001  0.6371 -0.0632  0.2738
 2501SOL     OW19135   3.352   3.623   7.804  0.2756  0.1461  0.3638
 2501SOL    HW119136   3.423   3.560   7.818  0.9830  0.5023 -1.7253
 2501SOL    HW219137   3.392   3.707   7.828 -0.4683  0.0848  1.8871
 2502SOL     OW19138   0.994   2.291   4.396 -0.0424  0.0418  0.1815
 2502SOL    HW119139   0.941   2.351   4.449 -0.6754 -0.8588  0.5875
 2502SOL    HW219140   1.001   2.345   4.318  2.1640 -0.4127  0.0617
 2503SOL     OW19141   1.967   2.045   1.556 -0.1981 -0.4301 -0.0440
 2503SOL    HW119142   1.926   2.128   1.580  2.4242  0.3485  1.6987
 2503SOL    HW219143   1.891   1.987   1.558 -1.7498  1.6694  2.5394
 2504SOL     OW19144   0.195   2.267  14.754  0.1049 -0.0474  0.2830
 2504SOL    HW119145   0.196   2.174  14.776  0.5127  0.2741  1.6273
 2504SOL    HW219146   0.176   2.319  14.832  0.6948 -0.6980  0.8514
 2505SOL     OW19147   3.603   1.962   5.269  0.0208 -0.3483  0.2958
 2505SOL    HW119148   3.531   1.971   5.206 -1.5414 -0.2945  2.1016
 2505SOL    HW219149   3.633   1.876   5.238  1.2406 -0.4276  1.7567
 2506SOL     OW19150   1.038   2.165   9.062  0.0838 -0.3290  0.0792
 2506SOL    HW119151   1.027   2.087   9.007 -2.4834  0.1396 -0.0996
 2506SOL    HW219152   1.004   2.125   9.143 -2.0820 -1.1271 -1.2065
 2507SOL     OW19153   1.549   2.444   5.305  0.6613  0.3247  0.4278
 2507SOL    HW119154   1.572   2.421   5.215  0.9350 -0.5299  0.7143
 2507SOL    HW219155   1.632   2.408   5.336 -0.7968 -1.1440  2.6173
 2508SOL     OW19156   3.598   3.051   3.742  0.8240  0.1441 -0.3583
 2508SOL    HW119157   3.671   3.093   3.697  1.1360  0.7908  0.7520
 2508SOL    HW219158   3.597   3.116   3.812 -0.4038  0.5403 -0.7434
 2509SOL     OW19159   0.054   3.037   3.360 -0.3687 -0.9415  0.0339
 2509SOL    HW119160   4.700   3.050   3.346 -0.2282  0.4029  0.3339
 2509SOL    HW219161   0.064   3.025   3.454 -0.0526 -1.0182 -0.0118
 2510SOL     OW19162   1.683   4.094   5.695 -0.4039  0.3971  0.0795
 2510SOL    HW119163   1.767   4.055   5.719  0.7752  1.6144 -2.1235
 2510SOL    HW219164   1.618   4.075   5.763 -0.6205  4.7852  1.0712
 2511SOL     OW19165   0.327   1.650  15.699 -0.0678 -0.0990  0.0236
 2511SOL    HW119166   0.379   1.608  15.631 -2.0012 -2.1549 -0.1921
 2511SOL    HW219167   0.243   1.660  15.654 -1.5226  1.0108  3.0120
 2512SOL     OW19168   1.457   0.481  13.652 -0.3365 -0.4867 -0.0669
 2512SOL    HW119169   1.369   0.505  13.680  0.3552  0.6490  1.2003
 2512SOL    HW219170   1.498   0.439  13.728 -0.3008  0.4665  0.4446
 2513SOL     OW19171   0.496   0.694   8.602  0.1652  0.1547  0.1893
 2513SOL    HW119172   0.458   0.622   8.551 -2.8582 -0.1650  2.8554
 2513SOL    HW219173   0.459   0.772   8.561  0.7021 -0.3253 -1.2078
 2514SOL     OW19174   1.830   4.658  10.468 -0.7987  0.1484  0.7186
 2514SOL    HW119175   1.828   0.012  10.482  1.9291  0.3195  0.0775
 2514SOL    HW219176   1.743   4.645  10.430 -0.5630 -1.1172  0.6064
 2515SOL     OW19177   1.658   0.838   6.752 -0.0145 -0.1022  0.3994
 2515SOL    HW119178   1.719   0.785   6.803 -0.7781  0.2296  1.6679
 2515SOL    HW219179   1.581   0.819   6.806  1.3157 -2.2932  1.5477
 2516SOL     OW19180   1.526   3.527   0.662 -0.3265 -0.7373 -0.0836
 2516SOL    HW119181   1.452   3.488   0.708 -1.8526  3.0174  0.6766
 2516SOL    HW219182   1.478   3.554   0.584 -0.2784  2.0577  0.8460
 2517SOL     OW19183   2.284   2.705   8.764  0.0217  0.9621 -0.2823
 2517SOL    HW119184   2.216   2.648   8.727  0.2478  1.8359 -1.9978
 2517SOL    HW219185   2.335   2.717   8.684 -1.1991  0.3696 -1.1527
 2518SOL     OW19186   3.699   3.362  16.621  0.0715 -0.0726 -0.2555
 2518SOL    HW119187   3.681   3.441  16.672 -2.5267 -0.3578 -0.7331
 2518SOL    HW219188   3.614   3.357  16.577 -0.7097 -0.3097  1.2708
 2519SOL     OW19189   4.281   1.076   5.496 -0.4167  0.0437 -0.2865
 2519SOL    HW119190   4.252   1.035   5.577 -1.6221  1.8641  0.2155
 2519SOL    HW219191   4.232   1.028   5.429 -1.9311 -1.0031  1.5578
 2520SOL     OW19192   2.107   4.567   8.832  0.4857 -0.3658 -1.3421
 2520SOL    HW119193   2.066   4.566   8.919  0.9691  0.8870 -1.1013
 2520SOL    HW219194   2.191   4.523   8.845  0.3355 -0.1627  0.3195
 2521SOL     OW19195   3.221   2.632  14.958  0.5192  0.4133 -0.4966
 2521SOL    HW119196   3.274   2.556  14.981 -0.9119 -0.2196  0.6750
 2521SOL    HW219197   3.172   2.643  15.040  0.1953 -0.1505 -0.6179
 2522SOL     OW19198   2.729   2.558   3.329  1.0325 -0.4429 -0.1569
 2522SOL    HW119199   2.747   2.509   3.249  0.2993 -0.4363 -0.3206
 2522SOL    HW219200   2.818   2.553   3.364  1.8567  0.3627 -2.1621
 2523SOL     OW19201   0.023   1.001  10.440 -0.5298 -0.3010  0.1773
 2523SOL    HW119202   0.081   1.023  10.513  0.1512 -1.0875 -0.1233
 2523SOL    HW219203   4.703   0.949  10.492 -1.1978 -0.9324 -1.2331
 2524SOL     OW19204   1.676   1.105   7.978  0.3487  0.2917 -0.4077
 2524SOL    HW119205   1.743   1.170   8.000 -0.0232  0.2204  0.9881
 2524SOL    HW219206   1.594   1.152   7.965  0.0946 -0.2514 -0.7498
 2525SOL     OW19207   4.147   3.848   5.667  0.6262 -0.2752 -0.2550
 2525SOL    HW119208   4.138   3.893   5.582 -0.5728  1.9667  1.0683
 2525SOL    HW219209   4.224   3.894   5.701 -0.1422  0.4202  0.5251
 2526SOL     OW19210   3.970   3.078   1.664  0.0180  0.1941 -0.2757
 2526SOL    HW119211   3.991   3.117   1.580  0.1404 -0.6951 -0.6624
 2526SOL    HW219212   4.020   2.997   1.653  0.7770  0.3125  2.2692
 2527SOL     OW19213   2.977   1.919   9.045 -0.0246 -0.2067 -0.0126
 2527SOL    HW119214   3.006   1.848   9.103  0.8692 -0.8356 -1.2441
 2527SOL    HW219215   2.892   1.885   9.016 -1.3031  2.1895  0.9436
 2528SOL     OW19216   3.346   1.213   3.332  0.0164  0.6614  0.4340
 2528SOL    HW119217   3.324   1.121   3.344  0.1503  0.6554  0.6385
 2528SOL    HW219218   3.439   1.206   3.313  0.0741  2.1245  0.1568
 2529SOL     OW19219   2.120   3.521   6.468  0.0602  0.3332 -0.2121
 2529SOL    HW119220   2.159   3.451   6.521 -0.0541 -1.7632 -2.8604
 2529SOL    HW219221   2.175   3.522   6.390  0.0269 -2.8933 -0.2918
 2530SOL     OW19222   2.451   2.555   4.136  0.4475 -0.1450 -0.0433
 2530SOL    HW119223   2.445   2.461   4.154 -1.1401  0.1244  0.8264
 2530SOL    HW219224   2.543   2.570   4.112  0.8424 -1.3761  0.7034
 2531SOL     OW19225   3.650   2.191   4.507 -0.5420 -0.4466 -0.3139
 2531SOL    HW119226   3.683   2.215   4.421  3.6809 -3.6921  0.3993
 2531SOL    HW219227   3.560   2.222   4.495 -0.6434 -1.0035 -0.9320
 2532SOL     OW19228   3.414   1.203   2.375  0.2014  0.4216  0.2070
 2532SOL    HW119229   3.492   1.243   2.335  0.6415 -0.3357  0.3062
 2532SOL    HW219230   3.377   1.165   2.296  0.4867  0.5442  0.0100
 2533SOL     OW19231   2.437   2.353   8.061  0.7808 -0.3224  0.0419
 2533SOL    HW119232   2.506   2.289   8.045 -0.5427 -1.7467  0.0146
 2533SOL    HW219233   2.449   2.415   7.989  0.1398  0.1111  0.3050
 2534SOL     OW19234   3.887   4.389   6.326 -0.0293  0.5140 -0.4381
 2534SOL    HW119235   3.976   4.356   6.342  0.2550  0.1184 -2.8222
 2534SOL    HW219236   3.901   4.484   6.321  1.5496  0.3010  0.0891
 2535SOL     OW19237   0.956   2.203  12.935  0.1905 -0.4601 -0.4702
 2535SOL    HW119238   0.879   2.228  12.986  0.5670  1.7243 -0.9659
 2535SOL    HW219239   0.916   2.189  12.850  1.3012  1.1277 -1.2535
 2536SOL     OW19240   1.729   4.381   3.348 -0.1715  0.2134  0.2443
 2536SOL    HW119241   1.702   4.367   3.257 -1.7929 -2.4885  1.1204
 2536SOL    HW219242   1.645   4.386   3.394 -0.3626  2.4092 -0.3671
 2537SOL     OW19243   2.222   2.146   5.847 -0.6708 -0.1239 -0.1382
 2537SOL    HW119244   2.280   2.082   5.889  1.1949  1.4602 -0.2878
 2537SOL    HW219245   2.280   2.195   5.789 -1.8432 -0.1688 -1.3604
 2538SOL     OW19246   3.901   1.054   8.994 -0.4719  0.5998 -0.4086
 2538SOL    HW119247   3.967   0.988   8.976 -1.9716 -1.3780  1.3815
 2538SOL    HW219248   3.818   1.006   8.988 -1.0400  1.4747  0.4643
 2539SOL     OW19249   4.393   0.076  12.223  0.3927 -0.0164  0.4574
 2539SOL    HW119250   4.450   0.013  12.180  0.6507 -0.3916  1.3519
 2539SOL    HW219251   4.455   0.124  12.278 -0.3273  0.9937  0.4076
 2540SOL     OW19252   4.007   3.785  15.615 -0.2438 -0.3078 -0.0229
 2540SOL    HW119253   3.989   3.693  15.596  0.3878 -0.2764 -0.7666
 2540SOL    HW219254   3.926   3.805  15.663  0.4168 -0.5332  1.1858
 2541SOL     OW19255   1.506   1.459  12.343 -0.4315  0.2279  0.7412
 2541SOL    HW119256   1.437   1.404  12.380 -0.5123 -0.5244 -0.5285
 2541SOL    HW219257   1.529   1.511  12.420 -1.1090  1.4541  0.1174
 2542SOL     OW19258   0.851   4.100  12.893 -0.1775 -0.1021 -0.6454
 2542SOL    HW119259   0.946   4.102  12.907  0.0336 -2.1477 -1.8041
 2542SOL    HW219260   0.822   4.113  12.984 -3.8076  0.3669 -1.8919
 2543SOL     OW19261   1.484   2.554   2.362  0.5509  0.3541 -0.6671
 2543SOL    HW119262   1.434   2.601   2.429 -0.6826  0.6229 -1.7905
 2543SOL    HW219263   1.449   2.465   2.371 -1.3337  0.9366 -2.1809
 2544SOL     OW19264   2.891   3.080   6.920  0.0544  0.1515 -0.1050
 2544SOL    HW119265   2.886   3.146   6.851 -0.2355 -0.9408 -1.1284
 2544SOL    HW219266   2.945   3.012   6.881 -0.0309 -0.6513  1.1576
 2545SOL     OW19267   2.223   1.897  16.417  0.1439 -0.4627  0.6097
 2545SOL    HW119268   2.139   1.924  16.380  0.8886  0.6922 -0.2423
 2545SOL    HW219269   2.265   1.981  16.431  0.8190 -0.7388  0.2681
 2546SOL     OW19270   2.108   1.409   9.215 -0.0399  0.2428  0.0717
 2546SOL    HW119271   2.062   1.402   9.132  0.1912 -1.5509  0.1037
 2546SOL    HW219272   2.123   1.318   9.239 -0.6000 -0.1875 -1.2295
 2547SOL     OW19273   2.793   4.269   8.884 -0.4827 -0.1633  0.4263
 2547SOL    HW119274   2.743   4.310   8.814 -1.3859 -3.0258 -0.6069
 2547SOL    HW219275   2.825   4.193   8.835 -3.0430 -0.5368 -0.6665
 2548SOL     OW19276   0.638   0.860   6.485 -0.2199  0.5920 -0.1681
 2548SOL    HW119277   0.709   0.920   6.508 -1.1610  0.6216  2.6989
 2548SOL    HW219278   0.681   0.787   6.441 -1.1498 -0.5338  0.7815
 2549SOL     OW19279   1.986   3.828  12.358 -0.3105  0.8220  0.1819
 2549SOL    HW119280   2.063   3.788  12.397  0.1360  0.5702 -0.9668
 2549SOL    HW219281   2.035   3.864  12.284  1.0999 -0.4967  0.4797
 2550SOL     OW19282   3.393   3.432   2.217  0.4996 -0.2121 -0.2954
 2550SOL    HW119283   3.379   3.362   2.281 -0.9669 -0.1851 -0.6104
 2550SOL    HW219284   3.363   3.508   2.267  4.0033  0.4016  0.9400
 2551SOL     OW19285   3.084   1.331   3.101 -0.0266  0.4992  0.2438
 2551SOL    HW119286   3.046   1.342   3.189  1.8796  0.8050  1.0308
 2551SOL    HW219287   3.038   1.396   3.048  0.7846  0.3026 -0.7016
 2552SOL     OW19288   1.775   3.066   1.062 -0.0764  0.5964 -0.1315
 2552SOL    HW119289   1.776   2.971   1.076 -0.1039  0.7890  1.1872
 2552SOL    HW219290   1.737   3.092   1.146 -0.4517 -3.0272  0.8163
 2553SOL     OW19291   2.741   0.715   1.227 -0.1780 -0.0529 -0.2309
 2553SOL    HW119292   2.758   0.736   1.319 -0.3197 -1.8954  0.2120
 2553SOL    HW219293   2.774   0.795   1.188  2.4454 -0.2579  1.5671
 2554SOL     OW19294   4.104   4.214   8.150  0.4548  0.0687 -0.2852
 2554SOL    HW119295   4.070   4.135   8.108  0.5098 -0.1817  0.1476
 2554SOL    HW219296   4.070   4.217   8.239  1.8212  1.1686  0.1864
 2555SOL     OW19297   4.704   0.456   5.485 -0.4508  0.4177 -0.4979
 2555SOL    HW119298   4.723   0.540   5.527 -1.7426  0.3026  0.3173
 2555SOL    HW219299   4.631   0.421   5.536  1.0444 -1.1469  0.5902
 2556SOL     OW19300   0.394   0.027   4.012  0.2921  0.8457  0.0668
 2556SOL    HW119301   0.399   4.707   4.087 -0.1511  3.0161  1.8482
 2556SOL    HW219302   0.324   4.729   3.960 -0.0033  0.6526  0.5998
 2557SOL     OW19303   3.244   3.175   8.761 -0.1393  0.0170 -0.0124
 2557SOL    HW119304   3.335   3.156   8.787 -0.7166 -1.6927  0.7683
 2557SOL    HW219305   3.237   3.265   8.791 -2.6766  0.9885 -3.5690
 2558SOL     OW19306   2.041   4.338   2.469 -0.0239 -0.0503  0.0043
 2558SOL    HW119307   2.021   4.432   2.477  0.0729  0.0060 -0.3814
 2558SOL    HW219308   2.078   4.323   2.556  0.8197 -1.4261 -0.5957
 2559SOL     OW19309   3.544   1.914  12.037 -0.4070  0.1447  0.2168
 2559SOL    HW119310   3.554   1.999  12.081 -1.7796  0.0634  0.6624
 2559SOL    HW219311   3.487   1.943  11.966  0.4953  4.3154  1.1717
 2560SOL     OW19312   4.318   4.158   5.340  0.1465  0.1257  0.2106
 2560SOL    HW119313   4.267   4.239   5.330  0.8048  0.6993  1.4362
 2560SOL    HW219314   4.255   4.086   5.334  0.2803  0.0163  0.1330
 2561SOL     OW19315   4.558   0.860   7.802  0.0099 -0.3310  0.3884
 2561SOL    HW119316   4.639   0.865   7.750 -1.6227 -4.1417 -2.4822
 2561SOL    HW219317   4.595   0.846   7.890 -0.3365 -0.1321  0.5641
 2562SOL     OW19318   4.104   2.964   6.054 -0.1977 -0.4318  0.2376
 2562SOL    HW119319   4.013   2.933   6.063 -0.2706 -0.0807  0.6981
 2562SOL    HW219320   4.098   3.048   6.098 -0.5722 -0.1335 -0.3848
 2563SOL     OW19321   0.746   0.486   6.969 -0.0925 -0.5188 -0.0707
 2563SOL    HW119322   0.719   0.468   6.879  1.2688  0.4657 -0.6807
 2563SOL    HW219323   0.822   0.544   6.965 -0.1916 -0.5660 -2.3728
 2564SOL     OW19324   1.026   4.479   9.938  0.0619  0.1995  0.3044
 2564SOL    HW119325   1.104   4.518   9.977  1.7514 -1.3789 -1.4483
 2564SOL    HW219326   0.955   4.512   9.992  0.5078 -1.0229  1.6341
 2565SOL     OW19327   0.323   0.805   8.894 -0.4122 -0.1729  0.4178
 2565SOL    HW119328   0.400   0.860   8.876 -0.8315  0.2543 -0.0521
 2565SOL    HW219329   0.249   0.865   8.904 -0.7150 -0.6833  1.1923
 2566SOL     OW19330   3.745   0.667  14.948  0.2608  0.4140 -0.3490
 2566SOL    HW119331   3.682   0.707  15.008  0.0324 -0.0638 -0.2720
 2566SOL    HW219332   3.822   0.709  14.985  0.5449  1.3570 -2.0032
 2567SOL     OW19333   4.266   2.239   5.275 -0.3296  0.2144 -0.1797
 2567SOL    HW119334   4.246   2.185   5.352  0.5532 -1.5228 -1.1625
 2567SOL    HW219335   4.180   2.282   5.270  0.8331  2.6248  1.0124
 2568SOL     OW19336   2.436   0.912   4.540 -0.0379 -0.6397 -0.1218
 2568SOL    HW119337   2.522   0.939   4.509  0.8127 -2.0930  0.9803
 2568SOL    HW219338   2.444   0.817   4.528  0.9322 -0.4939 -0.5830
 2569SOL     OW19339   1.912   3.621   8.067 -0.2255  0.1257  0.6066
 2569SOL    HW119340   1.894   3.653   8.155  0.6023  1.6160  0.2364
 2569SOL    HW219341   1.870   3.535   8.073  1.1526 -0.5934 -0.1436
 2570SOL     OW19342   1.282   4.679  13.819  0.3803  0.1627 -0.1628
 2570SOL    HW119343   1.356   4.724  13.858  1.0631  1.0948 -2.5217
 2570SOL    HW219344   1.204   4.733  13.836 -2.5246 -3.3911 -2.1852
 2571SOL     OW19345   1.604   4.558   9.396  0.2591  0.1626 -0.0577
 2571SOL    HW119346   1.586   4.560   9.302  0.3259  0.4195 -0.0656
 2571SOL    HW219347   1.531   4.611   9.430  3.1607  3.5535  0.8865
 2572SOL     OW19348   2.054   2.160   3.762 -0.4208  0.2427 -0.1423
 2572SOL    HW119349   2.043   2.249   3.796 -2.2606  0.7735 -2.1168
 2572SOL    HW219350   2.148   2.161   3.746 -0.3361 -0.4365  0.2968
 2573SOL     OW19351   4.345   3.824  13.733 -0.3123  0.1019  0.1715
 2573SOL    HW119352   4.326   3.791  13.821 -1.1104  2.7161  0.9878
 2573SOL    HW219353   4.409   3.888  13.763 -0.1272  0.8088 -1.7400
 2574SOL     OW19354   2.808   1.785  14.415  0.2129 -0.0822 -0.2252
 2574SOL    HW119355   2.821   1.856  14.351 -1.1562  2.7233  2.6561
 2574SOL    HW219356   2.876   1.725  14.383  1.5771  0.9394  0.7644
 2575SOL     OW19357   1.254   1.723   1.464  0.0052  0.8101  0.0340
 2575SOL    HW119358   1.186   1.740   1.399 -0.3920  1.6465  0.6723
 2575SOL    HW219359   1.246   1.802   1.517 -0.9285  0.3262  0.6209
 2576SOL     OW19360   0.973   0.382   7.505 -0.0362  0.2865  0.2605
 2576SOL    HW119361   1.068   0.393   7.508 -0.0473  0.1777  1.3464
 2576SOL    HW219362   0.936   0.421   7.585  1.9918 -0.8912  1.7841
 2577SOL     OW19363   4.486   2.041  17.303  0.8634  0.1169  0.1434
 2577SOL    HW119364   4.568   2.055  17.256  0.5784  0.7954 -0.1450
 2577SOL    HW219365   4.511   2.030  17.395  1.4208 -1.9939 -0.2471
 2578SOL     OW19366   0.652   2.387   1.860  0.5848  0.2348  0.5365
 2578SOL    HW119367   0.625   2.295   1.857 -1.5878  0.9609 -1.8565
 2578SOL    HW219368   0.680   2.398   1.769  0.0491 -0.8391  0.2362
 2579SOL     OW19369   2.312   4.539   6.245 -0.7019  0.4510 -0.2745
 2579SOL    HW119370   2.297   4.589   6.325  1.2506 -1.8324  1.5461
 2579SOL    HW219371   2.262   4.587   6.179  0.1427 -0.2648 -1.4395
 2580SOL     OW19372   4.011   4.669   9.652 -0.5302  0.0545 -0.9673
 2580SOL    HW119373   3.953   4.721   9.597 -0.8548  0.5916 -0.0955
 2580SOL    HW219374   4.094   4.715   9.640 -0.2359  0.5523  2.9939
 2581SOL     OW19375   0.576   2.167   7.879 -0.2467  0.0024 -0.3734
 2581SOL    HW119376   0.610   2.106   7.944  3.9221  2.3175 -0.3331
 2581SOL    HW219377   0.663   2.201   7.857  0.1528 -0.5066  0.4380
 2582SOL     OW19378   1.316   1.248   3.143  0.2063  0.0819  0.7923
 2582SOL    HW119379   1.239   1.304   3.154 -2.1105 -2.4489 -2.5412
 2582SOL    HW219380   1.382   1.311   3.172  2.3493 -1.6140 -0.4617
 2583SOL     OW19381   0.495   1.622  13.120 -0.2049  0.0426  0.1168
 2583SOL    HW119382   0.550   1.669  13.183  3.8336 -2.7801 -1.2955
 2583SOL    HW219383   0.408   1.632  13.158 -1.1470  1.2776 -2.3957
 2584SOL     OW19384   1.282   3.400   8.380 -0.0076  0.0885 -0.2637
 2584SOL    HW119385   1.278   3.440   8.293 -1.9792 -0.4929 -0.4305
 2584SOL    HW219386   1.236   3.464   8.435  1.6819  1.3483 -0.3158
 2585SOL     OW19387   1.980   2.282   5.899  0.2126  0.1071 -0.1034
 2585SOL    HW119388   2.038   2.209   5.881  0.8270 -0.0323  2.4094
 2585SOL    HW219389   2.037   2.357   5.886 -0.1958 -0.2308 -3.7539
 2586SOL     OW19390   4.676   3.064   1.111  0.0540  0.0568  0.2743
 2586SOL    HW119391   0.010   3.043   1.168 -0.4218  0.0509  0.8930
 2586SOL    HW219392   4.719   3.116   1.043 -0.2686 -2.1101 -1.6185
 2587SOL     OW19393   4.110   2.390  13.288  0.0517  0.1497 -0.2230
 2587SOL    HW119394   4.051   2.315  13.281  0.7619 -0.1014 -3.5896
 2587SOL    HW219395   4.043   2.457  13.275  0.1194  0.2680  0.0534
 2588SOL     OW19396   3.172   4.564  16.833 -0.3762 -0.1557  0.3185
 2588SOL    HW119397   3.089   4.557  16.785 -1.2168 -0.5176  1.8244
 2588SOL    HW219398   3.176   4.657  16.853  0.9109  0.2537 -1.8978
 2589SOL     OW19399   4.329   1.302   4.057  0.0694 -0.5458 -0.5307
 2589SOL    HW119400   4.255   1.291   4.117  0.3920  1.1407  0.1791
 2589SOL    HW219401   4.320   1.221   4.006  1.7850  0.0230 -1.7401
 2590SOL     OW19402   3.513   2.569   5.097  0.2033  0.5514  0.0073
 2590SOL    HW119403   3.520   2.591   5.190  0.5730 -2.5350  0.7005
 2590SOL    HW219404   3.569   2.640   5.063  0.4732  0.5353  0.4158
 2591SOL     OW19405   3.320   0.318   0.887  0.6320 -0.3179  0.2748
 2591SOL    HW119406   3.327   0.380   0.960 -0.6204  2.1161 -1.6908
 2591SOL    HW219407   3.259   0.369   0.835 -0.3013 -0.1321  1.5326
 2592SOL     OW19408   2.390   4.324   3.315  0.0451 -0.1368  0.3817
 2592SOL    HW119409   2.459   4.282   3.265 -1.2028  1.9917 -3.1223
 2592SOL    HW219410   2.316   4.334   3.256  0.0145 -1.7654  0.1609
 2593SOL     OW19411   3.389   2.582  16.010  0.0749  0.0478  0.5315
 2593SOL    HW119412   3.422   2.580  16.100  1.3347  4.7199  0.1885
 2593SOL    HW219413   3.304   2.537  16.011  0.6617 -1.0690 -1.0230
 2594SOL     OW19414   0.788   2.367  12.094  0.5652 -0.0700  0.0607
 2594SOL    HW119415   0.844   2.341  12.021  0.0429 -0.9446 -0.0316
 2594SOL    HW219416   0.849   2.427  12.137  0.2326  0.6885 -0.5157
 2595SOL     OW19417   3.112   0.656   6.314  0.2231  0.2612  0.1185
 2595SOL    HW119418   3.034   0.689   6.359 -1.2121  1.7289 -3.4672
 2595SOL    HW219419   3.148   0.580   6.360  1.4112  0.8212  0.1160
 2596SOL     OW19420   3.236   2.203   0.015 -0.0820 -0.3668 -0.2010
 2596SOL    HW119421   3.285   2.121   0.009 -0.2922 -0.5877  0.9784
 2596SOL    HW219422   3.296   2.264   0.058  0.2746 -1.0796  0.3063
 2597SOL     OW19423   3.661   0.556   1.471 -0.1866 -0.4284 -0.5601
 2597SOL    HW119424   3.633   0.633   1.422 -1.7870  1.0853  2.7001
 2597SOL    HW219425   3.732   0.528   1.414 -0.2180 -0.2799 -0.6726
 2598SOL     OW19426   3.790   1.184  10.662 -0.5864  0.2394 -0.0198
 2598SOL    HW119427   3.834   1.267  10.642 -2.5452  1.9768  3.0262
 2598SOL    HW219428   3.838   1.161  10.741  0.9431 -2.5340 -1.7690
 2599SOL     OW19429   0.607   2.219   0.004 -0.4850 -0.0982 -0.0001
 2599SOL    HW119430   0.683   2.253   0.052  1.6036 -2.4740 -1.6426
 2599SOL    HW219431   0.556   2.294  17.734 -0.0828 -1.0415 -3.0170
 2600SOL     OW19432   1.055   1.441   2.092  0.7869  0.6509  0.3226
 2600SOL    HW119433   1.071   1.450   2.186  0.9959  0.3485  0.3163
 2600SOL    HW219434   1.109   1.367   2.066  0.3993  0.7841 -0.8355
 2601SOL     OW19435   4.277   3.565  10.417 -0.5253  0.0634 -0.1045
 2601SOL    HW119436   4.313   3.496  10.361 -2.5368 -1.4134  0.4360
 2601SOL    HW219437   4.274   3.511  10.496 -0.0212 -1.3685 -1.0540
 2602SOL     OW19438   2.224   0.483   6.007  0.5328  0.0392 -0.2742
 2602SOL    HW119439   2.209   0.548   6.075 -1.0268 -2.5921  1.8763
 2602SOL    HW219440   2.180   0.522   5.932 -0.2832 -4.3428 -2.0940
 2603SOL     OW19441   4.134   1.022   6.076 -0.1802 -0.1474 -0.4156
 2603SOL    HW119442   4.225   1.037   6.050  0.5716 -0.9641  1.7696
 2603SOL    HW219443   4.139   1.077   6.154  2.1745 -1.4531  0.3565
 2604SOL     OW19444   1.343   3.499   8.766  0.7410  0.0561  0.0804
 2604SOL    HW119445   1.395   3.492   8.846  1.0676  0.2405 -0.1137
 2604SOL    HW219446   1.363   3.587   8.735  0.0124  1.0960  2.5981
 2605SOL     OW19447   2.220   1.559   5.090  0.1022  0.4640 -0.3377
 2605SOL    HW119448   2.193   1.584   5.001 -1.9978 -0.8628 -0.0688
 2605SOL    HW219449   2.204   1.634   5.147  2.1446  1.0069 -0.4731
 2606SOL     OW19450   0.190   0.084  14.895 -0.0991 -0.4772 -0.0374
 2606SOL    HW119451   0.120   0.122  14.841 -0.0593  1.1414  1.0368
 2606SOL    HW219452   0.233   0.023  14.834 -2.2050 -1.3588 -0.6302
 2607SOL     OW19453   0.473   4.426   4.696  0.5151 -0.7649  0.3415
 2607SOL    HW119454   0.528   4.354   4.664  0.4365 -1.4223  1.6647
 2607SOL    HW219455   0.440   4.377   4.771  0.4099 -0.6857  0.3466
 2608SOL     OW19456   3.933   1.811  14.157  0.1254 -0.1781 -0.0068
 2608SOL    HW119457   3.896   1.854  14.080 -0.8143  0.5911  0.8793
 2608SOL    HW219458   3.954   1.724  14.123 -0.5534 -0.5114  0.4322
 2609SOL     OW19459   2.649   1.136  15.324 -0.4073 -0.1575  0.0344
 2609SOL    HW119460   2.688   1.055  15.357  1.7832  1.6512  1.9108
 2609SOL    HW219461   2.635   1.110  15.233 -0.2961 -0.8998  0.2304
 2610SOL     OW19462   0.739   2.920   8.212 -0.1140  0.3742  0.2885
 2610SOL    HW119463   0.652   2.893   8.183 -0.0114 -0.7669  1.0410
 2610SOL    HW219464   0.758   2.852   8.277  0.5337 -0.6948 -1.0277
 2611SOL     OW19465   0.950   4.025  11.277  0.2490 -0.2958  0.0906
 2611SOL    HW119466   0.991   3.986  11.354 -0.5710  0.5514  0.9530
 2611SOL    HW219467   0.889   4.089  11.314 -1.4220 -1.2547 -0.9776
 2612SOL     OW19468   0.903   1.157   5.344  0.4193  0.2722  0.0173
 2612SOL    HW119469   0.852   1.076   5.341  0.9130 -0.0475  0.2582
 2612SOL    HW219470   0.984   1.134   5.299 -0.7529 -3.2651 -0.2690
 2613SOL     OW19471   0.988   0.418   0.175  0.5810 -0.0371  0.5060
 2613SOL    HW119472   1.030   0.504   0.183 -0.3624  0.3152  1.6318
 2613SOL    HW219473   0.920   0.424   0.242  0.2704 -0.6504  0.2454
 2614SOL     OW19474   1.864   3.163  14.853 -0.1406  0.2622  0.0001
 2614SOL    HW119475   1.896   3.180  14.941 -0.7475 -3.6176  0.9577
 2614SOL    HW219476   1.831   3.251  14.833 -0.7133 -0.3357 -1.7560
 2615SOL     OW19477   0.711   1.751   1.935 -0.2861 -0.0604  0.4761
 2615SOL    HW119478   0.640   1.749   1.871  0.6982 -1.9702 -0.5477
 2615SOL    HW219479   0.792   1.729   1.889 -0.7561 -0.9295  0.0779
 2616SOL     OW19480   0.495   4.586   8.274  0.0100 -0.4043 -0.4045
 2616SOL    HW119481   0.543   4.524   8.329 -0.5829 -1.1416 -0.7091
 2616SOL    HW219482   0.559   4.648   8.239 -1.3232  0.4579 -1.3182
 2617SOL     OW19483   4.710   3.885   8.239 -0.6654  0.2810 -0.3668
 2617SOL    HW119484   4.645   3.952   8.261 -1.2411 -0.6157  0.6728
 2617SOL    HW219485   4.687   3.815   8.300  0.0394 -1.9582 -2.7347
 2618SOL     OW19486   1.249   3.176   6.621 -0.3668  0.5017  0.1835
 2618SOL    HW119487   1.311   3.246   6.601  3.2831 -2.4966  0.9639
 2618SOL    HW219488   1.313   3.128   6.673  1.1747  1.0480 -1.2029
 2619SOL     OW19489   3.843   1.177  12.427  0.6266  0.4039 -0.7111
 2619SOL    HW119490   3.850   1.232  12.349  2.1726  1.2681  0.0370
 2619SOL    HW219491   3.931   1.143  12.443  0.3551  0.6355  1.2268
 2620SOL     OW19492   3.385   2.001  17.271 -0.3556 -0.0603 -0.2666
 2620SOL    HW119493   3.425   2.061  17.334 -2.6386 -1.3709  2.4838
 2620SOL    HW219494   3.451   2.007  17.202  1.3118  0.4069  1.3812
 2621SOL     OW19495   0.785   2.995   3.255  0.1763 -0.1370 -0.0013
 2621SOL    HW119496   0.773   3.040   3.338  2.2747  0.1592  0.1325
 2621SOL    HW219497   0.789   3.068   3.193  1.1992 -0.5702 -0.4480
 2622SOL     OW19498   3.252   1.650   0.504 -0.1356  0.4670 -0.0109
 2622SOL    HW119499   3.334   1.673   0.548  1.3355 -0.3731 -2.3297
 2622SOL    HW219500   3.283   1.577   0.451 -0.1784  0.7044 -0.3580
 2623SOL     OW19501   4.616   1.980   6.620  0.2414  0.3334  0.4918
 2623SOL    HW119502   4.550   2.037   6.580  0.1642  0.2654  0.5215
 2623SOL    HW219503   4.670   2.043   6.667  0.6398  0.1185  0.3194
 2624SOL     OW19504   0.713   3.600  10.236  0.1341  1.0865  0.0296
 2624SOL    HW119505   0.676   3.610  10.324 -0.3089  0.1815 -0.0509
 2624SOL    HW219506   0.641   3.620  10.177 -0.1596 -0.0463  0.0069
 2625SOL     OW19507   1.188   1.646  11.739 -0.0364 -0.1403  0.4686
 2625SOL    HW119508   1.262   1.613  11.688 -0.5771  2.6903 -2.1322
 2625SOL    HW219509   1.214   1.738  11.745  1.1263 -0.3255 -1.7154
 2626SOL     OW19510   1.625   2.222   5.574  0.0145 -0.2336  0.2028
 2626SOL    HW119511   1.679   2.283   5.624  1.0412  0.9634 -2.3606
 2626SOL    HW219512   1.543   2.208   5.621 -0.2725  0.4423 -0.1027
 2627SOL     OW19513   0.726   0.061  15.149  0.1414 -0.1184 -0.5736
 2627SOL    HW119514   0.742   0.119  15.075 -0.4894 -0.5650 -1.0639
 2627SOL    HW219515   0.694   0.124  15.214 -0.0111 -0.6368 -0.1471
 2628SOL     OW19516   2.526   3.357   1.845 -0.1276 -0.0389  0.1934
 2628SOL    HW119517   2.544   3.392   1.933 -1.2388  1.2592 -0.1118
 2628SOL    HW219518   2.567   3.430   1.799  1.0209 -0.7239  0.1143
 2629SOL     OW19519   4.270   4.041   3.569 -0.9034 -0.2012 -0.5891
 2629SOL    HW119520   4.274   4.037   3.474  0.1496 -1.1930 -0.5027
 2629SOL    HW219521   4.205   4.110   3.583  1.0410  1.6118 -0.5418
 2630SOL     OW19522   3.081   3.801  17.467 -0.5557  0.4836 -0.2998
 2630SOL    HW119523   3.121   3.822  17.383 -1.6914  3.0376 -0.1824
 2630SOL    HW219524   3.001   3.853  17.460 -0.7158  0.2058 -0.5358
 2631SOL     OW19525   0.653   0.527   7.950  0.6684  0.3227 -0.3797
 2631SOL    HW119526   0.587   0.467   7.917  1.9299 -0.5343 -1.3461
 2631SOL    HW219527   0.633   0.612   7.910 -1.9895  0.4498  1.2449
 2632SOL     OW19528   2.115   4.022   8.021  0.8971  0.2125  0.0323
 2632SOL    HW119529   2.069   4.106   8.014 -0.3306 -0.7154 -2.8061
 2632SOL    HW219530   2.144   4.023   8.113  1.2359 -0.2300 -0.0743
 2633SOL     OW19531   2.404   2.591   3.681 -0.0283  0.3031  0.1445
 2633SOL    HW119532   2.448   2.598   3.596 -0.9137  0.0078 -0.3502
 2633SOL    HW219533   2.380   2.683   3.696  0.2200  0.2484  0.8686
 2634SOL     OW19534   2.671   4.509   4.572 -0.0415  0.0333  0.2077
 2634SOL    HW119535   2.610   4.485   4.502 -1.2531  1.4989  0.7618
 2634SOL    HW219536   2.707   4.423   4.594 -0.7936  0.4616  3.0425
 2635SOL     OW19537   0.396   1.851   2.701  0.0499  0.0508 -0.2878
 2635SOL    HW119538   0.340   1.782   2.737 -0.6177 -0.2124 -1.8226
 2635SOL    HW219539   0.432   1.880   2.784  1.7372 -1.2168 -0.5943
 2636SOL     OW19540   1.872   1.121   3.050  0.0839  0.4155 -1.1781
 2636SOL    HW119541   1.910   1.064   2.983  0.8877  0.8470 -1.0913
 2636SOL    HW219542   1.938   1.114   3.119  0.4418 -1.9193 -1.7453
 2637SOL     OW19543   1.490   4.305  10.969  0.2274 -0.0123  0.8406
 2637SOL    HW119544   1.416   4.332  11.023 -0.2570  1.3384 -0.5142
 2637SOL    HW219545   1.561   4.330  11.028  0.7335  0.3212  0.0861
 2638SOL     OW19546   3.880   1.050   7.182 -0.2426  0.2873 -0.0525
 2638SOL    HW119547   3.950   1.003   7.229 -2.5595 -2.1223  1.0086
 2638SOL    HW219548   3.810   1.047   7.247 -1.8578 -2.5907 -1.9213
 2639SOL     OW19549   4.575   4.185   0.096 -0.0266  0.6012 -0.2147
 2639SOL    HW119550   4.555   4.278   0.100  0.6573  0.8381 -2.2810
 2639SOL    HW219551   4.498   4.160   0.045 -0.0140  0.1596 -0.0236
 2640SOL     OW19552   1.438   0.598   7.091  0.4574  0.3793 -0.3409
 2640SOL    HW119553   1.481   0.681   7.116 -1.1439  1.6503 -1.8405
 2640SOL    HW219554   1.512   0.557   7.045 -0.9537 -0.0084 -2.2576
 2641SOL     OW19555   3.656   2.717   4.937  0.2757  0.2142  0.0726
 2641SOL    HW119556   3.693   2.674   4.860 -0.5130  0.9524 -0.7140
 2641SOL    HW219557   3.581   2.760   4.894  0.9590  1.2403 -0.0858
 2642SOL     OW19558   2.414   3.145   7.734  0.1488 -0.0373  0.2915
 2642SOL    HW119559   2.481   3.199   7.690  0.2434  0.4789  1.0705
 2642SOL    HW219560   2.337   3.161   7.679 -0.5609 -2.0160  0.7285
 2643SOL     OW19561   1.145   0.679   4.629 -0.1099  0.1128 -0.4098
 2643SOL    HW119562   1.090   0.758   4.632  1.3658  1.1169  0.5359
 2643SOL    HW219563   1.233   0.708   4.608  0.1541  0.3601  1.0539
 2644SOL     OW19564   2.989   3.245   7.150 -0.5095 -0.3106  0.2348
 2644SOL    HW119565   2.944   3.181   7.095 -2.0390  0.7430  0.2753
 2644SOL    HW219566   2.990   3.324   7.096 -0.0432 -0.2850  0.2794
 2645SOL     OW19567   3.566   1.516   1.072  0.1226  0.3197  0.5684
 2645SOL    HW119568   3.531   1.532   1.159  0.3177 -1.1475  0.9235
 2645SOL    HW219569   3.570   1.421   1.082 -0.1547  0.3519  0.9975
 2646SOL     OW19570   1.203   1.987   5.459 -0.2175 -0.0282 -0.3497
 2646SOL    HW119571   1.196   2.051   5.388 -0.5715  0.9374  0.5482
 2646SOL    HW219572   1.140   2.014   5.526  1.4523 -1.9930  2.0172
 2647SOL     OW19573   0.781   1.777  17.468 -0.2079  0.1309  0.0898
 2647SOL    HW119574   0.742   1.843  17.525 -2.8815 -1.8873  0.6520
 2647SOL    HW219575   0.762   1.704  17.527  0.7085 -1.4325 -1.5405
 2648SOL     OW19576   0.442   1.951   4.963  0.1350 -0.1832  1.0827
 2648SOL    HW119577   0.355   1.913   4.965 -0.0665  0.2018 -0.9419
 2648SOL    HW219578   0.412   2.041   4.971 -0.2265 -0.1994 -0.1722
 2649SOL     OW19579   1.987   2.862  14.815 -0.3582 -0.2626  0.1564
 2649SOL    HW119580   1.947   2.797  14.873 -1.7696  1.3263  0.9537
 2649SOL    HW219581   2.009   2.926  14.883  1.1724 -1.8351  1.1576
 2650SOL     OW19582   0.173   3.340   7.119 -0.0750 -0.4427 -0.0814
 2650SOL    HW119583   0.253   3.291   7.102  0.6087  0.1740  1.3649
 2650SOL    HW219584   0.153   3.323   7.211  0.4138 -0.1749  0.0687
 2651SOL     OW19585   3.492   3.311  13.034  0.1187  0.5181  0.4461
 2651SOL    HW119586   3.487   3.301  13.129 -1.3803 -1.9675  0.0899
 2651SOL    HW219587   3.537   3.395  13.030  1.2785 -0.1219  0.2670
 2652SOL     OW19588   2.497   4.538   1.126 -0.0481 -0.1501 -0.4436
 2652SOL    HW119589   2.531   4.456   1.161  4.2747  1.1601 -1.5203
 2652SOL    HW219590   2.522   4.527   1.034 -1.9639  0.3592 -1.0189
 2653SOL     OW19591   3.960   0.281   2.127  0.3558 -0.3046  0.0284
 2653SOL    HW119592   3.982   0.267   2.219  0.2548  1.1377  0.2712
 2653SOL    HW219593   4.038   0.325   2.092 -0.5331  0.4524 -1.0241
 2654SOL     OW19594   3.645   3.588  12.759 -0.0933 -0.5035  0.2267
 2654SOL    HW119595   3.677   3.525  12.694 -1.6587  0.0491 -1.0903
 2654SOL    HW219596   3.577   3.537  12.802 -1.3530 -0.2592 -1.4747
 2655SOL     OW19597   4.164   0.364   3.954 -0.5297  0.2791 -0.4124
 2655SOL    HW119598   4.114   0.445   3.946  0.2330  0.8801  1.0381
 2655SOL    HW219599   4.196   0.364   4.044 -1.5768 -1.7042 -0.0305
 2656SOL     OW19600   4.060   3.096  15.578 -0.2664 -0.0990 -0.1327
 2656SOL    HW119601   4.094   3.010  15.602  0.4756 -0.8096 -3.7369
 2656SOL    HW219602   4.117   3.119  15.504  0.1109 -0.3477  0.0813
 2657SOL     OW19603   2.621   2.877   6.172 -0.1810 -0.1561 -0.1769
 2657SOL    HW119604   2.540   2.905   6.130 -0.0657 -1.6592 -1.3973
 2657SOL    HW219605   2.583   2.809   6.228  1.0921  1.2892  2.4382
 2658SOL     OW19606   0.640   2.728  17.056  0.7542  0.1104 -0.1337
 2658SOL    HW119607   0.722   2.774  17.075  2.0292 -1.5524 -1.6341
 2658SOL    HW219608   0.669   2.637  17.063 -1.5946 -0.6895 -0.8068
 2659SOL     OW19609   2.327   1.529   3.693  0.1696 -0.1729 -0.4598
 2659SOL    HW119610   2.371   1.445   3.679  1.7897  0.9950 -2.4124
 2659SOL    HW219611   2.388   1.600   3.678  1.7703 -1.4114  0.1988
 2660SOL     OW19612   4.713   4.448   5.525 -0.3328  0.4253  0.0304
 2660SOL    HW119613   4.669   4.522   5.484 -1.5942 -0.7800 -0.7850
 2660SOL    HW219614   4.715   4.376   5.462  1.0072  0.2174  0.3050
 2661SOL     OW19615   4.598   2.366  14.847 -0.7248 -0.3092  0.7386
 2661SOL    HW119616   4.575   2.418  14.770  1.0435  0.1396  0.4976
 2661SOL    HW219617   4.682   2.397  14.882 -1.1971 -0.0173  1.6151
 2662SOL     OW19618   2.068   0.164   8.126  0.2451 -0.2254  0.2762
 2662SOL    HW119619   2.071   0.109   8.048 -5.2980  1.4778 -1.0867
 2662SOL    HW219620   2.131   0.234   8.109  0.9221 -0.9506 -0.2634
 2663SOL     OW19621   1.407   2.721   6.857 -0.5583 -0.0627 -0.0690
 2663SOL    HW119622   1.377   2.631   6.848  0.2720 -0.0872 -2.4345
 2663SOL    HW219623   1.502   2.711   6.867 -0.3168  2.4575  0.1307
 2664SOL     OW19624   1.131   3.238   6.365  0.3383 -0.5885  0.4941
 2664SOL    HW119625   1.185   3.254   6.441  0.4345 -0.7707  0.4646
 2664SOL    HW219626   1.196   3.218   6.298 -0.5608 -1.2192 -0.1898
 2665SOL     OW19627   3.831   2.272   0.344  0.9805  0.4088 -0.4497
 2665SOL    HW119628   3.842   2.333   0.416 -3.3098  0.3635  0.2279
 2665SOL    HW219629   3.900   2.207   0.357 -1.2936 -2.1229 -1.0670
 2666SOL     OW19630   4.097   0.244  14.694  0.4110  0.2509 -0.3031
 2666SOL    HW119631   4.170   0.235  14.755 -0.7743  0.3735  1.1360
 2666SOL    HW219632   4.147   0.248  14.612  0.6980 -0.1481 -0.1504
 2667SOL     OW19633   1.293   4.344  11.191 -0.3596  0.0030 -0.2762
 2667SOL    HW119634   1.316   4.346  11.284 -1.0648 -1.2989 -0.0793
 2667SOL    HW219635   1.241   4.264  11.191 -0.9837  0.4014  0.7100
 2668SOL     OW19636   2.023   0.597   5.830  0.1232 -0.4328  0.1215
 2668SOL    HW119637   1.949   0.645   5.791  2.1648  2.0986 -0.7080
 2668SOL    HW219638   1.976   0.514   5.830 -0.6613  0.0121 -0.0145
 2669SOL     OW19639   1.773   1.727   2.769 -0.2738 -0.0382 -0.0575
 2669SOL    HW119640   1.726   1.654   2.808 -1.7301  0.5777 -0.6497
 2669SOL    HW219641   1.781   1.790   2.841  1.8011  2.1148 -2.1561
 2670SOL     OW19642   0.425   1.157   7.653 -0.1770 -0.7068 -0.3945
 2670SOL    HW119643   0.481   1.208   7.594 -0.9924  0.9572  0.2679
 2670SOL    HW219644   0.427   1.212   7.731  2.3125 -0.9071 -0.3141
 2671SOL     OW19645   0.316   3.842   3.169  0.1848  0.0317  0.3947
 2671SOL    HW119646   0.300   3.936   3.177  0.1075 -0.0910  1.6815
 2671SOL    HW219647   0.383   3.848   3.101  1.8184 -4.1682  1.6785
 2672SOL     OW19648   2.452   3.979  12.478  0.0759  0.4689 -0.1780
 2672SOL    HW119649   2.482   4.028  12.554 -0.4060  1.1976 -0.4513
 2672SOL    HW219650   2.359   3.985  12.499  0.3659  3.0697  0.3273
 2673SOL     OW19651   0.580   1.360   2.266  0.6939 -0.5354 -0.2728
 2673SOL    HW119652   0.661   1.356   2.214 -0.6853  0.9943 -2.5484
 2673SOL    HW219653   0.527   1.286   2.239 -0.1564  0.7225 -2.0260
 2674SOL     OW19654   0.468   0.434   6.456  0.0634  0.1539 -0.4146
 2674SOL    HW119655   0.551   0.387   6.461 -1.6068 -2.8513 -0.7857
 2674SOL    HW219656   0.472   0.475   6.370 -2.3140  0.8326 -0.2201
 2675SOL     OW19657   0.711   2.097   7.178  0.0340  0.2186 -0.5940
 2675SOL    HW119658   0.642   2.139   7.228  2.1155  1.5325  1.1495
 2675SOL    HW219659   0.785   2.154   7.198 -0.9248  1.8751 -1.8017
 2676SOL     OW19660   0.770   1.937   4.716 -0.0744  0.2730  0.5391
 2676SOL    HW119661   0.837   1.977   4.660  0.6030 -1.2218  0.2814
 2676SOL    HW219662   0.705   1.918   4.648  1.5105  0.1250 -0.9637
 2677SOL     OW19663   1.344   2.302   2.445  0.2935  0.4617  0.7226
 2677SOL    HW119664   1.291   2.304   2.365  1.4177 -0.7669 -0.0443
 2677SOL    HW219665   1.388   2.217   2.446 -1.4096 -0.4194  0.7728
 2678SOL     OW19666   0.362   4.298   6.722 -0.3045  0.4493  0.2847
 2678SOL    HW119667   0.343   4.348   6.643  0.6934  2.0951  1.1040
 2678SOL    HW219668   0.332   4.367   6.781 -1.9058  2.9381 -3.4632
 2679SOL     OW19669   0.321   2.726   4.274 -0.8035  0.4011  0.6628
 2679SOL    HW119670   0.231   2.697   4.292 -0.7909  0.3322  0.6160
 2679SOL    HW219671   0.336   2.799   4.334  1.2050  0.3763  0.1952
 2680SOL     OW19672   3.579   4.432   6.984 -0.7193  0.3855 -0.3410
 2680SOL    HW119673   3.649   4.495   6.994  1.7570 -2.4341  0.1559
 2680SOL    HW219674   3.550   4.426   7.075 -2.0959 -2.0980 -0.9197
 2681SOL     OW19675   0.762   0.915   4.650  0.0173  0.2708 -0.0719
 2681SOL    HW119676   0.744   0.839   4.594  0.3893  0.5796 -0.6106
 2681SOL    HW219677   0.786   0.869   4.731  2.0833 -0.0937 -0.8882
 2682SOL     OW19678   1.849   2.394  16.896  0.1201  0.3392  0.0448
 2682SOL    HW119679   1.866   2.485  16.917 -0.1883  0.6360 -0.9969
 2682SOL    HW219680   1.823   2.352  16.978 -1.1208  0.7404 -0.1451
 2683SOL     OW19681   3.561   4.661   5.349 -0.0020 -0.5566 -0.0683
 2683SOL    HW119682   3.532   4.694   5.265 -1.4219 -0.9627  0.2665
 2683SOL    HW219683   3.539   4.568   5.340  0.5452 -0.8467  1.4999
 2684SOL     OW19684   3.887   2.632   0.320 -0.2359  0.4145  0.1526
 2684SOL    HW119685   3.953   2.570   0.289 -3.2487 -2.9474  0.5133
 2684SOL    HW219686   3.815   2.569   0.318  0.9349 -0.8918 -0.4726
 2685SOL     OW19687   1.470   0.533   2.827  0.0637 -0.0861  0.1454
 2685SOL    HW119688   1.558   0.505   2.852  0.2102  1.3467  1.2041
 2685SOL    HW219689   1.412   0.464   2.859  1.0998 -0.4704  1.1699
 2686SOL     OW19690   0.003   1.239  16.074 -0.4098 -0.4975  0.1409
 2686SOL    HW119691   4.699   1.320  16.099  1.1029 -0.0407  1.3524
 2686SOL    HW219692   0.072   1.280  16.021  0.1757 -0.4248  0.9710
 2687SOL     OW19693   2.948   0.727   5.166  0.6933 -0.0560  0.3949
 2687SOL    HW119694   2.881   0.779   5.121 -1.0548 -2.5455  0.1000
 2687SOL    HW219695   2.991   0.784   5.230 -3.4590  0.9399  2.3214
 2688SOL     OW19696   4.017   4.118   5.490  0.2711  0.2931 -0.2201
 2688SOL    HW119697   3.924   4.119   5.513  0.2038 -0.3551 -0.4487
 2688SOL    HW219698   4.034   4.047   5.428 -0.2905 -1.1615  1.2800
 2689SOL     OW19699   4.016   2.604   2.321  0.0313 -0.3299  0.1490
 2689SOL    HW119700   4.111   2.591   2.329  0.2798 -0.2773 -2.6574
 2689SOL    HW219701   3.982   2.554   2.395  1.7265 -2.7581 -0.7173
 2690SOL     OW19702   3.084   3.577   0.273 -0.3014  0.2848 -0.4360
 2690SOL    HW119703   3.174   3.566   0.242  0.3396  1.1291  1.0972
 2690SOL    HW219704   3.080   3.673   0.272 -1.8659  0.2158 -0.5368
 2691SOL     OW19705   3.213   1.904   0.663 -0.2536  0.4617  0.4195
 2691SOL    HW119706   3.158   1.901   0.585  0.2109  2.1868  0.0314
 2691SOL    HW219707   3.168   1.842   0.720  2.2750 -2.0798 -0.3639
 2692SOL     OW19708   0.837   0.545   5.778 -0.1953 -0.1512 -0.0514
 2692SOL    HW119709   0.889   0.523   5.855  0.3354 -0.1461 -0.4015
 2692SOL    HW219710   0.906   0.576   5.718 -0.2431 -0.6081 -0.3451
 2693SOL     OW19711   0.466   3.122   7.426  0.0888 -0.7589 -0.2605
 2693SOL    HW119712   0.539   3.115   7.487  0.4465 -0.4681 -0.6522
 2693SOL    HW219713   0.506   3.103   7.340  0.0194 -0.8643 -0.2695
 2694SOL     OW19714   1.120   4.143   6.503 -0.4232 -0.2035  0.0720
 2694SOL    HW119715   1.111   4.112   6.413 -1.0667 -1.4746  0.5694
 2694SOL    HW219716   1.032   4.180   6.512 -0.3176  0.0985 -0.1370
 2695SOL     OW19717   2.761   3.643   3.106 -0.6636 -0.1789 -0.1856
 2695SOL    HW119718   2.771   3.635   3.201 -0.1168 -1.0562 -0.3135
 2695SOL    HW219719   2.801   3.729   3.093  0.9603 -1.0501 -1.0769
 2696SOL     OW19720   2.238   4.019   2.985  0.4079  0.0994  0.2488
 2696SOL    HW119721   2.238   4.080   3.058 -0.4342  1.0691 -0.5664
 2696SOL    HW219722   2.217   4.070   2.907 -0.2554  0.6413  0.7821
 2697SOL     OW19723   4.080   0.268   9.364 -0.3058  0.1892 -0.3404
 2697SOL    HW119724   4.029   0.299   9.288 -1.5148  0.5113  0.5990
 2697SOL    HW219725   4.060   0.336   9.428 -0.8586 -0.0797 -0.2280
 2698SOL     OW19726   0.585   1.190  15.279  0.0643  0.6456 -0.5577
 2698SOL    HW119727   0.609   1.131  15.207  2.2898  1.3794 -0.4239
 2698SOL    HW219728   0.608   1.130  15.351 -0.1145 -0.9322 -1.8290
 2699SOL     OW19729   3.014   0.882   9.436  0.0390  0.1691  0.1895
 2699SOL    HW119730   3.014   0.865   9.341 -0.2655  2.0615 -0.1472
 2699SOL    HW219731   2.954   0.957   9.434 -1.4924 -1.0678 -0.1125
 2700SOL     OW19732   1.458   3.748   4.204 -0.6423  0.4853 -0.0446
 2700SOL    HW119733   1.540   3.702   4.223 -0.7239  0.7904  1.0348
 2700SOL    HW219734   1.473   3.841   4.215  2.4882 -0.1361  0.8874
 2701SOL     OW19735   4.255   3.701  13.975  0.5063  0.6311  0.5149
 2701SOL    HW119736   4.231   3.639  14.043  0.7484 -0.3945 -0.3337
 2701SOL    HW219737   4.219   3.786  14.002 -3.1542 -0.9794  0.6233
 2702SOL     OW19738   1.231   2.437   6.290 -0.3227  0.4778 -0.5409
 2702SOL    HW119739   1.143   2.451   6.323  0.2329 -0.5476  1.3991
 2702SOL    HW219740   1.249   2.510   6.231  0.6805 -0.7776 -1.7927
 2703SOL     OW19741   3.663   3.190   1.615 -0.0716  0.0631 -0.0973
 2703SOL    HW119742   3.739   3.248   1.618 -0.0009 -0.0881  1.1487
 2703SOL    HW219743   3.614   3.224   1.690 -1.5683 -1.8152 -0.2131
 2704SOL     OW19744   2.669   4.008   4.184  0.0380  0.1455 -0.3703
 2704SOL    HW119745   2.580   3.999   4.221  0.4760 -1.3295  0.3187
 2704SOL    HW219746   2.647   4.086   4.133 -0.5888 -0.5204 -1.1011
 2705SOL     OW19747   2.080   0.884   3.484  0.1647  0.3010  0.1611
 2705SOL    HW119748   2.084   0.973   3.519  0.5286 -0.4181  1.9482
 2705SOL    HW219749   1.997   0.852   3.520  0.8680 -0.5808  1.0052
 2706SOL     OW19750   2.064   0.490   0.900  0.0722 -0.2878  0.3631
 2706SOL    HW119751   2.057   0.473   0.806 -0.6177 -1.9671  0.7189
 2706SOL    HW219752   2.136   0.553   0.892 -1.6531  1.6411  0.2245
 2707SOL     OW19753   1.522   2.254  10.690 -0.1048 -0.0356 -0.2363
 2707SOL    HW119754   1.584   2.317  10.726  0.5928 -1.2106  0.6033
 2707SOL    HW219755   1.572   2.173  10.698  3.0288  1.7909 -1.3486
 2708SOL     OW19756   1.082   0.057   9.779  0.2482  0.1409 -0.2681
 2708SOL    HW119757   1.000   0.013   9.802  0.6475  0.3925  1.6458
 2708SOL    HW219758   1.095   0.133   9.836 -1.1882  1.6854 -1.9951
 2709SOL     OW19759   0.808   2.145   5.692 -0.4340  0.2841  0.4061
 2709SOL    HW119760   0.802   2.175   5.783 -0.4488 -2.0142  1.1635
 2709SOL    HW219761   0.780   2.054   5.700  1.3344 -0.2697  0.3353
 2710SOL     OW19762   0.437   3.187   2.594 -0.1375  0.3414 -0.1795
 2710SOL    HW119763   0.363   3.201   2.534 -0.5968 -1.8095 -0.1029
 2710SOL    HW219764   0.472   3.116   2.540  0.5282  0.1355  0.5285
 2711SOL     OW19765   1.878   3.549  12.875  0.0332 -0.3461 -0.6237
 2711SOL    HW119766   1.858   3.555  12.782  0.1855 -2.2212 -0.7705
 2711SOL    HW219767   1.791   3.549  12.914 -0.5995  1.7744 -1.9909
 2712SOL     OW19768   1.514   2.511   9.127  0.1845  0.1575  0.0859
 2712SOL    HW119769   1.543   2.438   9.181  1.7072  0.6735 -0.0493
 2712SOL    HW219770   1.498   2.468   9.043 -0.6857 -0.0275  0.3456
 2713SOL     OW19771   3.936   2.032   7.490  0.3488 -0.2653 -0.1020
 2713SOL    HW119772   3.969   1.976   7.420 -0.4604 -0.2862 -0.4726
 2713SOL    HW219773   3.857   1.988   7.520 -1.9684  1.2706 -3.8654
 2714SOL     OW19774   2.030   2.013  12.108  0.3155  0.2286 -0.2518
 2714SOL    HW119775   2.007   2.104  12.093  0.0112 -0.1576 -2.1713
 2714SOL    HW219776   2.001   2.009  12.199 -0.1770  0.7243 -0.3900
 2715SOL     OW19777   0.034   4.331   1.593 -0.0640  0.2896 -0.0286
 2715SOL    HW119778   0.006   4.353   1.504 -0.4942  3.6931  0.9516
 2715SOL    HW219779   0.039   4.236   1.583 -2.0061  0.0908  1.0347
 2716SOL     OW19780   1.396   4.183   1.482 -0.0863  0.2420  0.8030
 2716SOL    HW119781   1.396   4.090   1.501  0.2352 -0.4363 -2.5551
 2716SOL    HW219782   1.373   4.183   1.389 -1.5958  0.3082  1.1680
 2717SOL     OW19783   3.015   3.065   8.368  0.1035 -0.2049 -0.0314
 2717SOL    HW119784   3.037   3.087   8.459  0.7732 -0.2462 -0.1813
 2717SOL    HW219785   2.939   3.009   8.384 -0.3430  0.1049 -1.0732
 2718SOL     OW19786   3.950   1.226  10.905  0.0156 -0.2647 -0.8408
 2718SOL    HW119787   4.041   1.250  10.887 -0.1900  1.0709 -0.1340
 2718SOL    HW219788   3.921   1.313  10.934  0.2848 -0.3405 -0.3402
 2719SOL     OW19789   0.539   2.153   2.019  0.3319  0.0309  0.1360
 2719SOL    HW119790   0.500   2.179   2.103 -1.0969 -0.0016 -0.5244
 2719SOL    HW219791   0.514   2.061   2.013  1.1200 -0.2011  0.4188
 2720SOL     OW19792   1.192   1.953   4.388  0.5667  0.2136  0.1510
 2720SOL    HW119793   1.109   1.918   4.355  0.4993 -0.4229  1.0023
 2720SOL    HW219794   1.225   2.009   4.318  0.1756  0.7028  0.3529
 2721SOL     OW19795   0.882   0.794  10.598 -0.0738 -0.6364 -0.6008
 2721SOL    HW119796   0.876   0.700  10.613  2.0808 -0.7945 -0.7368
 2721SOL    HW219797   0.909   0.801  10.506 -1.0473 -1.6001 -0.9554
 2722SOL     OW19798   0.361   2.222   5.035  0.0807  0.6469 -0.4082
 2722SOL    HW119799   0.306   2.286   5.080  0.9080  0.6672  0.5667
 2722SOL    HW219800   0.452   2.248   5.042  0.5658 -0.5964 -1.9439
 2723SOL     OW19801   0.016   4.209   3.038 -0.3427 -0.2023 -0.1925
 2723SOL    HW119802   4.739   4.241   2.949  0.2617 -0.9966 -0.5994
 2723SOL    HW219803   4.679   4.242   3.082 -1.9220 -2.3105 -1.3929
 2724SOL     OW19804   3.994   1.269   7.043 -0.1161  0.4367 -1.2246
 2724SOL    HW119805   3.947   1.301   6.965 -1.5168 -1.2906 -1.0885
 2724SOL    HW219806   3.942   1.192   7.066 -0.1610  1.1259  1.0147
 2725SOL     OW19807   0.500   3.605   6.971  0.0903  0.4739  0.1773
 2725SOL    HW119808   0.469   3.612   7.061  2.6986  0.0781  1.1310
 2725SOL    HW219809   0.429   3.554   6.934 -1.3972  3.1502 -0.6619
 2726SOL     OW19810   0.462   4.525   2.855  0.1126  0.0744  0.1944
 2726SOL    HW119811   0.492   4.436   2.873 -0.4154 -0.1902 -0.2312
 2726SOL    HW219812   0.527   4.578   2.900  0.9138  0.3615 -1.2963
 2727SOL     OW19813   2.044   0.727  12.559  0.1224 -0.3772  0.7677
 2727SOL    HW119814   2.040   0.678  12.477 -0.3212 -0.7395  1.0110
 2727SOL    HW219815   2.128   0.699  12.595  1.0894  0.4900 -0.7919
 2728SOL     OW19816   0.573   4.185   4.638 -0.1363  0.3809  0.1382
 2728SOL    HW119817   0.491   4.139   4.658  2.2606 -1.8023  4.7933
 2728SOL    HW219818   0.609   4.130   4.569  1.9148  1.3454  0.4434
 2729SOL     OW19819   2.148   1.862   2.705 -0.0994  0.3598 -0.0810
 2729SOL    HW119820   2.171   1.881   2.796  0.0072  4.7991 -1.0203
 2729SOL    HW219821   2.182   1.937   2.656 -1.7890  0.0107 -1.7774
 2730SOL     OW19822   3.998   3.093   5.370  0.1842  0.1800  0.2353
 2730SOL    HW119823   4.035   3.005   5.357  1.4580  0.4392  2.1896
 2730SOL    HW219824   3.911   3.091   5.330 -1.1643  0.7796  3.1550
 2731SOL     OW19825   1.346   3.737   8.360  0.5401  0.4443  0.5747
 2731SOL    HW119826   1.329   3.716   8.268  1.0331  1.0765  0.3379
 2731SOL    HW219827   1.297   3.665   8.401  0.5770 -0.5624 -1.1462
 2732SOL     OW19828   3.611   2.681   7.593 -0.0862 -0.1493 -0.1527
 2732SOL    HW119829   3.576   2.598   7.559 -0.9395  0.3391 -0.4740
 2732SOL    HW219830   3.581   2.670   7.683 -1.6168 -0.9600 -0.7357
 2733SOL     OW19831   1.674   3.028   7.613  0.6799 -0.2519 -0.2267
 2733SOL    HW119832   1.674   3.105   7.670 -1.8690  0.6117 -1.3797
 2733SOL    HW219833   1.583   3.001   7.597 -0.2378  1.0029  2.7369
 2734SOL     OW19834   0.490   1.239  17.342  0.0725  0.4797 -0.4839
 2734SOL    HW119835   0.423   1.186  17.385 -0.3793  1.7298  0.3397
 2734SOL    HW219836   0.472   1.230  17.248  1.2616  0.0470 -0.6728
 2735SOL     OW19837   3.648   2.756   2.505  0.0085 -0.4453  0.2979
 2735SOL    HW119838   3.727   2.777   2.455 -1.7716 -0.1267 -2.4246
 2735SOL    HW219839   3.646   2.821   2.575 -1.9841 -0.0239 -0.1569
 2736SOL     OW19840   0.446   3.912   4.370 -0.2283 -0.0584 -0.1853
 2736SOL    HW119841   0.384   3.859   4.320 -1.2840 -0.1920  1.2884
 2736SOL    HW219842   0.382   3.943   4.434 -0.0595  0.8892 -0.4589
 2737SOL     OW19843   3.736   0.777  10.012 -0.0992  0.1537 -0.3002
 2737SOL    HW119844   3.798   0.825   9.957 -0.6565  1.7873  0.5064
 2737SOL    HW219845   3.743   0.816  10.099 -2.2314  0.4253 -0.2617
 2738SOL     OW19846   0.023   0.975   2.958 -0.0632  0.0803  0.1183
 2738SOL    HW119847   0.057   0.886   2.972  1.3522  0.5839 -0.1255
 2738SOL    HW219848   0.098   1.024   2.992 -0.6079  1.8396 -1.2274
 2739SOL     OW19849   3.457   4.591   9.047 -0.2887 -0.3915 -0.4661
 2739SOL    HW119850   3.516   4.638   8.989  0.2553  1.3801  1.5161
 2739SOL    HW219851   3.382   4.614   8.992 -1.2293 -0.1523  0.8947
 2740SOL     OW19852   3.130   2.010   6.390  0.1030 -0.1444  0.0425
 2740SOL    HW119853   3.213   2.017   6.342  0.7921 -2.2582  0.9033
 2740SOL    HW219854   3.150   2.013   6.483  1.3718 -3.3925 -0.1206
 2741SOL     OW19855   2.670   3.595   5.859 -0.3235  0.0384 -0.0774
 2741SOL    HW119856   2.645   3.544   5.937 -0.0835 -0.3305 -0.2411
 2741SOL    HW219857   2.765   3.590   5.869 -0.0277  0.6460 -2.7132
 2742SOL     OW19858   3.068   2.750  10.441 -0.0143 -0.2353 -0.0265
 2742SOL    HW119859   3.132   2.737  10.371 -0.1649  0.7118 -0.3396
 2742SOL    HW219860   3.115   2.797  10.510  2.5846 -1.6002 -0.8616
 2743SOL     OW19861   3.716   2.644  15.694 -0.3302 -0.1219 -0.3397
 2743SOL    HW119862   3.676   2.563  15.726 -1.8958  0.8757  0.2330
 2743SOL    HW219863   3.762   2.631  15.610 -1.2523  0.8517 -0.9958
 2744SOL     OW19864   2.882   3.990   2.408 -0.1470 -0.4765 -0.1632
 2744SOL    HW119865   2.942   3.960   2.476 -0.7083 -1.6566 -0.1752
 2744SOL    HW219866   2.930   3.968   2.328 -0.7048 -0.5924 -0.4705
 2745SOL     OW19867   4.674   2.465   6.838 -0.4227  0.4985  0.2214
 2745SOL    HW119868   4.681   2.543   6.893  2.8281  0.0468  0.4475
 2745SOL    HW219869   0.015   2.471   6.789 -0.3281  1.7973  0.5409
 2746SOL     OW19870   3.116   0.236  17.121  0.2087 -0.1876 -0.4086
 2746SOL    HW119871   3.139   0.328  17.104  1.7095 -0.6644 -1.0011
 2746SOL    HW219872   3.057   0.257  17.193  0.1074  1.0093 -0.8378
 2747SOL     OW19873   3.266   4.711   2.869 -0.2071 -0.2553  0.1406
 2747SOL    HW119874   3.278   4.631   2.920  2.1178  0.6331  1.0393
 2747SOL    HW219875   3.348   0.015   2.894 -1.0294  0.2206  1.9953
 2748SOL     OW19876   3.599   1.189   4.755  0.2907  0.0976  0.0225
 2748SOL    HW119877   3.543   1.238   4.814 -3.1563 -3.0311 -0.6315
 2748SOL    HW219878   3.639   1.117   4.804  0.0360  1.1609  1.7938
 2749SOL     OW19879   0.139   0.845   6.518  0.0022  0.9948 -1.0178
 2749SOL    HW119880   0.147   0.903   6.594  3.3962 -0.3412 -0.3207
 2749SOL    HW219881   0.161   0.764   6.564  0.3329  2.0703  0.7227
 2750SOL     OW19882   1.272   3.742   9.061  0.0011  0.3964 -0.3622
 2750SOL    HW119883   1.328   3.665   9.058 -2.0496 -1.1459  1.2789
 2750SOL    HW219884   1.338   3.811   9.066  0.0120  0.3899 -0.4142
 2751SOL     OW19885   0.376   4.405   8.750 -0.3545 -0.7113 -0.5176
 2751SOL    HW119886   0.292   4.389   8.794 -1.2731  0.8433 -1.7154
 2751SOL    HW219887   0.367   4.358   8.667  0.2363  0.5443 -1.2956
 2752SOL     OW19888   4.098   0.880   1.600 -0.2529  0.1210  0.0057
 2752SOL    HW119889   4.104   0.835   1.515 -0.7950  3.2152 -1.6635
 2752SOL    HW219890   4.015   0.848   1.637 -1.1654  2.5072  0.0142
 2753SOL     OW19891   3.234   4.106   4.325  0.3490  0.1244 -0.4445
 2753SOL    HW119892   3.187   4.163   4.265  0.4073 -1.4744 -2.0243
 2753SOL    HW219893   3.222   4.019   4.286 -1.7450 -1.2933  3.3307
 2754SOL     OW19894   0.796   2.092   2.977  0.2689 -0.2281 -0.1317
 2754SOL    HW119895   0.822   2.161   2.916 -0.6263 -0.4923 -0.8216
 2754SOL    HW219896   0.781   2.009   2.931 -0.3798 -0.0502 -0.2313
 2755SOL     OW19897   1.607   3.661   8.005 -0.4089 -1.1266  0.5095
 2755SOL    HW119898   1.678   3.658   7.942 -0.3601  1.9497  0.4528
 2755SOL    HW219899   1.638   3.720   8.074 -0.0043  1.0538 -1.5593
 2756SOL     OW19900   1.668   2.535   2.737 -0.1370  0.0675 -0.2463
 2756SOL    HW119901   1.686   2.455   2.688  0.8834 -0.4743  1.0198
 2756SOL    HW219902   1.657   2.506   2.828  0.4394 -1.5839 -0.7124
 2757SOL     OW19903   3.284   1.240   0.440  0.3100  0.3200 -0.0795
 2757SOL    HW119904   3.299   1.161   0.492 -0.9415  0.3151  0.2729
 2757SOL    HW219905   3.372   1.255   0.404  0.4924  0.0723  0.2630
 2758SOL     OW19906   1.327   0.153   5.840 -0.8866  0.6428 -0.2590
 2758SOL    HW119907   1.389   0.224   5.856  0.4152 -0.5876  0.0941
 2758SOL    HW219908   1.368   0.112   5.764  1.1370  1.7123  0.2510
 2759SOL     OW19909   0.791   3.907   8.988 -0.5009  0.2864 -0.2979
 2759SOL    HW119910   0.871   3.868   9.022 -0.6862  1.1609  1.1561
 2759SOL    HW219911   0.740   3.838   8.946  2.0570 -1.3468 -0.6945
 2760SOL     OW19912   3.047   2.650   8.799  0.2266 -0.6552  0.3240
 2760SOL    HW119913   2.992   2.696   8.735  1.2348 -1.9391 -1.4805
 2760SOL    HW219914   2.978   2.617   8.858 -0.3204  1.6391  0.9581
 2761SOL     OW19915   1.811   3.151   6.970 -0.3135 -0.3492 -0.4902
 2761SOL    HW119916   1.887   3.096   6.988  0.7241  0.8439 -1.2487
 2761SOL    HW219917   1.849   3.224   6.921  0.6929 -1.0836 -0.8191
 2762SOL     OW19918   2.412   3.646   5.538 -0.2475  0.4571  0.4373
 2762SOL    HW119919   2.468   3.580   5.496 -1.7452 -1.6599  1.7851
 2762SOL    HW219920   2.473   3.704   5.584 -1.3115 -0.6162  3.1959
 2763SOL     OW19921   4.329   2.596   4.425 -0.0092 -0.3599  0.7280
 2763SOL    HW119922   4.389   2.565   4.492 -0.4121 -1.6017  0.5007
 2763SOL    HW219923   4.319   2.682   4.467 -0.2570  0.4813 -1.0456
 2764SOL     OW19924   1.095   4.137   6.872  0.3331 -0.0905 -0.2668
 2764SOL    HW119925   1.107   4.220   6.826  1.8764 -1.4076 -2.2301
 2764SOL    HW219926   1.002   4.119   6.858  0.0672  1.4478 -0.4819
 2765SOL     OW19927   1.064   2.580  13.983  0.8268  0.2880  0.1492
 2765SOL    HW119928   1.152   2.615  13.975  0.5717  0.5912 -1.3135
 2765SOL    HW219929   1.073   2.509  14.048 -0.0446 -0.7835 -0.8944
 2766SOL     OW19930   1.466   3.853   3.830 -0.5999 -0.4666  0.3318
 2766SOL    HW119931   1.476   3.902   3.911 -2.4054 -1.2979  1.0502
 2766SOL    HW219932   1.540   3.889   3.781  0.9923 -4.6763 -0.3137
 2767SOL     OW19933   1.111   4.176   1.725  0.5418  0.4882  0.1928
 2767SOL    HW119934   1.060   4.128   1.660  0.6684  0.3372  0.2054
 2767SOL    HW219935   1.049   4.215   1.786 -0.2193 -0.5796  0.0941
 2768SOL     OW19936   2.300   4.620   0.738  0.4789 -0.4897  0.1798
 2768SOL    HW119937   2.308   4.606   0.644  3.2051 -0.5817  0.4244
 2768SOL    HW219938   2.391   4.616   0.765  0.6490  0.8668 -0.1758
 2769SOL     OW19939   0.982   1.416   5.920  0.4128  0.3963  0.4576
 2769SOL    HW119940   0.975   1.321   5.922  0.7762  0.3567 -0.2161
 2769SOL    HW219941   0.895   1.452   5.936 -0.6784 -0.7355 -3.0157
 2770SOL     OW19942   4.597   3.332   3.178  0.1011 -0.1939 -0.2433
 2770SOL    HW119943   4.542   3.288   3.242 -1.5689  3.3347  0.7140
 2770SOL    HW219944   4.617   3.416   3.220  1.8231 -0.3069 -0.8509
 2771SOL     OW19945   1.921   3.051   7.489  0.1984  0.4015  0.5997
 2771SOL    HW119946   1.872   3.046   7.406 -0.1823 -0.7379  0.8939
 2771SOL    HW219947   1.847   3.068   7.547 -0.4153 -2.3019  0.5947
 2772SOL     OW19948   0.800   2.307   3.281  0.2541  0.3428 -0.2310
 2772SOL    HW119949   0.847   2.361   3.217  0.5810 -0.3473 -0.5694
 2772SOL    HW219950   0.711   2.320   3.250  0.0446 -1.5331 -0.3976
 2773SOL     OW19951   2.083   2.904   3.067 -0.0108  0.2071  0.1530
 2773SOL    HW119952   2.058   2.935   2.980 -0.2970 -1.5769 -0.3977
 2773SOL    HW219953   2.039   2.963   3.129 -1.5721 -0.8860  0.0839
 2774SOL     OW19954   3.564   0.789   6.903 -0.1783 -0.1470 -0.1006
 2774SOL    HW119955   3.594   0.722   6.965  0.7497 -1.3198 -1.8255
 2774SOL    HW219956   3.545   0.734   6.827  0.9473  0.8638 -1.1100
 2775SOL     OW19957   2.814   2.666  14.290  0.1450  0.0890  0.0922
 2775SOL    HW119958   2.867   2.743  14.306  0.2922  0.1880 -0.8787
 2775SOL    HW219959   2.779   2.690  14.205 -1.7188 -0.5213  0.6861
 2776SOL     OW19960   1.648   1.842   0.676  0.5529  0.4220 -0.4419
 2776SOL    HW119961   1.740   1.818   0.684 -0.1108 -2.1358 -0.6120
 2776SOL    HW219962   1.639   1.849   0.771  0.2891 -2.2786 -0.2711
 2777SOL     OW19963   2.944   1.090  11.282 -0.0079  0.4364 -0.3193
 2777SOL    HW119964   2.899   1.162  11.236 -1.2094 -1.8654 -2.7688
 2777SOL    HW219965   3.033   1.094  11.248  0.4534  0.2490  0.8947
 2778SOL     OW19966   1.413   2.965  10.705 -0.5555  0.0358  0.1099
 2778SOL    HW119967   1.413   3.061  10.699  1.4696 -0.1213 -2.3896
 2778SOL    HW219968   1.368   2.942  10.624 -1.0889  0.9223  0.1464
 2779SOL     OW19969   1.263   2.795   8.347 -0.2358 -0.1483 -0.4416
 2779SOL    HW119970   1.320   2.868   8.374  0.3966 -1.8562  2.9243
 2779SOL    HW219971   1.178   2.839   8.354 -0.1833 -0.3901  1.9816
 2780SOL     OW19972   2.578   0.173   8.647  0.0303 -0.0051 -0.5757
 2780SOL    HW119973   2.617   0.150   8.562 -1.9312  1.9681 -2.0012
 2780SOL    HW219974   2.505   0.223   8.612  1.1153 -0.3334 -3.3763
 2781SOL     OW19975   2.453   0.723  15.664  0.2980 -0.0912  0.5387
 2781SOL    HW119976   2.361   0.730  15.636 -0.0413  1.0856  1.9122
 2781SOL    HW219977   2.498   0.781  15.602  0.8112  0.8800  1.8244
 2782SOL     OW19978   3.422   0.800   6.477  0.2466 -1.0649 -0.0315
 2782SOL    HW119979   3.438   0.736   6.408  0.2961  0.2186 -1.2151
 2782SOL    HW219980   3.458   0.882   6.444 -0.8781 -0.5516  0.0274
 2783SOL     OW19981   2.161   0.761   1.165 -0.3239 -0.2140 -0.1447
 2783SOL    HW119982   2.189   0.830   1.225 -0.3937  0.9934 -1.4991
 2783SOL    HW219983   2.175   0.676   1.206 -1.2518  0.5850  1.8070
 2784SOL     OW19984   0.818   1.442   5.062 -0.0418 -0.4043 -0.0925
 2784SOL    HW119985   0.836   1.501   5.135 -1.4516 -0.3106  0.1738
 2784SOL    HW219986   0.727   1.460   5.041  0.5633  0.4612 -2.0322
 2785SOL     OW19987   0.608   3.414   3.772 -0.9037 -1.0027 -0.3145
 2785SOL    HW119988   0.700   3.398   3.749 -1.1492 -0.6938 -1.5047
 2785SOL    HW219989   0.568   3.364   3.701 -1.9211  1.4695 -1.4730
 2786SOL     OW19990   4.434   1.263   1.980 -0.2803  0.3348 -0.2514
 2786SOL    HW119991   4.351   1.217   1.983 -0.4021  0.6303  0.8010
 2786SOL    HW219992   4.462   1.230   1.895 -0.6240 -1.3565  0.2856
 2787SOL     OW19993   1.038   3.907   4.364  0.3510  0.2952  0.0323
 2787SOL    HW119994   1.036   3.822   4.407 -0.6122 -0.2668 -1.1230
 2787SOL    HW219995   1.036   3.980   4.426 -0.1874 -0.9299  1.4541
 2788SOL     OW19996   1.304   2.758   8.693  0.1805 -0.1283 -0.0324
 2788SOL    HW119997   1.315   2.839   8.743 -1.1934  0.2285 -0.2897
 2788SOL    HW219998   1.218   2.781   8.657 -0.4088 -1.1646  0.7263
 2789SOL     OW19999   2.788   2.163   5.077  0.8452 -0.0928 -0.2138
 2789SOL    HW120000   2.863   2.213   5.047  0.0719  3.2823  3.4418
 2789SOL    HW220001   2.718   2.219   5.044 -0.7803 -0.9073  1.8283
 2790SOL     OW20002   1.391   3.327   6.940 -0.0571 -0.6526 -0.0974
 2790SOL    HW120003   1.471   3.347   6.890 -0.1023 -0.0752  0.0584
 2790SOL    HW220004   1.387   3.398   7.005 -0.2690 -0.0229 -0.7987
 2791SOL     OW20005   4.677   0.547  13.529 -0.3659  0.5068  0.2298
 2791SOL    HW120006   4.631   0.474  13.571 -0.7265 -0.6015 -2.1178
 2791SOL    HW220007   0.004   0.489  13.494 -0.1232  0.3948  0.8727
 2792SOL     OW20008   3.957   2.445   6.404  0.2341  0.3478  0.3078
 2792SOL    HW120009   3.893   2.491   6.350  0.4707 -1.2062 -1.2906
 2792SOL    HW220010   4.025   2.509   6.421 -0.4252  0.9536  0.6624
 2793SOL     OW20011   2.734   0.173   3.081 -0.3692  0.5879  0.6896
 2793SOL    HW120012   2.709   0.081   3.074 -1.9042  0.9468  1.4292
 2793SOL    HW220013   2.829   0.172   3.085 -0.3938  0.4213  1.2825
 2794SOL     OW20014   1.949   2.050   4.491  0.1320  1.3983  0.0541
 2794SOL    HW120015   2.034   2.060   4.447  0.6824  1.2767  1.0892
 2794SOL    HW220016   1.969   2.005   4.573 -1.3318  0.8205  0.0887
 2795SOL     OW20017   1.583   2.886   5.886 -0.4001 -0.0295 -0.5639
 2795SOL    HW120018   1.663   2.897   5.834 -0.2170 -2.0604 -0.7133
 2795SOL    HW220019   1.621   2.816   5.940  1.5239  0.8111 -0.8243
 2796SOL     OW20020   3.249   3.467   8.617 -0.3094 -0.0177 -0.1369
 2796SOL    HW120021   3.263   3.526   8.543  0.8675  1.4219  1.2274
 2796SOL    HW220022   3.193   3.524   8.670  0.3874  2.1516 -1.7456
 2797SOL     OW20023   4.145   1.034   3.139 -0.0593 -0.0982 -0.2549
 2797SOL    HW120024   4.079   1.032   3.208  0.0941  0.2035 -0.0981
 2797SOL    HW220025   4.104   1.025   3.053 -2.4923  0.4052  0.8717
 2798SOL     OW20026   2.398   0.381   7.086 -0.7324  0.3134 -0.0014
 2798SOL    HW120027   2.348   0.428   7.019 -0.9523  0.6093  0.3648
 2798SOL    HW220028   2.408   0.298   7.040 -0.0413  0.2527  0.2639
 2799SOL     OW20029   2.023   2.517   8.436 -0.4554  0.1398 -0.0651
 2799SOL    HW120030   2.063   2.596   8.400  1.4941 -1.4144 -1.2946
 2799SOL    HW220031   2.071   2.508   8.518 -0.0925  2.6951  0.0028
 2800SOL     OW20032   3.698   1.219   2.273  0.2983  0.8435 -0.9257
 2800SOL    HW120033   3.713   1.187   2.184 -0.8668  0.2766 -0.9185
 2800SOL    HW220034   3.743   1.154   2.325  0.0077  1.6818  0.3707
 2801SOL     OW20035   2.911   3.416  16.794  0.4743 -0.4743 -0.0493
 2801SOL    HW120036   2.886   3.419  16.701 -1.2755 -1.1635  0.4000
 2801SOL    HW220037   2.982   3.480  16.781  2.0450 -1.9604  1.1950
 2802SOL     OW20038   2.232   2.012   2.078  0.1730 -0.0746 -0.2287
 2802SOL    HW120039   2.276   1.938   2.121 -1.4992  0.4270  2.3715
 2802SOL    HW220040   2.312   2.045   2.038 -0.1968  0.4099 -0.5589
 2803SOL     OW20041   1.696   2.193  14.841  0.1114  0.2668 -0.2676
 2803SOL    HW120042   1.733   2.126  14.899 -1.3196  1.3727  1.9306
 2803SOL    HW220043   1.700   2.271  14.897  0.3924  1.5183 -2.0331
 2804SOL     OW20044   2.203   4.291   3.115 -0.1824  0.4764 -0.0475
 2804SOL    HW120045   2.206   4.368   3.057 -1.7410  0.9451  0.4882
 2804SOL    HW220046   2.120   4.257   3.081 -0.1619  2.0583 -1.7299
 2805SOL     OW20047   1.946   2.040   7.551 -0.0290 -0.0661 -0.0675
 2805SOL    HW120048   1.851   2.048   7.563 -0.5609 -1.1516 -3.4412
 2805SOL    HW220049   1.953   1.954   7.510  0.8050  0.6748 -1.4755
 2806SOL     OW20050   2.533   2.069   6.420  0.2142 -0.2051  0.2768
 2806SOL    HW120051   2.452   2.042   6.376  0.3196 -0.7460  0.4185
 2806SOL    HW220052   2.515   2.036   6.508 -1.3863 -1.3595 -0.4758
 2807SOL     OW20053   3.377   0.530  15.334  0.6258  0.5157 -0.3707
 2807SOL    HW120054   3.321   0.454  15.347 -0.2852  0.9219 -1.9157
 2807SOL    HW220055   3.438   0.517  15.406 -2.3154  0.6479  2.1396
 2808SOL     OW20056   0.906   3.168   5.966 -0.4893 -0.7874  0.3971
 2808SOL    HW120057   0.951   3.105   6.023  0.7607  0.2355  0.5265
 2808SOL    HW220058   0.915   3.250   6.015  2.5896  1.2468 -3.6325
 2809SOL     OW20059   2.681   3.059  12.507  0.3532  0.0489 -0.4286
 2809SOL    HW120060   2.681   3.102  12.421 -1.2003  0.6825 -0.1153
 2809SOL    HW220061   2.668   2.969  12.476 -3.9037  0.7818 -0.8103
 2810SOL     OW20062   3.096   4.144   1.721  0.6692 -0.1898 -0.3573
 2810SOL    HW120063   3.079   4.229   1.680  0.0849  0.1641  0.6219
 2810SOL    HW220064   3.139   4.166   1.804 -1.0083  3.4142 -0.4507
 2811SOL     OW20065   1.339   4.608   1.568 -0.2129 -0.4016  0.7744
 2811SOL    HW120066   1.321   4.521   1.605 -1.5913  0.2319  1.5739
 2811SOL    HW220067   1.413   4.597   1.508  0.3909  2.7939  0.9327
 2812SOL     OW20068   0.305   1.802  10.453  0.3928 -0.2085 -0.2449
 2812SOL    HW120069   0.280   1.755  10.373 -0.8085  1.2423 -0.7359
 2812SOL    HW220070   0.304   1.892  10.421  0.2823  0.2833  1.1399
 2813SOL     OW20071   1.836   2.157  17.474  0.0195 -0.6508 -0.7492
 2813SOL    HW120072   1.833   2.200  17.389  2.8406 -1.0673 -1.0554
 2813SOL    HW220073   1.773   2.211  17.522 -1.1422  0.6122 -3.7063
 2814SOL     OW20074   2.004   4.475   0.444  0.1638 -0.0023 -0.2008
 2814SOL    HW120075   2.004   4.441   0.355 -2.0305 -0.3624 -0.0633
 2814SOL    HW220076   2.099   4.479   0.460 -0.2058 -1.8112  2.4523
 2815SOL     OW20077   0.045   2.377   7.199  0.1192 -0.1958 -0.2418
 2815SOL    HW120078   4.733   2.457   7.206  0.7321  0.1399  0.5915
 2815SOL    HW220079   0.013   2.327   7.274 -2.5261  2.1642  0.2255
 2816SOL     OW20080   1.692   4.367  16.014  0.2085  0.4974 -0.1182
 2816SOL    HW120081   1.671   4.347  15.923 -1.6351 -0.2078  0.4771
 2816SOL    HW220082   1.724   4.457  16.006 -0.5907  0.8028  0.1572
 2817SOL     OW20083   1.168   0.714  15.715 -0.1400  0.0087 -0.0682
 2817SOL    HW120084   1.229   0.711  15.788  0.8440  1.5671 -0.8319
 2817SOL    HW220085   1.224   0.729  15.639  2.2404  1.3660  1.9533
 2818SOL     OW20086   2.831   3.799   9.304 -0.5084 -0.4721  0.1150
 2818SOL    HW120087   2.872   3.885   9.312 -0.9119 -0.4568  2.2858
 2818SOL    HW220088   2.750   3.822   9.259  0.4112 -1.8392 -2.2042
 2819SOL     OW20089   3.818   0.545   7.320 -0.3304 -0.8490  0.0622
 2819SOL    HW120090   3.759   0.568   7.392  0.9800  0.9915  0.5614
 2819SOL    HW220091   3.836   0.454   7.341 -1.5157 -0.2911  3.4196
 2820SOL     OW20092   2.695   0.697   3.645 -0.4766 -0.5217  0.4746
 2820SOL    HW120093   2.770   0.734   3.692 -1.1348 -0.1370  1.2204
 2820SOL    HW220094   2.622   0.754   3.672 -0.2560 -0.0839  0.1572
 2821SOL     OW20095   3.998   3.302   6.201 -0.1159  0.5155  0.0938
 2821SOL    HW120096   3.931   3.366   6.226  0.0638  0.8043 -0.1583
 2821SOL    HW220097   3.970   3.233   6.261  0.3736  0.9330  0.8088
 2822SOL     OW20098   4.138   1.112  17.183 -0.0557 -0.0402 -0.5321
 2822SOL    HW120099   4.193   1.186  17.160  0.5996 -0.0246  1.1144
 2822SOL    HW220100   4.113   1.092  17.092  1.4338 -0.8422 -0.7641
 2823SOL     OW20101   2.420   3.680   3.914 -0.0227  0.0639 -0.5794
 2823SOL    HW120102   2.407   3.775   3.911 -1.1662 -0.0711 -0.1693
 2823SOL    HW220103   2.386   3.657   4.001 -0.5202  1.6866 -0.3352
 2824SOL     OW20104   3.765   3.558   3.979 -0.4004  0.4104 -0.5439
 2824SOL    HW120105   3.849   3.516   3.963 -0.5021  0.8866 -2.3443
 2824SOL    HW220106   3.720   3.533   3.898  0.2739  0.2517 -0.8656
 2825SOL     OW20107   0.883   3.562   8.607 -0.0989  0.3875  0.4389
 2825SOL    HW120108   0.851   3.609   8.684 -1.9980  1.1911 -0.8447
 2825SOL    HW220109   0.869   3.471   8.633 -1.6692  0.5714  0.2167
 2826SOL     OW20110   1.594   1.995   6.336  0.7691 -0.2010  0.3579
 2826SOL    HW120111   1.518   1.977   6.281  0.7102  0.9349  0.0702
 2826SOL    HW220112   1.552   2.017   6.420  1.0134  2.2281 -0.1660
 2827SOL     OW20113   0.193   4.541   5.628 -0.2272 -0.1531  0.2334
 2827SOL    HW120114   0.127   4.477   5.603  0.6072 -0.3014 -1.5792
 2827SOL    HW220115   0.152   4.625   5.606 -0.5776 -0.5028 -0.4248
 2828SOL     OW20116   0.700   0.577   6.038 -0.1272 -0.1430  0.1749
 2828SOL    HW120117   0.634   0.563   6.106 -0.7439 -1.6590 -0.7098
 2828SOL    HW220118   0.658   0.563   5.953  1.8194  1.6976 -1.0884
 2829SOL     OW20119   3.976   3.958   4.664  0.2754  0.1211 -0.1886
 2829SOL    HW120120   4.071   3.949   4.677  0.5057  1.0248 -1.1910
 2829SOL    HW220121   3.959   3.896   4.592  2.0226 -2.8586  1.9618
 2830SOL     OW20122   2.760   4.622  13.362  0.2350 -0.0037 -0.0760
 2830SOL    HW120123   2.840   4.630  13.310 -0.6342  1.0045 -1.2628
 2830SOL    HW220124   2.789   4.683  13.429  0.1540 -0.6677  0.5651
 2831SOL     OW20125   1.268   1.252  12.267 -0.0771 -0.4543  0.4720
 2831SOL    HW120126   1.213   1.175  12.252  0.8687 -0.7539 -1.3693
 2831SOL    HW220127   1.261   1.297  12.183 -1.8665 -1.8758 -0.1350
 2832SOL     OW20128   1.011   0.731   5.333  0.0338 -0.2535  0.0340
 2832SOL    HW120129   0.982   0.790   5.263  1.2976 -1.7579 -1.7644
 2832SOL    HW220130   1.093   0.694   5.300 -0.1979 -0.6026 -0.1534
 2833SOL     OW20131   4.361   1.376  14.959  0.1092  0.4596  0.7786
 2833SOL    HW120132   4.406   1.427  14.891  1.9166 -0.2833  1.4264
 2833SOL    HW220133   4.375   1.287  14.925  1.4475  0.3961  1.4748
 2834SOL     OW20134   3.861   2.833   3.722  0.1484  0.3654 -0.8760
 2834SOL    HW120135   3.951   2.834   3.756  0.3961  0.3243 -1.5393
 2834SOL    HW220136   3.851   2.926   3.700 -2.2757 -0.0901 -1.6868
 2835SOL     OW20137   4.118   3.262   2.620  0.8888  0.3279  0.1895
 2835SOL    HW120138   4.180   3.265   2.693 -0.6568 -0.3356  1.5252
 2835SOL    HW220139   4.172   3.211   2.559 -1.3248 -2.7426  0.8088
 2836SOL     OW20140   3.764   4.216   6.992  0.0645  0.3379 -0.3123
 2836SOL    HW120141   3.696   4.282   6.984 -0.5214 -0.4511 -1.8014
 2836SOL    HW220142   3.768   4.198   7.086 -1.4975  0.9145 -0.1300
 2837SOL     OW20143   3.884   0.126   4.157 -0.1667 -0.3034  0.3715
 2837SOL    HW120144   3.834   0.049   4.184  0.4807 -0.9694 -0.3572
 2837SOL    HW220145   3.873   0.143   4.063 -0.1147  1.0173  0.6052
 2838SOL     OW20146   0.833   3.873  10.217 -0.4552 -0.0257 -0.1338
 2838SOL    HW120147   0.874   3.854  10.302  0.1073 -0.0985 -0.4192
 2838SOL    HW220148   0.813   3.791  10.174  0.6378  1.6702 -3.8612
 2839SOL     OW20149   4.581   0.124  13.591  0.4472 -0.6851  0.7949
 2839SOL    HW120150   4.599   0.109  13.684  0.3368 -2.6288  0.5071
 2839SOL    HW220151   4.504   0.069  13.577 -0.7760  0.9167  1.2164
 2840SOL     OW20152   2.451   1.008   6.171 -0.1319 -0.3752  0.0818
 2840SOL    HW120153   2.514   1.050   6.231 -0.1849 -0.1062 -0.0541
 2840SOL    HW220154   2.439   1.089   6.123  0.4708  1.1231  2.4331
 2841SOL     OW20155   2.165   3.925   8.289 -0.7432 -0.1156  0.2618
 2841SOL    HW120156   2.094   3.983   8.317  1.7335  1.9727  2.2651
 2841SOL    HW220157   2.138   3.841   8.324  0.1708  0.1308  1.5337
 2842SOL     OW20158   0.273   3.302   5.131  0.1114  0.1845  0.3305
 2842SOL    HW120159   0.188   3.299   5.088  0.7424 -0.6166 -0.8529
 2842SOL    HW220160   0.301   3.384   5.090  0.4673 -0.1513 -0.0979
 2843SOL     OW20161   2.898   1.111   6.881  0.4683 -0.5984 -0.3207
 2843SOL    HW120162   2.880   1.170   6.954  1.8803  0.1298 -0.5535
 2843SOL    HW220163   2.955   1.054   6.932 -0.3725 -1.6723 -0.5855
 2844SOL     OW20164   4.032   1.695  16.418  0.2046 -0.2648 -0.0118
 2844SOL    HW120165   3.976   1.772  16.422 -0.0982 -0.5609  1.4766
 2844SOL    HW220166   4.118   1.722  16.449  0.7639  0.3709 -2.1140
 2845SOL     OW20167   0.105   0.967  14.922 -0.4577 -0.0526  0.1722
 2845SOL    HW120168   0.166   1.012  14.864  0.3704  0.1495  1.2102
 2845SOL    HW220169   0.161   0.903  14.965 -1.9494  0.1661  2.3841
 2846SOL     OW20170   1.136   2.776   5.708  0.4525 -0.0294  0.3441
 2846SOL    HW120171   1.105   2.689   5.734 -0.1909  0.3018  0.6950
 2846SOL    HW220172   1.088   2.846   5.753  2.9263  0.1377  2.7147
 2847SOL     OW20173   3.006   3.640   7.298  0.0503  0.3109  0.0577
 2847SOL    HW120174   2.983   3.588   7.222 -0.4185 -1.9692  1.7510
 2847SOL    HW220175   2.937   3.706   7.293  0.4967  0.8937  1.5993
 2848SOL     OW20176   1.810   3.366  11.385 -0.5996  0.1245 -0.2700
 2848SOL    HW120177   1.817   3.391  11.293  2.9848 -1.9213 -0.5274
 2848SOL    HW220178   1.903   3.367  11.404 -1.0487  2.5744  1.6521
 2849SOL     OW20179   0.624   0.216   5.250 -0.2824  0.5156 -0.8176
 2849SOL    HW120180   0.540   0.212   5.204 -0.8396 -0.1097  0.2510
 2849SOL    HW220181   0.603   0.244   5.339  0.0006 -0.6010 -0.4023
 2850SOL     OW20182   1.930   4.396   6.457 -0.0946  0.2434  0.0946
 2850SOL    HW120183   2.019   4.366   6.475 -0.5871 -0.7369  0.8641
 2850SOL    HW220184   1.951   4.482   6.423  0.1619 -0.3316 -1.2240
 2851SOL     OW20185   1.214   0.258  12.087 -0.1663 -0.2689  0.3542
 2851SOL    HW120186   1.126   0.233  12.061 -0.6737 -1.2186  2.9469
 2851SOL    HW220187   1.277   0.198  12.047  1.1396  2.1275 -1.1457
 2852SOL     OW20188   1.768   2.976   7.945 -0.6006  0.3672 -0.2483
 2852SOL    HW120189   1.807   3.058   7.974 -0.1620  0.2051 -0.3829
 2852SOL    HW220190   1.824   2.914   7.993 -2.5264 -0.2317  1.2060
 2853SOL     OW20191   2.888   1.503   5.064 -0.1171  0.1320 -0.2230
 2853SOL    HW120192   2.840   1.525   5.144 -0.1263 -2.3634  0.4846
 2853SOL    HW220193   2.855   1.569   5.003 -0.2126  0.3871  0.1075
 2854SOL     OW20194   2.178   1.121   7.590 -0.4819  0.2562  0.3047
 2854SOL    HW120195   2.193   1.030   7.562 -0.6742  0.4160 -0.3233
 2854SOL    HW220196   2.097   1.106   7.639  0.0149  1.4572  1.4825
 2855SOL     OW20197   1.947   1.972  16.506  0.3293 -0.5818 -0.2599
 2855SOL    HW120198   1.988   1.897  16.549  0.4654  0.2277  1.0219
 2855SOL    HW220199   1.869   1.939  16.463  0.6918  0.2891 -1.5980
 2856SOL     OW20200   1.920   4.058   8.339  0.2686 -0.0682  0.0414
 2856SOL    HW120201   1.863   4.100   8.275  0.9144 -0.1959 -0.6200
 2856SOL    HW220202   1.858   4.008   8.391 -1.6855  2.8644  0.5272
 2857SOL     OW20203   4.616   1.405   8.008 -0.6969 -0.2804 -0.2494
 2857SOL    HW120204   4.677   1.470   7.973 -3.5517  3.7474  2.1387
 2857SOL    HW220205   4.545   1.457   8.047 -1.0295  0.0173 -1.2469
 2858SOL     OW20206   3.543   2.678  17.422 -0.0782 -0.3829  0.4480
 2858SOL    HW120207   3.588   2.751  17.380 -0.9925 -0.4445 -0.6429
 2858SOL    HW220208   3.459   2.716  17.448 -0.9360 -0.4655 -2.1771
 2859SOL     OW20209   1.012   3.535   4.966  0.6536 -0.5204  0.2864
 2859SOL    HW120210   1.069   3.610   4.979 -0.4284  0.0568  1.7934
 2859SOL    HW220211   1.070   3.461   4.985  2.7433  0.9873 -0.2517
 2860SOL     OW20212   1.887   3.076   2.383  0.4642 -0.4505  0.1204
 2860SOL    HW120213   1.972   3.033   2.391  0.9345  0.2258 -1.2936
 2860SOL    HW220214   1.836   3.031   2.450 -0.1996  0.1472  0.0177
 2861SOL     OW20215   2.462   3.056   6.595  0.4210  0.7299 -0.1260
 2861SOL    HW120216   2.404   3.036   6.521 -1.4398 -1.1595  1.8223
 2861SOL    HW220217   2.537   3.002   6.571  0.3152  0.5206  0.0140
 2862SOL     OW20218   0.800   2.603   5.527  0.2414  1.0581 -0.2874
 2862SOL    HW120219   0.849   2.636   5.451  0.4114  0.4511 -0.4415
 2862SOL    HW220220   0.869   2.549   5.564  0.3311  0.6414 -1.0659
 2863SOL     OW20221   1.574   0.487   4.800  0.0534 -0.4694 -0.1188
 2863SOL    HW120222   1.669   0.501   4.794  0.2134 -1.5635 -0.2604
 2863SOL    HW220223   1.549   0.568   4.756 -1.4443 -1.7907 -1.6926
 2864SOL     OW20224   2.631   2.480   3.792  0.1816  0.3277  0.2178
 2864SOL    HW120225   2.542   2.516   3.787 -0.0150 -0.4476 -1.8917
 2864SOL    HW220226   2.662   2.532   3.719 -0.4374  2.2481  1.3131
 2865SOL     OW20227   4.606   1.305   5.348 -0.5339 -0.0306  0.2835
 2865SOL    HW120228   4.693   1.336   5.325  0.6432 -2.9388  0.8468
 2865SOL    HW220229   4.568   1.289   5.262  1.6167 -0.4949 -0.5701
 2866SOL     OW20230   3.745   3.764   2.679 -0.0967 -0.2549  0.2368
 2866SOL    HW120231   3.768   3.854   2.704  0.4052 -0.2436 -0.2598
 2866SOL    HW220232   3.684   3.780   2.607 -1.1461  0.7349  1.3513
 2867SOL     OW20233   1.984   0.432   2.052 -0.2107  0.7270 -0.3511
 2867SOL    HW120234   1.980   0.520   2.016 -0.5285  1.4887  1.5398
 2867SOL    HW220235   2.058   0.398   2.002 -1.3976  0.3436 -1.8499
 2868SOL     OW20236   1.952   1.513   8.286  0.4659  0.1874 -0.2563
 2868SOL    HW120237   1.966   1.593   8.338  1.2929 -0.5837  0.7226
 2868SOL    HW220238   1.877   1.485   8.339  1.3534 -0.9578  0.3993
 2869SOL     OW20239   4.508   3.023   3.322  0.3371 -0.3405  0.2203
 2869SOL    HW120240   4.512   3.110   3.363 -1.4103  0.0382 -0.4017
 2869SOL    HW220241   4.413   3.010   3.316  0.1834 -0.5740  3.6077
 2870SOL     OW20242   1.556   3.622   7.667  0.1530  0.0240  0.1983
 2870SOL    HW120243   1.618   3.683   7.708 -1.2131  2.0614 -0.7454
 2870SOL    HW220244   1.561   3.651   7.576 -0.3657 -1.9032 -0.4497
 2871SOL     OW20245   4.115   1.636   4.682 -1.1774 -0.7452 -0.3148
 2871SOL    HW120246   4.062   1.565   4.718  0.7896 -0.7656  2.5255
 2871SOL    HW220247   4.103   1.701   4.751  1.3792  0.4013 -0.9744
 2872SOL     OW20248   3.059   1.234   5.671 -0.5099 -0.0392 -0.6192
 2872SOL    HW120249   3.069   1.242   5.766  0.4019 -0.5762 -0.6655
 2872SOL    HW220250   2.999   1.159   5.674 -0.0964 -0.4281 -2.3783
 2873SOL     OW20251   1.735   0.989   5.038 -0.2171 -0.1175 -0.1403
 2873SOL    HW120252   1.747   0.945   5.123 -0.4341 -0.8011 -0.4653
 2873SOL    HW220253   1.663   0.943   4.995 -0.6304  0.4994 -0.1200
 2874SOL     OW20254   1.217   2.605   8.128  0.1579 -0.3444  0.4494
 2874SOL    HW120255   1.302   2.570   8.104  0.3976  0.6528 -0.1477
 2874SOL    HW220256   1.242   2.671   8.193  2.1892  0.3051 -1.0186
 2875SOL     OW20257   0.450   0.996   5.367  0.2152  0.1060  0.9210
 2875SOL    HW120258   0.455   0.975   5.274  0.7376  0.5808  0.8416
 2875SOL    HW220259   0.355   1.009   5.375  0.3720  2.7802 -1.7141
 2876SOL     OW20260   3.439   3.408   4.798  0.2912 -0.6693 -0.5893
 2876SOL    HW120261   3.392   3.347   4.742 -0.6870  0.3659 -0.9004
 2876SOL    HW220262   3.508   3.353   4.836  0.6285 -0.3827 -0.7894
 2877SOL     OW20263   1.509   2.478  13.471  0.1973 -0.2047 -0.3211
 2877SOL    HW120264   1.543   2.407  13.526  1.5504 -0.1955 -1.1627
 2877SOL    HW220265   1.582   2.539  13.465 -1.1321  1.3407 -1.0383
 2878SOL     OW20266   2.277   2.110   1.775 -0.4186  0.0945  0.6975
 2878SOL    HW120267   2.275   2.190   1.721 -0.9286 -0.1761  0.3106
 2878SOL    HW220268   2.190   2.104   1.816 -0.1614 -0.9428  1.0713
 2879SOL     OW20269   3.359   1.985   8.395  0.1037  0.2537  0.0309
 2879SOL    HW120270   3.365   2.048   8.467  1.4569  1.1193 -0.8464
 2879SOL    HW220271   3.427   1.923   8.421 -0.7827 -0.6572  0.1670
 2880SOL     OW20272   3.320   0.781   7.972 -0.3627 -0.2402  0.3727
 2880SOL    HW120273   3.297   0.781   7.879 -0.6671  1.1523  0.4403
 2880SOL    HW220274   3.404   0.825   7.956 -1.4214  2.4142  2.0831
 2881SOL     OW20275   3.764   3.660   3.536  0.0397  0.2729 -0.4387
 2881SOL    HW120276   3.746   3.727   3.602 -1.0277 -0.4868  0.0554
 2881SOL    HW220277   3.682   3.649   3.488  0.7591  0.4589 -1.7096
 2882SOL     OW20278   4.546   4.364   1.401 -0.2549 -0.4328 -0.0948
 2882SOL    HW120279   4.499   4.447   1.396  0.9371  0.1618 -1.5380
 2882SOL    HW220280   4.621   4.386   1.345 -1.4630 -1.0601 -1.9383
 2883SOL     OW20281   4.022   3.522   8.709 -0.0574 -0.2678 -0.2172
 2883SOL    HW120282   4.015   3.586   8.780 -0.3692 -0.9002  0.3240
 2883SOL    HW220283   4.115   3.527   8.687 -0.0640  0.0981 -0.1526
 2884SOL     OW20284   4.414   0.922  11.970 -0.1384 -0.0555  0.2293
 2884SOL    HW120285   4.329   0.924  11.926 -0.0090  0.8561  0.0044
 2884SOL    HW220286   4.426   0.827  11.974 -2.1484 -0.3509 -0.4562
 2885SOL     OW20287   2.526   0.197  12.621  0.1659 -0.1490 -0.1558
 2885SOL    HW120288   2.457   0.227  12.680 -0.8659  0.0707 -1.4871
 2885SOL    HW220289   2.477   0.130  12.572  0.0464 -0.8824  0.9627
 2886SOL     OW20290   3.311   4.272   7.844 -0.4193 -0.4987 -0.2238
 2886SOL    HW120291   3.379   4.208   7.823 -0.8037 -1.3502  1.1472
 2886SOL    HW220292   3.259   4.223   7.907  0.3754 -1.6429 -0.4452
 2887SOL     OW20293   3.462   4.693   3.272  0.2005 -0.3286  0.1936
 2887SOL    HW120294   3.537   4.651   3.230  1.6823 -0.1564  2.6655
 2887SOL    HW220295   3.504   0.037   3.286 -1.8783  0.8478 -0.7407
 2888SOL     OW20296   0.326   2.495   4.608 -0.1245 -0.3478  0.1709
 2888SOL    HW120297   0.293   2.446   4.532 -0.2093  0.1332 -0.1001
 2888SOL    HW220298   0.291   2.436   4.675 -0.3931  0.9217  1.1480
 2889SOL     OW20299   0.342   3.122   2.268  0.1739  0.2184  0.2277
 2889SOL    HW120300   0.297   3.071   2.336 -3.7083 -0.7652 -3.0446
 2889SOL    HW220301   0.263   3.145   2.218 -0.3767 -0.2157  0.8835
 2890SOL     OW20302   3.306   2.110   4.088 -0.5212 -0.2858  0.8695
 2890SOL    HW120303   3.281   2.026   4.047 -1.1310  0.1915  0.2636
 2890SOL    HW220304   3.400   2.091   4.087 -0.3925  0.3506  1.2995
 2891SOL     OW20305   4.493   1.388  11.426 -0.2940  0.4139  0.5957
 2891SOL    HW120306   4.539   1.430  11.354  2.6935  0.0470  2.2928
 2891SOL    HW220307   4.506   1.441  11.505 -0.4872  0.9886  0.2422
 2892SOL     OW20308   3.108   3.476   4.977  0.3461 -0.7709 -0.1129
 2892SOL    HW120309   3.137   3.508   4.892 -2.1474  1.2757 -0.1927
 2892SOL    HW220310   3.069   3.553   5.017  0.6751 -0.2566 -0.7776
 2893SOL     OW20311   3.467   3.410   3.550  0.7670 -0.2796  0.0649
 2893SOL    HW120312   3.401   3.351   3.587  0.9150 -1.2729 -1.2486
 2893SOL    HW220313   3.414   3.489   3.555  0.1624 -0.6179 -0.9048
 2894SOL     OW20314   0.365   0.067   5.213 -0.5142  0.0430  0.6034
 2894SOL    HW120315   0.443   0.011   5.208 -0.5700  0.2749 -2.6745
 2894SOL    HW220316   0.381   0.125   5.139  3.3087  0.5482  1.8110
 2895SOL     OW20317   0.479   0.716   3.580  0.5685  0.0285  0.2336
 2895SOL    HW120318   0.561   0.755   3.549  0.0280  0.6365 -0.4263
 2895SOL    HW220319   0.461   0.654   3.509 -1.0137  0.2043  0.4862
 2896SOL     OW20320   2.828   3.361   9.496  0.1665  0.1407  0.6343
 2896SOL    HW120321   2.907   3.337   9.447  0.0300  1.1784 -0.0987
 2896SOL    HW220322   2.767   3.303   9.452  2.1994 -4.1073  3.4054
 2897SOL     OW20323   1.988   1.617   7.557  0.3321  0.1376  0.4446
 2897SOL    HW120324   1.909   1.568   7.579  0.7087  0.7201  3.1526
 2897SOL    HW220325   2.057   1.553   7.574 -0.1626 -0.1121  1.5391
 2898SOL     OW20326   1.609   2.315   8.477  0.3699 -0.3929  0.2400
 2898SOL    HW120327   1.646   2.324   8.390  0.9227  1.6446  0.6862
 2898SOL    HW220328   1.633   2.397   8.520 -1.3136 -0.6838  1.7390
 2899SOL     OW20329   1.517   3.119  12.724 -0.2736  0.1641  0.1841
 2899SOL    HW120330   1.436   3.103  12.675 -0.3009 -0.5770  0.4589
 2899SOL    HW220331   1.514   3.060  12.800  2.2862 -1.4737 -0.9587
 2900SOL     OW20332   2.543   4.192  13.225 -0.4571  0.5634  0.3320
 2900SOL    HW120333   2.541   4.154  13.312  3.4723  0.1918  0.2408
 2900SOL    HW220334   2.521   4.284  13.243 -0.6955  0.7579 -0.9447
 2901SOL     OW20335   3.547   1.539   3.738 -0.1480 -0.4891  0.0686
 2901SOL    HW120336   3.508   1.543   3.826 -1.1718  0.4889 -0.4362
 2901SOL    HW220337   3.479   1.581   3.686 -0.8754 -1.2374  0.4106
 2902SOL     OW20338   1.291   0.258   7.013  0.3945 -0.6742  0.0085
 2902SOL    HW120339   1.362   0.296   6.960  0.7298 -0.9815  0.2402
 2902SOL    HW220340   1.298   0.300   7.099 -2.9050 -0.6609  0.2505
 2903SOL     OW20341   2.250   4.099   7.344  0.5659  0.2087  0.3607
 2903SOL    HW120342   2.249   4.189   7.311 -0.6872  0.9871  2.4812
 2903SOL    HW220343   2.255   4.043   7.266 -0.5433  0.7715 -0.1313
 2904SOL     OW20344   3.062   3.868   9.034  0.1773  0.2727  0.5130
 2904SOL    HW120345   3.122   3.880   9.107  1.2554  0.2859 -0.3794
 2904SOL    HW220346   2.987   3.916   9.069  1.0052  2.2557 -0.3995
 2905SOL     OW20347   2.153   3.545   6.039  0.3136  0.2001  0.3963
 2905SOL    HW120348   2.210   3.613   6.072  0.4211  0.1016  0.4149
 2905SOL    HW220349   2.179   3.543   5.946  2.4076 -1.3696  1.0041
 2906SOL     OW20350   1.385   1.097  17.311 -0.4421 -0.3532 -0.4764
 2906SOL    HW120351   1.377   1.138  17.224  1.3338 -1.7115 -1.2902
 2906SOL    HW220352   1.341   1.014  17.295 -0.0459 -1.0073  1.9373
 2907SOL     OW20353   1.206   4.215  13.160 -0.5485  0.5929  0.9074
 2907SOL    HW120354   1.294   4.249  13.175  0.1117 -0.0863 -1.5507
 2907SOL    HW220355   1.175   4.269  13.087 -0.9421 -0.5240  0.2572
 2908SOL     OW20356   1.329   2.665  13.948 -0.2738  0.2257 -0.1625
 2908SOL    HW120357   1.351   2.660  13.855  0.3423  1.1812 -0.0722
 2908SOL    HW220358   1.399   2.717  13.987 -0.2352 -0.9608  1.3460
 2909SOL     OW20359   1.841   0.567   5.379 -0.3841  0.1340  0.2804
 2909SOL    HW120360   1.907   0.510   5.419 -0.0139  1.6433  1.8108
 2909SOL    HW220361   1.828   0.525   5.294 -0.1172  0.0894  0.2594
 2910SOL     OW20362   4.077   4.540   2.930  0.0409 -0.0560  0.1071
 2910SOL    HW120363   4.088   4.608   2.864 -2.1908  1.5072  1.3383
 2910SOL    HW220364   4.146   4.480   2.902 -0.1637 -0.0060 -0.5141
 2911SOL     OW20365   2.837   1.061  14.091 -0.7235  0.3605  0.7475
 2911SOL    HW120366   2.753   1.092  14.057 -0.3353 -1.4875 -1.9068
 2911SOL    HW220367   2.863   1.140  14.139 -1.3981 -0.2918  2.1855
 2912SOL     OW20368   3.298   1.231   0.936 -0.4908 -0.4292 -0.2347
 2912SOL    HW120369   3.241   1.307   0.951 -0.2745 -0.5034  0.9622
 2912SOL    HW220370   3.228   1.172   0.910 -0.4308 -0.0089 -1.4066
 2913SOL     OW20371   0.874   3.758  12.847 -0.1701 -0.3077  0.1885
 2913SOL    HW120372   0.927   3.792  12.919 -1.6851  2.0674  0.1842
 2913SOL    HW220373   0.932   3.685  12.823  1.9667  0.7951  2.0157
 2914SOL     OW20374   3.269   1.354   9.637  0.7032 -0.2963 -0.4227
 2914SOL    HW120375   3.248   1.429   9.693  0.1204  0.4913 -1.7007
 2914SOL    HW220376   3.364   1.361   9.645  0.6903  0.7712 -1.0973
 2915SOL     OW20377   1.610   3.248  12.150 -0.0278  0.8467  0.5648
 2915SOL    HW120378   1.584   3.311  12.082  4.1477  1.0423 -0.8062
 2915SOL    HW220379   1.524   3.227  12.187 -0.3044  0.8835 -0.0476
 2916SOL     OW20380   1.129   2.670  10.600  0.1954  0.2184  0.0203
 2916SOL    HW120381   1.207   2.671  10.656  0.3390  1.9122 -0.2042
 2916SOL    HW220382   1.139   2.584  10.560  0.4312  0.2471  0.0153
 2917SOL     OW20383   0.557   3.808   7.664 -0.2691  0.5953 -0.2312
 2917SOL    HW120384   0.497   3.789   7.591 -0.4286 -0.6029  0.2248
 2917SOL    HW220385   0.628   3.747   7.645  1.3621  2.9655 -1.6861
 2918SOL     OW20386   1.947   2.288  12.098  0.1568  0.1963 -0.2486
 2918SOL    HW120387   1.908   2.261  12.182  0.2398  0.5459 -0.0961
 2918SOL    HW220388   2.018   2.345  12.128  0.5653  0.8411 -2.4745
 2919SOL     OW20389   4.033   2.371  10.233 -0.6575  0.1377  0.4607
 2919SOL    HW120390   3.991   2.441  10.284 -2.3105  0.1878 -0.9602
 2919SOL    HW220391   3.966   2.304  10.218 -1.9336  1.6215 -0.4745
 2920SOL     OW20392   2.593   1.093  11.235 -0.5516 -0.3927 -0.5388
 2920SOL    HW120393   2.538   1.070  11.160  0.9765  1.1867 -2.1320
 2920SOL    HW220394   2.529   1.074  11.305  0.6484 -0.3425  0.5792
 2921SOL     OW20395   3.002   0.340   6.220 -0.3936 -0.1186  0.2068
 2921SOL    HW120396   3.076   0.315   6.165  0.9821  2.0892  1.0358
 2921SOL    HW220397   3.049   0.330   6.302 -2.7311 -0.9265  1.4609
 2922SOL     OW20398   3.879   1.255   5.694 -0.5907  0.1307  0.0960
 2922SOL    HW120399   3.905   1.165   5.673  0.7667  0.6938 -0.6293
 2922SOL    HW220400   3.893   1.243   5.788  2.0127 -0.7266 -0.3973
 2923SOL     OW20401   2.569   1.356   5.352  0.6639 -0.6667 -0.4857
 2923SOL    HW120402   2.587   1.314   5.268  0.2951 -0.9872 -0.4062
 2923SOL    HW220403   2.478   1.377   5.330  0.7747 -1.3453 -1.5905
 2924SOL     OW20404   1.290   1.906  12.903  0.0045  0.0288  0.0577
 2924SOL    HW120405   1.346   1.833  12.880  1.4644  0.4080  2.3761
 2924SOL    HW220406   1.292   1.910  12.999 -0.2720  2.5317 -0.0472
 2925SOL     OW20407   3.789   3.001  13.997 -0.6473  0.7995  0.3048
 2925SOL    HW120408   3.818   2.930  13.939 -1.5708  0.7108 -0.0609
 2925SOL    HW220409   3.724   2.946  14.041  0.9790 -0.6642  0.8760
 2926SOL     OW20410   0.872   1.096  10.623 -0.4386 -0.3176 -0.4825
 2926SOL    HW120411   0.877   1.000  10.622 -2.0642 -0.3937 -1.5926
 2926SOL    HW220412   0.937   1.129  10.685 -0.5518  0.6416 -0.8725
 2927SOL     OW20413   2.960   0.559   5.744  0.4277  0.4264  0.0049
 2927SOL    HW120414   2.928   0.615   5.814  2.1360  0.4286  0.7974
 2927SOL    HW220415   3.045   0.549   5.787  0.2561 -1.3606 -0.0750
 2928SOL     OW20416   1.035   2.203   1.871 -0.0859  0.3433  0.5934
 2928SOL    HW120417   1.086   2.155   1.936  3.4356  2.0116 -0.9622
 2928SOL    HW220418   0.952   2.209   1.919  0.6438 -2.5178  2.1970
 2929SOL     OW20419   2.986   3.349   6.448 -0.3540 -0.0425 -0.6241
 2929SOL    HW120420   3.043   3.289   6.496 -2.0744 -1.5877 -0.4808
 2929SOL    HW220421   3.049   3.396   6.394  0.4865 -0.3810  0.0638
 2930SOL     OW20422   0.110   4.108   6.755  0.7928 -1.1881 -0.5742
 2930SOL    HW120423   0.020   4.078   6.751  0.8623 -1.3752 -0.7351
 2930SOL    HW220424   0.121   4.150   6.670  0.3951  0.3109  0.1071
 2931SOL     OW20425   4.100   1.468   3.073  0.8169 -0.6683  0.3947
 2931SOL    HW120426   4.124   1.458   2.981  1.8599  1.9984  0.3882
 2931SOL    HW220427   4.144   1.394   3.114  0.3941 -1.4950 -0.6302
 2932SOL     OW20428   1.992   1.389   6.648  0.0013 -0.6979  0.0136
 2932SOL    HW120429   1.922   1.452   6.634  1.5490  1.3559  1.4338
 2932SOL    HW220430   2.066   1.448   6.661  0.2250 -1.0601  0.4024
 2933SOL     OW20431   2.437   3.837  16.799  0.9406  0.6777 -0.2546
 2933SOL    HW120432   2.510   3.777  16.786  2.4218  2.6285 -1.0386
 2933SOL    HW220433   2.450   3.897  16.725  0.9101  0.3369 -0.5348
 2934SOL     OW20434   4.388   3.260   8.405  0.6546  0.1447 -0.5502
 2934SOL    HW120435   4.459   3.239   8.344 -0.6164 -0.5778 -1.7834
 2934SOL    HW220436   4.315   3.263   8.343  0.9156  3.5744 -0.6964
 2935SOL     OW20437   1.871   1.795   3.819 -0.4382  0.3082 -0.2274
 2935SOL    HW120438   1.778   1.774   3.816 -0.0049 -1.8328  1.5623
 2935SOL    HW220439   1.894   1.755   3.903 -0.7237 -0.9509 -0.7529
 2936SOL     OW20440   4.543   4.331   4.224 -0.7690  0.2104 -0.1993
 2936SOL    HW120441   4.576   4.270   4.158  1.3668 -0.6923  1.7215
 2936SOL    HW220442   4.456   4.356   4.194 -0.1574  2.4351 -0.1458
 2937SOL     OW20443   0.080   0.034   5.221 -0.0984 -0.3831 -0.6839
 2937SOL    HW120444   0.174   0.050   5.208  0.1216  0.1453  1.4759
 2937SOL    HW220445   0.070   0.047   5.315 -2.0604  3.6960 -1.4525
 2938SOL     OW20446   0.889   3.662   6.126  0.1017 -0.1387 -0.3332
 2938SOL    HW120447   0.822   3.638   6.062 -0.1067  1.8981 -0.8603
 2938SOL    HW220448   0.844   3.671   6.210  0.4904 -0.2489 -0.1149
 2939SOL     OW20449   2.870   1.501   5.439 -0.6319  0.1377  0.2865
 2939SOL    HW120450   2.815   1.430   5.472 -1.9212  1.3359  0.7303
 2939SOL    HW220451   2.814   1.547   5.375  0.8190 -0.0962 -1.1532
 2940SOL     OW20452   0.555   1.787   7.834  0.6051  0.5834 -0.4495
 2940SOL    HW120453   0.625   1.850   7.848  1.2903 -0.0847 -0.8575
 2940SOL    HW220454   0.591   1.733   7.763 -0.8685 -1.5166  0.4068
 2941SOL     OW20455   2.590   0.289  13.025 -0.0579 -0.2356  0.1325
 2941SOL    HW120456   2.633   0.247  13.099  1.5322  0.4729 -0.3712
 2941SOL    HW220457   2.656   0.356  13.005 -0.6722  0.5557  0.7782
 2942SOL     OW20458   2.575   4.075  16.949 -0.5019 -0.0469 -0.2067
 2942SOL    HW120459   2.541   4.022  17.022 -1.8222 -1.2017 -1.6439
 2942SOL    HW220460   2.522   4.036  16.878 -2.2440  0.3282  0.8844
 2943SOL     OW20461   4.387   4.609   2.274 -0.0025  0.6172  0.5718
 2943SOL    HW120462   4.396   4.552   2.198  1.5536 -1.5819  2.4055
 2943SOL    HW220463   4.414   4.549   2.343 -0.8022 -0.3004  0.0950
 2944SOL     OW20464   3.348   2.925  16.028  0.1443  0.0386 -0.2787
 2944SOL    HW120465   3.394   2.864  15.970  1.9972  0.5768  0.6231
 2944SOL    HW220466   3.397   2.918  16.110  1.6321  2.6344 -0.9342
 2945SOL     OW20467   3.529   0.566  14.366 -0.3701  1.0863  0.1905
 2945SOL    HW120468   3.621   0.594  14.356  0.5161 -1.5467  1.1043
 2945SOL    HW220469   3.530   0.543  14.458  0.2453  0.5809  0.0608
 2946SOL     OW20470   1.012   3.285   4.644  0.3859  0.1097  0.1013
 2946SOL    HW120471   1.026   3.242   4.728  0.7866  0.3348  0.1481
 2946SOL    HW220472   1.100   3.306   4.613  0.2944 -0.1964 -0.3548
 2947SOL     OW20473   0.179   0.476  11.591  0.5966 -0.4908 -0.1761
 2947SOL    HW120474   0.264   0.482  11.545  0.5291  3.0745  0.1379
 2947SOL    HW220475   0.215   0.483  11.679 -1.6146 -0.4187  0.7135
 2948SOL     OW20476   4.517   3.871   1.930  0.4224 -0.2429  0.6365
 2948SOL    HW120477   4.563   3.922   1.863 -0.2126 -0.7590 -0.1877
 2948SOL    HW220478   4.483   3.943   1.983 -0.4614 -1.1924  1.3596
 2949SOL     OW20479   0.703   3.908   3.207  0.0717 -1.1264 -0.9264
 2949SOL    HW120480   0.627   3.911   3.149  0.1855  1.2684 -0.9317
 2949SOL    HW220481   0.767   3.878   3.142  1.7032 -0.2716  0.2612
 2950SOL     OW20482   3.970   0.566   2.747 -0.3828 -0.2045 -0.0439
 2950SOL    HW120483   4.062   0.551   2.771 -0.6240  2.0030  2.2279
 2950SOL    HW220484   3.960   0.503   2.675 -2.2604 -2.4884  2.2399
 2951SOL     OW20485   1.022   3.474   2.636  0.1217  0.5707 -0.0996
 2951SOL    HW120486   1.117   3.474   2.628  0.0480 -1.8900 -0.7754
 2951SOL    HW220487   1.004   3.392   2.681 -0.3504  1.8209  1.9458
 2952SOL     OW20488   4.220   1.515   3.861  0.3679 -0.1681 -0.0197
 2952SOL    HW120489   4.235   1.446   3.926  1.6518 -0.1659 -0.2986
 2952SOL    HW220490   4.206   1.466   3.780  1.5047  1.1522 -1.0279
 2953SOL     OW20491   1.265   3.497  13.370 -0.0176  0.3946  0.4018
 2953SOL    HW120492   1.308   3.531  13.448  0.2238  1.0830 -0.0314
 2953SOL    HW220493   1.224   3.420  13.410 -0.8590  0.9084  0.5178
 2954SOL     OW20494   1.395   3.835   7.059  0.3763 -0.0492 -0.1977
 2954SOL    HW120495   1.360   3.857   6.973  0.4351 -0.1331 -0.2433
 2954SOL    HW220496   1.484   3.869   7.047 -0.3437  1.5282 -0.9645
 2955SOL     OW20497   3.254   0.151   8.127 -0.0828 -0.2483  0.6664
 2955SOL    HW120498   3.332   0.174   8.077  1.5247  0.1904  3.3769
 2955SOL    HW220499   3.251   0.221   8.192 -2.4010  2.2590 -2.1736
 2956SOL     OW20500   1.760   1.923   4.988  0.3761 -0.7904 -1.1400
 2956SOL    HW120501   1.692   1.990   4.980 -0.4763 -1.5598 -0.2100
 2956SOL    HW220502   1.777   1.924   5.083 -0.8341  1.6406 -0.9478
 2957SOL     OW20503   0.100   1.353   7.572 -0.4784  0.1577  0.5396
 2957SOL    HW120504   0.140   1.285   7.627 -1.3415 -1.9364 -1.4262
 2957SOL    HW220505   0.168   1.379   7.510 -1.7312 -0.8321 -1.2251
 2958SOL     OW20506   2.985   4.350  12.741  0.0333 -0.0144  0.0543
 2958SOL    HW120507   3.043   4.288  12.785  0.7256  1.3956  1.1487
 2958SOL    HW220508   3.041   4.427  12.731  0.3876  0.0640  2.5705
 2959SOL     OW20509   2.143   4.657  12.614 -0.2766  0.2057 -0.9016
 2959SOL    HW120510   2.069   4.702  12.654 -1.0781 -0.6184 -1.4572
 2959SOL    HW220511   2.110   4.628  12.529  2.1490 -1.7698 -1.1624
 2960SOL     OW20512   2.607   1.255   5.098  0.5319  0.3741  0.3011
 2960SOL    HW120513   2.599   1.313   5.022 -0.3163 -0.8980 -0.5729
 2960SOL    HW220514   2.596   1.168   5.060 -0.6939  1.2423 -1.3778
 2961SOL     OW20515   2.955   4.175   3.208 -0.0449  0.1359 -0.3019
 2961SOL    HW120516   2.977   4.094   3.253 -0.3114  0.7608  0.9571
 2961SOL    HW220517   2.868   4.184   3.247 -0.2565  1.3188 -1.0117
 2962SOL     OW20518   1.403   4.241   5.408 -0.1488  0.4594  0.0671
 2962SOL    HW120519   1.402   4.146   5.420 -0.5495  0.4878  0.2484
 2962SOL    HW220520   1.398   4.265   5.500 -0.8297 -0.5037  0.2746
 2963SOL     OW20521   1.625   4.082   3.842 -0.4846 -0.0529 -0.2492
 2963SOL    HW120522   1.631   4.075   3.937  1.6575  1.0412 -0.3069
 2963SOL    HW220523   1.715   4.085   3.811 -0.8058  2.8571 -0.9377
 2964SOL     OW20524   1.504   0.075   8.318  0.4407 -0.0878  0.3467
 2964SOL    HW120525   1.425   0.128   8.307  0.2529 -0.7053 -1.3263
 2964SOL    HW220526   1.533   0.119   8.397 -0.2466  0.2143  0.4294
 2965SOL     OW20527   0.551   4.044   3.451  0.7658  0.0320  0.6977
 2965SOL    HW120528   0.541   4.059   3.358  0.7158 -1.2238  0.4946
 2965SOL    HW220529   0.559   4.136   3.475 -3.6792  0.5287  0.2001
 2966SOL     OW20530   1.456   1.846   8.280 -0.3832  0.3648 -0.0403
 2966SOL    HW120531   1.368   1.882   8.270  0.2978  0.6092 -4.9300
 2966SOL    HW220532   1.496   1.894   8.207  1.3490 -1.6587 -0.4272
 2967SOL     OW20533   1.439   1.800  13.448 -0.0184 -0.2492  0.3232
 2967SOL    HW120534   1.447   1.773  13.539  2.7763 -0.5408 -0.0205
 2967SOL    HW220535   1.420   1.894  13.457  1.4014 -0.1195  1.8798
 2968SOL     OW20536   1.125   0.255   2.072  0.5280 -0.2536 -0.3507
 2968SOL    HW120537   1.214   0.235   2.102 -0.3399 -1.0530  1.7020
 2968SOL    HW220538   1.144   0.322   2.008 -0.8818  2.0240  1.6245
 2969SOL     OW20539   0.198   2.768   5.975  0.4087  0.1485  0.5638
 2969SOL    HW120540   0.288   2.793   5.996 -0.1065  1.3559  1.3453
 2969SOL    HW220541   0.218   2.749   5.884  1.7712 -0.1007  0.9083
 2970SOL     OW20542   2.037   1.443   7.905 -0.2747  0.1890  0.0737
 2970SOL    HW120543   2.107   1.485   7.855 -0.9578  1.9382  0.6002
 2970SOL    HW220544   2.085   1.361   7.917 -3.6178 -1.6412  0.7531
 2971SOL     OW20545   0.130   2.114  15.234  0.0087  0.4935 -0.0606
 2971SOL    HW120546   0.223   2.125  15.252  0.0583  0.3846 -0.2525
 2971SOL    HW220547   0.090   2.188  15.280 -1.5225 -1.4253  1.7203
 2972SOL     OW20548   1.644   3.903  15.661  0.0662 -0.1337  0.1954
 2972SOL    HW120549   1.617   3.871  15.575 -1.3446 -2.2311  1.4186
 2972SOL    HW220550   1.615   3.836  15.722  1.1748 -1.3345 -0.6137
 2973SOL     OW20551   1.388   1.273   4.000  0.4867 -0.1158  0.3488
 2973SOL    HW120552   1.313   1.226   3.963 -1.7911  2.0979  2.1912
 2973SOL    HW220553   1.415   1.219   4.074 -1.4957  0.3236  1.3855
 2974SOL     OW20554   2.090   2.836  15.859  0.1272 -0.2721 -0.4761
 2974SOL    HW120555   2.074   2.875  15.774 -1.6576  0.0718  0.0248
 2974SOL    HW220556   2.114   2.750  15.825  0.6735 -1.1541  2.0949
 2975SOL     OW20557   1.675   3.191   3.115 -0.5085 -0.3455  0.8423
 2975SOL    HW120558   1.728   3.255   3.067  0.6973 -1.2436  0.9744
 2975SOL    HW220559   1.636   3.132   3.051  0.2705 -0.4362  0.4489
 2976SOL     OW20560   2.421   2.658   6.025  0.1660 -0.0167  0.3575
 2976SOL    HW120561   2.355   2.590   6.017  0.2948 -0.0274 -0.6616
 2976SOL    HW220562   2.434   2.654   6.119 -1.0658  0.8281  0.5632
 2977SOL     OW20563   0.641   1.799   4.230  0.5263 -0.2761  0.1673
 2977SOL    HW120564   0.581   1.861   4.187  0.9730 -0.9216 -1.3830
 2977SOL    HW220565   0.594   1.717   4.215 -2.2152  1.6634 -2.0047
 2978SOL     OW20566   2.390   3.410   2.323 -0.0479 -0.6192 -0.2436
 2978SOL    HW120567   2.421   3.364   2.401  2.1904  0.7240 -0.3520
 2978SOL    HW220568   2.313   3.460   2.350  1.2642  0.8787  0.6935
 2979SOL     OW20569   2.910   3.599   2.718  0.1805  0.2299  0.2880
 2979SOL    HW120570   2.866   3.669   2.670 -0.6832  1.0686  2.3088
 2979SOL    HW220571   2.970   3.556   2.657 -0.8534 -1.1479  0.2257
 2980SOL     OW20572   0.451   0.872   2.567 -0.5269 -0.3000 -0.4938
 2980SOL    HW120573   0.452   0.801   2.502  0.1936  2.0779 -3.0814
 2980SOL    HW220574   0.503   0.830   2.635  1.1413 -1.5624 -2.5292
 2981SOL     OW20575   3.742   0.101  12.170 -0.5621 -0.0578  0.1356
 2981SOL    HW120576   3.720   0.183  12.213  2.3266  1.5543 -1.3844
 2981SOL    HW220577   3.831   0.082  12.200  0.6137  0.5002 -3.0149
 2982SOL     OW20578   4.079   1.730   2.433  0.5160  0.2612 -0.2872
 2982SOL    HW120579   4.166   1.744   2.472  1.2299 -2.0025 -1.0692
 2982SOL    HW220580   4.084   1.635   2.421  2.0368  0.2959  0.0174
 2983SOL     OW20581   0.916   3.113  13.228 -0.5700  0.5250 -0.2026
 2983SOL    HW120582   0.948   3.170  13.158 -1.1936  1.0263 -0.0752
 2983SOL    HW220583   0.987   3.049  13.225  0.8162  2.0342  0.2631
 2984SOL     OW20584   0.343   4.193  17.650 -0.3853  0.3615 -0.4209
 2984SOL    HW120585   0.334   4.235  17.565 -0.4865  2.7008  0.7452
 2984SOL    HW220586   0.356   4.099  17.634 -0.0598  0.2042  0.7326
 2985SOL     OW20587   3.741   1.376  10.280  0.5039 -0.5219 -0.0200
 2985SOL    HW120588   3.825   1.332  10.270  1.1322  0.4591  1.0292
 2985SOL    HW220589   3.697   1.310  10.333 -0.4223 -1.2476 -1.6779
 2986SOL     OW20590   2.763   3.328   6.290 -0.0470  0.2041 -0.5928
 2986SOL    HW120591   2.779   3.255   6.231  1.5418  2.2709 -2.7246
 2986SOL    HW220592   2.847   3.325   6.337 -0.3453 -1.4993 -0.1707
 2987SOL     OW20593   4.648   4.565   8.630  0.3779 -0.0691  0.8775
 2987SOL    HW120594   4.648   4.473   8.606  2.3906  0.4344 -1.0447
 2987SOL    HW220595   4.561   4.594   8.600  0.2235 -2.5152 -1.0125
 2988SOL     OW20596   2.758   2.226   8.456  0.0118  0.0136  0.2620
 2988SOL    HW120597   2.702   2.163   8.411  2.1090 -1.1280 -0.7619
 2988SOL    HW220598   2.843   2.184   8.441 -0.4388 -1.2958  1.3087
 2989SOL     OW20599   3.735   2.141   6.524  0.1137 -0.3648 -0.0232
 2989SOL    HW120600   3.734   2.190   6.442 -0.1031  0.4825  0.4827
 2989SOL    HW220601   3.699   2.056   6.500 -0.0425 -0.1542 -0.5321
 2990SOL     OW20602   4.487   2.330   5.111 -0.5599 -0.6301 -0.7639
 2990SOL    HW120603   4.535   2.367   5.185 -1.5332  0.1347 -0.5089
 2990SOL    HW220604   4.405   2.299   5.152 -0.4753  0.3619  0.1676
 2991SOL     OW20605   4.495   2.659  17.531  0.4132 -0.5106 -0.2731
 2991SOL    HW120606   4.450   2.664  17.616 -1.1568  0.5819 -1.1763
 2991SOL    HW220607   4.504   2.565  17.512 -1.6893 -0.5400 -1.0955
 2992SOL     OW20608   0.200   4.369   4.678  0.4239 -0.4704 -0.0088
 2992SOL    HW120609   0.129   4.430   4.698  1.7962  0.8368  0.9317
 2992SOL    HW220610   0.221   4.359   4.771  1.2066  1.1451 -0.0015
 2993SOL     OW20611   2.151   3.196   7.532  0.1500 -0.9178  0.0076
 2993SOL    HW120612   2.109   3.167   7.612 -2.3996 -1.7412 -1.6480
 2993SOL    HW220613   2.087   3.158   7.472 -0.1523  0.5501 -0.6018
 2994SOL     OW20614   1.716   0.744   2.263 -0.6917  0.2032 -0.1844
 2994SOL    HW120615   1.737   0.654   2.237 -3.2530 -1.4473  3.6304
 2994SOL    HW220616   1.772   0.744   2.340 -1.3024  2.3406  0.2549
 2995SOL     OW20617   0.381   1.142   2.183  0.5608 -0.0471 -0.3018
 2995SOL    HW120618   0.469   1.103   2.176  0.9391  0.6909  0.4283
 2995SOL    HW220619   0.348   1.058   2.214  1.7265 -1.1371 -2.0034
 2996SOL     OW20620   2.232   2.854  16.083  0.2974 -0.2378 -0.3233
 2996SOL    HW120621   2.165   2.860  16.014  0.4504  0.5994 -0.4044
 2996SOL    HW220622   2.255   2.763  16.065 -2.4359 -1.3869  1.9319
 2997SOL     OW20623   0.727   2.338   7.506  0.0993 -0.1933  1.1137
 2997SOL    HW120624   0.672   2.364   7.432 -0.6667  0.4206  1.8815
 2997SOL    HW220625   0.728   2.243   7.499 -0.3279 -0.1577  0.5485
 2998SOL     OW20626   2.680   0.085   3.805  0.0330  0.1453  0.2822
 2998SOL    HW120627   2.771   0.064   3.788  0.3422  0.1771  1.9422
 2998SOL    HW220628   2.671   0.158   3.744  1.4074  0.1872  0.1479
 2999SOL     OW20629   1.232   4.616   4.527 -0.0087 -0.5574 -0.0992
 2999SOL    HW120630   1.185   4.585   4.604 -0.2739 -0.9621 -0.4216
 2999SOL    HW220631   1.322   4.607   4.559  0.4216  1.0662 -0.8314
 3000SOL     OW20632   3.998   2.939   9.293 -0.0692  0.0289 -0.1625
 3000SOL    HW120633   3.947   3.014   9.263 -0.7365 -0.3469  0.0122
 3000SOL    HW220634   3.970   2.936   9.385  2.4022  1.4639  0.6046
 3001SOL     OW20635   0.176   0.920  16.302  0.0689 -0.3146 -0.0867
 3001SOL    HW120636   0.149   0.859  16.371 -0.0872  0.4508  0.5374
 3001SOL    HW220637   0.115   0.993  16.319 -2.2260 -1.9090 -1.5645
 3002SOL     OW20638   1.548   3.200   2.244  0.1534  0.1444  0.2278
 3002SOL    HW120639   1.516   3.193   2.334 -0.6489  0.0463 -0.0702
 3002SOL    HW220640   1.556   3.295   2.232  0.2489 -0.5625 -5.1178
 3003SOL     OW20641   0.869   3.133  14.945  0.0533 -0.1152 -0.5245
 3003SOL    HW120642   0.834   3.170  15.026 -0.0400  1.1035 -1.1251
 3003SOL    HW220643   0.859   3.038  14.954 -2.2382  0.1777 -0.0278
 3004SOL     OW20644   1.281   0.436  15.200  0.0061 -0.3401  0.3959
 3004SOL    HW120645   1.240   0.351  15.180 -0.9777  0.2481 -0.0689
 3004SOL    HW220646   1.240   0.477  15.124  0.7878 -0.0324  0.1467
 3005SOL     OW20647   2.520   4.170   6.144  0.1268  0.2749  0.4699
 3005SOL    HW120648   2.425   4.179   6.146 -0.0440 -0.3507 -4.4831
 3005SOL    HW220649   2.556   4.255   6.117 -1.7636  0.4421 -1.4585
 3006SOL     OW20650   1.961   3.100   0.854  0.1991  0.4055  0.2923
 3006SOL    HW120651   2.030   3.159   0.883  1.1714 -0.9675  0.7635
 3006SOL    HW220652   1.906   3.094   0.933  0.7833 -0.0357  0.6644
 3007SOL     OW20653   3.882   4.517   5.023  0.4279  0.2297 -0.0817
 3007SOL    HW120654   3.905   4.556   4.939 -1.0274 -2.4644 -1.7238
 3007SOL    HW220655   3.941   4.441   5.016  0.4737  0.3852 -1.4576
 3008SOL     OW20656   3.008   0.148   2.963 -0.4125 -0.5970  0.6185
 3008SOL    HW120657   3.005   0.134   2.869 -1.5665 -1.7497  0.8173
 3008SOL    HW220658   3.065   0.073   2.984 -0.8804 -0.9516  0.6353
 3009SOL     OW20659   3.434   2.091   0.828  0.6927  0.1715 -0.0034
 3009SOL    HW120660   3.408   2.011   0.874 -1.3848  2.1157  2.1916
 3009SOL    HW220661   3.371   2.092   0.755  1.5148 -0.4674 -0.7117
 3010SOL     OW20662   0.222   1.146  10.235  0.9676  0.2178 -0.3022
 3010SOL    HW120663   0.263   1.213  10.290  0.9940 -0.1950  0.1741
 3010SOL    HW220664   0.136   1.158  10.275  1.3776  1.1040  0.3260
 3011SOL     OW20665   3.003   3.563   8.338 -0.2761 -0.1946 -0.2676
 3011SOL    HW120666   2.984   3.469   8.334 -1.1218  0.0347 -1.5621
 3011SOL    HW220667   2.938   3.600   8.279  0.8937  1.1916 -0.6632
 3012SOL     OW20668   1.836   1.424   7.249 -0.3975 -0.0367 -0.2507
 3012SOL    HW120669   1.902   1.365   7.286 -0.2972 -0.0498 -0.4561
 3012SOL    HW220670   1.891   1.469   7.186  0.8315 -2.7708 -1.1261
 3013SOL     OW20671   1.800   4.171  13.575  0.3052 -0.2374  0.3503
 3013SOL    HW120672   1.802   4.079  13.603  0.7503 -0.0255  0.9822
 3013SOL    HW220673   1.716   4.202  13.609 -0.7859 -1.5897 -1.0663
 3014SOL     OW20674   0.268   2.806  14.937  0.6875  0.3835  0.8625
 3014SOL    HW120675   0.332   2.753  14.986 -2.1950 -2.5808  1.4450
 3014SOL    HW220676   0.304   2.846  14.858 -0.0636 -0.7716 -0.0761
 3015SOL     OW20677   2.420   2.301   4.230 -0.1953 -0.2536 -0.2805
 3015SOL    HW120678   2.410   2.206   4.223  1.1243 -0.2141 -2.9357
 3015SOL    HW220679   2.348   2.327   4.287 -0.3193 -0.7234 -0.2230
 3016SOL     OW20680   3.194   4.064   5.174  0.0481  0.2102  0.0591
 3016SOL    HW120681   3.260   3.994   5.169 -1.4415 -1.1834  0.1717
 3016SOL    HW220682   3.252   4.140   5.164 -1.2260  1.0244 -1.0878
 3017SOL     OW20683   2.827   3.999   4.435 -0.6822 -0.3199  0.6426
 3017SOL    HW120684   2.768   3.974   4.506 -0.7583 -0.1056  0.6537
 3017SOL    HW220685   2.894   3.933   4.454 -1.4570 -1.6544 -1.1972
 3018SOL     OW20686   2.344   1.953   7.482 -0.0867  0.3756 -0.0196
 3018SOL    HW120687   2.406   2.025   7.495 -0.5483  0.2713  2.7850
 3018SOL    HW220688   2.296   1.948   7.565 -1.8236 -0.5280 -1.0908
 3019SOL     OW20689   1.816   0.955   3.502 -0.2515 -0.1180 -0.3117
 3019SOL    HW120690   1.788   1.037   3.542 -1.8406 -0.1028 -1.4722
 3019SOL    HW220691   1.787   0.886   3.562 -0.9195 -0.8173 -1.4415
 3020SOL     OW20692   3.801   1.829   8.169  0.1027  0.2145  0.2178
 3020SOL    HW120693   3.879   1.775   8.183 -1.2441 -1.8448 -0.2006
 3020SOL    HW220694   3.835   1.885   8.099  0.8951 -1.2452 -0.5780
 3021SOL     OW20695   4.696   0.993   5.755 -0.3163 -0.5481 -0.1386
 3021SOL    HW120696   4.730   1.073   5.795 -0.8371 -0.6273  0.4770
 3021SOL    HW220697   4.645   1.028   5.683 -1.0634 -0.3769  0.4678
 3022SOL     OW20698   0.875   4.241   1.844 -0.1091 -0.0580  0.3842
 3022SOL    HW120699   0.841   4.157   1.877  1.9484 -0.6994  0.8703
 3022SOL    HW220700   0.826   4.304   1.897  1.6649  1.9085 -0.3256
 3023SOL     OW20701   1.233   1.381  12.000 -0.0828 -0.0064  0.4413
 3023SOL    HW120702   1.247   1.475  12.014  1.8778 -0.3965  1.0406
 3023SOL    HW220703   1.267   1.374  11.911 -0.3633 -0.0260  0.3358
 3024SOL     OW20704   1.618   2.680  15.289  0.4153 -0.1191  0.3541
 3024SOL    HW120705   1.709   2.676  15.258 -0.5020 -1.3832 -2.1955
 3024SOL    HW220706   1.600   2.764  15.247 -0.8895 -0.3725  0.4136
 3025SOL     OW20707   1.585   2.381   0.185  0.2880 -0.6310 -0.5546
 3025SOL    HW120708   1.560   2.467   0.221 -0.1752 -1.0224  0.0668
 3025SOL    HW220709   1.580   2.326   0.263  0.7850 -1.6742 -1.2594
 3026SOL     OW20710   0.365   2.138   5.698 -0.7130 -0.0244 -0.1481
 3026SOL    HW120711   0.422   2.166   5.626 -0.4055 -1.1080 -0.3184
 3026SOL    HW220712   0.408   2.060   5.732 -2.7400 -1.1202 -0.0920
 3027SOL     OW20713   2.960   3.520   7.574  0.7181 -0.7603 -0.0242
 3027SOL    HW120714   2.935   3.567   7.494  1.0564  1.4651  1.1592
 3027SOL    HW220715   3.043   3.561   7.600  1.5602 -2.6775  0.2860
 3028SOL     OW20716   1.089   1.067   9.633 -0.2417  0.0186 -0.5826
 3028SOL    HW120717   1.042   1.048   9.551  0.2486  0.5538 -0.9846
 3028SOL    HW220718   1.133   1.148   9.607  0.5405  0.4317  2.0889
 3029SOL     OW20719   1.230   0.879   5.444  0.0033 -0.7814 -0.0276
 3029SOL    HW120720   1.251   0.881   5.351 -0.9061 -0.6466 -0.2291
 3029SOL    HW220721   1.270   0.955   5.486 -2.6319  0.6854 -0.1819
 3030SOL     OW20722   4.595   3.915   7.366 -0.6502 -0.0330  0.1524
 3030SOL    HW120723   4.523   3.854   7.384 -0.7681  0.4311  1.2687
 3030SOL    HW220724   4.653   3.855   7.319 -0.0650  1.0299 -0.4748
 3031SOL     OW20725   0.095   4.636   8.887 -0.0264 -0.2264  0.4479
 3031SOL    HW120726   0.170   4.695   8.880 -0.9004  0.4730 -2.8097
 3031SOL    HW220727   0.128   4.553   8.855  0.9297  0.6563 -0.8436
 3032SOL     OW20728   3.964   1.707  17.747  0.3201  0.6196  0.1475
 3032SOL    HW120729   3.882   1.731  17.705  2.0673  2.4444 -2.2271
 3032SOL    HW220730   3.974   1.613  17.732 -0.2035  0.4610  0.8061
 3033SOL     OW20731   0.216   3.440  15.388  0.3028 -0.1049  0.0250
 3033SOL    HW120732   0.236   3.471  15.300 -0.3971  1.4083  0.3868
 3033SOL    HW220733   0.275   3.365  15.388 -0.8338 -0.9993 -1.6202
 3034SOL     OW20734   3.065   4.324  13.930  0.1316  0.4729  0.0008
 3034SOL    HW120735   3.050   4.237  13.892 -1.4142  0.9433 -0.4800
 3034SOL    HW220736   2.982   4.334  13.976  0.7455  1.3882  0.9127
 3035SOL     OW20737   4.309   3.447   3.359 -0.8216 -1.0227 -0.6310
 3035SOL    HW120738   4.356   3.491   3.289 -1.0473  0.6789  0.2775
 3035SOL    HW220739   4.267   3.382   3.303 -2.4889  1.0617 -1.7907
 3036SOL     OW20740   1.446   2.925   0.896 -0.4585 -0.1539  0.4854
 3036SOL    HW120741   1.431   3.020   0.897  1.0577  0.0829  1.0718
 3036SOL    HW220742   1.433   2.902   0.988 -1.0515  0.6338  0.5975
 3037SOL     OW20743   3.654   3.545   7.527  0.4728  0.1967  0.3377
 3037SOL    HW120744   3.717   3.550   7.599 -0.0432 -0.0423  0.8155
 3037SOL    HW220745   3.691   3.610   7.467 -0.6348 -2.1970 -2.9261
 3038SOL     OW20746   3.107   0.184   3.401  0.4104  0.3191 -0.8446
 3038SOL    HW120747   3.124   0.117   3.335 -0.1928  0.2540 -0.9402
 3038SOL    HW220748   3.105   0.132   3.482  0.2217  0.6183 -0.6575
 3039SOL     OW20749   2.483   3.718   1.433  0.0185  0.4229  0.1393
 3039SOL    HW120750   2.393   3.711   1.401  0.2189 -1.7037  0.0399
 3039SOL    HW220751   2.474   3.761   1.518  0.0872  0.9406 -0.1183
 3040SOL     OW20752   3.742   0.146  13.180  0.2147 -0.2681  0.3133
 3040SOL    HW120753   3.835   0.170  13.182  0.3991 -1.0148  0.5916
 3040SOL    HW220754   3.702   0.224  13.142  1.1677  0.4712  0.8310
 3041SOL     OW20755   0.113   1.016   2.363 -0.1753  0.5342 -0.0070
 3041SOL    HW120756   0.044   1.049   2.304  0.3288 -0.0986 -0.9443
 3041SOL    HW220757   0.096   1.060   2.446 -2.1997 -0.7411  0.2731
 3042SOL     OW20758   0.276   1.751  14.906 -0.1186  0.0876  0.5006
 3042SOL    HW120759   0.364   1.751  14.871 -0.3976 -1.8075 -0.2374
 3042SOL    HW220760   0.236   1.681  14.855 -1.3566  1.4247 -0.3557
 3043SOL     OW20761   4.173   4.560   5.505 -0.1099 -0.1541  0.0451
 3043SOL    HW120762   4.174   4.505   5.426  1.0050 -0.4230  0.2382
 3043SOL    HW220763   4.107   4.625   5.481 -0.3674 -0.6112 -0.4888
 3044SOL     OW20764   1.460   0.318   6.113  0.0144 -0.6007  0.2407
 3044SOL    HW120765   1.397   0.248   6.130  0.1890 -1.5503 -3.0721
 3044SOL    HW220766   1.406   0.391   6.142 -0.5979 -1.3150  0.9292
 3045SOL     OW20767   4.331   0.446   7.907 -0.5109  0.5190 -0.1227
 3045SOL    HW120768   4.269   0.515   7.930 -0.1586  1.1040 -0.9505
 3045SOL    HW220769   4.270   0.397   7.852  0.1932 -0.4279 -0.0733
 3046SOL     OW20770   2.661   2.366  17.526  0.1076  0.3371  0.1090
 3046SOL    HW120771   2.665   2.296  17.461  3.9046  3.0872 -2.6186
 3046SOL    HW220772   2.673   2.303  17.597  2.8455  2.4028  1.4909
 3047SOL     OW20773   2.095   2.686   6.425 -0.7383 -0.2353  0.9470
 3047SOL    HW120774   2.028   2.620   6.439 -0.9438 -0.5588 -1.6203
 3047SOL    HW220775   2.050   2.759   6.467 -2.2043 -1.1768  0.9847
 3048SOL     OW20776   3.208   1.356   6.779  0.1763  0.1230  0.6286
 3048SOL    HW120777   3.226   1.446   6.751 -0.1816  1.3184  4.2191
 3048SOL    HW220778   3.117   1.350   6.748  0.1102 -0.6921  0.9770
 3049SOL     OW20779   2.645   2.040  13.148 -0.5628  0.1263 -0.0287
 3049SOL    HW120780   2.580   1.980  13.185  1.6946 -2.5195 -0.2688
 3049SOL    HW220781   2.681   2.083  13.226 -2.5062  1.3714  0.1806
 3050SOL     OW20782   2.153   2.019  10.780  0.2248  0.2409 -0.1742
 3050SOL    HW120783   2.204   1.945  10.815  1.0410  1.1400  0.5413
 3050SOL    HW220784   2.130   2.073  10.856  1.5150  0.5031  0.0414
 3051SOL     OW20785   0.367   4.291   8.111 -0.3269  0.1531  0.2928
 3051SOL    HW120786   0.279   4.298   8.075  0.6530  1.3623 -1.8755
 3051SOL    HW220787   0.350   4.328   8.198  1.3166  1.8642 -0.1036
 3052SOL     OW20788   4.400   2.711   6.856  0.5721 -0.0255  0.6104
 3052SOL    HW120789   4.490   2.710   6.890  1.0335 -1.2093 -0.6397
 3052SOL    HW220790   4.353   2.777   6.907  0.1978  0.9952 -1.0845
 3053SOL     OW20791   2.186   2.316   6.639 -0.4639  0.5733 -0.2517
 3053SOL    HW120792   2.163   2.403   6.672 -1.8813  0.8072 -1.8437
 3053SOL    HW220793   2.160   2.322   6.547 -0.4397 -0.5951 -0.3295
 3054SOL     OW20794   3.428   4.703  10.469 -0.2147  0.2189 -0.0970
 3054SOL    HW120795   3.492   0.026  10.437 -0.7289 -0.3381 -2.2150
 3054SOL    HW220796   3.360   0.024  10.494  0.9998  2.1209 -1.4672
 3055SOL     OW20797   3.027   2.087  15.429  0.3973 -0.6879 -0.0464
 3055SOL    HW120798   2.983   2.097  15.514 -0.5630  0.6441 -0.7029
 3055SOL    HW220799   3.056   1.996  15.432 -1.9175 -1.3350  2.6037
 3056SOL     OW20800   4.047   4.401   1.844 -0.7231  0.1032  0.3228
 3056SOL    HW120801   3.989   4.472   1.870  0.6013  1.1884  0.3358
 3056SOL    HW220802   4.132   4.430   1.876  0.4934 -0.7882 -2.0753
 3057SOL     OW20803   1.534   1.981  10.530 -0.2207 -0.5147  0.2092
 3057SOL    HW120804   1.477   2.036  10.475  1.8906  0.0255 -1.4213
 3057SOL    HW220805   1.605   1.959  10.470 -0.0360  0.6110  0.0137
 3058SOL     OW20806   0.373   2.423   8.457 -0.6456  0.2321  0.1895
 3058SOL    HW120807   0.466   2.398   8.452 -0.1056  2.0062  1.3885
 3058SOL    HW220808   0.370   2.490   8.388 -2.5456  0.4747  0.5123
 3059SOL     OW20809   2.276   0.616  12.620  0.4992 -0.8340 -0.0275
 3059SOL    HW120810   2.302   0.573  12.701  0.5910 -0.8751 -0.0790
 3059SOL    HW220811   2.353   0.594  12.567 -0.2315 -1.9270 -0.6412
 3060SOL     OW20812   2.077   0.036   9.340  0.4977 -0.2111  0.1155
 3060SOL    HW120813   2.145   0.095   9.373 -0.6756  1.0421  0.2881
 3060SOL    HW220814   2.003   0.052   9.399  2.4682  1.0654  2.2557
 3061SOL     OW20815   1.942   2.197   6.736  0.5134  0.2181  0.0191
 3061SOL    HW120816   1.952   2.110   6.775 -0.9293 -0.5221 -1.2646
 3061SOL    HW220817   2.032   2.204   6.706  0.0189 -0.8196 -1.6829
 3062SOL     OW20818   3.100   1.043   1.982  0.3573  0.3143  0.1983
 3062SOL    HW120819   3.114   1.084   2.067 -0.4870  0.1888  0.4056
 3062SOL    HW220820   3.004   1.037   1.981  0.4691 -1.7977  2.3930
 3063SOL     OW20821   1.944   1.340   2.076 -0.4342 -0.3022  0.6580
 3063SOL    HW120822   1.868   1.282   2.084 -0.6901 -0.0015  0.3941
 3063SOL    HW220823   1.998   1.295   2.142  0.5657  1.2777  0.8962
 3064SOL     OW20824   3.381   3.719  10.680  0.1375  0.1413  0.3679
 3064SOL    HW120825   3.475   3.702  10.687  0.0948 -1.1601 -2.4356
 3064SOL    HW220826   3.352   3.650  10.739 -1.7901  0.9689  0.3734
 3065SOL     OW20827   1.702   1.080   2.605 -0.1910 -0.6191 -0.0691
 3065SOL    HW120828   1.777   1.138   2.617 -0.0514 -1.0674  1.3270
 3065SOL    HW220829   1.742   0.995   2.626  2.2184  0.5869  0.2645
 3066SOL     OW20830   1.524   4.585  14.527 -0.2430  0.2111 -0.0406
 3066SOL    HW120831   1.488   4.581  14.616  1.7757  0.6831  0.7950
 3066SOL    HW220832   1.469   4.642  14.474 -0.6861 -0.4232 -0.2684
 3067SOL     OW20833   3.125   3.769   3.052 -0.0770  0.4575  0.0449
 3067SOL    HW120834   3.065   3.789   3.124 -0.7945  1.0052 -0.7012
 3067SOL    HW220835   3.092   3.686   3.016 -0.1378  0.5393 -0.0864
 3068SOL     OW20836   2.108   4.530  13.597 -0.6972 -0.1364 -0.1471
 3068SOL    HW120837   2.052   4.559  13.669 -1.9032 -2.3198 -0.2062
 3068SOL    HW220838   2.124   4.441  13.630  0.7927 -0.0031 -0.5149
 3069SOL     OW20839   3.781   0.698   6.641  0.1516 -0.1359  0.5934
 3069SOL    HW120840   3.826   0.673   6.722  1.2481  1.1122  0.3804
 3069SOL    HW220841   3.689   0.676   6.656  0.5565 -2.3799 -0.3664
 3070SOL     OW20842   4.671   4.336   3.726  0.5990 -0.4404  0.2955
 3070SOL    HW120843   4.684   4.388   3.806  0.5893 -0.7311  0.4858
 3070SOL    HW220844   4.654   4.398   3.656  1.0805 -0.3171  0.2844
 3071SOL     OW20845   1.613   4.084   6.186  0.3527 -0.3342  0.3122
 3071SOL    HW120846   1.565   4.147   6.240  2.3948 -0.7232  2.5734
 3071SOL    HW220847   1.703   4.113   6.198  0.7886 -0.8221 -1.9372
 3072SOL     OW20848   1.079   1.586   3.900  0.3534 -0.0938  0.2036
 3072SOL    HW120849   1.085   1.525   3.827  1.4030 -0.0286  0.2416
 3072SOL    HW220850   1.014   1.651   3.872 -0.3522 -2.2673 -3.2012
 3073SOL     OW20851   4.242   4.693   1.047  0.3305  0.1087 -0.1150
 3073SOL    HW120852   4.290   0.016   1.100 -0.3530 -0.5480  1.2898
 3073SOL    HW220853   4.311   4.627   1.052  0.1669 -0.1491 -1.1597
 3074SOL     OW20854   2.347   4.499   5.927 -0.0520  0.1892 -0.1866
 3074SOL    HW120855   2.421   4.476   5.983  0.1075  1.1047 -0.0247
 3074SOL    HW220856   2.287   4.539   5.990  0.4115  1.0280 -0.2737
 3075SOL     OW20857   3.543   1.858   6.838  0.1651  0.3032  1.1064
 3075SOL    HW120858   3.496   1.783   6.875  0.2038 -0.2900 -0.0283
 3075SOL    HW220859   3.478   1.926   6.853 -0.5427 -0.8273  3.1206
 3076SOL     OW20860   2.067   2.748   6.153 -0.4000 -0.3131 -0.0024
 3076SOL    HW120861   2.119   2.749   6.234 -0.6869 -3.3133  0.2243
 3076SOL    HW220862   2.006   2.677   6.173 -1.9625  1.1477  0.4457
 3077SOL     OW20863   1.570   2.521   7.586 -0.0976  0.1242 -0.2075
 3077SOL    HW120864   1.608   2.542   7.501  0.9755  0.4446  0.3539
 3077SOL    HW220865   1.654   2.520   7.633  0.3021  1.7103 -0.8948
 3078SOL     OW20866   3.171   1.552  11.339  0.6155 -0.2947 -0.0788
 3078SOL    HW120867   3.135   1.628  11.386 -1.8502 -1.2620 -0.3955
 3078SOL    HW220868   3.118   1.547  11.260 -1.6487  1.6555  1.2908
 3079SOL     OW20869   1.579   3.803   6.236 -0.1436  0.0885  0.2040
 3079SOL    HW120870   1.573   3.877   6.177 -3.8499 -0.4362 -0.0926
 3079SOL    HW220871   1.602   3.835   6.324  1.5979 -0.7148  0.0394
 3080SOL     OW20872   2.455   2.132   8.550  0.0373 -0.4497 -0.7069
 3080SOL    HW120873   2.482   2.146   8.459  0.2338  0.8168 -0.4468
 3080SOL    HW220874   2.415   2.216   8.574  1.4183 -0.1929  0.6570
 3081SOL     OW20875   3.142   3.442   4.195 -0.0580 -0.0964 -0.3365
 3081SOL    HW120876   3.091   3.522   4.210 -0.2661  0.1543 -2.3407
 3081SOL    HW220877   3.182   3.436   4.282 -1.9487  0.4592  0.5600
 3082SOL     OW20878   1.786   2.457   3.888 -0.0953 -0.0903 -0.8628
 3082SOL    HW120879   1.773   2.465   3.793  0.7182  2.6786 -0.7462
 3082SOL    HW220880   1.881   2.443   3.890  0.1892  1.4693 -3.4128
 3083SOL     OW20881   2.873   3.073  10.762 -0.0749 -0.1844  0.1904
 3083SOL    HW120882   2.803   3.114  10.712  1.8638  3.2813  0.3857
 3083SOL    HW220883   2.873   2.990  10.714  0.5819  0.6399 -1.2260
 3084SOL     OW20884   3.658   1.508   5.796  0.0713 -0.0085  0.1699
 3084SOL    HW120885   3.623   1.595   5.782 -0.8045 -0.9238 -3.3229
 3084SOL    HW220886   3.697   1.519   5.882 -0.1482  0.0072  0.2657
 3085SOL     OW20887   2.528   2.141   7.551 -0.2044  0.3098  0.3530
 3085SOL    HW120888   2.593   2.201   7.515 -1.0014 -0.0604 -1.6975
 3085SOL    HW220889   2.580   2.078   7.601  0.5616  1.4289  0.9621
 3086SOL     OW20890   0.132   0.885   1.641 -0.2665  0.4972  0.5680
 3086SOL    HW120891   0.087   0.818   1.589 -0.8714  0.5322  1.0439
 3086SOL    HW220892   0.225   0.867   1.624 -0.1304  0.4807  1.3281
 3087SOL     OW20893   1.036   3.076   1.831 -0.7864 -0.1633 -0.3732
 3087SOL    HW120894   1.121   3.033   1.845  0.3838  2.8739  1.7065
 3087SOL    HW220895   0.968   3.009   1.835 -1.3263  0.1383 -3.9501
 3088SOL     OW20896   2.220   2.393   4.836 -0.6977 -0.3568  0.3839
 3088SOL    HW120897   2.135   2.363   4.806 -0.3961  1.2224 -2.0785
 3088SOL    HW220898   2.212   2.375   4.929  1.7347 -1.2378  0.4309
 3089SOL     OW20899   2.353   3.750   8.137 -1.2771 -0.7373 -0.0529
 3089SOL    HW120900   2.278   3.707   8.097 -1.3557 -0.9603  0.3297
 3089SOL    HW220901   2.314   3.822   8.188 -2.7786 -1.5981  0.0121
 3090SOL     OW20902   0.218   0.985   6.779 -0.0133  0.1439 -0.0834
 3090SOL    HW120903   0.213   0.974   6.874 -0.3265 -1.4663 -0.2836
 3090SOL    HW220904   0.304   0.945   6.766 -0.4728 -0.4702 -1.2597
 3091SOL     OW20905   3.843   3.539   9.134 -0.0013  0.0034  0.0562
 3091SOL    HW120906   3.936   3.555   9.119  0.8009 -2.5126  2.3457
 3091SOL    HW220907   3.824   3.581   9.218 -0.7854 -0.9932  0.3810
 3092SOL     OW20908   4.510   3.278   3.465 -0.0926  0.2307 -0.0701
 3092SOL    HW120909   4.477   3.367   3.470 -1.5614 -0.2594 -0.8554
 3092SOL    HW220910   4.545   3.255   3.551  0.1598 -1.2672 -0.5720
 3093SOL     OW20911   4.604   2.809  11.182 -0.6082  0.2992 -0.8479
 3093SOL    HW120912   4.581   2.783  11.271  1.8227 -0.3882 -0.4192
 3093SOL    HW220913   4.518   2.829  11.147 -1.0970  1.9188  1.2676
 3094SOL     OW20914   0.388   2.172   7.682  0.1577  0.4684 -0.0972
 3094SOL    HW120915   0.349   2.105   7.739  1.4508 -0.8439 -0.7451
 3094SOL    HW220916   0.473   2.181   7.725  0.4699  3.6828 -1.3854
 3095SOL     OW20917   0.142   3.472  11.566 -0.2810  0.1585 -0.0561
 3095SOL    HW120918   0.141   3.395  11.623  1.0078  0.2964  0.1572
 3095SOL    HW220919   0.173   3.436  11.483 -1.8542 -1.6757  0.1521
 3096SOL     OW20920   3.229   1.710   9.062  0.9308 -0.0472  0.0719
 3096SOL    HW120921   3.253   1.769   9.132  0.6060  0.3207 -0.1288
 3096SOL    HW220922   3.293   1.643   9.088 -0.7150 -1.8533 -0.4799
 3097SOL     OW20923   4.390   0.142   7.541  0.5446 -0.1931 -0.3011
 3097SOL    HW120924   4.444   0.111   7.614  0.5897 -0.0989 -0.2934
 3097SOL    HW220925   4.433   0.227   7.525  0.5120 -0.2738 -0.8247
 3098SOL     OW20926   2.858   1.624   8.267  0.0641  0.4130  0.2959
 3098SOL    HW120927   2.851   1.648   8.360 -1.7583 -1.7627  0.7164
 3098SOL    HW220928   2.825   1.703   8.226 -0.3855 -0.5089 -1.1037
 3099SOL     OW20929   3.738   3.460  12.249 -0.0199 -0.1498 -0.2146
 3099SOL    HW120930   3.727   3.366  12.260  0.3061 -0.2288 -0.5552
 3099SOL    HW220931   3.833   3.471  12.263 -0.2448 -0.5985  1.6570
 3100SOL     OW20932   2.071   0.216   3.979 -0.1825  0.0252 -0.0349
 3100SOL    HW120933   1.989   0.264   3.994 -1.3721 -2.0555  0.0901
 3100SOL    HW220934   2.133   0.276   4.021  0.0132 -0.4028  0.2758
 3101SOL     OW20935   2.352   2.557   6.461 -0.0735  0.2646  0.1253
 3101SOL    HW120936   2.355   2.585   6.553  0.6377  0.0276  0.1681
 3101SOL    HW220937   2.258   2.559   6.443  0.1349  0.3226 -0.9374
 3102SOL     OW20938   1.081   3.043   8.064 -0.4484  0.6665 -0.5724
 3102SOL    HW120939   1.076   2.972   8.000 -0.8087  0.6862 -0.5664
 3102SOL    HW220940   1.085   3.113   7.999 -0.7144  0.0716 -1.2320
 3103SOL     OW20941   1.451   0.111   5.573  0.0007 -0.1847  0.1049
 3103SOL    HW120942   1.376   0.128   5.516  0.5399 -0.1097 -0.5857
 3103SOL    HW220943   1.475   0.200   5.597 -0.4742  0.5266 -2.0723
 3104SOL     OW20944   2.859   0.444   1.787 -0.5219  0.0835  0.4102
 3104SOL    HW120945   2.770   0.437   1.752  0.3558 -2.1934 -1.3203
 3104SOL    HW220946   2.888   0.500   1.715  0.6998 -0.6245  0.3642
 3105SOL     OW20947   4.121   0.012   7.091  0.2420 -0.7844 -0.1281
 3105SOL    HW120948   4.056   0.040   7.027 -2.0917 -1.8362  1.7787
 3105SOL    HW220949   4.172   0.093   7.087 -0.4062 -0.3494  0.4279
 3106SOL     OW20950   1.202   2.269   8.843 -0.4257  0.2483  0.0223
 3106SOL    HW120951   1.141   2.267   8.917 -0.3505 -3.1769 -0.0409
 3106SOL    HW220952   1.191   2.357   8.806  2.0326  0.4405 -0.3041
 3107SOL     OW20953   2.684   3.102  14.013  0.0326 -0.0298 -0.6919
 3107SOL    HW120954   2.663   3.137  14.100 -2.1409 -1.4982 -0.6291
 3107SOL    HW220955   2.779   3.101  14.003  0.1713  0.4347  0.5660
 3108SOL     OW20956   1.488   3.832   5.931  0.9183 -0.3944  0.4286
 3108SOL    HW120957   1.566   3.779   5.948 -1.0848 -2.9605  1.5983
 3108SOL    HW220958   1.465   3.799   5.844  1.9583  0.1614 -0.0539
 3109SOL     OW20959   0.678   3.980   5.002 -0.0795  0.0731 -0.6713
 3109SOL    HW120960   0.700   3.901   5.050  0.0641 -0.6027 -1.8598
 3109SOL    HW220961   0.603   3.949   4.950  0.0769  0.1484 -0.9419
 3110SOL     OW20962   4.244   3.566   6.659  0.2944  0.2184  0.2549
 3110SOL    HW120963   4.189   3.538   6.732  2.1622  0.0868  1.6270
 3110SOL    HW220964   4.184   3.612   6.601  0.1266  0.4416  0.6122
 3111SOL     OW20965   4.428   2.013   1.951  0.1397 -0.0886  0.4107
 3111SOL    HW120966   4.498   1.976   2.005 -0.1673 -1.0075  0.1835
 3111SOL    HW220967   4.427   1.954   1.875 -1.2793  0.2562  0.1486
 3112SOL     OW20968   2.428   4.588   1.925 -0.4154 -0.4221 -0.3816
 3112SOL    HW120969   2.350   4.552   1.882 -1.9152  3.4310 -0.9268
 3112SOL    HW220970   2.405   4.555   2.012  2.9745  2.8281  1.7275
 3113SOL     OW20971   2.476   2.214   3.619  0.0973  0.1730  0.2710
 3113SOL    HW120972   2.540   2.148   3.647 -1.8901 -1.4747  0.9862
 3113SOL    HW220973   2.514   2.268   3.551  1.1518 -0.2923  0.4971
 3114SOL     OW20974   0.738   3.161   2.638 -0.0425 -0.0568 -0.1830
 3114SOL    HW120975   0.684   3.230   2.599  2.0843  1.7215  0.0294
 3114SOL    HW220976   0.693   3.089   2.593 -1.4560  0.8133 -0.1272
 3115SOL     OW20977   3.925   4.686   6.250 -0.1540 -0.1307  0.3219
 3115SOL    HW120978   3.873   0.024   6.234  0.5851 -0.3649 -3.1938
 3115SOL    HW220979   4.005   4.703   6.200  0.4587  0.7817  1.5976
 3116SOL     OW20980   1.028   3.645   1.787 -0.5684  0.0011  0.3945
 3116SOL    HW120981   0.949   3.674   1.833 -1.4228 -0.5311 -0.7283
 3116SOL    HW220982   1.002   3.593   1.711 -3.0520 -1.1674  2.0339
 3117SOL     OW20983   0.864   3.561   2.407 -0.0799 -0.0658 -0.5587
 3117SOL    HW120984   0.850   3.467   2.422  1.8815 -0.2686 -0.0178
 3117SOL    HW220985   0.919   3.574   2.484 -2.1639 -0.9325  1.0592
 3118SOL     OW20986   0.324   0.744   3.179  0.3652 -0.1538 -0.0145
 3118SOL    HW120987   0.362   0.713   3.098  0.8689  2.5548 -0.8226
 3118SOL    HW220988   0.384   0.819   3.183  0.0093  0.1451 -0.3064
 3119SOL     OW20989   4.237   0.963   8.172 -0.0841  0.0731  0.3156
 3119SOL    HW120990   4.262   1.009   8.092  0.6021 -0.0791  0.4436
 3119SOL    HW220991   4.149   1.002   8.174 -0.8715 -1.8038  2.6000
 3120SOL     OW20992   1.470   1.268   8.900 -0.3331  0.6188 -0.6353
 3120SOL    HW120993   1.534   1.213   8.856  1.0876  0.4743  1.5983
 3120SOL    HW220994   1.412   1.198   8.928  0.2010  0.8147  0.9956
 3121SOL     OW20995   1.222   4.082   6.046  0.9118 -0.2537 -0.1309
 3121SOL    HW120996   1.213   4.077   5.951  0.6281 -0.2339 -0.1036
 3121SOL    HW220997   1.316   4.063   6.056  0.4465 -1.9578  1.0154
 3122SOL     OW20998   1.702   0.462   6.211  0.3886 -0.2189  0.4365
 3122SOL    HW120999   1.730   0.530   6.149  0.9470 -0.4300  0.4561
 3122SOL    HW221000   1.626   0.432   6.161  0.7393  0.4955 -0.5325
 3123SOL     OW21001   3.268   3.247  15.997 -0.2043 -0.2672 -0.0716
 3123SOL    HW121002   3.234   3.233  15.908  2.9669 -0.5616 -1.2257
 3123SOL    HW221003   3.326   3.173  16.014  1.4035  1.5788  2.5448
 3124SOL     OW21004   3.174   1.100   6.362 -0.0178  0.3525  0.4468
 3124SOL    HW121005   3.112   1.035   6.327 -1.1943  1.3149  0.7348
 3124SOL    HW221006   3.264   1.069   6.352  0.5394  2.4235 -0.9450
 3125SOL     OW21007   3.331   4.731  11.901 -0.0157 -0.0579  0.0508
 3125SOL    HW121008   3.394   0.048  11.945 -0.5032  0.7841 -0.3514
 3125SOL    HW221009   3.255   0.006  11.957 -1.8241  1.4949 -2.8621
 3126SOL     OW21010   0.184   0.586   4.172  0.4145 -0.0689 -0.3094
 3126SOL    HW121011   0.235   0.527   4.227  1.0003 -1.4221 -2.3264
 3126SOL    HW221012   0.175   0.542   4.088 -1.9234  1.0640 -0.6524
 3127SOL     OW21013   1.094   3.226   4.880 -0.0012 -0.6247  0.3029
 3127SOL    HW121014   1.070   3.222   4.973  0.9249 -0.5371  0.5542
 3127SOL    HW221015   1.188   3.209   4.888  0.3296  1.5462  1.1442
 3128SOL     OW21016   1.731   4.470   5.408  0.2349 -0.4536 -0.5121
 3128SOL    HW121017   1.736   4.374   5.408 -1.2371 -0.5389  0.4659
 3128SOL    HW221018   1.656   4.478   5.467  0.5132 -0.0422 -0.2127
 3129SOL     OW21019   4.253   4.088   0.731 -0.5094 -0.2034 -0.5581
 3129SOL    HW121020   4.295   4.129   0.656 -0.1880  0.5124  0.0179
 3129SOL    HW221021   4.185   4.148   0.762 -0.7101 -0.9066  0.3720
 3130SOL     OW21022   1.133   0.539   4.403  0.3056  0.0674 -0.4183
 3130SOL    HW121023   1.136   0.597   4.480  0.0246 -0.0147 -0.3461
 3130SOL    HW221024   1.074   0.478   4.447  0.4579  0.0118 -0.2903
 3131SOL     OW21025   1.876   0.116  10.985 -0.4383  0.5361 -0.0045
 3131SOL    HW121026   1.923   0.081  11.061  1.2416 -0.4654 -1.4949
 3131SOL    HW221027   1.837   0.041  10.940 -0.4436 -0.0804  1.0308
 3132SOL     OW21028   0.916   0.021   7.490  0.0726 -0.4112  0.3351
 3132SOL    HW121029   0.912   4.719   7.405  2.4294  0.8917 -0.4321
 3132SOL    HW221030   0.863   0.098   7.472  2.4449  1.4528  1.3044
 3133SOL     OW21031   3.314   4.445  10.554  0.0507 -0.7425  0.5612
 3133SOL    HW121032   3.350   4.520  10.507 -0.8922 -0.3612  0.4290
 3133SOL    HW221033   3.385   4.413  10.610 -1.7427 -0.0654  3.2564
 3134SOL     OW21034   2.460   0.059   4.666 -0.0953 -0.1082  0.3776
 3134SOL    HW121035   2.389   0.013   4.710 -0.2575  0.1192  0.3535
 3134SOL    HW221036   2.447   0.151   4.692  0.6666 -0.1112  0.7732
 3135SOL     OW21037   1.407   2.964   4.026  0.2737  0.2913 -0.2996
 3135SOL    HW121038   1.365   3.046   4.000 -1.3429 -0.8261 -1.1709
 3135SOL    HW221039   1.438   3.000   4.110 -2.3681 -1.4262  1.4088
 3136SOL     OW21040   1.186   3.858   5.708  0.4065 -0.5302  0.0582
 3136SOL    HW121041   1.134   3.938   5.703 -0.7059 -1.3837 -2.1795
 3136SOL    HW221042   1.188   3.838   5.801 -3.1412  0.8033  0.4132
 3137SOL     OW21043   1.221   0.981  15.871 -0.6068 -0.1630  0.2010
 3137SOL    HW121044   1.155   1.015  15.810 -0.9779  1.6381  1.6319
 3137SOL    HW221045   1.172   0.924  15.931 -0.4956 -1.5173 -0.9724
 3138SOL     OW21046   0.015   2.117   4.774 -0.6110 -0.0175  0.0741
 3138SOL    HW121047   0.003   2.046   4.837 -1.8573 -0.7663 -1.0268
 3138SOL    HW221048   0.045   2.072   4.695  0.6547 -0.5630  0.8577
 3139SOL     OW21049   2.484   3.782   7.867 -0.4129  0.2584 -0.0851
 3139SOL    HW121050   2.528   3.705   7.832  0.3408  1.1152 -1.0452
 3139SOL    HW221051   2.488   3.781   7.962 -1.8738  0.7070 -0.0150
 3140SOL     OW21052   3.479   3.216   2.044 -0.1643  0.2320 -0.0540
 3140SOL    HW121053   3.455   3.292   2.098 -1.7545 -0.5577  0.3629
 3140SOL    HW221054   3.415   3.150   2.071 -0.8649 -0.2284 -2.8454
 3141SOL     OW21055   0.091   4.316   2.769 -0.2434  0.6540  0.0412
 3141SOL    HW121056   0.049   4.290   2.687 -1.0638  0.4793  0.5189
 3141SOL    HW221057   0.141   4.235   2.781  1.4188  1.9155  1.5326
 3142SOL     OW21058   0.825   1.402   1.049  0.3233 -0.4783  0.4828
 3142SOL    HW121059   0.740   1.411   1.093  0.2908  0.1640  0.2983
 3142SOL    HW221060   0.877   1.468   1.096  1.4944 -0.4039 -0.9392
 3143SOL     OW21061   1.549   1.794  11.140  0.5333 -0.3874  0.1474
 3143SOL    HW121062   1.599   1.737  11.199  1.7431  0.0275 -0.4617
 3143SOL    HW221063   1.572   1.757  11.055  0.0924  1.4052 -0.7538
 3144SOL     OW21064   2.993   0.701   0.887 -0.0246  0.3500  0.3170
 3144SOL    HW121065   2.920   0.674   0.832  0.2994 -0.6467  0.3869
 3144SOL    HW221066   2.994   0.633   0.954 -1.5661 -1.3527 -1.4087
 3145SOL     OW21067   0.266   4.152   3.128  0.3203 -0.1905 -0.1503
 3145SOL    HW121068   0.179   4.150   3.087  0.1904 -0.9114  0.1420
 3145SOL    HW221069   0.271   4.243   3.158 -0.0289 -0.0006 -0.6700
 3146SOL     OW21070   1.033   0.593   7.181  0.3568 -0.1253 -0.5946
 3146SOL    HW121071   1.112   0.621   7.226 -0.1596  0.4179 -0.0332
 3146SOL    HW221072   0.959   0.625   7.233  1.1733 -1.2907  1.2683
 3147SOL     OW21073   1.458   1.748   8.548 -0.5224 -0.6597  0.1182
 3147SOL    HW121074   1.458   1.788   8.461  1.1991  1.7459  1.2306
 3147SOL    HW221075   1.386   1.799   8.585  0.8049  1.7834 -0.6873
 3148SOL     OW21076   2.504   4.460   4.357 -0.4856  0.2843  0.4727
 3148SOL    HW121077   2.409   4.459   4.351 -0.2763  0.6299 -3.1127
 3148SOL    HW221078   2.527   4.498   4.272 -1.9695 -0.1131 -0.0969
 3149SOL     OW21079   1.762   1.198   7.618  0.0042 -0.4189  0.0896
 3149SOL    HW121080   1.794   1.147   7.544 -1.0272  0.2373 -0.8302
 3149SOL    HW221081   1.828   1.170   7.681 -1.2874  1.7065  2.4392
 3150SOL     OW21082   3.172   0.560   4.740 -0.4687  0.1409  0.9210
 3150SOL    HW121083   3.154   0.477   4.784 -0.8779  0.5090  1.4427
 3150SOL    HW221084   3.187   0.600   4.826  1.5503  2.9271 -0.7335
 3151SOL     OW21085   0.537   3.147   3.958  0.6798 -0.3978 -0.6795
 3151SOL    HW121086   0.611   3.153   3.898  3.4877  1.2241  2.9698
 3151SOL    HW221087   0.469   3.136   3.891  1.4951  1.0175 -1.7365
 3152SOL     OW21088   2.378   3.561  10.696  0.2399  0.6880  0.1180
 3152SOL    HW121089   2.319   3.609  10.637 -1.1494  1.0636  1.8200
 3152SOL    HW221090   2.365   3.602  10.781  0.4613 -2.1301  1.5001
 3153SOL     OW21091   1.075   0.748   6.380 -0.0280  0.4057  0.1247
 3153SOL    HW121092   1.052   0.656   6.369 -0.0088  0.5240 -0.9112
 3153SOL    HW221093   1.077   0.745   6.476  0.7135  0.1478  0.1056
 3154SOL     OW21094   2.848   2.140   4.202  0.6290  0.4075 -0.1947
 3154SOL    HW121095   2.795   2.122   4.124 -0.8518  0.9818  0.6691
 3154SOL    HW221096   2.802   2.217   4.237  0.2384  0.5178 -0.9495
 3155SOL     OW21097   2.864   3.666   1.677 -0.3961 -0.0616 -0.2529
 3155SOL    HW121098   2.863   3.754   1.713  1.5069 -0.0129 -0.3276
 3155SOL    HW221099   2.784   3.625   1.710 -1.0928  1.6267  0.1587
 3156SOL     OW21100   1.501   2.930  11.921 -0.3201 -0.1791  0.0592
 3156SOL    HW121101   1.447   2.853  11.903  0.0567 -0.2765 -0.6537
 3156SOL    HW221102   1.468   2.960  12.005 -1.5428 -2.0938  0.2599
 3157SOL     OW21103   0.595   2.563  13.599 -0.5532  0.0585  0.1797
 3157SOL    HW121104   0.595   2.654  13.631 -0.3200 -0.8213  2.6321
 3157SOL    HW221105   0.546   2.525  13.671 -0.3572  1.0151  0.8105
 3158SOL     OW21106   4.248   4.237   9.256 -0.2238  0.0455  0.0919
 3158SOL    HW121107   4.334   4.262   9.290  0.0429 -0.2335 -0.3739
 3158SOL    HW221108   4.251   4.273   9.167  1.1801 -0.7039 -0.1623
 3159SOL     OW21109   3.225   4.369  14.374 -0.2396 -0.0466 -0.2120
 3159SOL    HW121110   3.233   4.283  14.333  0.8702 -0.9090  1.8153
 3159SOL    HW221111   3.152   4.396  14.318  1.5978  0.9159 -2.1448
 3160SOL     OW21112   4.005   4.388   6.596 -0.3749 -0.2839 -0.1375
 3160SOL    HW121113   4.050   4.324   6.540 -1.2516 -0.4834 -0.6059
 3160SOL    HW221114   3.922   4.343   6.611 -0.1187 -0.4485  0.8237
 3161SOL     OW21115   1.970   0.013   7.037  0.3680 -0.2497  0.1427
 3161SOL    HW121116   1.961   0.019   6.942  1.7648 -0.8046 -0.0239
 3161SOL    HW221117   1.919   4.673   7.048  0.6180 -0.6769 -1.7065
 3162SOL     OW21118   2.959   4.202   7.984  0.4831  0.3125  0.1337
 3162SOL    HW121119   3.009   4.122   7.967 -0.6100 -0.3641  0.1454
 3162SOL    HW221120   3.010   4.232   8.059 -2.3640  0.6870  1.9048
 3163SOL     OW21121   1.577   2.959   8.959  0.3672 -0.2271 -0.0241
 3163SOL    HW121122   1.513   3.002   9.015 -1.0156 -1.6338 -0.5074
 3163SOL    HW221123   1.599   2.877   9.004 -0.2432  0.0320  0.7384
 3164SOL     OW21124   2.863   1.885   5.426  0.4236  0.1083  0.9243
 3164SOL    HW121125   2.915   1.889   5.346  0.3537 -2.2582  0.7564
 3164SOL    HW221126   2.816   1.968   5.419  1.7925  0.8432  0.5335
 3165SOL     OW21127   1.669   2.318  17.655  0.0823 -0.5075 -0.8695
 3165SOL    HW121128   1.647   2.347  17.744  2.5684  0.2314 -0.4968
 3165SOL    HW221129   1.590   2.340  17.606 -0.1665  2.4747  0.9101
 3166SOL     OW21130   0.654   3.198  11.673 -1.1479 -0.4960 -0.0657
 3166SOL    HW121131   0.694   3.205  11.586 -0.8529 -0.3824  0.0790
 3166SOL    HW221132   0.728   3.212  11.732 -1.0605  0.2689 -0.3648
 3167SOL     OW21133   0.143   1.485   6.440  0.2303 -0.1620  0.4384
 3167SOL    HW121134   0.059   1.480   6.485  1.2058 -2.5913  2.0157
 3167SOL    HW221135   0.180   1.397   6.448  2.4195  0.8089  1.2042
 3168SOL     OW21136   2.281   4.175   4.521  0.8647 -0.3812  0.6226
 3168SOL    HW121137   2.266   4.158   4.428 -0.0511 -2.2183  1.1078
 3168SOL    HW221138   2.374   4.195   4.538  1.2854 -2.0415  0.2706
 3169SOL     OW21139   3.029   0.669  14.426  0.4417 -0.6320 -0.1321
 3169SOL    HW121140   3.024   0.585  14.381 -1.0488 -0.7549  0.2483
 3169SOL    HW221141   3.120   0.695  14.436  0.0906  1.0512 -1.4051
 3170SOL     OW21142   2.627   0.420   2.918 -0.4260 -0.3985 -0.2979
 3170SOL    HW121143   2.591   0.437   3.005  2.2082  0.7390  0.5921
 3170SOL    HW221144   2.718   0.448   2.931 -0.4898 -1.2434  1.9903
 3171SOL     OW21145   1.632   2.738   4.187  0.1795 -0.6179 -0.2469
 3171SOL    HW121146   1.537   2.728   4.194 -0.0627  1.7995  0.0414
 3171SOL    HW221147   1.650   2.830   4.168  1.2849 -1.3464 -2.7118
 3172SOL     OW21148   4.145   3.288   9.348 -0.2057 -0.0793 -0.8352
 3172SOL    HW121149   4.199   3.210   9.366 -0.3788  0.1011  0.4124
 3172SOL    HW221150   4.208   3.358   9.367 -0.7571  0.4384 -0.9411
 3173SOL     OW21151   0.224   4.084   7.018 -0.3309 -0.1291  0.3242
 3173SOL    HW121152   0.317   4.059   7.018 -1.0744 -2.8612  1.9650
 3173SOL    HW221153   0.208   4.083   6.924  0.5740 -0.7856  0.1682
 3174SOL     OW21154   0.258   0.428  15.543  0.0525 -0.0631 -0.0000
 3174SOL    HW121155   0.232   0.373  15.617  1.4370  1.2752  1.4821
 3174SOL    HW221156   0.334   0.474  15.578  0.0604 -1.1032  1.3597
 3175SOL     OW21157   1.206   1.874  15.067 -0.0141  0.5667 -0.4280
 3175SOL    HW121158   1.148   1.843  15.137  1.6144  0.2667  0.7866
 3175SOL    HW221159   1.232   1.791  15.028  1.1944  1.5408 -1.6701
 3176SOL     OW21160   0.291   0.342  15.302 -0.7843  0.3195 -0.1883
 3176SOL    HW121161   0.297   0.401  15.377 -1.8157 -0.2670  0.3420
 3176SOL    HW221162   0.204   0.306  15.318 -0.0350 -1.0838  0.7409
 3177SOL     OW21163   1.065   2.062  14.863  0.4174 -0.9676 -0.0376
 3177SOL    HW121164   1.121   1.989  14.891  0.3246 -1.5722 -1.4551
 3177SOL    HW221165   0.980   2.018  14.862 -0.2700  0.4274 -1.5652
 3178SOL     OW21166   4.077   0.073  16.966 -0.0755 -0.3439  0.1028
 3178SOL    HW121167   4.156   0.066  17.020  0.2688 -0.3027 -0.4024
 3178SOL    HW221168   4.112   0.068  16.877 -0.4417 -2.2859  0.0592
 3179SOL     OW21169   2.861   2.499   9.186  0.0774  0.1544  0.3863
 3179SOL    HW121170   2.921   2.427   9.169 -1.1219 -1.3333  2.3878
 3179SOL    HW221171   2.884   2.532   9.273  0.0561  1.0110  0.0640
 3180SOL     OW21172   1.942   4.038   5.011 -0.2690  0.5613 -0.9747
 3180SOL    HW121173   1.902   3.952   4.994 -0.7680  0.6742 -0.3508
 3180SOL    HW221174   1.934   4.083   4.927 -3.4155  0.8245 -0.5550
 3181SOL     OW21175   2.474   4.574   7.452 -0.1686 -0.7067 -0.2741
 3181SOL    HW121176   2.381   4.580   7.429  0.2950  0.1055 -1.9366
 3181SOL    HW221177   2.475   4.502   7.515  0.5549 -1.0562 -0.6992
 3182SOL     OW21178   1.194   1.397  13.110 -0.0589 -0.5698 -0.3432
 3182SOL    HW121179   1.211   1.465  13.174  0.1199 -0.4470 -0.5202
 3182SOL    HW221180   1.265   1.335  13.130  0.1533 -0.6283 -1.2679
 3183SOL     OW21181   1.255   0.877  12.079  0.2340  0.0283 -0.1782
 3183SOL    HW121182   1.347   0.880  12.103  0.3480 -0.2080 -0.5923
 3183SOL    HW221183   1.270   0.865  11.985  2.5127 -1.2064  0.3655
 3184SOL     OW21184   4.362   4.021   5.688  0.2120  0.4483  0.0968
 3184SOL    HW121185   4.439   3.964   5.695  1.1854  1.6690 -0.7126
 3184SOL    HW221186   4.389   4.107   5.655 -2.5370  1.6588  1.0667
 3185SOL     OW21187   0.154   3.797   4.832 -0.0723 -0.4160  0.0810
 3185SOL    HW121188   0.077   3.843   4.796  0.9344  1.6974  0.6748
 3185SOL    HW221189   0.176   3.747   4.753 -0.7130 -1.3785  0.5119
 3186SOL     OW21190   4.484   4.081   6.482 -0.2912  0.3917 -0.1089
 3186SOL    HW121191   4.473   4.146   6.413  0.0470  0.2444 -0.2956
 3186SOL    HW221192   4.399   4.037   6.491 -0.7246  1.0484 -1.0053
 3187SOL     OW21193   2.057   0.874   2.332 -0.1886 -0.7117  0.3317
 3187SOL    HW121194   1.971   0.855   2.371 -0.2691 -0.0469  0.4668
 3187SOL    HW221195   2.109   0.909   2.404  0.0772 -0.8573  0.2116
 3188SOL     OW21196   1.550   3.117   8.212 -0.6455  0.7674  0.6400
 3188SOL    HW121197   1.628   3.122   8.267 -2.1025  0.0730  2.7808
 3188SOL    HW221198   1.560   3.190   8.151 -2.3615  0.0107 -0.5588
 3189SOL     OW21199   2.026   3.967   3.923  0.3248  0.7993  0.7729
 3189SOL    HW121200   1.962   3.903   3.890  0.4864  1.6355 -1.2108
 3189SOL    HW221201   2.001   4.048   3.878 -1.0380 -0.1514 -0.2062
 3190SOL     OW21202   0.497   3.484   6.126 -0.3013 -0.1270  0.4328
 3190SOL    HW121203   0.404   3.471   6.111 -0.1667  0.8479 -1.1978
 3190SOL    HW221204   0.529   3.396   6.149 -0.4129 -0.1733  0.4109
 3191SOL     OW21205   2.462   2.658  16.302 -0.1455  0.0603  0.5031
 3191SOL    HW121206   2.471   2.742  16.347  0.8187  1.0052 -1.4432
 3191SOL    HW221207   2.382   2.640  16.351  0.3377 -0.1478  1.2147
 3192SOL     OW21208   1.216   0.072  17.224  0.4621  0.2342  0.0092
 3192SOL    HW121209   1.230   0.014  17.149 -1.6523 -0.3650  0.0979
 3192SOL    HW221210   1.177   0.151  17.186  2.6060  0.1220 -2.4256
 3193SOL     OW21211   2.509   4.278   7.946  0.3363 -0.5456  0.2628
 3193SOL    HW121212   2.555   4.281   7.862  0.1273  3.6527  0.2916
 3193SOL    HW221213   2.577   4.316   8.002 -0.9771 -1.0133  2.1677
 3194SOL     OW21214   2.483   3.930   7.410  0.5385  0.0926 -0.1316
 3194SOL    HW121215   2.465   3.925   7.316 -1.3581 -0.6296  0.2630
 3194SOL    HW221216   2.537   4.009   7.415 -1.8080  1.8038 -1.3738
 3195SOL     OW21217   3.889   2.030  13.925  0.3678 -0.3358  0.7331
 3195SOL    HW121218   3.936   2.006  13.845 -0.7622 -0.8347  0.2283
 3195SOL    HW221219   3.957   2.084  13.966 -1.1227  1.6632  0.5407
 3196SOL     OW21220   0.603   3.174  12.800  0.1343 -0.2329  0.3658
 3196SOL    HW121221   0.533   3.172  12.865 -0.8805  2.2281 -0.6379
 3196SOL    HW221222   0.568   3.136  12.719 -0.1270  0.1550  0.2955
 3197SOL     OW21223   3.649   4.574   6.535 -0.1084  0.2714 -0.0104
 3197SOL    HW121224   3.675   4.576   6.628  3.4744 -1.4426 -0.9770
 3197SOL    HW221225   3.604   4.658   6.530  2.1928  1.5791  1.4974
 3198SOL     OW21226   3.404   0.718   5.994 -0.4091 -0.5594  0.4417
 3198SOL    HW121227   3.347   0.773   6.048  2.1189  0.8766  1.6525
 3198SOL    HW221228   3.485   0.769   5.986  0.7409 -2.8947 -2.7635
 3199SOL     OW21229   0.088   0.197   3.296 -0.0963 -0.3905 -0.2910
 3199SOL    HW121230   0.148   0.238   3.234 -1.0996 -0.8527 -1.5666
 3199SOL    HW221231   0.006   0.213   3.248 -0.2215 -2.9597 -0.9203
 3200SOL     OW21232   4.629   0.499   6.931 -0.1485  0.7473 -0.2321
 3200SOL    HW121233   4.539   0.486   6.961  0.8620 -3.0453  1.1527
 3200SOL    HW221234   4.672   0.444   6.997 -1.2731 -0.9550 -0.9065
 3201SOL     OW21235   4.286   2.668   3.956 -0.1674 -0.1832 -0.0471
 3201SOL    HW121236   4.291   2.707   4.043 -2.2985  0.9376 -0.4234
 3201SOL    HW221237   4.365   2.615   3.946  0.6082  0.9432  0.1780
 3202SOL     OW21238   4.453   1.252   7.512 -0.0014 -0.0903 -0.6428
 3202SOL    HW121239   4.361   1.247   7.485 -0.7465 -0.8412  2.0526
 3202SOL    HW221240   4.452   1.249   7.607 -0.3019 -1.5587 -0.6902
 3203SOL     OW21241   3.295   3.403   5.659  0.1158 -0.0625 -0.2042
 3203SOL    HW121242   3.293   3.310   5.637 -0.0933 -0.0083 -0.4102
 3203SOL    HW221243   3.380   3.421   5.701 -0.2324 -0.2942  0.5979
 3204SOL     OW21244   3.504   2.906  10.254 -0.0175  0.1899  0.7567
 3204SOL    HW121245   3.567   2.855  10.203  0.6386  0.6127  1.1377
 3204SOL    HW221246   3.517   2.995  10.221  0.3014 -0.0367  0.2614
 3205SOL     OW21247   3.601   4.408   4.828  0.2696  0.4976  0.4677
 3205SOL    HW121248   3.617   4.492   4.786 -3.5575  1.3809  0.7804
 3205SOL    HW221249   3.593   4.354   4.748 -1.1933 -1.4223  1.8980
 3206SOL     OW21250   1.721   3.910   8.459 -0.1342 -0.3900 -0.2157
 3206SOL    HW121251   1.692   3.939   8.546  1.1346  1.2356 -0.3495
 3206SOL    HW221252   1.631   3.890   8.432  0.1273 -1.3357 -0.3900
 3207SOL     OW21253   2.669   0.801   4.096  0.0869 -0.2646  0.2219
 3207SOL    HW121254   2.663   0.863   4.023  1.2498 -0.8299 -0.3462
 3207SOL    HW221255   2.578   0.791   4.124  0.3811  0.2716  1.3643
 3208SOL     OW21256   2.196   4.122   8.689  0.2199  0.1227  0.5506
 3208SOL    HW121257   2.112   4.162   8.710  0.5201  1.4695 -0.7913
 3208SOL    HW221258   2.244   4.203   8.674  2.4286 -1.3858 -0.5648
 3209SOL     OW21259   0.883   3.289  11.781 -0.2688  0.0452 -0.0368
 3209SOL    HW121260   0.932   3.278  11.863 -1.1484 -0.0408  0.4718
 3209SOL    HW221261   0.919   3.367  11.738  0.4963 -1.4708 -2.1287
 3210SOL     OW21262   0.649   2.211   9.128  0.0243  0.0718  0.5329
 3210SOL    HW121263   0.587   2.218   9.056  0.7324  1.1184  0.0386
 3210SOL    HW221264   0.668   2.117   9.135  0.1684  0.0211 -0.6106
 3211SOL     OW21265   3.154   4.532   2.674  0.0758 -0.3637 -0.3352
 3211SOL    HW121266   3.184   4.592   2.742  0.3419 -1.5023  0.5434
 3211SOL    HW221267   3.157   4.593   2.600 -1.7954 -0.6365 -0.6411
 3212SOL     OW21268   1.246   0.467  15.478 -0.2512  0.0245  0.3311
 3212SOL    HW121269   1.269   0.442  15.389  0.1769  0.1853  0.3995
 3212SOL    HW221270   1.305   0.541  15.486  1.5301 -1.5127  1.4971
 3213SOL     OW21271   1.374   0.720   4.500 -0.0483 -0.1499  0.0392
 3213SOL    HW121272   1.434   0.794   4.492 -3.4715  2.4959 -1.0240
 3213SOL    HW221273   1.436   0.651   4.478  1.1055  0.3902  1.6481
 3214SOL     OW21274   2.115   0.053   4.737 -0.2176 -0.9645 -0.5390
 3214SOL    HW121275   2.034   0.011   4.767 -0.5795 -0.6261 -1.0553
 3214SOL    HW221276   2.169   0.011   4.804  0.8954  3.1040  1.0830
 3215SOL     OW21277   1.578   3.172   5.547  0.1117 -0.0643  0.0861
 3215SOL    HW121278   1.611   3.236   5.610  0.1656  0.3337 -0.3544
 3215SOL    HW221279   1.557   3.224   5.470 -2.3984 -0.7080  0.3309
 3216SOL     OW21280   0.507   0.514  15.995  0.1420  0.0511  0.1283
 3216SOL    HW121281   0.435   0.570  15.967  0.4115  0.1865 -0.2846
 3216SOL    HW221282   0.557   0.517  15.914 -0.5558 -1.2666 -0.3544
 3217SOL     OW21283   0.520   2.048   5.241  0.4190 -0.5786  0.7068
 3217SOL    HW121284   0.514   2.008   5.155 -1.7677 -0.6879  0.9041
 3217SOL    HW221285   0.607   2.089   5.249 -0.6027  1.7871 -0.3094
 3218SOL     OW21286   2.600   2.648  12.774 -0.1297 -0.4686  0.3155
 3218SOL    HW121287   2.644   2.729  12.800 -0.6883 -0.1454  0.2652
 3218SOL    HW221288   2.643   2.580  12.826 -1.5059 -1.4511  0.1762
 3219SOL     OW21289   4.079   4.247   2.105  0.5962  0.5015  0.0155
 3219SOL    HW121290   4.090   4.338   2.075  2.3544 -0.6220 -2.8015
 3219SOL    HW221291   4.023   4.252   2.182 -0.9771  0.7752 -1.1609
 3220SOL     OW21292   2.791   0.166  12.564 -0.0557  0.7351  0.1225
 3220SOL    HW121293   2.795   0.132  12.475 -1.0154  1.4225 -0.1807
 3220SOL    HW221294   2.699   0.191  12.575 -0.7349 -1.2693 -1.0412
 3221SOL     OW21295   2.340   2.906   2.780  0.2619  0.4092 -0.3407
 3221SOL    HW121296   2.349   3.000   2.800  2.8076  0.4727 -1.8139
 3221SOL    HW221297   2.245   2.905   2.772  0.3935 -1.1606 -1.4961
 3222SOL     OW21298   3.903   0.985   4.027  0.7697 -0.1221  0.0204
 3222SOL    HW121299   3.996   0.995   4.045  0.6133  1.3248  0.0050
 3222SOL    HW221300   3.911   1.000   3.933 -1.8382  0.5940 -0.0928
 3223SOL     OW21301   3.346   0.137   2.378  0.0777 -0.3138 -0.1047
 3223SOL    HW121302   3.272   0.076   2.388 -0.7006  0.5337 -0.6849
 3223SOL    HW221303   3.308   0.192   2.310 -0.4869 -0.4521  0.0965
 3224SOL     OW21304   2.988   0.405   3.331  0.1389  0.6529  0.8604
 3224SOL    HW121305   3.020   0.476   3.386  2.4520 -0.7317  1.3187
 3224SOL    HW221306   3.027   0.327   3.370 -1.0445  0.4762  1.6888
 3225SOL     OW21307   0.204   4.555  13.464 -1.0256 -0.0150 -0.0456
 3225SOL    HW121308   0.175   4.601  13.386 -0.9104  0.3616  0.1363
 3225SOL    HW221309   0.211   4.623  13.530  0.2644 -0.0166 -0.1930
 3226SOL     OW21310   3.291   2.312  12.153 -0.3169  0.1630  0.0442
 3226SOL    HW121311   3.288   2.277  12.064 -0.8285  2.1028 -0.6912
 3226SOL    HW221312   3.345   2.248  12.199  0.5261  1.1052  0.3878
 3227SOL     OW21313   3.831   1.371   8.964 -0.3817  0.3967  0.5326
 3227SOL    HW121314   3.816   1.281   8.936 -2.3322  0.7902  0.3235
 3227SOL    HW221315   3.769   1.422   8.913 -0.2837  0.0621  0.0738
 3228SOL     OW21316   3.377   4.302   6.748 -0.0840 -0.1150 -0.6270
 3228SOL    HW121317   3.299   4.349   6.717 -0.6223  0.0508  0.9707
 3228SOL    HW221318   3.365   4.324   6.840 -0.6780 -0.7825 -0.5460
 3229SOL     OW21319   4.042   0.673   8.771 -0.1206  0.1288 -0.4280
 3229SOL    HW121320   4.067   0.758   8.807  2.1760 -1.0074  0.7129
 3229SOL    HW221321   4.008   0.692   8.684  1.5244 -1.4677 -1.4318
 3230SOL     OW21322   0.290   3.871   1.828  0.4510 -0.0696 -0.0505
 3230SOL    HW121323   0.331   3.792   1.792 -0.5851 -1.1591  1.1466
 3230SOL    HW221324   0.200   3.852   1.801  0.6017 -1.7704  0.6327
 3231SOL     OW21325   4.335   3.300   6.731 -0.1743  0.5855 -0.1409
 3231SOL    HW121326   4.261   3.360   6.735 -0.0592  0.6169  1.7467
 3231SOL    HW221327   4.333   3.266   6.641  0.4129  0.7591 -0.2141
 3232SOL     OW21328   3.185   3.322  17.606  0.0527  0.2554  0.4184
 3232SOL    HW121329   3.209   3.356  17.520 -0.1704 -0.4373  0.0877
 3232SOL    HW221330   3.255   3.261  17.631 -1.1790 -1.3176  0.0254
 3233SOL     OW21331   2.371   2.158  14.704  0.7274 -0.4558 -0.1046
 3233SOL    HW121332   2.407   2.247  14.710 -2.0888  0.7958 -1.9443
 3233SOL    HW221333   2.446   2.098  14.705  1.0647  0.0217  2.3161
 3234SOL     OW21334   3.028   2.810   5.693 -0.1256 -0.0269 -0.1909
 3234SOL    HW121335   3.000   2.803   5.784  0.2263  1.3160  0.0204
 3234SOL    HW221336   2.990   2.731   5.653 -2.0874  0.1667  1.3042
 3235SOL     OW21337   2.069   1.889   4.197  0.5979  0.0999  0.4782
 3235SOL    HW121338   2.161   1.911   4.209  1.1436 -0.9925 -1.6560
 3235SOL    HW221339   2.048   1.965   4.143 -3.3537  0.4384  2.4593
 3236SOL     OW21340   3.422   3.374   9.556  0.6362 -0.1104  0.1282
 3236SOL    HW121341   3.488   3.421   9.606 -0.1778  1.8964 -0.7211
 3236SOL    HW221342   3.347   3.431   9.570  1.1570  0.5450  0.2222
 3237SOL     OW21343   1.667   2.934  14.755 -0.9265 -0.4211  0.1605
 3237SOL    HW121344   1.728   3.001  14.787  2.9208 -2.8504 -2.1559
 3237SOL    HW221345   1.691   2.924  14.663  1.1525  2.3919  0.4056
 3238SOL     OW21346   1.350   0.325   3.839  0.4299 -0.0191 -0.5366
 3238SOL    HW121347   1.362   0.402   3.784  1.4566 -0.2331 -0.6113
 3238SOL    HW221348   1.431   0.322   3.891 -0.2589 -1.1667  0.4582
 3239SOL     OW21349   0.943   1.343   8.163  0.3324  0.4252  0.2601
 3239SOL    HW121350   0.956   1.406   8.234  1.3138 -0.1688  0.6090
 3239SOL    HW221351   0.966   1.267   8.216 -0.5998  0.7218  1.0902
 3240SOL     OW21352   1.177   2.869   6.427 -0.0623 -0.0089  0.0288
 3240SOL    HW121353   1.225   2.943   6.389 -2.3977  1.6667  0.3173
 3240SOL    HW221354   1.091   2.884   6.388  1.1122 -0.2863 -2.6682
 3241SOL     OW21355   1.727   1.786   2.185  0.2901  0.0268  0.1948
 3241SOL    HW121356   1.787   1.713   2.168  1.7840  1.4937 -0.7387
 3241SOL    HW221357   1.738   1.824   2.098  3.7946  0.0672  0.6795
 3242SOL     OW21358   2.390   0.890  10.099  0.4693  0.0302  0.1175
 3242SOL    HW121359   2.471   0.932  10.072  2.1148 -1.6088  2.6021
 3242SOL    HW221360   2.327   0.927  10.037 -2.1905 -2.1972  1.4431
 3243SOL     OW21361   4.411   1.811   6.918  0.2555 -0.2053 -0.7381
 3243SOL    HW121362   4.367   1.893   6.941 -0.8114 -0.4459 -1.9738
 3243SOL    HW221363   4.471   1.796   6.991 -1.7115 -0.4074  0.8375
 3244SOL     OW21364   3.353   3.698   8.167  0.8572 -0.2156  0.0465
 3244SOL    HW121365   3.342   3.781   8.121  1.0161  0.3019  0.9342
 3244SOL    HW221366   3.445   3.705   8.192  1.0076 -0.8688 -0.3135
 3245SOL     OW21367   0.292   0.565   3.727  0.1362 -0.1811  0.3064
 3245SOL    HW121368   0.342   0.624   3.670  1.4025 -0.2891  1.3164
 3245SOL    HW221369   0.230   0.525   3.666  0.6046 -0.1751 -0.1775
 3246SOL     OW21370   3.786   1.565   6.030  0.2465  0.0950  0.1041
 3246SOL    HW121371   3.835   1.586   6.109  0.8852 -4.0530  0.8229
 3246SOL    HW221372   3.853   1.576   5.962 -0.0953 -0.2446 -0.2871
 3247SOL     OW21373   4.550   2.037   8.029  0.4248  0.4526  0.0821
 3247SOL    HW121374   4.609   1.978   8.076  0.2274 -1.2298 -1.7960
 3247SOL    HW221375   4.595   2.122   8.031 -0.3812  0.8605  0.8973
 3248SOL     OW21376   2.918   0.795   5.580  0.3820 -0.2262 -0.0970
 3248SOL    HW121377   2.899   0.769   5.490 -0.7339  1.7571 -0.4299
 3248SOL    HW221378   2.941   0.710   5.619 -1.3218 -0.2920  0.7743
 3249SOL     OW21379   2.753   2.704  15.104 -0.3190 -0.4215  0.2399
 3249SOL    HW121380   2.821   2.751  15.151 -0.9741  0.6658  0.0948
 3249SOL    HW221381   2.694   2.709  15.180 -0.5953  0.2514 -0.0154
 3250SOL     OW21382   2.548   1.954   5.699 -0.3789 -0.0557  0.1684
 3250SOL    HW121383   2.641   1.977   5.692 -0.5142  0.4771  0.1081
 3250SOL    HW221384   2.525   1.979   5.788  0.2969 -0.0873  0.3529
 3251SOL     OW21385   2.735   1.861   8.159  0.6766 -0.6317  0.1141
 3251SOL    HW121386   2.678   1.921   8.111 -0.3508 -0.7348  1.2039
 3251SOL    HW221387   2.817   1.906   8.141  0.3287  1.0719  2.7203
 3252SOL     OW21388   4.117   0.052   6.070  0.1537  0.3918  0.1840
 3252SOL    HW121389   4.180   0.087   6.133  0.8811 -0.9865  0.2377
 3252SOL    HW221390   4.169   0.032   5.992 -1.4228 -0.9920 -0.5237
 3253SOL     OW21391   1.622   2.429   2.991 -0.0760 -0.9892 -0.4216
 3253SOL    HW121392   1.686   2.453   3.058 -0.0542 -0.4119 -0.6540
 3253SOL    HW221393   1.585   2.342   3.010 -1.3509 -0.5281 -0.7779
 3254SOL     OW21394   2.639   3.203  14.253  0.2733  0.0392 -0.2224
 3254SOL    HW121395   2.547   3.229  14.255  0.4333  0.6959 -2.1823
 3254SOL    HW221396   2.684   3.287  14.256  1.5062 -0.5845 -1.2337
 3255SOL     OW21397   3.655   1.692   5.217  0.3126 -0.7884 -0.2519
 3255SOL    HW121398   3.747   1.717   5.208 -0.1830  1.3673  0.4563
 3255SOL    HW221399   3.639   1.682   5.311  1.0076 -1.6437 -0.2257
 3256SOL     OW21400   2.021   1.532   1.475  0.0480 -0.0628 -0.6897
 3256SOL    HW121401   1.963   1.524   1.551 -2.8171  0.1719 -2.8695
 3256SOL    HW221402   2.071   1.450   1.479  1.3793  0.7729  0.0078
 3257SOL     OW21403   0.277   2.280   7.453 -0.1704  0.3273 -0.0017
 3257SOL    HW121404   0.230   2.204   7.418  1.1506 -2.3321  3.9224
 3257SOL    HW221405   0.273   2.253   7.545 -0.9090 -1.1065 -0.4475
 3258SOL     OW21406   0.418   3.349   1.627 -0.1789  0.4069 -0.3284
 3258SOL    HW121407   0.508   3.366   1.599 -0.0021  0.1043  0.0616
 3258SOL    HW221408   0.434   3.299   1.707 -0.4882  0.7262 -0.0669
 3259SOL     OW21409   2.996   1.496   2.058 -0.1549  0.1148 -0.1556
 3259SOL    HW121410   3.075   1.512   2.109 -0.2171  1.6405 -0.5207
 3259SOL    HW221411   2.951   1.579   2.074  0.3443  0.3678 -0.0605
 3260SOL     OW21412   1.773   3.177   8.363  0.4050  0.3590 -0.2020
 3260SOL    HW121413   1.806   3.090   8.385  0.0555  0.2596 -0.0743
 3260SOL    HW221414   1.768   3.214   8.451 -0.1646 -0.1526 -0.0212
 3261SOL     OW21415   3.581   3.412   5.442 -0.3975  0.1825  0.4517
 3261SOL    HW121416   3.569   3.425   5.536  0.8124 -0.3322  0.6831
 3261SOL    HW221417   3.614   3.322   5.440  1.3469  0.8065  0.1704
 3262SOL     OW21418   0.157   2.100   2.847  0.1306 -0.3610  0.3741
 3262SOL    HW121419   0.129   2.191   2.857 -2.4762 -1.2298  0.9481
 3262SOL    HW221420   0.250   2.118   2.834  0.0001 -0.3943 -0.6144
 3263SOL     OW21421   3.382   3.346   0.866 -0.5624  0.2970 -0.0717
 3263SOL    HW121422   3.334   3.268   0.892 -0.6066  1.1663  2.3972
 3263SOL    HW221423   3.461   3.302   0.834  0.6474  1.4868  1.2945
 3264SOL     OW21424   3.144   3.885   4.916 -0.4457  0.1987  0.3828
 3264SOL    HW121425   3.092   3.822   4.965  0.6367  0.4732  1.8737
 3264SOL    HW221426   3.228   3.876   4.961  0.3226  1.8359 -0.7297
 3265SOL     OW21427   1.270   2.989  12.891  0.3961  0.5891 -0.3423
 3265SOL    HW121428   1.205   2.955  12.953 -1.0351  1.7357 -1.2307
 3265SOL    HW221429   1.291   3.057  12.956 -1.9066 -0.8227  1.8831
 3266SOL     OW21430   1.238   0.149   8.028  0.6691  0.0317 -0.5616
 3266SOL    HW121431   1.161   0.160   7.972  1.0924  2.5789 -0.6366
 3266SOL    HW221432   1.261   0.056   8.025 -0.7389 -0.3016 -0.8322
 3267SOL     OW21433   4.081   1.974  13.285 -0.0898  0.0575  0.2105
 3267SOL    HW121434   4.067   1.907  13.351 -0.8725 -0.8616 -0.8844
 3267SOL    HW221435   4.026   2.039  13.329 -0.7489 -0.0381 -0.4745
 3268SOL     OW21436   2.627   0.001  16.958 -0.2136  0.1353 -0.1777
 3268SOL    HW121437   2.558   4.712  16.899 -0.8437  1.3782 -0.0812
 3268SOL    HW221438   2.690   0.037  16.895 -0.5418  0.4606 -0.3258
 3269SOL     OW21439   4.147   0.751  11.338  0.2615  0.2574  0.6817
 3269SOL    HW121440   4.053   0.765  11.351  0.5251 -0.2304  3.1163
 3269SOL    HW221441   4.165   0.662  11.367  1.2231  0.8945  2.0480
 3270SOL     OW21442   3.259   4.455   3.833 -0.0949  0.0319 -0.4502
 3270SOL    HW121443   3.245   4.438   3.740 -0.6275 -0.8477 -0.2069
 3270SOL    HW221444   3.181   4.439   3.887 -1.2540  0.3060 -2.0603
 3271SOL     OW21445   2.107   2.531   9.278 -0.0601  0.1896 -0.5802
 3271SOL    HW121446   2.158   2.561   9.202  1.5350 -0.4358  0.2581
 3271SOL    HW221447   2.139   2.584   9.351  0.4308 -0.2581 -0.4742
 3272SOL     OW21448   2.982   4.707   1.532 -0.2320 -0.4944  0.0223
 3272SOL    HW121449   2.930   0.014   1.597 -0.7785 -0.1595 -0.6670
 3272SOL    HW221450   2.959   0.005   1.448  0.5902 -0.9703 -0.4158
 3273SOL     OW21451   2.889   2.817   4.903  0.8362 -1.0702 -0.0646
 3273SOL    HW121452   2.920   2.884   4.843 -0.3621  0.9629  1.5751
 3273SOL    HW221453   2.795   2.835   4.894  0.9365  0.0054  1.0185
 3274SOL     OW21454   4.595   4.577   7.741  0.2501 -0.8146  0.4571
 3274SOL    HW121455   4.510   4.616   7.761  0.4505 -0.0110 -0.2240
 3274SOL    HW221456   4.638   4.591   7.826 -0.1474  1.2635  0.3372
 3275SOL     OW21457   4.416   3.223   2.272  0.2298  0.3202 -0.0833
 3275SOL    HW121458   4.476   3.239   2.344 -1.4906 -0.6035  1.5376
 3275SOL    HW221459   4.441   3.301   2.222  1.9538  0.3805  0.8721
 3276SOL     OW21460   4.313   2.922   7.731  0.6928  0.3551 -0.0015
 3276SOL    HW121461   4.408   2.912   7.730  0.6684 -0.0096  1.0970
 3276SOL    HW221462   4.296   2.857   7.663  0.4253 -1.2168  1.5788
 3277SOL     OW21463   3.860   2.429   0.836  0.5328  0.5141 -0.0938
 3277SOL    HW121464   3.894   2.432   0.925 -0.2193  0.1824  0.2026
 3277SOL    HW221465   3.795   2.360   0.849  0.9914  0.4685  1.9280
 3278SOL     OW21466   0.985   2.625  12.480 -0.2095 -0.1577  0.4842
 3278SOL    HW121467   0.996   2.718  12.499  2.7745 -0.4455  0.1392
 3278SOL    HW221468   1.064   2.590  12.522  1.9564  1.9140 -1.9122
 3279SOL     OW21469   0.407   3.374   2.163 -0.6352  0.2813  0.2428
 3279SOL    HW121470   0.420   3.287   2.202 -1.7713 -0.7864 -1.7644
 3279SOL    HW221471   0.439   3.437   2.227 -2.1565  1.4813 -0.1996
 3280SOL     OW21472   0.685   4.642   2.983  0.3995 -0.2131  0.0188
 3280SOL    HW121473   0.767   4.684   3.010  0.5192  1.9263 -3.5638
 3280SOL    HW221474   0.655   4.715   2.928  1.1806 -0.4710 -0.7625
 3281SOL     OW21475   1.826   0.330   4.102 -0.2350 -0.5107 -0.6858
 3281SOL    HW121476   1.872   0.413   4.102  0.7150 -1.0449  0.0388
 3281SOL    HW221477   1.771   0.336   4.180 -0.8677 -2.4664 -0.9649
 3282SOL     OW21478   1.678   3.397  13.690 -0.8632  0.3346 -0.1408
 3282SOL    HW121479   1.760   3.409  13.738  0.2262  1.1431 -2.2059
 3282SOL    HW221480   1.652   3.309  13.718 -3.3464  0.2018 -2.7974
 3283SOL     OW21481   4.098   0.553   9.063  0.1316  1.0419  0.4719
 3283SOL    HW121482   4.158   0.613   9.107  0.5330  1.1878 -0.2748
 3283SOL    HW221483   4.142   0.537   8.980  0.4847 -0.4902  0.9672
 3284SOL     OW21484   3.738   0.070   7.592 -0.1578  0.0633 -0.3273
 3284SOL    HW121485   3.661   0.015   7.606 -2.0995  2.1897 -2.7284
 3284SOL    HW221486   3.757   0.036   7.505  0.0942 -0.8091  0.0741
 3285SOL     OW21487   4.015   4.233   9.476  0.7007 -0.2214 -0.4245
 3285SOL    HW121488   3.967   4.267   9.400 -0.2103 -0.9058 -0.1648
 3285SOL    HW221489   4.102   4.265   9.453 -0.0240  1.1292 -1.3335
 3286SOL     OW21490   2.587   1.123   1.700 -0.4159 -0.2505  0.2215
 3286SOL    HW121491   2.606   1.152   1.790  0.6275  0.5041 -0.2426
 3286SOL    HW221492   2.648   1.050   1.697 -2.1373 -1.7999  2.6859
 3287SOL     OW21493   2.175   3.490   2.426  0.5975  0.2522 -0.1253
 3287SOL    HW121494   2.170   3.534   2.511  2.4241  1.1387 -0.4814
 3287SOL    HW221495   2.098   3.433   2.427  0.9861 -0.3137 -2.4358
 3288SOL     OW21496   0.264   0.861   2.207  0.0699 -0.5784 -0.0695
 3288SOL    HW121497   0.215   0.919   2.265 -1.6895 -0.2238 -1.8733
 3288SOL    HW221498   0.198   0.848   2.138  1.6492 -0.2568 -1.6356
 3289SOL     OW21499   1.554   4.328   8.203  0.2530  0.1402  0.0628
 3289SOL    HW121500   1.539   4.366   8.290  0.1116  1.7322 -0.6537
 3289SOL    HW221501   1.562   4.407   8.150  1.6237 -1.2787 -1.8020
 3290SOL     OW21502   4.160   2.907   7.063 -0.4512  0.2285  0.1443
 3290SOL    HW121503   4.099   2.966   7.018 -0.0222  0.9133  0.4802
 3290SOL    HW221504   4.104   2.830   7.069  0.9511 -0.6833  1.5292
 3291SOL     OW21505   2.749   3.973   3.616  0.2039  0.2454 -0.2757
 3291SOL    HW121506   2.723   3.892   3.573 -1.4190  0.3623  0.5129
 3291SOL    HW221507   2.713   4.045   3.564 -0.6021  0.9620  1.2965
 3292SOL     OW21508   1.362   0.463   4.255  0.1261  0.4470 -0.2193
 3292SOL    HW121509   1.351   0.368   4.241 -2.7389  0.5921  0.9751
 3292SOL    HW221510   1.310   0.473   4.335  1.3618 -1.2732  0.7990
 3293SOL     OW21511   4.707   0.482   4.776  0.4227  0.0892  0.4289
 3293SOL    HW121512   4.644   0.413   4.756  0.8788 -0.1576 -0.1590
 3293SOL    HW221513   4.725   0.454   4.866  0.2481 -1.1699  0.0724
 3294SOL     OW21514   3.960   1.543   3.402 -0.1628  0.3735 -0.3670
 3294SOL    HW121515   3.966   1.637   3.420  0.1891 -0.0694  1.7194
 3294SOL    HW221516   4.052   1.521   3.413 -0.3058 -1.0656 -1.9478
 3295SOL     OW21517   3.059   0.343   4.289 -0.3916 -0.1627 -0.0109
 3295SOL    HW121518   3.024   0.259   4.320  1.7549 -1.7389 -1.8306
 3295SOL    HW221519   3.093   0.366   4.376  0.8144  2.0790 -1.0973
 3296SOL     OW21520   2.397   3.520   6.357  0.0000  0.1709  0.5414
 3296SOL    HW121521   2.422   3.553   6.271 -0.8555 -4.1619 -1.4075
 3296SOL    HW221522   2.406   3.425   6.348  1.0875  0.0561  2.9403
 3297SOL     OW21523   2.383   2.688  12.296  0.5108 -0.4442  0.0054
 3297SOL    HW121524   2.459   2.694  12.354 -0.0067  0.8029  0.5424
 3297SOL    HW221525   2.330   2.621  12.338 -2.0173  1.2700 -0.4831
 3298SOL     OW21526   2.976   0.910   6.150  0.1245 -0.9010  0.0744
 3298SOL    HW121527   2.931   0.991   6.171  3.9714  1.6330 -1.5395
 3298SOL    HW221528   2.965   0.863   6.233 -1.2953 -2.7545 -1.1423
 3299SOL     OW21529   4.447   3.392   4.022 -0.1680  0.4571  0.7170
 3299SOL    HW121530   4.415   3.452   3.955 -0.3113  0.3240  0.6652
 3299SOL    HW221531   4.436   3.300   3.996  0.9888  1.2434 -2.5223
 3300SOL     OW21532   0.093   1.048   5.182  0.6002  0.3475  0.3456
 3300SOL    HW121533   0.030   0.982   5.152 -0.8337  0.9891  1.9334
 3300SOL    HW221534   0.141   1.002   5.250  0.0277  2.3803  2.1276
 3301SOL     OW21535   4.388   1.526  11.999  0.3390 -0.1952  0.3845
 3301SOL    HW121536   4.422   1.552  12.084  0.8813 -0.1778  0.1622
 3301SOL    HW221537   4.376   1.431  12.007  0.4916 -0.0801  1.8874
 3302SOL     OW21538   2.350   2.158   5.169 -0.5442  0.0533 -0.3425
 3302SOL    HW121539   2.386   2.140   5.256 -0.6241  2.6139  0.1923
 3302SOL    HW221540   2.428   2.183   5.120 -0.1717 -1.1618 -0.3899
 3303SOL     OW21541   1.898   2.342  13.247 -0.3479  0.3605  0.2621
 3303SOL    HW121542   1.839   2.294  13.188  0.5934  0.0656 -0.4282
 3303SOL    HW221543   1.938   2.392  13.176  0.6624 -1.5608 -0.5343
 3304SOL     OW21544   3.152   1.541   9.279  0.2630 -1.0206  0.0724
 3304SOL    HW121545   3.215   1.577   9.341 -0.1390 -0.4718  0.1703
 3304SOL    HW221546   3.193   1.459   9.253  1.9103 -0.0097 -0.5028
 3305SOL     OW21547   0.247   1.936   0.683 -0.0302  0.0454 -0.5472
 3305SOL    HW121548   0.245   1.948   0.588  0.2310  1.9209 -0.3164
 3305SOL    HW221549   0.156   1.924   0.709 -0.7354  0.7136 -2.7210
 3306SOL     OW21550   3.723   2.114   0.027  0.4189  0.4795 -0.5792
 3306SOL    HW121551   3.729   2.207   0.050 -0.3293  0.6256 -0.9585
 3306SOL    HW221552   3.782   2.106  17.713  0.3376 -0.2809 -0.5634
 3307SOL     OW21553   4.150   4.055   6.027 -0.1672 -0.1573  0.7015
 3307SOL    HW121554   4.125   4.059   6.120 -1.2215 -1.8727  0.4900
 3307SOL    HW221555   4.237   4.095   6.034  0.0500 -0.4966 -0.1060
 3308SOL     OW21556   3.224   4.109   9.983 -0.2291  0.2076 -0.0653
 3308SOL    HW121557   3.307   4.068  10.009 -0.6301 -0.4818  0.1388
 3308SOL    HW221558   3.201   4.056   9.907 -1.7394 -0.8351  1.1133
 3309SOL     OW21559   1.518   1.001   0.216 -0.2956 -0.1353  0.5673
 3309SOL    HW121560   1.446   0.982   0.277 -0.7118  1.1951  0.4798
 3309SOL    HW221561   1.581   1.032   0.281 -0.8823 -0.2319  1.1797
 3310SOL     OW21562   2.297   0.757   3.601 -0.4412  0.3758 -0.2674
 3310SOL    HW121563   2.216   0.788   3.560 -0.8874  0.6880  0.8688
 3310SOL    HW221564   2.364   0.811   3.559 -0.7005 -0.7803 -2.2015
 3311SOL     OW21565   2.890   4.103  16.127  0.1616  0.4329  0.0396
 3311SOL    HW121566   2.936   4.154  16.060 -0.7453  2.4899  0.9854
 3311SOL    HW221567   2.823   4.165  16.156  0.0053  0.1463  0.2858
 3312SOL     OW21568   2.284   2.721   2.542 -0.0370  0.2039  0.2873
 3312SOL    HW121569   2.230   2.669   2.601  2.0999  1.6209  3.5199
 3312SOL    HW221570   2.302   2.660   2.471 -0.7767 -0.8416  1.0033
 3313SOL     OW21571   1.592   3.842   4.684 -0.2200 -0.2591  0.1119
 3313SOL    HW121572   1.535   3.919   4.683 -0.1053 -0.1660  0.8041
 3313SOL    HW221573   1.535   3.774   4.648  1.0114 -0.0040 -2.3741
 3314SOL     OW21574   3.866   1.289   2.659  0.7612  0.4197 -0.4158
 3314SOL    HW121575   3.776   1.265   2.683  0.4485  0.0066 -1.9811
 3314SOL    HW221576   3.904   1.208   2.626 -0.1549  0.0197 -0.5052
 3315SOL     OW21577   2.435   4.000   8.361  0.5414  0.3890 -0.0333
 3315SOL    HW121578   2.477   4.021   8.278  0.2432  1.9994  0.2361
 3315SOL    HW221579   2.345   3.996   8.328  0.3712  0.4458  0.4195
 3316SOL     OW21580   1.198   4.420   4.052 -0.3365 -0.1053  0.2580
 3316SOL    HW121581   1.236   4.468   4.125  0.5276 -0.8220  0.2784
 3316SOL    HW221582   1.272   4.375   4.011 -1.8803 -0.5075 -2.0999
 3317SOL     OW21583   3.556   1.394   8.812  0.2048 -0.0258 -0.6446
 3317SOL    HW121584   3.488   1.461   8.814  1.5495  1.3419 -1.4189
 3317SOL    HW221585   3.503   1.314   8.810  2.4943 -1.5286 -0.3922
 3318SOL     OW21586   1.901   1.328  15.894 -0.4098  0.4959 -0.0307
 3318SOL    HW121587   1.854   1.280  15.963  0.5312  0.1264  0.3547
 3318SOL    HW221588   1.869   1.290  15.813 -0.2599  0.2848  0.0089
 3319SOL     OW21589   1.284   3.221   3.586  0.2961  0.0042  0.1874
 3319SOL    HW121590   1.203   3.230   3.636  0.8938 -2.6506  1.6472
 3319SOL    HW221591   1.274   3.282   3.513 -0.2657 -0.0468  0.2216
 3320SOL     OW21592   3.420   0.393  14.173 -0.2799  0.1008 -0.1669
 3320SOL    HW121593   3.470   0.397  14.091 -1.3245 -0.9020 -0.8486
 3320SOL    HW221594   3.473   0.445  14.233  0.8014 -3.6612  2.1255
 3321SOL     OW21595   1.153   2.269   5.518 -0.0758 -0.0680 -0.4511
 3321SOL    HW121596   1.235   2.311   5.490 -0.7380  0.0009 -2.2619
 3321SOL    HW221597   1.121   2.342   5.572 -0.8238  0.0629 -1.0757
 3322SOL     OW21598   3.926   3.796   1.863  0.0391  0.7770  0.5505
 3322SOL    HW121599   3.944   3.816   1.771 -1.5067  0.4098  0.1763
 3322SOL    HW221600   3.956   3.875   1.908  2.6374  0.2051 -0.1406
 3323SOL     OW21601   1.723   3.265   8.634 -0.6858  0.5783  0.8241
 3323SOL    HW121602   1.712   3.173   8.658 -0.2228 -0.1757 -1.8287
 3323SOL    HW221603   1.765   3.294   8.715 -0.4168 -0.4324  1.0500
 3324SOL     OW21604   2.270   3.006   5.026  0.0159 -0.6175 -0.6358
 3324SOL    HW121605   2.255   2.949   4.951 -2.3097  0.2036 -0.8030
 3324SOL    HW221606   2.325   2.951   5.081  1.8315 -0.8956 -2.7584
 3325SOL     OW21607   2.648   1.431   3.531 -0.1966 -0.3886  0.0078
 3325SOL    HW121608   2.668   1.347   3.491 -0.9087 -0.3433 -0.4278
 3325SOL    HW221609   2.685   1.400   3.614  0.2984 -1.9591 -0.8174
 3326SOL     OW21610   3.605   1.955   6.338  0.0224 -0.8870  0.2584
 3326SOL    HW121611   3.679   2.007   6.305 -0.3253 -0.7022 -0.2131
 3326SOL    HW221612   3.628   1.871   6.298 -0.7179 -1.0458  0.1759
 3327SOL     OW21613   1.770   0.518   3.458 -0.0242  0.2121 -0.5716
 3327SOL    HW121614   1.859   0.527   3.491 -0.5342  2.4005  0.2357
 3327SOL    HW221615   1.721   0.548   3.535  1.7430 -2.2319  1.5019
 3328SOL     OW21616   3.924   0.518   8.289  0.0892 -0.5196  0.0081
 3328SOL    HW121617   3.918   0.438   8.342  0.9396  0.2698  1.3031
 3328SOL    HW221618   3.907   0.595   8.343  0.9150  0.0893 -0.6053
 3329SOL     OW21619   0.996   1.499  10.547  0.4060 -0.4060  0.4743
 3329SOL    HW121620   0.936   1.516  10.619 -0.2731 -1.0038  0.0535
 3329SOL    HW221621   0.936   1.497  10.472  0.4613  1.2132  0.3909
 3330SOL     OW21622   3.256   1.567   9.807  0.5238  0.5560  0.7248
 3330SOL    HW121623   3.253   1.661   9.792  1.5924  0.8534  2.3753
 3330SOL    HW221624   3.316   1.564   9.882  3.0049 -1.6622 -1.3474
 3331SOL     OW21625   0.481   1.422   6.180  0.5206 -0.0671  0.4481
 3331SOL    HW121626   0.448   1.481   6.248 -0.2135 -2.0222  1.7941
 3331SOL    HW221627   0.556   1.384   6.224 -0.6559 -3.1121 -0.2031
 3332SOL     OW21628   3.902   3.475   6.645 -0.0052 -0.1107 -0.5455
 3332SOL    HW121629   3.943   3.415   6.708 -1.3256 -0.3370  0.1083
 3332SOL    HW221630   3.888   3.410   6.576 -1.0641 -1.8034  1.2276
 3333SOL     OW21631   1.999   1.664   5.944 -0.0731  0.0265 -0.8565
 3333SOL    HW121632   1.977   1.647   5.853 -1.2732 -2.8748 -0.0347
 3333SOL    HW221633   2.001   1.760   5.946  2.3659  0.0296 -3.6096
 3334SOL     OW21634   0.019   2.038  17.208 -0.1053  0.1057  0.3911
 3334SOL    HW121635   0.046   2.075  17.124  1.5427 -1.4232  0.2543
 3334SOL    HW221636   0.077   1.963  17.218 -2.3715 -1.7844 -0.4959
 3335SOL     OW21637   3.732   0.572   4.196  0.2711 -0.0104  0.0890
 3335SOL    HW121638   3.749   0.612   4.110  0.0084  0.1332  0.1031
 3335SOL    HW221639   3.792   0.622   4.252 -0.2695 -1.4710  1.9255
 3336SOL     OW21640   4.601   3.996   6.006 -0.3282 -0.2111  0.9782
 3336SOL    HW121641   4.596   3.946   5.925  2.8430 -0.5511  0.9846
 3336SOL    HW221642   4.563   4.078   5.975 -0.2171 -0.0186  1.3499
 3337SOL     OW21643   1.006   3.530  14.295 -0.0978  0.3535  0.2920
 3337SOL    HW121644   1.018   3.483  14.213  0.5626  2.0856 -0.6166
 3337SOL    HW221645   0.914   3.512  14.313 -0.4930  2.5696  0.5543
 3338SOL     OW21646   3.076   1.455   7.592  0.3702 -0.0439 -0.2286
 3338SOL    HW121647   3.010   1.464   7.523 -0.1469 -0.1478  0.2559
 3338SOL    HW221648   3.153   1.493   7.550  0.7645 -0.6652 -0.0776
 3339SOL     OW21649   4.061   1.487   6.396  0.3234  0.2183 -0.0784
 3339SOL    HW121650   4.109   1.472   6.478  2.2503  0.0939 -1.2468
 3339SOL    HW221651   4.134   1.469   6.337 -0.5388 -1.8161 -0.5143
 3340SOL     OW21652   2.973   3.253  14.115  0.0017  0.1916 -0.1940
 3340SOL    HW121653   3.015   3.188  14.058  0.0380  0.6384 -0.6806
 3340SOL    HW221654   2.916   3.293  14.049  0.4286  0.6753 -0.2680
 3341SOL     OW21655   2.282   0.268   8.543 -0.0682 -0.4756  0.0589
 3341SOL    HW121656   2.257   0.345   8.491  0.6395  0.4704  1.1087
 3341SOL    HW221657   2.273   0.199   8.477  0.5477 -0.4060 -0.1010
 3342SOL     OW21658   0.041   2.304   0.164  0.2926 -0.4108  0.0104
 3342SOL    HW121659   0.088   2.252   0.098 -0.5491  0.5480 -1.3414
 3342SOL    HW221660   0.020   2.385   0.119 -0.4854 -0.4862  0.2198
 3343SOL     OW21661   3.509   1.281  13.418  0.6013 -0.0506 -0.1273
 3343SOL    HW121662   3.520   1.186  13.424 -0.3247 -0.0770  1.1596
 3343SOL    HW221663   3.559   1.299  13.338 -1.2417 -1.0330 -1.5017
 3344SOL     OW21664   2.151   2.937  13.579  0.0754 -0.4265 -0.0419
 3344SOL    HW121665   2.186   2.990  13.651 -2.2497  0.6602  0.2634
 3344SOL    HW221666   2.197   2.968  13.501  1.7442  0.6938  1.3794
 3345SOL     OW21667   4.361   3.592   8.732  0.2230 -0.0633  0.4460
 3345SOL    HW121668   4.395   3.670   8.689 -2.2223  0.8393  0.2091
 3345SOL    HW221669   4.405   3.523   8.682  0.4498  0.2649  0.1880
 3346SOL     OW21670   1.585   1.388   5.814 -0.1123 -0.3636 -0.3383
 3346SOL    HW121671   1.659   1.404   5.873 -2.7866  0.4656  2.8037
 3346SOL    HW221672   1.509   1.432   5.853 -1.7115 -1.6754 -1.9883
 3347SOL     OW21673   2.397   2.740   6.693  0.2164  0.3869  0.8119
 3347SOL    HW121674   2.407   2.751   6.787  2.5657  1.7311  0.3961
 3347SOL    HW221675   2.468   2.792   6.656  0.5010 -0.5814 -0.0029
 3348SOL     OW21676   1.341   1.008   6.534 -0.5887  0.2143 -1.0086
 3348SOL    HW121677   1.434   0.985   6.530 -0.7652 -0.5744 -0.5950
 3348SOL    HW221678   1.310   0.944   6.469  1.9645 -0.7018 -1.3338
 3349SOL     OW21679   2.219   0.702  10.138 -0.1528 -0.2881 -0.1877
 3349SOL    HW121680   2.276   0.774  10.109  1.6456 -1.0236  1.4810
 3349SOL    HW221681   2.286   0.645  10.175  0.9954  0.0115 -1.7758
 3350SOL     OW21682   1.821   2.445   3.185  0.5708  0.0334 -0.1314
 3350SOL    HW121683   1.866   2.523   3.218  0.5200  0.4026 -0.9488
 3350SOL    HW221684   1.848   2.391   3.259 -0.3951  1.6121  1.3733
 3351SOL     OW21685   1.110   3.795  13.337  0.2013 -0.0045 -0.6124
 3351SOL    HW121686   1.201   3.776  13.361  0.4074  0.5837 -0.9260
 3351SOL    HW221687   1.109   3.890  13.354 -1.0316 -0.5549  2.4752
 3352SOL     OW21688   0.476   0.493   3.904 -0.3724  0.0722 -0.6382
 3352SOL    HW121689   0.423   0.537   3.837 -1.4887 -0.5311 -0.1470
 3352SOL    HW221690   0.408   0.449   3.955  0.4245  1.5424  1.6691
 3353SOL     OW21691   2.065   0.936   1.416 -0.5072 -0.0428 -0.1291
 3353SOL    HW121692   1.986   0.887   1.394 -0.5239 -0.6861  1.3786
 3353SOL    HW221693   2.092   0.886   1.493  0.4256  2.4246  1.1651
 3354SOL     OW21694   2.860   2.819   4.115  0.2221  0.3520 -0.0632
 3354SOL    HW121695   2.928   2.822   4.048 -0.2323  0.7038 -0.5140
 3354SOL    HW221696   2.796   2.870   4.066  0.7969  0.3140 -0.8581
 3355SOL     OW21697   1.485   2.678  17.170 -0.9085 -0.1824 -0.2243
 3355SOL    HW121698   1.408   2.650  17.220  0.5737 -0.2962  1.9644
 3355SOL    HW221699   1.450   2.684  17.081  0.1186 -1.0792 -0.6909
 3356SOL     OW21700   0.576   4.269   2.875 -0.1133  0.1455 -0.0819
 3356SOL    HW121701   0.627   4.202   2.920  0.1646  0.0470 -0.5520
 3356SOL    HW221702   0.495   4.232   2.839 -0.3384  1.1561 -0.6120
 3357SOL     OW21703   4.300   0.312  14.882  0.0018 -0.0814 -0.1088
 3357SOL    HW121704   4.322   0.402  14.857  0.8237 -0.3576 -0.3757
 3357SOL    HW221705   4.281   0.342  14.970  5.1097 -1.7742  1.5856
 3358SOL     OW21706   4.365   3.695  14.729  0.4993 -0.7956 -0.2278
 3358SOL    HW121707   4.404   3.643  14.799 -1.6430  0.1201  1.6311
 3358SOL    HW221708   4.323   3.625  14.678 -0.9497 -1.5682  2.0562
 3359SOL     OW21709   0.759   3.191   2.045 -0.3287 -0.0620  0.3893
 3359SOL    HW121710   0.729   3.265   1.993 -0.6395 -0.9109 -0.6429
 3359SOL    HW221711   0.854   3.193   2.035 -0.3240 -0.5137  0.3219
 3360SOL     OW21712   1.809   2.771   3.738 -0.2569  0.1739  0.2634
 3360SOL    HW121713   1.826   2.797   3.829  2.5722 -1.3891  0.1648
 3360SOL    HW221714   1.828   2.678   3.744 -3.2860 -0.6185 -2.3474
 3361SOL     OW21715   3.717   0.283   7.403 -0.3242 -0.1484  0.0115
 3361SOL    HW121716   3.747   0.204   7.448 -0.0067 -0.4258 -0.6758
 3361SOL    HW221717   3.632   0.278   7.446 -2.0144 -0.7527 -3.4054
 3362SOL     OW21718   1.187   2.755   4.726 -0.2983 -0.3090  0.3310
 3362SOL    HW121719   1.173   2.793   4.812  0.7016  3.3845 -1.1480
 3362SOL    HW221720   1.101   2.726   4.693  0.1980 -0.0545 -1.1986
 3363SOL     OW21721   0.444   1.594  12.844  0.6054 -0.0585  0.2365
 3363SOL    HW121722   0.448   1.591  12.940 -4.3516 -1.4393  0.3790
 3363SOL    HW221723   0.394   1.675  12.836 -3.0264 -2.1820  1.3941
 3364SOL     OW21724   4.616   4.018  11.051 -0.1096 -0.2436  0.6401
 3364SOL    HW121725   4.657   4.029  10.965 -1.1365 -0.7443  0.0908
 3364SOL    HW221726   4.522   4.018  11.037 -0.4676 -0.1117  3.0525
 3365SOL     OW21727   2.045   1.156   5.035  0.3931  0.0020  0.0261
 3365SOL    HW121728   2.051   1.175   5.128  2.2723 -0.1158 -0.0524
 3365SOL    HW221729   1.968   1.202   5.003 -0.1468  0.0680  1.4602
 3366SOL     OW21730   0.524   1.781  14.047  0.3137  0.9850 -0.5435
 3366SOL    HW121731   0.441   1.808  14.009 -0.7123 -0.1145  0.8977
 3366SOL    HW221732   0.511   1.693  14.083 -1.4178  0.4175 -2.6004
 3367SOL     OW21733   1.511   2.492  11.805 -0.7761  0.0065  0.2105
 3367SOL    HW121734   1.546   2.405  11.823 -1.2588 -0.3149 -0.4251
 3367SOL    HW221735   1.527   2.508  11.712  0.8095  0.6158  0.5985
 3368SOL     OW21736   1.847   3.489   6.503  0.6538  0.4732  0.7076
 3368SOL    HW121737   1.861   3.401   6.469 -0.4744  0.6034 -0.0909
 3368SOL    HW221738   1.935   3.527   6.499  0.2346  1.1624 -2.1345
 3369SOL     OW21739   2.023   1.766   5.360  0.3746  0.0287 -0.6066
 3369SOL    HW121740   1.931   1.790   5.373  0.7405 -0.1672  2.4541
 3369SOL    HW221741   2.056   1.848   5.324 -1.8604  0.9674 -0.5387
 3370SOL     OW21742   3.880   2.420   0.568 -0.5651  0.0561 -0.1115
 3370SOL    HW121743   3.868   2.450   0.658 -0.6061 -0.6613  0.1232
 3370SOL    HW221744   3.974   2.421   0.552 -0.6366  0.5876 -0.4856
 3371SOL     OW21745   1.635   2.587  12.038 -0.8667 -0.3242  0.7165
 3371SOL    HW121746   1.591   2.516  12.086 -0.9291 -1.6303 -1.3030
 3371SOL    HW221747   1.596   2.569  11.953  3.0601  0.3646 -1.1893
 3372SOL     OW21748   0.482   4.049   1.938  0.7454 -0.0707 -0.0807
 3372SOL    HW121749   0.440   3.997   1.870  0.2604  0.8715 -0.5018
 3372SOL    HW221750   0.538   4.110   1.890 -0.5582 -0.0915 -1.6285
 3373SOL     OW21751   1.603   0.948   6.498 -0.0384  0.0560  0.5112
 3373SOL    HW121752   1.636   0.899   6.423  1.4823 -0.1563  1.3238
 3373SOL    HW221753   1.658   0.930   6.575  0.9980  1.9493  0.2045
 3374SOL     OW21754   3.183   4.351  10.092  0.5424  0.0911  0.5495
 3374SOL    HW121755   3.165   4.329  10.184 -0.0817  1.5280  0.7714
 3374SOL    HW221756   3.200   4.266  10.051 -0.9787  0.8416 -1.6460
 3375SOL     OW21757   1.300   3.083   8.376 -0.2664 -0.1942 -0.1779
 3375SOL    HW121758   1.250   3.160   8.348 -1.7690 -1.1742 -0.1704
 3375SOL    HW221759   1.383   3.091   8.329 -0.7188  0.7718 -0.8165
 3376SOL     OW21760   2.413   2.096   5.471  0.4095 -0.1125  0.4036
 3376SOL    HW121761   2.422   2.114   5.565 -1.0152  0.6925  0.3912
 3376SOL    HW221762   2.406   2.001   5.466  0.2218 -0.1635  1.5814
 3377SOL     OW21763   1.097   2.407  13.744 -0.1919 -0.4602 -0.0403
 3377SOL    HW121764   1.096   2.481  13.805  0.6968  1.1641 -1.9930
 3377SOL    HW221765   1.005   2.406  13.718  0.2596 -2.8277 -1.4644
 3378SOL     OW21766   4.665   3.111  16.087  0.2459  0.0416  0.1291
 3378SOL    HW121767   0.004   3.137  16.133  0.0082 -1.3553  1.3035
 3378SOL    HW221768   4.603   3.135  16.156 -0.2708 -0.0481 -0.3004
 3379SOL     OW21769   2.613   0.261   7.302 -0.3788 -0.3080  0.1057
 3379SOL    HW121770   2.673   0.259   7.228  1.5053  1.1778  1.5674
 3379SOL    HW221771   2.537   0.296   7.257  0.2502  1.4720  0.4089
 3380SOL     OW21772   4.264   0.147   7.859 -0.9728 -0.3896 -0.6316
 3380SOL    HW121773   4.209   0.206   7.807  0.7101 -0.2508 -2.2637
 3380SOL    HW221774   4.201   0.084   7.892  0.4830 -0.6562  1.6656
 3381SOL     OW21775   3.753   1.589   6.568 -0.2115  0.3585  0.2347
 3381SOL    HW121776   3.782   1.673   6.605  2.4481 -0.2485 -0.4626
 3381SOL    HW221777   3.690   1.565   6.636  0.4459  0.2865  0.8200
 3382SOL     OW21778   4.683   1.151  17.503 -0.0693  0.0286  0.3904
 3382SOL    HW121779   4.598   1.168  17.461 -0.1101  2.6504  1.5552
 3382SOL    HW221780   4.734   1.135  17.423  0.2810  0.4276  0.5400
 3383SOL     OW21781   4.024   0.799   7.383  0.5779 -0.2875 -0.0060
 3383SOL    HW121782   4.045   0.749   7.461 -2.0570 -3.3791 -1.2678
 3383SOL    HW221783   3.972   0.731   7.341  2.2754 -1.2464 -0.5166
 3384SOL     OW21784   0.842   0.261  11.718 -0.1618  0.0014 -0.3206
 3384SOL    HW121785   0.883   0.312  11.648 -0.3275  1.9335  0.9813
 3384SOL    HW221786   0.855   0.174  11.681 -1.4931 -1.3681  2.4185
 3385SOL     OW21787   1.367   3.533   7.100  0.4200 -0.0550 -0.5919
 3385SOL    HW121788   1.386   3.544   7.193  1.6591 -0.4951 -0.7901
 3385SOL    HW221789   1.394   3.618   7.066  1.6417  0.1514  0.8683
 3386SOL     OW21790   0.634   0.535   3.061  0.0211 -0.8770  0.0579
 3386SOL    HW121791   0.607   0.504   3.147  0.6881  1.0985  0.9973
 3386SOL    HW221792   0.695   0.466   3.036  1.0165  0.2878 -0.7578
 3387SOL     OW21793   0.951   2.483  14.403 -0.2943 -0.2986  0.1414
 3387SOL    HW121794   1.033   2.434  14.412 -0.9000 -1.1628  0.9236
 3387SOL    HW221795   0.892   2.439  14.465 -0.2105  0.0702  0.4858
 3388SOL     OW21796   3.492   4.122   6.572 -0.3598  0.5066  0.1072
 3388SOL    HW121797   3.553   4.185   6.535 -1.8780  1.7308 -0.3062
 3388SOL    HW221798   3.468   4.158   6.658 -0.5861  2.1002 -0.6404
 3389SOL     OW21799   2.978   1.450   5.854  0.8201  0.1660  0.1814
 3389SOL    HW121800   3.051   1.476   5.911  0.1844  0.1471  1.0143
 3389SOL    HW221801   2.962   1.520   5.792  1.8759  0.3965  0.1615
 3390SOL     OW21802   2.620   0.976   2.213  0.0317 -0.2245 -0.0448
 3390SOL    HW121803   2.698   0.950   2.262  0.2148  1.0461  0.3462
 3390SOL    HW221804   2.579   0.890   2.207  0.6543 -0.3986 -1.9446
 3391SOL     OW21805   3.188   4.189   8.137  0.0348  0.8509  0.0194
 3391SOL    HW121806   3.237   4.107   8.140 -0.6820  0.4574  0.9400
 3391SOL    HW221807   3.216   4.228   8.219 -1.0584  0.8508  0.3893
 3392SOL     OW21808   4.329   0.749   5.890 -0.0535 -0.2834 -0.1069
 3392SOL    HW121809   4.333   0.666   5.936 -2.4184  0.9169  2.2727
 3392SOL    HW221810   4.422   0.761   5.870 -0.0257  3.6130  2.4437
 3393SOL     OW21811   0.381   2.325  12.865 -0.6497 -0.7077  0.2992
 3393SOL    HW121812   0.442   2.322  12.938  0.5101  2.0486 -0.5824
 3393SOL    HW221813   0.427   2.274  12.798  1.6397  0.3785  1.0577
 3394SOL     OW21814   3.897   1.119   5.282 -0.1229 -0.5672  0.4958
 3394SOL    HW121815   3.915   1.210   5.256  0.4546 -0.5520  0.9634
 3394SOL    HW221816   3.821   1.125   5.339 -0.6238  0.9655 -0.3045
 3395SOL     OW21817   4.554   0.982  14.953 -0.1561 -0.3409 -0.6552
 3395SOL    HW121818   4.528   1.062  14.906  1.5069  0.5564 -0.0607
 3395SOL    HW221819   4.647   1.002  14.964 -0.1616 -0.6891  0.0045
 3396SOL     OW21820   4.598   4.013   8.753 -0.1193 -0.1603  0.7625
 3396SOL    HW121821   4.642   3.962   8.821 -3.1295 -1.7793  1.5289
 3396SOL    HW221822   4.546   4.075   8.805 -2.6364 -1.4723 -0.2069
 3397SOL     OW21823   4.694   3.499  15.111 -0.5111  0.1906 -0.1368
 3397SOL    HW121824   4.612   3.501  15.062 -0.5149  0.4159 -0.1243
 3397SOL    HW221825   4.661   3.515  15.199 -1.0697 -2.2623  0.0761
 3398SOL     OW21826   0.985   4.658   6.714  0.4400  0.4934  0.1465
 3398SOL    HW121827   1.062   4.650   6.658 -0.9332 -0.6276 -1.5677
 3398SOL    HW221828   1.032   4.676   6.795 -2.0003  1.7302  1.2943
 3399SOL     OW21829   0.556   1.647  14.878 -0.2839  0.0846  0.1822
 3399SOL    HW121830   0.561   1.741  14.863 -0.0415  0.3600  1.9482
 3399SOL    HW221831   0.628   1.611  14.825 -1.0898 -1.6563  0.2789
 3400SOL     OW21832   2.517   2.544  13.749  0.0146  0.6243 -0.1898
 3400SOL    HW121833   2.486   2.471  13.802 -0.4686  1.2439  0.3782
 3400SOL    HW221834   2.436   2.593  13.733 -1.3069 -2.0970 -1.7816
 3401SOL     OW21835   2.411   0.507   1.061 -0.1670 -0.1919 -0.2122
 3401SOL    HW121836   2.359   0.498   1.141  0.2429  0.6960  0.1534
 3401SOL    HW221837   2.366   0.443   1.005  1.7029 -2.2176  0.5809
 3402SOL     OW21838   2.781   3.607   6.428 -0.0419 -0.2569  0.4090
 3402SOL    HW121839   2.733   3.641   6.353 -0.6518 -0.1342  0.8549
 3402SOL    HW221840   2.756   3.515   6.426  0.2578 -0.4174  3.1932
 3403SOL     OW21841   2.541   1.544   6.433  0.1565 -0.0928  0.3434
 3403SOL    HW121842   2.627   1.562   6.397  0.2318  0.1845  0.6616
 3403SOL    HW221843   2.492   1.608   6.383  0.4751  0.0252  0.1848
 3404SOL     OW21844   1.991   4.418   1.623 -0.6206 -0.5680  0.4842
 3404SOL    HW121845   1.972   4.355   1.553 -0.9948  1.8091 -1.5313
 3404SOL    HW221846   1.983   4.493   1.565 -0.2966 -1.2421 -0.4455
 3405SOL     OW21847   3.835   3.718  15.136  0.0916  0.1705  0.3846
 3405SOL    HW121848   3.788   3.798  15.110  0.7258  0.5968  0.5460
 3405SOL    HW221849   3.817   3.671  15.055 -0.0292  2.4140 -0.8931
 3406SOL     OW21850   4.477   0.332  13.462 -0.1930  0.4745  0.4147
 3406SOL    HW121851   4.520   0.256  13.501 -0.0598 -0.3136 -1.2849
 3406SOL    HW221852   4.450   0.299  13.376 -0.7027 -1.3678  1.2809
 3407SOL     OW21853   2.007   4.483   9.555 -0.2694 -0.0512 -0.1115
 3407SOL    HW121854   1.976   4.394   9.539 -0.1015  0.3386 -2.6073
 3407SOL    HW221855   2.084   4.491   9.498  0.0688 -2.1322  0.0396
 3408SOL     OW21856   0.075   4.564   7.323  0.3584  0.3446 -0.4591
 3408SOL    HW121857   0.140   4.494   7.324 -0.3885 -0.3503 -0.6059
 3408SOL    HW221858   0.082   4.601   7.411  1.6543 -0.9703 -0.0156
 3409SOL     OW21859   0.328   2.156   5.390 -0.4562 -0.3577 -0.0788
 3409SOL    HW121860   0.389   2.123   5.324  1.1956 -0.7193  1.6136
 3409SOL    HW221861   0.392   2.191   5.452 -1.3590 -2.5930  2.1392
 3410SOL     OW21862   4.101   3.984   7.222  0.2831 -0.0657 -0.4049
 3410SOL    HW121863   4.104   4.060   7.163  1.2158  0.5303  0.4088
 3410SOL    HW221864   4.069   3.919   7.160  1.2382  0.4154 -1.4079
 3411SOL     OW21865   3.636   0.182   9.161  0.8462  0.0746  0.4450
 3411SOL    HW121866   3.589   0.258   9.194 -0.9307 -0.1822 -1.5207
 3411SOL    HW221867   3.722   0.222   9.178  0.2902  0.5663  2.1147
 3412SOL     OW21868   4.197   2.109   5.536 -0.3051  0.3947 -0.1601
 3412SOL    HW121869   4.225   2.157   5.614  0.5397 -0.1428 -0.1362
 3412SOL    HW221870   4.101   2.107   5.545 -0.3529 -3.1575 -1.3516
 3413SOL     OW21871   4.128   4.685   8.034  0.4787 -0.1824 -0.3105
 3413SOL    HW121872   4.213   4.711   8.070  0.9184  1.9272 -2.8083
 3413SOL    HW221873   4.116   4.597   8.067  2.0456 -0.5690 -0.7570
 3414SOL     OW21874   4.635   1.748   6.740  0.2757  0.4721  0.2829
 3414SOL    HW121875   4.631   1.825   6.682 -2.9928  0.4648  0.5233
 3414SOL    HW221876   4.548   1.760   6.778 -0.3968  2.0724 -1.7377
 3415SOL     OW21877   1.791   1.400   4.052  0.5276  0.7832 -0.0461
 3415SOL    HW121878   1.707   1.434   4.022  0.2154 -0.4737 -0.5935
 3415SOL    HW221879   1.807   1.471   4.115  4.0976 -1.0582  1.1005
 3416SOL     OW21880   2.744   0.233   4.334 -0.0589  0.2573 -0.5016
 3416SOL    HW121881   2.667   0.179   4.352 -0.7247  1.4335  0.1906
 3416SOL    HW221882   2.804   0.164   4.305  2.0557  1.4043  1.1669
 3417SOL     OW21883   2.252   2.653  13.761 -0.1976  0.2189  0.2173
 3417SOL    HW121884   2.200   2.634  13.683  0.2660 -2.5994  0.6146
 3417SOL    HW221885   2.193   2.694  13.824 -1.2900  0.0852 -0.7199
 3418SOL     OW21886   0.230   1.206  11.648 -0.3736  0.2759 -0.1983
 3418SOL    HW121887   0.292   1.145  11.607 -2.1386 -1.4109 -0.3239
 3418SOL    HW221888   0.154   1.149  11.653  0.5259 -0.8900  0.2058
 3419SOL     OW21889   3.719   2.004   0.663 -0.2045 -0.3298  0.4346
 3419SOL    HW121890   3.647   1.960   0.618 -0.6650  0.1616  0.6927
 3419SOL    HW221891   3.671   2.080   0.696 -0.1857 -0.4788  0.8054
 3420SOL     OW21892   1.461   4.147   6.424  0.2233  0.1620  0.2430
 3420SOL    HW121893   1.556   4.162   6.430  0.4473 -0.0280 -3.0677
 3420SOL    HW221894   1.443   4.074   6.483 -1.1745 -0.2245 -0.6825
 3421SOL     OW21895   1.647   2.306   9.278  0.2890 -0.1793 -0.0089
 3421SOL    HW121896   1.609   2.236   9.224  1.1464 -1.1503  0.6484
 3421SOL    HW221897   1.666   2.247   9.351 -1.1784  0.8816  1.2352
 3422SOL     OW21898   4.688   0.802   3.547  0.0848 -0.1475 -0.3045
 3422SOL    HW121899   4.639   0.828   3.468 -0.5698  0.3015  0.2522
 3422SOL    HW221900   4.655   0.712   3.553 -1.7491  0.3437 -2.9977
 3423SOL     OW21901   0.125   1.477  15.950 -0.1891 -0.6547 -0.2526
 3423SOL    HW121902   0.122   1.555  16.004  0.6810 -1.1059  0.4304
 3423SOL    HW221903   0.057   1.492  15.883 -1.5864  3.2670  2.0373
 3424SOL     OW21904   4.304   3.771   1.092  0.1601 -0.1534 -0.0727
 3424SOL    HW121905   4.309   3.751   1.186 -1.2368 -0.1130  0.0013
 3424SOL    HW221906   4.210   3.781   1.078  0.5617  0.3895 -2.3423
 3425SOL     OW21907   4.052   0.115  10.853  0.1768  0.3918 -0.1309
 3425SOL    HW121908   4.006   0.137  10.934  2.4922 -0.2413  1.3350
 3425SOL    HW221909   3.991   0.153  10.789  0.0340 -0.2694 -0.3872
 3426SOL     OW21910   4.477   1.544   3.606  0.2707  0.2719 -0.0536
 3426SOL    HW121911   4.527   1.552   3.687 -0.6841 -2.2186  0.7607
 3426SOL    HW221912   4.438   1.631   3.611 -0.7298 -0.2134  0.4259
 3427SOL     OW21913   0.021   3.927   7.127 -0.0743 -0.1566  0.2711
 3427SOL    HW121914   4.713   3.947   7.048 -3.0167 -0.6343  1.9542
 3427SOL    HW221915   0.097   3.980   7.105  0.0809  0.0976  1.4231
 3428SOL     OW21916   1.313   3.568   9.813 -0.3322  0.0122 -0.6204
 3428SOL    HW121917   1.345   3.480   9.832 -0.9744  0.0422  0.5472
 3428SOL    HW221918   1.391   3.607   9.773  0.3378 -1.2802 -0.5899
 3429SOL     OW21919   1.572   2.298   7.163 -0.0124 -0.0346 -0.1252
 3429SOL    HW121920   1.625   2.255   7.230 -1.4324  0.3127  1.2266
 3429SOL    HW221921   1.482   2.292   7.196 -0.6470 -0.9393 -2.0154
 3430SOL     OW21922   1.695   0.905  13.485  0.3605  0.1513  0.8794
 3430SOL    HW121923   1.681   0.814  13.511  0.8468 -0.1992 -0.0814
 3430SOL    HW221924   1.776   0.918  13.534  2.2695  0.1278 -2.2659
 3431SOL     OW21925   2.574   3.008   8.582  0.2862  0.0861  0.0706
 3431SOL    HW121926   2.649   3.044   8.628  0.4335  1.3027 -1.1327
 3431SOL    HW221927   2.595   3.055   8.501  2.6253  0.0017  0.6462
 3432SOL     OW21928   2.260   2.996   3.946  0.4567 -0.0466  0.2414
 3432SOL    HW121929   2.201   2.922   3.958  1.4655 -1.1797 -1.8522
 3432SOL    HW221930   2.290   2.975   3.857 -1.5086 -0.5360 -0.3108
 3433SOL     OW21931   3.983   1.064   3.366  0.2961  0.0879 -0.9664
 3433SOL    HW121932   3.913   1.129   3.376 -0.5476 -0.9264 -0.3765
 3433SOL    HW221933   3.959   0.995   3.426  2.6360  0.1181  0.0246
 3434SOL     OW21934   1.385   2.497  13.216 -0.1955  0.5379 -0.4047
 3434SOL    HW121935   1.436   2.487  13.297  1.4856 -1.9651 -1.7925
 3434SOL    HW221936   1.433   2.442  13.155  0.0604  1.2455 -0.8327
 3435SOL     OW21937   4.414   2.441   6.185  0.2826  0.3451 -0.0074
 3435SOL    HW121938   4.475   2.435   6.112 -0.3463 -1.8724 -0.3533
 3435SOL    HW221939   4.379   2.529   6.176 -1.7390 -0.5457 -1.0377
 3436SOL     OW21940   4.140   0.050   7.559 -0.0322 -0.5903  0.5409
 3436SOL    HW121941   4.228   0.086   7.565  0.5261 -1.7781 -0.7417
 3436SOL    HW221942   4.092   0.107   7.498 -0.6259  0.5328  2.0422
 3437SOL     OW21943   0.660   0.670   4.574  0.4011  0.1093 -0.0460
 3437SOL    HW121944   0.681   0.632   4.659  1.2043 -0.4619 -0.5030
 3437SOL    HW221945   0.604   0.604   4.531  1.7032 -0.4827 -0.8214
 3438SOL     OW21946   1.265   1.683   1.070 -0.1466 -0.5954 -0.3518
 3438SOL    HW121947   1.296   1.608   1.121  2.4899  2.1137  2.0708
 3438SOL    HW221948   1.319   1.756   1.101 -1.3209  0.4772 -0.8285
 3439SOL     OW21949   0.904   2.197  17.713  0.4575 -0.1585  0.2126
 3439SOL    HW121950   0.957   2.276  17.722 -0.7538  0.7284 -0.3487
 3439SOL    HW221951   0.962   2.140  17.663  1.4845  1.4519 -0.4384
 3440SOL     OW21952   4.383   3.200   7.658 -0.3239 -0.0423  0.5523
 3440SOL    HW121953   4.314   3.143   7.693 -0.6166 -0.4783 -0.7363
 3440SOL    HW221954   4.355   3.229   7.571  1.4613  1.6775  0.5534
 3441SOL     OW21955   1.396   2.031  16.539  0.3858 -0.2369 -0.1532
 3441SOL    HW121956   1.374   1.940  16.517 -2.6432  0.4681 -0.0681
 3441SOL    HW221957   1.328   2.046  16.605  1.0401 -2.6653  1.0905
 3442SOL     OW21958   0.616   3.034   5.395 -0.4934 -0.3888 -0.3921
 3442SOL    HW121959   0.560   2.973   5.441 -1.7484 -0.0022 -1.3992
 3442SOL    HW221960   0.570   3.118   5.388 -1.0216 -0.6635 -0.1932
 3443SOL     OW21961   0.430   1.816   4.633  0.5633  0.1448  0.3345
 3443SOL    HW121962   0.498   1.849   4.574  0.2446  1.0232  0.4473
 3443SOL    HW221963   0.469   1.834   4.718 -0.7553 -0.0693  0.9759
 3444SOL     OW21964   1.444   0.982   9.248 -0.0372 -0.0320  0.6322
 3444SOL    HW121965   1.404   1.053   9.197  0.6224 -0.2663 -0.2050
 3444SOL    HW221966   1.532   0.983   9.211  0.0264 -0.3032  0.7799
 3445SOL     OW21967   3.577   3.747   7.964  0.4878 -0.2429  0.1618
 3445SOL    HW121968   3.585   3.783   8.053  1.6124 -0.2020  0.0407
 3445SOL    HW221969   3.566   3.653   7.980  0.1411  0.1683  2.3973
 3446SOL     OW21970   0.378   1.582   9.760  0.4242 -0.0545 -0.3101
 3446SOL    HW121971   0.392   1.511   9.822 -0.6751 -1.4384 -1.6407
 3446SOL    HW221972   0.450   1.641   9.781  1.1573 -0.4415 -1.6921
 3447SOL     OW21973   4.688   2.555   4.508 -0.2687 -0.6180  0.4236
 3447SOL    HW121974   0.024   2.523   4.460  0.4666  1.5506  0.1528
 3447SOL    HW221975   4.685   2.650   4.509  0.9352 -0.5621 -0.5483
 3448SOL     OW21976   4.610   1.970   4.183 -0.1312 -0.5450  0.3136
 3448SOL    HW121977   4.540   1.985   4.246  0.8391  2.6992  0.6476
 3448SOL    HW221978   4.666   1.906   4.227  0.2617 -0.0460  0.5360
 3449SOL     OW21979   4.639   1.222  15.092  0.1887 -0.1890  0.6114
 3449SOL    HW121980   4.613   1.295  15.148  0.3271  1.0062 -0.8765
 3449SOL    HW221981   4.706   1.250  15.030  0.4161  0.3221  1.0979
 3450SOL     OW21982   2.879   2.002   2.628 -0.2621 -0.2658 -0.1597
 3450SOL    HW121983   2.938   2.042   2.565 -0.0607 -0.7779 -0.3004
 3450SOL    HW221984   2.891   1.911   2.601  0.4593  0.3810 -1.9585
 3451SOL     OW21985   2.043   4.598   8.294  0.0789  0.6462 -0.3151
 3451SOL    HW121986   2.131   4.602   8.330  0.2109  1.5840 -0.7296
 3451SOL    HW221987   2.005   4.680   8.326 -0.1852  0.2043  0.5028
 3452SOL     OW21988   1.478   1.430   4.307 -0.1990  0.0045 -0.1585
 3452SOL    HW121989   1.536   1.506   4.292 -1.3899  0.8110 -0.6682
 3452SOL    HW221990   1.398   1.477   4.329 -0.5423 -0.4370 -0.4759
 3453SOL     OW21991   3.369   4.709  16.575  0.1670 -0.8482  0.4159
 3453SOL    HW121992   3.400   0.018  16.650 -2.8078 -0.4029  1.3233
 3453SOL    HW221993   3.372   0.037  16.508 -0.9804 -1.4330 -0.2369
 3454SOL     OW21994   1.979   0.464   0.654 -0.0463  0.6423 -0.5487
 3454SOL    HW121995   1.899   0.420   0.685 -1.5810  2.5246 -1.8678
 3454SOL    HW221996   1.966   0.483   0.561  0.9641  2.9044 -0.2200
 3455SOL     OW21997   0.563   4.459   0.937 -0.1023 -0.0212 -0.0476
 3455SOL    HW121998   0.537   4.400   1.006 -3.5939  0.4537 -0.9834
 3455SOL    HW221999   0.595   4.530   0.993 -1.0421  0.0445  0.3893
 3456SOL     OW22000   2.819   1.519   0.482  0.3956  0.3458  0.8579
 3456SOL    HW122001   2.756   1.568   0.534 -1.1247 -1.0346  0.3121
 3456SOL    HW222002   2.764   1.491   0.409  2.1749  2.7335 -1.4353
 3457SOL     OW22003   3.778   1.782   4.779  0.5888 -0.4297 -0.1848
 3457SOL    HW122004   3.860   1.829   4.795 -0.6009  1.3334  0.8490
 3457SOL    HW222005   3.733   1.838   4.715  0.3178  0.5313  0.8347
 3458SOL     OW22006   0.696   1.351   7.904  0.2665 -0.2932  0.2065
 3458SOL    HW122007   0.670   1.442   7.888 -1.8605 -0.4493  2.7169
 3458SOL    HW222008   0.790   1.365   7.903  0.1490  0.5945  1.0661
 3459SOL     OW22009   2.732   2.382   7.874  0.0803  0.6411  0.1161
 3459SOL    HW122010   2.813   2.424   7.903  1.1726 -0.1897 -1.7524
 3459SOL    HW222011   2.751   2.290   7.895  1.1424 -0.0490 -3.8460
 3460SOL     OW22012   4.445   4.023   1.086  0.1321 -0.1086 -0.0319
 3460SOL    HW122013   4.382   3.952   1.079 -0.4908  0.3126  1.3677
 3460SOL    HW222014   4.499   4.002   1.010  1.4070 -0.2306  0.9052
 3461SOL     OW22015   3.997   4.244   2.759  0.1314 -0.0238 -0.0615
 3461SOL    HW122016   4.049   4.204   2.829  2.1612  1.6430 -0.6262
 3461SOL    HW222017   4.071   4.265   2.702 -0.1151 -2.8506 -1.4332
 3462SOL     OW22018   4.139   4.256  11.594 -0.3399  0.0719 -0.3723
 3462SOL    HW122019   4.063   4.207  11.624 -2.1501  3.2154  0.1359
 3462SOL    HW222020   4.207   4.219  11.651 -0.5168 -0.6330 -0.6104
 3463SOL     OW22021   2.125   0.146   2.799 -0.4009  0.0683  0.2653
 3463SOL    HW122022   2.099   0.236   2.817  0.6476  0.3492  0.3993
 3463SOL    HW222023   2.207   0.159   2.751 -1.2101 -0.7518 -1.3373
 3464SOL     OW22024   4.076   2.815   3.508 -0.9592  0.6492 -0.0419
 3464SOL    HW122025   4.021   2.756   3.559  1.5138 -2.9715 -1.5409
 3464SOL    HW222026   4.165   2.798   3.538 -1.0415 -0.4398 -0.4305
 3465SOL     OW22027   3.150   3.662   8.806  0.0632 -0.2615 -0.0557
 3465SOL    HW122028   3.096   3.712   8.868 -0.2542 -1.6108  0.7498
 3465SOL    HW222029   3.234   3.707   8.817  0.7026 -1.2675 -0.9068
 3466SOL     OW22030   4.654   0.922   0.126  0.3327 -0.0754  0.7324
 3466SOL    HW122031   4.667   0.857   0.194 -2.1449  0.1411  1.4016
 3466SOL    HW222032   4.642   1.001   0.178 -1.7037  1.4245 -1.9688
 3467SOL     OW22033   2.400   0.201   6.184 -0.3932  0.0850  0.2006
 3467SOL    HW122034   2.443   0.285   6.169 -0.4353  0.1757  0.5856
 3467SOL    HW222035   2.470   0.159   6.233 -0.2002  1.3879  1.0299
 3468SOL     OW22036   0.398   4.105   7.476 -0.1042 -0.1011 -0.0136
 3468SOL    HW122037   0.359   4.152   7.549 -2.8882 -0.5889 -1.1709
 3468SOL    HW222038   0.393   4.013   7.504  0.7178  0.1892  1.0770
 3469SOL     OW22039   1.911   0.162   5.680 -0.1585 -0.1207  0.3740
 3469SOL    HW122040   1.944   0.074   5.701  0.7182  1.0581  3.8199
 3469SOL    HW222041   1.901   0.154   5.585 -1.7550 -2.1913  0.6900
 3470SOL     OW22042   2.535   1.482   7.813  0.0470 -0.5739 -0.5055
 3470SOL    HW122043   2.536   1.564   7.863  2.1160 -0.6249 -0.4400
 3470SOL    HW222044   2.583   1.421   7.869 -1.6899 -1.9683 -0.5563
 3471SOL     OW22045   4.683   3.964   4.814 -0.4393  0.0178  0.6684
 3471SOL    HW122046   4.667   3.950   4.907 -2.0199  0.8944  0.5359
 3471SOL    HW222047   4.602   3.928   4.776 -1.6559  1.4673  1.8797
 3472SOL     OW22048   3.211   3.077   5.282  0.6354  0.2339 -0.7657
 3472SOL    HW122049   3.231   3.148   5.220  3.7847  0.6779  0.7689
 3472SOL    HW222050   3.138   3.036   5.235 -0.0630 -0.0046  0.5206
 3473SOL     OW22051   1.263   1.837   2.925 -0.3643  0.2549  0.0069
 3473SOL    HW122052   1.265   1.777   2.850 -0.5649  0.9144 -0.5251
 3473SOL    HW222053   1.172   1.865   2.927 -1.2486 -2.5577 -0.8872
 3474SOL     OW22054   0.555   4.197   3.789 -0.2172 -1.1426 -0.2705
 3474SOL    HW122055   0.609   4.270   3.759 -2.1415  0.4383  0.0269
 3474SOL    HW222056   0.475   4.241   3.819  1.0598  1.2151 -0.3036
 3475SOL     OW22057   3.346   0.092   4.097 -0.1009 -0.4211 -0.2172
 3475SOL    HW122058   3.421   0.104   4.039  0.1371 -0.9629 -0.0257
 3475SOL    HW222059   3.395   0.105   4.178 -0.7815  1.6072 -0.1282
 3476SOL     OW22060   2.247   0.482   1.277 -0.3101 -0.1144 -0.3334
 3476SOL    HW122061   2.163   0.440   1.291 -0.6606  0.2263 -1.3806
 3476SOL    HW222062   2.296   0.438   1.346  0.7740  1.7659  0.1258
 3477SOL     OW22063   4.176   4.388   5.231  0.4675  0.3223  0.1028
 3477SOL    HW122064   4.218   4.472   5.211  0.1101  0.3958 -0.3341
 3477SOL    HW222065   4.139   4.376   5.144 -1.2355  3.2641  0.4471
 3478SOL     OW22066   3.951   0.007   4.524  0.1691  0.5642  0.1378
 3478SOL    HW122067   3.905   4.712   4.448  2.5413  2.5074 -2.2715
 3478SOL    HW222068   4.036   0.032   4.488  1.1610  1.5951  3.2108
 3479SOL     OW22069   3.249   4.458   8.499 -0.2989  0.6407 -0.3492
 3479SOL    HW122070   3.285   4.522   8.438  1.0833 -0.0581 -0.2643
 3479SOL    HW222071   3.271   4.502   8.581  0.9915  1.1447 -0.9665
 3480SOL     OW22072   2.459   1.061   7.304  0.2444  0.0143 -0.3968
 3480SOL    HW122073   2.525   1.075   7.235 -0.5639  0.6323 -1.0464
 3480SOL    HW222074   2.482   0.972   7.332  1.1798  0.0907 -0.8987
 3481SOL     OW22075   4.176   1.035   4.065  0.9498 -0.4598 -0.2407
 3481SOL    HW122076   4.215   0.966   4.118  0.4568  1.2864  2.3852
 3481SOL    HW222077   4.236   1.038   3.991  1.4638 -0.9059  0.1597
 3482SOL     OW22078   4.148   4.064   6.309  0.0555  0.1973 -0.0938
 3482SOL    HW122079   4.196   3.999   6.360 -2.7408  0.4844  2.9059
 3482SOL    HW222080   4.064   4.019   6.313  0.2149 -0.2043 -1.3323
 3483SOL     OW22081   0.730   1.528   8.118 -0.0067  0.1928  0.3825
 3483SOL    HW122082   0.663   1.475   8.162  0.3615 -1.5783 -1.1632
 3483SOL    HW222083   0.802   1.467   8.102 -0.0002  0.7163 -1.4939
 3484SOL     OW22084   1.025   0.947   5.032  0.0816 -0.2986  0.1050
 3484SOL    HW122085   0.992   1.029   4.993  0.4305 -0.1674  0.0849
 3484SOL    HW222086   1.102   0.977   5.080 -0.4783  0.9773  0.2047
 3485SOL     OW22087   0.228   0.317  12.347 -0.2763  0.1838 -0.6446
 3485SOL    HW122088   0.205   0.342  12.437  1.9456  2.0657 -0.5943
 3485SOL    HW222089   0.189   0.229  12.340  1.2395 -0.5805  0.5042
 3486SOL     OW22090   4.118   2.577  10.084  0.0241  0.0511 -0.3433
 3486SOL    HW122091   4.036   2.541  10.051 -0.5411  0.7426  0.3059
 3486SOL    HW222092   4.154   2.492  10.108  0.7256  0.3872 -0.2204
 3487SOL     OW22093   0.177   4.641   3.920 -0.0811 -0.0511 -0.4875
 3487SOL    HW122094   0.195   4.622   3.828  2.8081 -1.4577  0.3460
 3487SOL    HW222095   0.119   4.568   3.944 -0.3525  0.1082 -0.6617
 3488SOL     OW22096   2.652   0.557   8.450  0.3041 -0.1759  0.2305
 3488SOL    HW122097   2.642   0.523   8.361 -0.7507 -1.5285  0.8780
 3488SOL    HW222098   2.567   0.537   8.488 -0.4149  0.8563 -0.8258
 3489SOL     OW22099   1.529   4.657   1.376  0.0232  0.1077 -0.0792
 3489SOL    HW122100   1.487   4.683   1.294  3.2073  1.6357 -1.2088
 3489SOL    HW222101   1.610   4.618   1.345 -0.6281 -0.7221 -0.7323
 3490SOL     OW22102   3.724   0.366   3.563 -0.3454 -0.3688  0.1223
 3490SOL    HW122103   3.678   0.450   3.565 -1.0010 -0.7453  0.7436
 3490SOL    HW222104   3.724   0.354   3.468  0.0856  0.3664  0.0251
 3491SOL     OW22105   4.018   0.256   1.224  0.2843  0.0516 -0.4114
 3491SOL    HW122106   4.100   0.209   1.209 -0.7602 -2.1672  0.7934
 3491SOL    HW222107   4.025   0.281   1.316  0.1285  2.3641 -1.0280
 3492SOL     OW22108   2.359   0.110   3.507  0.5056 -0.3885 -0.1805
 3492SOL    HW122109   2.425   0.061   3.557 -1.4428 -1.2425  1.5850
 3492SOL    HW222110   2.387   0.097   3.417 -0.4258 -0.9799 -0.3866
 3493SOL     OW22111   0.539   3.836   3.015  0.7184 -0.4941  0.0131
 3493SOL    HW122112   0.572   3.758   2.970 -0.0963 -1.1036  0.4896
 3493SOL    HW222113   0.552   3.896   2.941  0.3301  0.3345  0.6191
 3494SOL     OW22114   2.187   2.291   3.182 -0.3834  0.3043 -1.3177
 3494SOL    HW122115   2.222   2.218   3.131  0.2514 -1.8599  2.1597
 3494SOL    HW222116   2.253   2.360   3.182 -1.6146  1.4903 -0.9053
 3495SOL     OW22117   1.843   3.792   9.155  0.1205 -0.3073 -0.4048
 3495SOL    HW122118   1.906   3.855   9.190 -1.5640  1.0591  0.1657
 3495SOL    HW222119   1.782   3.779   9.227  1.0269 -2.0575  0.0430
 3496SOL     OW22120   1.861   4.164   6.266  0.2357 -0.3942  0.5905
 3496SOL    HW122121   1.897   4.246   6.230  1.6043 -0.9284  0.7567
 3496SOL    HW222122   1.821   4.191   6.349 -0.3622 -2.1729  0.8662
 3497SOL     OW22123   3.596   1.864   8.413  0.6780  0.0887  0.1019
 3497SOL    HW122124   3.626   1.914   8.489  2.1072  0.4202 -0.6842
 3497SOL    HW222125   3.663   1.890   8.349 -0.6333 -1.8970 -2.0730
 3498SOL     OW22126   4.073   4.511   5.750 -0.6505  0.6795  0.0725
 3498SOL    HW122127   4.114   4.521   5.664 -0.8659  4.3618  0.3981
 3498SOL    HW222128   4.114   4.429   5.778 -0.4331  0.9598  0.5584
 3499SOL     OW22129   4.447   1.794  11.786  0.2829  0.3072 -0.1102
 3499SOL    HW122130   4.379   1.760  11.845 -0.6779  1.8157 -0.3484
 3499SOL    HW222131   4.419   1.885  11.778  1.6218  0.7811  0.5709
 3500SOL     OW22132   4.435   4.148   2.962 -0.6088  0.5328 -0.0934
 3500SOL    HW122133   4.495   4.073   2.961 -0.0932  0.9617 -1.4243
 3500SOL    HW222134   4.469   4.204   3.033 -1.7541  1.8581 -0.5809
 3501SOL     OW22135   1.538   1.919  11.455 -0.6618  0.2578 -0.5920
 3501SOL    HW122136   1.543   1.829  11.422 -0.1359 -0.2497  0.8697
 3501SOL    HW222137   1.516   1.895  11.545 -1.5894  1.0979 -0.5934
 3502SOL     OW22138   4.113   3.194  16.641 -0.0162  0.1223 -0.1471
 3502SOL    HW122139   4.065   3.264  16.685 -0.0723  0.5829 -0.9271
 3502SOL    HW222140   4.131   3.144  16.720 -0.5088 -0.3270 -0.3186
 3503SOL     OW22141   4.069   4.325   9.959 -0.0435  0.2315 -0.3491
 3503SOL    HW122142   4.053   4.329   9.865  0.5007  0.8502 -0.4143
 3503SOL    HW222143   4.071   4.420   9.973 -1.8704  0.4781 -1.7415
 3504SOL     OW22144   0.208   2.366   5.771 -0.2499  0.1874 -0.3868
 3504SOL    HW122145   0.259   2.418   5.708  0.0139  0.7304  0.2816
 3504SOL    HW222146   0.252   2.281   5.775  0.0861  0.4395  1.2712
 3505SOL     OW22147   2.355   3.170   2.795 -0.3603 -0.0147 -0.4920
 3505SOL    HW122148   2.296   3.204   2.728 -0.2124 -2.2113 -1.7183
 3505SOL    HW222149   2.299   3.186   2.871 -0.6575 -0.5808 -0.5873
 3506SOL     OW22150   0.137   3.282   3.871  0.2592 -0.3882 -0.3400
 3506SOL    HW122151   0.179   3.357   3.830 -0.7334 -1.0130 -2.4957
 3506SOL    HW222152   0.194   3.275   3.947 -1.4035  0.9149  1.0374
 3507SOL     OW22153   4.608   0.903   3.996  0.1992 -0.5573 -0.5630
 3507SOL    HW122154   4.623   0.856   3.914  0.5506 -0.8095 -0.3594
 3507SOL    HW222155   4.696   0.938   4.010 -0.2961 -0.1642  1.6161
 3508SOL     OW22156   1.117   1.374   6.835 -0.7597  0.3895  0.3778
 3508SOL    HW122157   1.028   1.336   6.836 -0.3490 -0.5990 -0.3036
 3508SOL    HW222158   1.095   1.466   6.821  0.2840  0.6940  0.7518
 3509SOL     OW22159   4.292   2.510   0.299 -0.6502 -0.1207 -0.1089
 3509SOL    HW122160   4.261   2.599   0.283 -0.0516 -0.1296 -1.3047
 3509SOL    HW222161   4.279   2.471   0.212  0.2777 -0.1058 -0.2478
 3510SOL     OW22162   1.800   1.667  15.051  0.0913 -0.0796 -0.3476
 3510SOL    HW122163   1.724   1.670  15.110 -1.0196  2.3245 -1.8946
 3510SOL    HW222164   1.779   1.589  14.999 -1.3871  1.0722 -1.4777
 3511SOL     OW22165   3.913   1.193   2.032  0.0731  0.2859  0.1851
 3511SOL    HW122166   3.966   1.248   2.089  2.1044 -1.6509  0.1753
 3511SOL    HW222167   3.892   1.265   1.972  0.3092 -0.4744 -0.8285
 3512SOL     OW22168   1.220   2.318   0.902 -0.6603  0.6354 -0.2948
 3512SOL    HW122169   1.259   2.395   0.944  0.4230  0.4077 -0.8774
 3512SOL    HW222170   1.277   2.298   0.828 -1.1230 -0.0995 -0.4475
 3513SOL     OW22171   2.465   1.676   7.088  0.2352  0.4335 -0.0209
 3513SOL    HW122172   2.530   1.696   7.155 -1.3041  2.7372  0.8006
 3513SOL    HW222173   2.407   1.613   7.131 -0.8314  1.5880  0.2399
 3514SOL     OW22174   3.729   4.478   7.607 -0.2763 -0.3499 -0.9084
 3514SOL    HW122175   3.699   4.445   7.691  3.2126  1.2784  0.9422
 3514SOL    HW222176   3.789   4.549   7.629 -1.2584  0.0455  0.4845
 3515SOL     OW22177   3.908   1.310   4.692  0.0702  0.1949  0.4861
 3515SOL    HW122178   3.941   1.236   4.744  0.2058 -1.4739 -1.9277
 3515SOL    HW222179   3.851   1.266   4.629  2.3316 -2.4699  0.2565
 3516SOL     OW22180   0.601   2.965   3.000 -0.1141 -0.1367  0.0844
 3516SOL    HW122181   0.591   3.020   3.078 -1.9464 -1.3870  0.7559
 3516SOL    HW222182   0.514   2.985   2.965  0.3799 -0.0409 -1.0714
 3517SOL     OW22183   2.689   2.516   6.752 -0.4362  0.3111 -0.4254
 3517SOL    HW122184   2.671   2.559   6.836  0.8667 -2.2827  1.1662
 3517SOL    HW222185   2.664   2.583   6.688 -2.4342 -0.6269 -0.6213
 3518SOL     OW22186   3.642   4.327   6.403 -0.0954 -1.2512  0.4675
 3518SOL    HW122187   3.614   4.418   6.410 -2.2861 -1.8159 -1.0250
 3518SOL    HW222188   3.733   4.346   6.382 -0.5397 -0.3607 -0.6056
 3519SOL     OW22189   2.255   3.451   7.976  0.0747 -0.1158  0.2684
 3519SOL    HW122190   2.304   3.388   7.923  0.9910  1.5545 -0.8891
 3519SOL    HW222191   2.174   3.453   7.925 -1.7471  2.0520  3.2557
 3520SOL     OW22192   3.394   2.593  11.152  0.3011  0.1662 -0.0288
 3520SOL    HW122193   3.407   2.621  11.062  2.9719  0.4622  0.4536
 3520SOL    HW222194   3.487   2.581  11.171  0.5036  2.2617  0.2845
 3521SOL     OW22195   3.284   3.731   3.533 -0.2395  0.8025  0.3676
 3521SOL    HW122196   3.220   3.740   3.604 -0.2360 -1.2115  0.6186
 3521SOL    HW222197   3.222   3.708   3.464  2.6525  0.6281 -2.1767
 3522SOL     OW22198   3.295   0.061   0.949  0.4769  0.0627 -0.2882
 3522SOL    HW122199   3.309   0.155   0.939 -0.5268  0.4508  2.1568
 3522SOL    HW222200   3.282   0.049   1.043 -1.4967 -0.8298 -0.6826
 3523SOL     OW22201   0.987   3.835   2.151  0.7092 -1.4196  0.1191
 3523SOL    HW122202   0.981   3.755   2.100 -0.2930  0.6982 -3.0848
 3523SOL    HW222203   1.006   3.805   2.240  0.3582 -2.7048 -0.2455
 3524SOL     OW22204   4.498   2.036  12.517 -0.5609  0.0016  0.1855
 3524SOL    HW122205   4.418   2.011  12.563  0.5419 -0.4527  1.8716
 3524SOL    HW222206   4.567   1.984  12.558 -0.9527 -0.4505  0.2686
 3525SOL     OW22207   1.801   3.814  15.323 -0.1352 -0.0602  0.2341
 3525SOL    HW122208   1.736   3.805  15.393  1.2721 -1.3376  1.3912
 3525SOL    HW222209   1.746   3.867  15.265 -0.2690 -0.3450  0.0957
 3526SOL     OW22210   2.851   0.334   4.089  0.6361  0.3049  0.1398
 3526SOL    HW122211   2.778   0.300   4.141  0.1737  0.6858 -0.2600
 3526SOL    HW222212   2.921   0.346   4.153  2.0550 -0.2093 -1.3260
 3527SOL     OW22213   1.377   2.750   4.276 -0.2869  0.2398 -0.2312
 3527SOL    HW122214   1.321   2.675   4.293  2.3252 -1.4568  0.8656
 3527SOL    HW222215   1.321   2.814   4.320  1.1884  0.6274  1.1021
 3528SOL     OW22216   0.733   4.714   1.927 -0.0861  0.1250  0.2572
 3528SOL    HW122217   0.823   4.732   1.952  0.4293 -1.2943 -0.5477
 3528SOL    HW222218   0.741   4.704   1.832 -2.2600  0.9078  0.0002
 3529SOL     OW22219   0.366   3.131   7.097  0.0469 -1.1096  0.3692
 3529SOL    HW122220   0.378   3.049   7.145  1.1054  0.2593  2.4818
 3529SOL    HW222221   0.459   3.152   7.106  0.0398 -0.0900 -1.8318
 3530SOL     OW22222   3.361   0.403   8.584  0.3242 -0.0606 -0.5299
 3530SOL    HW122223   3.404   0.369   8.506 -0.9111 -0.5202 -1.0019
 3530SOL    HW222224   3.439   0.431   8.632 -0.0925 -0.8929  0.6281
 3531SOL     OW22225   0.500   3.751   7.357  0.1296  0.1487  0.2897
 3531SOL    HW122226   0.549   3.671   7.335 -1.3815 -0.4578 -0.8828
 3531SOL    HW222227   0.578   3.800   7.383 -0.0106  0.3738  0.2800
 3532SOL     OW22228   3.715   3.228   3.397 -0.1142 -0.3207  0.3104
 3532SOL    HW122229   3.692   3.193   3.311  2.2113  1.4654 -1.0479
 3532SOL    HW222230   3.628   3.263   3.415 -0.7444  0.0891 -3.5471
 3533SOL     OW22231   0.960   0.859   2.053 -0.5342  0.0136 -0.5938
 3533SOL    HW122232   0.990   0.931   1.998 -0.1309 -0.4175 -0.9302
 3533SOL    HW222233   1.031   0.795   2.047 -1.2933 -0.8402 -0.5114
 3534SOL     OW22234   0.901   0.065   3.042 -0.4120  0.8594  0.0443
 3534SOL    HW122235   0.930   0.010   2.970 -1.3440 -0.2531  0.5307
 3534SOL    HW222236   0.990   0.077   3.075 -0.4211 -1.1717  0.7677
 3535SOL     OW22237   2.204   0.956   4.325  0.0274  0.6906 -0.2225
 3535SOL    HW122238   2.174   0.880   4.374 -2.3252  1.3929 -0.5431
 3535SOL    HW222239   2.206   0.920   4.236 -0.5962 -0.6468  0.3135
 3536SOL     OW22240   3.402   3.441  14.354  0.3805  0.3247 -0.5304
 3536SOL    HW122241   3.316   3.419  14.318  0.7501 -2.2995  0.1390
 3536SOL    HW222242   3.386   3.479  14.440 -0.3160  1.4346 -1.1480
 3537SOL     OW22243   0.876   1.321  10.950  0.1703 -0.0881  0.2269
 3537SOL    HW122244   0.873   1.278  11.035 -1.9724  0.5641  0.4950
 3537SOL    HW222245   0.786   1.353  10.947  0.6234  1.2475  1.2012
 3538SOL     OW22246   1.951   4.128  16.743  0.1108  0.2867 -0.4201
 3538SOL    HW122247   1.941   4.208  16.692 -0.1484  1.1503  1.0007
 3538SOL    HW222248   1.916   4.158  16.827 -1.1749 -0.0308 -0.8279
 3539SOL     OW22249   1.143   1.372   2.865  0.0520 -0.0124  0.2621
 3539SOL    HW122250   1.086   1.295   2.868 -1.0166  0.7575 -0.2189
 3539SOL    HW222251   1.176   1.377   2.955  0.7373 -0.6906  0.0449
 3540SOL     OW22252   1.712   4.503  16.431 -0.5074 -0.5165  0.7014
 3540SOL    HW122253   1.756   4.567  16.375 -1.3071  0.1799  0.8724
 3540SOL    HW222254   1.635   4.547  16.467 -1.0139 -0.2890 -0.6675
 3541SOL     OW22255   2.587   0.425   9.406  0.0386  0.0153 -0.3319
 3541SOL    HW122256   2.675   0.391   9.421 -0.1227  0.0333  0.6659
 3541SOL    HW222257   2.530   0.423   9.483 -0.5013  3.1823 -0.6608
 3542SOL     OW22258   1.702   0.337   1.170  0.1012  0.1033 -0.5759
 3542SOL    HW122259   1.713   0.420   1.217 -1.2492 -1.1554  1.9841
 3542SOL    HW222260   1.608   0.342   1.152 -0.5734 -0.3253  2.6570
 3543SOL     OW22261   0.161   2.174   6.061 -0.0575 -0.4811  0.0766
 3543SOL    HW122262   0.093   2.150   5.998 -1.1777  1.6476  0.4791
 3543SOL    HW222263   0.185   2.264   6.043  0.1920 -0.0669  2.3925
 3544SOL     OW22264   0.752   0.255   9.680  0.1339 -0.5472  1.0915
 3544SOL    HW122265   0.657   0.262   9.673  0.4385 -0.5393 -2.6366
 3544SOL    HW222266   0.780   0.219   9.596  1.9686 -0.3968  1.6463
 3545SOL     OW22267   0.645   3.187   8.200 -0.4963  0.9236 -0.4788
 3545SOL    HW122268   0.718   3.244   8.224 -1.1949  2.2326 -1.4293
 3545SOL    HW222269   0.675   3.097   8.215  3.0766  2.1251 -0.4692
 3546SOL     OW22270   0.073   3.754   9.448 -0.5621  0.0473 -0.0174
 3546SOL    HW122271   0.036   3.838   9.420  1.5920  1.5303  1.5520
 3546SOL    HW222272   0.058   3.753   9.543  1.4884 -0.2442  0.3169
 3547SOL     OW22273   2.235   3.850   8.708  0.0545 -0.6859 -0.0034
 3547SOL    HW122274   2.216   3.935   8.669  1.2919 -0.8453 -0.9708
 3547SOL    HW222275   2.237   3.789   8.635 -0.3231  1.7221 -2.0169
 3548SOL     OW22276   2.415   4.727  12.474  0.4166  0.1651 -0.4964
 3548SOL    HW122277   2.430   4.658  12.538 -0.3208 -1.5877 -2.1937
 3548SOL    HW222278   2.320   4.737  12.477  0.3588  0.0565 -1.6902
 3549SOL     OW22279   1.675   1.908  15.266 -0.2090 -0.5829  0.1620
 3549SOL    HW122280   1.588   1.917  15.226 -0.1638  2.7659  0.8181
 3549SOL    HW222281   1.659   1.868  15.352  1.8617 -1.5579  0.0867
 3550SOL     OW22282   1.391   0.569   4.976 -0.2938 -0.0170 -0.3372
 3550SOL    HW122283   1.344   0.497   5.017  1.9153  0.1858  2.5774
 3550SOL    HW222284   1.438   0.516   4.912  0.4423  0.8700 -0.5278
 3551SOL     OW22285   3.323   1.224   1.248 -0.4944 -0.2944  0.3190
 3551SOL    HW122286   3.372   1.298   1.282  0.2360 -0.1579 -1.0568
 3551SOL    HW222287   3.356   1.229   1.159 -0.5796  1.1796  0.3656
 3552SOL     OW22288   2.933   3.112  17.599  0.1086 -0.3311  0.0637
 3552SOL    HW122289   2.963   3.059  17.524  0.9672 -0.6382  0.6220
 3552SOL    HW222290   2.989   3.189  17.605 -0.7236  0.3084 -0.3706
 3553SOL     OW22291   0.039   4.705   7.092 -0.0494 -0.0899 -0.0312
 3553SOL    HW122292   0.071   4.655   7.167  1.6772  2.0542  0.6730
 3553SOL    HW222293   0.038   0.054   7.126 -0.5549  0.5291 -1.6735
 3554SOL     OW22294   1.545   0.857   4.187  0.0049 -0.6239 -0.1445
 3554SOL    HW122295   1.577   0.869   4.277 -0.2620 -0.3498 -0.0822
 3554SOL    HW222296   1.625   0.866   4.137 -0.0588 -1.7199 -0.4233
 3555SOL     OW22297   4.546   3.588   3.658 -0.4915  0.0851  0.0043
 3555SOL    HW122298   4.605   3.623   3.724 -2.1170 -1.6617  2.3685
 3555SOL    HW222299   4.538   3.663   3.599 -0.6743 -1.2328 -1.6665
 3556SOL     OW22300   3.526   0.806   5.688  0.4226  0.0814  0.3823
 3556SOL    HW122301   3.525   0.804   5.783  0.5402 -1.1429  0.3555
 3556SOL    HW222302   3.490   0.893   5.670  0.9188  0.6021  1.8864
 3557SOL     OW22303   2.484   3.594   3.666  0.9222  0.1720  0.1369
 3557SOL    HW122304   2.457   3.627   3.752  2.9195  0.4216  0.6701
 3557SOL    HW222305   2.571   3.563   3.691  0.2904 -0.8592  1.0313
 3558SOL     OW22306   3.189   4.177   2.506 -0.0180  0.4869 -0.2495
 3558SOL    HW122307   3.268   4.202   2.554  0.5585 -1.5125 -0.1369
 3558SOL    HW222308   3.159   4.099   2.554 -0.3621  1.3339  0.9270
 3559SOL     OW22309   4.148   3.913   5.314  0.4029 -0.1945  0.4837
 3559SOL    HW122310   4.063   3.870   5.324 -0.4153  1.4076  0.5596
 3559SOL    HW222311   4.191   3.842   5.268  0.0908 -0.9492  1.3566
 3560SOL     OW22312   4.403   0.773   6.367  0.2031  0.2728 -0.7309
 3560SOL    HW122313   4.397   0.835   6.439 -1.4031 -1.1642  0.3548
 3560SOL    HW222314   4.495   0.748   6.377  0.0197 -0.1829 -0.1784
 3561SOL     OW22315   1.256   2.762  12.527  0.0548  0.5178 -0.0988
 3561SOL    HW122316   1.349   2.776  12.543  0.4585  0.3001 -2.3948
 3561SOL    HW222317   1.226   2.730  12.612  1.8092 -0.8781 -0.0236
 3562SOL     OW22318   0.657   1.391   9.834 -0.4570  0.5087 -0.5118
 3562SOL    HW122319   0.669   1.453   9.905 -0.2856 -0.4224  0.2775
 3562SOL    HW222320   0.604   1.320   9.871  0.3132 -0.2380 -0.8405
 3563SOL     OW22321   3.110   4.707  17.155 -0.0374 -0.6593  0.1418
 3563SOL    HW122322   3.052   4.720  17.230  0.6470 -1.9842  0.8970
 3563SOL    HW222323   3.118   0.055  17.120  0.8504  0.4929  3.2652
 3564SOL     OW22324   1.751   2.647  17.270  0.0030  0.5524 -0.2925
 3564SOL    HW122325   1.663   2.669  17.238  0.1072  0.9531 -0.3000
 3564SOL    HW222326   1.746   2.674  17.361  2.0146 -1.9597  0.5513
 3565SOL     OW22327   3.410   0.766   2.198 -0.2291 -0.2817  0.0182
 3565SOL    HW122328   3.354   0.698   2.160  0.6825 -1.4878  0.8374
 3565SOL    HW222329   3.499   0.749   2.166 -0.6537  1.3941 -2.0450
 3566SOL     OW22330   2.439   3.572   8.313  0.0235  0.5466  0.5220
 3566SOL    HW122331   2.459   3.629   8.239 -0.9775  2.8165  2.0175
 3566SOL    HW222332   2.345   3.559   8.296  0.2419  1.1021 -1.1146
 3567SOL     OW22333   2.729   2.195   0.209 -0.0038 -0.5481  0.2687
 3567SOL    HW122334   2.687   2.258   0.151 -1.4465 -1.1654  0.6511
 3567SOL    HW222335   2.816   2.187   0.170  0.1987 -1.2836  0.8769
 3568SOL     OW22336   4.452   1.555   8.194 -0.4183  0.4140  0.2897
 3568SOL    HW122337   4.490   1.609   8.263  1.5080 -0.0511 -0.4070
 3568SOL    HW222338   4.400   1.490   8.241  0.1764 -0.4990 -0.3137
 3569SOL     OW22339   2.055   2.739   7.904  0.2023 -0.3427  0.5169
 3569SOL    HW122340   2.026   2.773   7.819 -1.2302  0.0122  1.1308
 3569SOL    HW222341   2.080   2.654   7.868 -0.8597 -0.9019  1.0853
 3570SOL     OW22342   0.923   0.903   9.365 -0.0818  0.2483 -0.2710
 3570SOL    HW122343   0.896   0.814   9.392 -0.3041  1.4043  3.3906
 3570SOL    HW222344   1.010   0.896   9.327  1.2166  0.8075  2.6213
 3571SOL     OW22345   3.063   1.620  14.334  0.0759  0.5533  0.1688
 3571SOL    HW122346   3.049   1.579  14.420 -0.6783  0.2883 -0.0789
 3571SOL    HW222347   3.158   1.627  14.330  0.4085 -2.7740  2.1224
 3572SOL     OW22348   0.220   3.749   6.819  0.0036 -0.1533 -0.5686
 3572SOL    HW122349   0.128   3.749   6.842  0.3479  1.2634  0.7625
 3572SOL    HW222350   0.248   3.661   6.844 -0.5307  0.1532  1.0447
 3573SOL     OW22351   0.708   2.570   8.843  0.5535  0.2043  0.2627
 3573SOL    HW122352   0.772   2.640   8.854  0.8540  0.5253 -3.3604
 3573SOL    HW222353   0.668   2.597   8.760 -0.6774 -1.8146  0.2034
 3574SOL     OW22354   3.629   3.867   8.652  0.1210  0.0651 -0.1200
 3574SOL    HW122355   3.594   3.948   8.689  0.1951  0.2270 -0.4015
 3574SOL    HW222356   3.691   3.850   8.723 -0.2822 -1.5189 -0.1552
 3575SOL     OW22357   4.618   4.065   4.462 -0.5196  0.1466 -0.0018
 3575SOL    HW122358   4.584   4.135   4.518  1.4670  1.2426 -0.1836
 3575SOL    HW222359   4.540   4.009   4.463  0.2714 -0.8809  2.1666
 3576SOL     OW22360   3.304   4.582   5.848  0.0817  0.3977  0.2212
 3576SOL    HW122361   3.300   4.599   5.943 -0.0682  0.5065  0.1953
 3576SOL    HW222362   3.339   4.493   5.843 -2.5387 -0.6138 -0.1220
 3577SOL     OW22363   0.677   1.018  17.355 -0.1413 -0.3305  0.2969
 3577SOL    HW122364   0.638   1.105  17.358 -0.2077 -0.3107 -1.1882
 3577SOL    HW222365   0.619   0.969  17.414  0.1391  1.2908  1.9012
 3578SOL     OW22366   0.257   4.545  16.633 -0.2073  0.2025  0.3973
 3578SOL    HW122367   0.337   4.560  16.684 -0.9005  0.3594  1.4390
 3578SOL    HW222368   0.244   4.623  16.580 -3.2816  0.1926  1.1501
 3579SOL     OW22369   0.280   4.372   7.418  0.2518 -0.3021 -0.1688
 3579SOL    HW122370   0.258   4.337   7.504  1.8969 -1.8725 -0.3799
 3579SOL    HW222371   0.274   4.293   7.365  1.6029 -0.0750 -0.6906
 3580SOL     OW22372   3.594   0.333   6.343  0.2045  0.4145 -0.0652
 3580SOL    HW122373   3.654   0.272   6.300 -1.0755 -1.0114  0.1854
 3580SOL    HW222374   3.657   0.405   6.340 -1.8348  2.1279 -1.6256
 3581SOL     OW22375   2.310   4.330  17.755  0.5504  0.2721 -0.5434
 3581SOL    HW122376   2.389   4.318  17.701 -0.6730  2.7521 -2.8629
 3581SOL    HW222377   2.360   4.343   0.076 -0.9998 -1.6596  0.7426
 3582SOL     OW22378   0.185   1.696   0.144 -0.1188 -0.0240  0.6488
 3582SOL    HW122379   0.215   1.782   0.174 -0.8480  1.2072 -2.1117
 3582SOL    HW222380   0.152   1.672   0.231 -1.3862 -0.9699 -0.0834
 3583SOL     OW22381   3.179   1.168   1.483  0.4670 -0.2570 -0.5178
 3583SOL    HW122382   3.224   1.220   1.549 -0.4036 -0.5629  0.3259
 3583SOL    HW222383   3.235   1.190   1.409  0.0728  2.8821  0.0949
 3584SOL     OW22384   1.321   0.645   8.836 -0.0944  0.3755  0.1997
 3584SOL    HW122385   1.263   0.719   8.822 -1.1875 -0.6555 -0.7673
 3584SOL    HW222386   1.405   0.662   8.795 -0.3018 -1.4644 -0.9886
 3585SOL     OW22387   3.497   1.643   9.964  0.2033 -0.4076  0.3766
 3585SOL    HW122388   3.581   1.612  10.000  0.7828 -0.8875 -1.3735
 3585SOL    HW222389   3.537   1.715   9.916  1.1525 -1.8924 -1.0792
 3586SOL     OW22390   1.173   2.662  13.509  0.1046  0.3385  0.1197
 3586SOL    HW122391   1.209   2.600  13.572  0.7874 -0.4316 -1.0402
 3586SOL    HW222392   1.085   2.627  13.494 -0.1413  0.2997  1.6387
 3587SOL     OW22393   3.555   4.019   8.294 -0.8276 -0.6523 -0.3500
 3587SOL    HW122394   3.485   4.082   8.312  0.7244  1.1435 -0.5123
 3587SOL    HW222395   3.626   4.084   8.288 -1.9712  0.6705  0.5683
 3588SOL     OW22396   4.031   1.736  17.298 -0.2573  0.4942 -0.0123
 3588SOL    HW122397   4.049   1.760  17.388 -0.0108 -0.7971  0.2820
 3588SOL    HW222398   3.961   1.799  17.277  0.1368  0.3082 -1.9237
 3589SOL     OW22399   2.367   3.647  17.756  0.1165  0.5478  0.5891
 3589SOL    HW122400   2.352   3.614   0.084  1.0373  0.0440  0.5540
 3589SOL    HW222401   2.437   3.588  17.727  0.0685  0.4853  0.6018
 3590SOL     OW22402   3.015   0.091  13.026 -0.3812 -0.1467 -0.0502
 3590SOL    HW122403   3.033   0.185  13.029 -0.0368 -0.1812 -1.1062
 3590SOL    HW222404   2.927   0.099  12.989 -1.0666 -1.5912  1.2859
 3591SOL     OW22405   1.199   0.444  11.142  0.5246 -0.1127 -0.3385
 3591SOL    HW122406   1.254   0.517  11.113 -2.0871  2.1149  0.3284
 3591SOL    HW222407   1.255   0.418  11.215 -0.0306  2.9159  1.1677
 3592SOL     OW22408   4.113   1.420   2.814 -0.0323 -0.6454  0.0451
 3592SOL    HW122409   4.183   1.390   2.756  0.1174  2.3218 -1.3228
 3592SOL    HW222410   4.037   1.387   2.767 -0.7681  0.1854  0.6474
 3593SOL     OW22411   2.366   3.352   3.818 -0.0596 -0.1898 -0.0593
 3593SOL    HW122412   2.306   3.417   3.852 -0.2142 -0.1088 -0.4983
 3593SOL    HW222413   2.340   3.351   3.726  0.9359  0.6157 -0.3511
 3594SOL     OW22414   1.220   1.117   8.636 -0.3575  0.1137  0.2240
 3594SOL    HW122415   1.185   1.206   8.629 -2.7847 -0.7821  0.6598
 3594SOL    HW222416   1.246   1.115   8.728 -0.2050 -1.7152  0.1437
 3595SOL     OW22417   1.873   3.276   0.156 -0.2932 -0.0490 -0.4588
 3595SOL    HW122418   1.817   3.226   0.215  0.9259  1.7993  2.2665
 3595SOL    HW222419   1.865   3.244   0.066 -2.1245  1.7838 -0.9399
 3596SOL     OW22420   3.622   1.248   1.127  0.1836  0.3871 -0.1905
 3596SOL    HW122421   3.586   1.160   1.115  3.7212 -1.0187 -0.3522
 3596SOL    HW222422   3.672   1.247   1.208  0.3073  0.1796 -0.2704
 3597SOL     OW22423   3.657   3.383   8.088  0.1029  0.4376  0.0713
 3597SOL    HW122424   3.724   3.315   8.092  0.3484  0.5376 -2.4383
 3597SOL    HW222425   3.656   3.395   8.183  0.4287 -1.0696  0.2741
 3598SOL     OW22426   3.356   0.747  15.169  0.3904  0.1358 -0.4219
 3598SOL    HW122427   3.432   0.772  15.115  0.5442 -2.3245 -1.3666
 3598SOL    HW222428   3.397   0.671  15.210  0.2369 -0.2339 -0.9659
 3599SOL     OW22429   3.077   3.921   2.224 -0.4111  0.6542 -0.0859
 3599SOL    HW122430   3.136   3.993   2.204  0.5412 -0.1774 -0.2964
 3599SOL    HW222431   3.088   3.858   2.153 -0.4328  0.4854  0.0607
 3600SOL     OW22432   3.859   3.585   7.687 -0.3476 -0.3605  0.1285
 3600SOL    HW122433   3.948   3.564   7.658  0.1503  0.0831  1.3365
 3600SOL    HW222434   3.849   3.508   7.742  2.2707 -2.0754 -1.7522
 3601SOL     OW22435   4.467   4.477  13.493  0.0117 -0.3925 -0.1891
 3601SOL    HW122436   4.505   4.419  13.428 -1.7353 -1.3951 -0.3143
 3601SOL    HW222437   4.527   4.466  13.567  0.0246 -0.4385 -0.2067
 3602SOL     OW22438   4.528   4.671   6.993  0.3164  0.1367 -0.0645
 3602SOL    HW122439   4.496   0.017   6.968 -0.7871 -0.6203 -1.3306
 3602SOL    HW222440   4.610   4.679   7.041  1.3267  0.8238 -1.9282
 3603SOL     OW22441   2.138   1.749   6.484  0.2443 -0.0478  0.3619
 3603SOL    HW122442   2.119   1.705   6.401  0.5203 -0.5882  0.5845
 3603SOL    HW222443   2.188   1.678   6.525  0.2479 -0.8867 -1.0855
 3604SOL     OW22444   1.457   2.166  12.625  0.1064 -0.0999 -0.1858
 3604SOL    HW122445   1.497   2.190  12.708  1.4477 -0.8322 -0.6122
 3604SOL    HW222446   1.375   2.122  12.646  1.2138 -1.4637  1.2488
 3605SOL     OW22447   2.380   2.481   7.092  0.1667  0.4791  0.2781
 3605SOL    HW122448   2.471   2.490   7.121 -0.6538  1.9154  2.3733
 3605SOL    HW222449   2.389   2.437   7.007 -1.9929  0.1311  0.2378
 3606SOL     OW22450   4.494   2.169  14.693 -0.6864 -0.4407 -0.1573
 3606SOL    HW122451   4.531   2.187  14.780 -1.3210  1.5649 -0.3063
 3606SOL    HW222452   4.416   2.223  14.705 -0.2502  0.0706  0.4511
 3607SOL     OW22453   1.922   3.188   3.830  0.2957  0.3427  0.4923
 3607SOL    HW122454   1.845   3.245   3.836  0.0477  0.1123 -0.4059
 3607SOL    HW222455   1.918   3.168   3.736 -1.8290  1.5482  0.3131
 3608SOL     OW22456   3.004   1.898   0.130 -0.2819 -0.5563  0.6677
 3608SOL    HW122457   3.003   1.903   0.226 -0.9747  1.5578  0.5441
 3608SOL    HW222458   3.000   1.993   0.118 -2.2086 -0.5334  1.4971
 3609SOL     OW22459   2.766   1.350   7.864 -0.0092  0.0900  0.1615
 3609SOL    HW122460   2.850   1.395   7.861  0.0930 -0.0356  1.1422
 3609SOL    HW222461   2.751   1.375   7.955 -0.9249 -0.1730  0.0888
 3610SOL     OW22462   1.525   2.041   6.027 -0.2616  0.2181 -0.0137
 3610SOL    HW122463   1.501   2.055   5.935  0.6653 -0.4123 -0.3486
 3610SOL    HW222464   1.438   2.038   6.067 -1.2867 -0.0203 -2.2143
 3611SOL     OW22465   0.419   0.287   3.585  0.1174 -0.1241 -0.0345
 3611SOL    HW122466   0.384   0.373   3.561 -0.3553  0.2411  1.9694
 3611SOL    HW222467   0.495   0.310   3.638  0.1786  1.7960 -0.9307
 3612SOL     OW22468   2.005   0.511   7.482 -0.3620  0.1134  0.1942
 3612SOL    HW122469   1.958   0.428   7.470 -2.0493  0.8218  1.9767
 3612SOL    HW222470   2.095   0.479   7.478 -0.1593  0.5037  1.8343
 3613SOL     OW22471   0.650   1.199  14.636 -0.2646 -0.4155  0.2740
 3613SOL    HW122472   0.580   1.134  14.626  0.4594 -1.0754 -0.5406
 3613SOL    HW222473   0.603   1.274  14.601  1.0780  1.2180  1.9700
 3614SOL     OW22474   3.074   0.171   8.732  0.1140  0.2406  0.3664
 3614SOL    HW122475   3.086   0.142   8.641  0.2454  0.5867  0.2709
 3614SOL    HW222476   3.017   0.102   8.765 -0.4751 -0.3039 -1.7926
 3615SOL     OW22477   1.824   3.273  13.282 -0.2124 -0.1006  0.9038
 3615SOL    HW122478   1.851   3.256  13.372  3.0805  0.9392  0.1292
 3615SOL    HW222479   1.734   3.302  13.296 -0.2094  0.1852  0.3426
 3616SOL     OW22480   0.802   4.230   5.988  0.0592  0.6273 -0.1683
 3616SOL    HW122481   0.780   4.323   5.978  0.0474  0.6377 -0.0371
 3616SOL    HW222482   0.862   4.221   6.061 -0.7814 -2.4845  0.1325
 3617SOL     OW22483   0.278   4.398   5.836 -0.5883  0.0574  0.0747
 3617SOL    HW122484   0.250   4.424   5.748  0.4067  1.6220  0.1960
 3617SOL    HW222485   0.254   4.306   5.846 -0.2782 -0.0992 -0.6042
 3618SOL     OW22486   0.995   1.834   7.777 -0.1878  0.1449  0.7589
 3618SOL    HW122487   1.064   1.813   7.715  0.6014 -1.6380  2.2346
 3618SOL    HW222488   1.054   1.829   7.853  0.6435 -0.8903  0.0396
 3619SOL     OW22489   3.101   1.243   7.262  0.3354 -0.1026  0.1115
 3619SOL    HW122490   3.161   1.181   7.304  0.5247 -0.6878 -1.0117
 3619SOL    HW222491   3.154   1.288   7.197 -2.1124  1.1727 -0.9882
 3620SOL     OW22492   3.079   2.527   5.591  0.5342 -0.1078 -0.3801
 3620SOL    HW122493   3.164   2.554   5.554 -0.0088  0.1982 -1.4147
 3620SOL    HW222494   3.070   2.455   5.528  0.7490 -0.5947  0.1524
 3621SOL     OW22495   3.280   2.085   7.182 -0.1255  0.3884  0.4440
 3621SOL    HW122496   3.253   2.061   7.094  2.0174  1.0788 -0.4049
 3621SOL    HW222497   3.364   2.126   7.161  0.2776 -1.5869 -1.7053
 3622SOL     OW22498   3.795   4.391   3.643 -0.4965 -0.1345  0.0860
 3622SOL    HW122499   3.736   4.457   3.678 -0.1258  0.6792 -0.8016
 3622SOL    HW222500   3.802   4.429   3.555  1.7221 -0.3207  0.1746
 3623SOL     OW22501   0.120   1.496   4.232 -0.1006  0.6102  0.2181
 3623SOL    HW122502   0.045   1.539   4.190  1.5605  0.7625 -2.6210
 3623SOL    HW222503   0.137   1.427   4.167  4.0407  0.1189  1.8636
 3624SOL     OW22504   4.322   1.472  13.593  0.2993  0.1833  0.4497
 3624SOL    HW122505   4.312   1.388  13.639 -0.5149 -0.4544 -0.8693
 3624SOL    HW222506   4.271   1.531  13.648  0.7629  2.7696 -1.9184
 3625SOL     OW22507   1.051   2.386   0.072  0.6639  0.0843 -0.0199
 3625SOL    HW122508   0.992   2.427   0.135  0.3600  0.3673 -0.4933
 3625SOL    HW222509   1.128   2.441   0.088  1.2360  0.3223 -3.7229
 3626SOL     OW22510   1.935   2.836  12.902 -0.5321  0.0244 -0.2543
 3626SOL    HW122511   1.909   2.916  12.949 -1.6336 -2.2002  2.9259
 3626SOL    HW222512   1.961   2.874  12.818 -2.7168 -0.4668 -1.1626
 3627SOL     OW22513   1.412   3.692   3.209 -0.3901 -0.8575 -0.7357
 3627SOL    HW122514   1.410   3.771   3.156 -0.3187 -0.6178 -0.3796
 3627SOL    HW222515   1.320   3.689   3.235 -0.6161 -0.4614 -1.5034
 3628SOL     OW22516   2.643   2.248  15.474  0.0052  0.3680  0.5264
 3628SOL    HW122517   2.698   2.302  15.417 -1.6266 -1.0445 -2.4287
 3628SOL    HW222518   2.567   2.227  15.420  0.5881 -1.1448  0.2968
 3629SOL     OW22519   1.271   1.564  13.829 -0.1728  0.1214  0.3398
 3629SOL    HW122520   1.264   1.654  13.862 -1.2582  0.7641 -1.6280
 3629SOL    HW222521   1.231   1.576  13.743 -0.1531 -0.7723  0.2069
 3630SOL     OW22522   3.285   1.776   3.113  0.2337 -0.1539 -0.2494
 3630SOL    HW122523   3.307   1.691   3.153 -0.7727 -0.7458 -0.9531
 3630SOL    HW222524   3.245   1.744   3.032 -1.5233  0.8285  0.2295
 3631SOL     OW22525   0.339   0.414   7.336 -0.0447 -0.2687 -0.2221
 3631SOL    HW122526   0.283   0.437   7.262  1.1552 -1.1676 -1.3851
 3631SOL    HW222527   0.422   0.411   7.289 -1.3376  0.1566 -2.5075
 3632SOL     OW22528   4.277   1.475   3.363  0.8747 -0.0707  0.0146
 3632SOL    HW122529   4.283   1.415   3.289  3.3538  0.9610 -0.6088
 3632SOL    HW222530   4.368   1.464   3.390 -0.6150 -1.3625  4.4238
 3633SOL     OW22531   0.222   1.334   2.779 -0.0132  0.1398 -0.0947
 3633SOL    HW122532   0.162   1.353   2.852 -1.4762 -3.3508 -0.3742
 3633SOL    HW222533   0.184   1.251   2.752 -0.0341  0.6058 -1.4651
 3634SOL     OW22534   3.268   2.733   9.145 -0.7953  0.2963  0.5142
 3634SOL    HW122535   3.355   2.764   9.120 -0.1750  0.3676  2.7900
 3634SOL    HW222536   3.248   2.667   9.079  0.8649 -2.3976  2.7245
 3635SOL     OW22537   1.900   2.889  14.370  0.4044  0.3722  0.0043
 3635SOL    HW122538   1.962   2.960  14.384  1.4613 -0.4945 -0.2572
 3635SOL    HW222539   1.921   2.833  14.445  0.0351 -1.3061 -1.1326
 3636SOL     OW22540   1.765   2.530  13.848 -0.7181  0.3699  0.1422
 3636SOL    HW122541   1.730   2.511  13.935 -3.1059  1.7482 -0.5111
 3636SOL    HW222542   1.852   2.563  13.870 -0.5071  0.7855 -1.3182
 3637SOL     OW22543   1.049   1.645   9.917  0.1059  0.1159 -0.2194
 3637SOL    HW122544   1.034   1.678  10.006  1.1209 -2.2697  0.8295
 3637SOL    HW222545   1.069   1.556   9.944  0.5016  0.3994  0.4295
 3638SOL     OW22546   4.130   2.113  17.482 -0.4358 -0.5719  0.5140
 3638SOL    HW122547   4.117   2.207  17.473 -0.7277 -0.5137  1.6034
 3638SOL    HW222548   4.040   2.081  17.487 -0.6204  0.2627  2.4659
 3639SOL     OW22549   1.282   1.789   7.882 -0.1028 -0.4767  0.6227
 3639SOL    HW122550   1.295   1.786   7.788  0.4231  0.6417  0.6598
 3639SOL    HW222551   1.337   1.863   7.910  0.4889 -0.3573 -0.8406
 3640SOL     OW22552   1.827   3.128  16.508  0.4376 -0.4339 -0.6121
 3640SOL    HW122553   1.825   3.097  16.417 -0.3315  0.0525 -0.7580
 3640SOL    HW222554   1.918   3.113  16.533  0.8238  0.2771 -1.5862
 3641SOL     OW22555   0.633   3.123   7.154  0.5196 -0.3651  0.2555
 3641SOL    HW122556   0.707   3.184   7.163 -0.8895  1.3947 -0.1440
 3641SOL    HW222557   0.682   3.041   7.147 -1.1698 -1.2987 -0.3985
 3642SOL     OW22558   1.266   2.702  17.002  0.8882  0.5258 -0.4305
 3642SOL    HW122559   1.172   2.703  17.021  1.2243 -1.1106  1.2520
 3642SOL    HW222560   1.270   2.775  16.939 -2.5155 -0.7412 -2.1010
 3643SOL     OW22561   0.935   1.965  14.538 -0.0863 -0.5044 -0.1480
 3643SOL    HW122562   1.009   1.906  14.530 -2.4574 -3.3683 -0.6896
 3643SOL    HW222563   0.943   2.011  14.454  4.1757  0.4883  0.8023
 3644SOL     OW22564   3.315   2.807   5.359  0.1880  0.1413  0.5119
 3644SOL    HW122565   3.323   2.819   5.264 -0.7764 -1.3893  0.2354
 3644SOL    HW222566   3.291   2.897   5.384  1.2141  0.1575  1.4213
 3645SOL     OW22567   0.627   0.884   8.015  0.3453 -0.1248 -0.4639
 3645SOL    HW122568   0.683   0.957   8.041 -0.7056  0.0557  1.3498
 3645SOL    HW222569   0.649   0.821   8.084  1.7133  0.6379 -0.2226
 3646SOL     OW22570   1.973   2.416  13.643  0.2065  0.5043 -0.3225
 3646SOL    HW122571   2.059   2.375  13.654 -0.4929 -1.3166 -1.5300
 3646SOL    HW222572   1.995   2.505  13.615  1.5012  1.0759  2.5662
 3647SOL     OW22573   1.492   0.720   3.823  0.2077 -0.4287 -1.2131
 3647SOL    HW122574   1.496   0.727   3.918  1.8972 -2.8220 -1.1232
 3647SOL    HW222575   1.399   0.731   3.801  0.2034 -1.9198 -1.9347
 3648SOL     OW22576   4.009   3.408  12.307 -0.4076 -0.3337 -0.3399
 3648SOL    HW122577   4.036   3.428  12.397  1.7229 -1.7962 -0.6649
 3648SOL    HW222578   4.005   3.312  12.307  0.7348 -0.3745 -0.3569
 3649SOL     OW22579   4.149   4.268  16.708  0.2060 -0.6939  0.4034
 3649SOL    HW122580   4.205   4.192  16.696 -2.4723 -2.6507  0.2472
 3649SOL    HW222581   4.202   4.331  16.756  0.0076  0.3837 -0.7940
 3650SOL     OW22582   4.177   1.250   2.577 -0.4175 -0.1683 -0.4425
 3650SOL    HW122583   4.101   1.192   2.579 -1.3403  1.0416  0.7288
 3650SOL    HW222584   4.244   1.188   2.605 -1.1897 -0.9431 -0.2868
 3651SOL     OW22585   3.338   4.587  14.226  0.1387  0.6553  0.1603
 3651SOL    HW122586   3.289   4.657  14.182  0.5025  1.3457  0.8441
 3651SOL    HW222587   3.271   4.528  14.261 -0.2463  0.2687 -1.2697
 3652SOL     OW22588   1.166   2.953   7.061  0.1639 -0.0621 -0.0512
 3652SOL    HW122589   1.256   2.963   7.091 -0.0576 -1.5053  1.1458
 3652SOL    HW222590   1.163   3.033   7.009  1.2471 -0.2334 -0.3873
 3653SOL     OW22591   0.885   3.139   3.503  0.0664  0.0673  0.5354
 3653SOL    HW122592   0.847   3.205   3.446  0.1545 -1.7635 -1.6527
 3653SOL    HW222593   0.948   3.196   3.546  1.2130 -0.9664  0.2483
 3654SOL     OW22594   1.320   4.023  13.582 -0.2389  0.0252  0.5739
 3654SOL    HW122595   1.267   4.030  13.502  0.0862  0.5122  0.3986
 3654SOL    HW222596   1.240   4.018  13.635 -0.5120  0.4489  0.2102
 3655SOL     OW22597   2.868   0.174  10.137 -0.5779 -0.0007  0.4764
 3655SOL    HW122598   2.954   0.167  10.097 -0.5327  1.8124  0.2576
 3655SOL    HW222599   2.834   0.256  10.101 -2.7447 -0.9934  0.2575
 3656SOL     OW22600   3.879   0.214   1.541  0.4051 -0.3176 -0.2592
 3656SOL    HW122601   3.938   0.279   1.503 -0.2096  1.3384  1.6013
 3656SOL    HW222602   3.792   0.223   1.501  0.6527 -3.4333 -1.4707
 3657SOL     OW22603   0.615   4.596  12.597  0.4925 -0.0705 -0.2863
 3657SOL    HW122604   0.618   4.634  12.510 -0.1639  0.7106  0.0333
 3657SOL    HW222605   0.672   4.651  12.650 -1.0814  0.9269  0.3621
 3658SOL     OW22606   2.496   0.880  15.427 -0.1976  0.0094 -0.1992
 3658SOL    HW122607   2.445   0.948  15.384 -0.3197 -0.2270 -0.4283
 3658SOL    HW222608   2.487   0.813  15.359  1.6067  0.4074 -0.8280
 3659SOL     OW22609   2.172   1.970   7.713  0.3778  0.4653 -0.2556
 3659SOL    HW122610   2.117   2.031   7.663 -0.1798  1.2828  1.3562
 3659SOL    HW222611   2.106   1.905   7.735  1.5273 -0.3305  0.8756
 3660SOL     OW22612   3.582   2.021   2.321  0.1280 -0.3763 -0.0630
 3660SOL    HW122613   3.527   1.953   2.281  2.1755 -1.0588 -1.6936
 3660SOL    HW222614   3.651   2.026   2.256  0.4134 -2.1481  0.0956
 3661SOL     OW22615   4.735   0.677   5.628  0.0605  0.2250  0.1473
 3661SOL    HW122616   4.723   0.754   5.573  0.5596 -0.6291 -1.1739
 3661SOL    HW222617   0.025   0.710   5.712  1.1878 -1.0904  0.2538
 3662SOL     OW22618   4.272   2.470  11.401 -0.0871 -0.2957  0.2378
 3662SOL    HW122619   4.199   2.421  11.364  2.1774 -1.5736 -2.5128
 3662SOL    HW222620   4.236   2.558  11.386 -1.6656 -1.0756 -0.5117
 3663SOL     OW22621   3.126   1.156   5.928  0.5207 -0.8128  0.1130
 3663SOL    HW122622   3.060   1.172   5.996 -1.3848  1.7892 -2.3559
 3663SOL    HW222623   3.196   1.199   5.977 -1.6068  1.3140  1.2517
 3664SOL     OW22624   1.286   2.651  10.844 -0.0951 -0.1541  0.4127
 3664SOL    HW122625   1.198   2.628  10.873 -0.0093  0.7874  1.4151
 3664SOL    HW222626   1.324   2.698  10.918  0.4693 -2.2458  1.4555
 3665SOL     OW22627   2.635   1.140  16.580  0.0214 -0.3637 -0.3486
 3665SOL    HW122628   2.653   1.049  16.558  1.2524 -0.2186  0.0708
 3665SOL    HW222629   2.547   1.156  16.545 -0.4797  0.4558  1.3167
 3666SOL     OW22630   0.550   1.302   0.415  0.5071  0.3476 -0.7713
 3666SOL    HW122631   0.602   1.224   0.392 -0.0155 -0.6241  1.4140
 3666SOL    HW222632   0.502   1.268   0.490  1.8757  0.6730  0.2532
 3667SOL     OW22633   0.353   1.223   9.048 -0.2150  0.1355  0.5727
 3667SOL    HW122634   0.370   1.309   9.085 -0.3978 -0.8519  2.9673
 3667SOL    HW222635   0.386   1.237   8.960 -0.9776 -0.7316  0.1464
 3668SOL     OW22636   4.735   4.429  13.607 -0.0071 -0.2823  0.5241
 3668SOL    HW122637   0.029   4.341  13.626 -0.1093 -0.5845 -0.7127
 3668SOL    HW222638   0.062   4.463  13.549  0.3715 -1.2536  0.3891
 3669SOL     OW22639   0.808   3.129   7.423 -0.0797  0.3033  0.3982
 3669SOL    HW122640   0.798   3.069   7.497  0.8102 -0.5512 -0.1842
 3669SOL    HW222641   0.771   3.070   7.358 -0.0554 -1.8486  2.3687
 3670SOL     OW22642   3.803   0.386  16.156 -0.4163  0.0016 -0.1836
 3670SOL    HW122643   3.751   0.462  16.183 -1.9556 -2.0684  2.6429
 3670SOL    HW222644   3.755   0.317  16.200  0.3194  1.4941  2.9840
 3671SOL     OW22645   3.766   0.033   3.369  0.2381  0.2483 -0.6685
 3671SOL    HW122646   3.688   0.088   3.379 -0.6030 -0.8113 -1.2909
 3671SOL    HW222647   3.824   0.093   3.323  2.5995 -0.5996  1.2498
 3672SOL     OW22648   0.845   4.613   1.681 -0.0738 -0.1135  0.3407
 3672SOL    HW122649   0.939   4.597   1.689  0.2967  1.6838 -0.4095
 3672SOL    HW222650   0.845   4.685   1.617 -0.1761  0.7884  1.3569
 3673SOL     OW22651   3.866   1.522   4.873  0.0737 -0.4407 -0.1187
 3673SOL    HW122652   3.845   1.593   4.812  1.4913 -0.6675 -0.8813
 3673SOL    HW222653   3.828   1.444   4.833  2.3121 -0.5450 -2.0337
 3674SOL     OW22654   1.183   4.147   7.159 -0.3606 -0.8859  0.5162
 3674SOL    HW122655   1.123   4.220   7.172  0.0412  0.1088 -3.4146
 3674SOL    HW222656   1.170   4.129   7.066  0.5264 -1.9479  0.5914
 3675SOL     OW22657   2.388   2.058   2.583 -0.1340 -0.0523 -0.1842
 3675SOL    HW122658   2.360   2.150   2.586  2.3264  0.7284 -1.9868
 3675SOL    HW222659   2.467   2.072   2.531 -0.5403 -1.2830 -1.1326
 3676SOL     OW22660   0.269   0.078  13.337 -0.2594  0.3431  0.1142
 3676SOL    HW122661   0.241   0.036  13.256 -0.0867 -0.4624  0.4736
 3676SOL    HW222662   0.201   0.145  13.349 -0.6947 -0.1945  0.6258
 3677SOL     OW22663   0.801   1.584   4.679 -0.2958  0.2656  0.1052
 3677SOL    HW122664   0.852   1.518   4.725  0.5245  0.8493  0.0391
 3677SOL    HW222665   0.863   1.656   4.666  0.1690 -0.4314 -1.5527
 3678SOL     OW22666   0.666   1.560   9.589 -0.3028  0.7905  0.6318
 3678SOL    HW122667   0.654   1.486   9.529  3.6038  0.3132  0.4429
 3678SOL    HW222668   0.675   1.517   9.674  3.7348 -0.6524 -0.5126
 3679SOL     OW22669   3.135   2.562   2.682  0.2759 -0.1491  0.2187
 3679SOL    HW122670   3.213   2.601   2.643  0.2197  2.0001  2.2463
 3679SOL    HW222671   3.095   2.645   2.709 -0.0400 -0.3755  0.4573
 3680SOL     OW22672   4.010   4.693  12.890  0.2253 -0.1788  0.2485
 3680SOL    HW122673   3.970   4.672  12.806 -2.1084  2.0957  0.7882
 3680SOL    HW222674   4.038   4.606  12.919  2.0330  0.0431 -0.8257
 3681SOL     OW22675   2.361   4.248   3.841  0.3077 -0.2904  0.4076
 3681SOL    HW122676   2.335   4.229   3.751  1.1259  0.6175 -0.0273
 3681SOL    HW222677   2.294   4.313   3.862 -0.3013 -0.7890 -0.0272
 3682SOL     OW22678   1.651   4.643   8.901 -0.1501 -0.2540 -0.4919
 3682SOL    HW122679   1.574   4.699   8.912  0.0282  0.2026 -1.6298
 3682SOL    HW222680   1.713   4.710   8.873  0.8032 -0.4588  1.1079
 3683SOL     OW22681   1.426   3.286   7.833  0.2933 -0.3132  1.0309
 3683SOL    HW122682   1.367   3.218   7.801 -1.7647  2.4859 -1.0653
 3683SOL    HW222683   1.490   3.295   7.762 -0.6995 -2.1767 -0.1022
 3684SOL     OW22684   4.674   3.678   8.731  0.1723  0.0742 -0.4666
 3684SOL    HW122685   4.719   3.724   8.803  1.1537 -0.6481 -0.6169
 3684SOL    HW222686   4.612   3.626   8.782  0.7167 -1.7260 -1.6752
 3685SOL     OW22687   2.936   2.497  16.825 -0.2464 -0.4188  0.2392
 3685SOL    HW122688   2.921   2.571  16.767  3.1414  2.1792  2.7343
 3685SOL    HW222689   2.856   2.495  16.878 -0.5163  0.0336 -0.1599
 3686SOL     OW22690   2.809   0.539  10.926  0.0387 -0.2174  0.2486
 3686SOL    HW122691   2.810   0.630  10.955  0.4551 -0.7053  1.7156
 3686SOL    HW222692   2.891   0.536  10.877 -0.1341 -0.0028 -0.0589
 3687SOL     OW22693   2.586   0.069   7.538  0.0348  0.2564 -0.1080
 3687SOL    HW122694   2.621   0.121   7.465 -0.0235 -0.2391 -0.4889
 3687SOL    HW222695   2.519   0.015   7.496  0.5065 -1.0786  0.8651
 3688SOL     OW22696   3.966   2.769   4.311  0.5965  0.4983 -0.1128
 3688SOL    HW122697   3.907   2.806   4.246 -1.9168  0.2620  2.0348
 3688SOL    HW222698   4.050   2.776   4.265  0.0051 -1.1346 -1.4675
 3689SOL     OW22699   3.055   0.765   8.396  0.1539  0.4281 -0.0697
 3689SOL    HW122700   3.015   0.813   8.323 -0.9098 -0.7716 -0.2902
 3689SOL    HW222701   2.981   0.708   8.420 -0.3680  0.8773 -0.6090
 3690SOL     OW22702   4.421   4.617   9.285  0.0077  0.0641  0.2044
 3690SOL    HW122703   4.431   4.688   9.221  1.1650  0.7783  1.1908
 3690SOL    HW222704   4.474   4.658   9.353  0.3353 -0.3865  0.2170
 3691SOL     OW22705   3.836   1.873   3.624 -0.5421 -0.0611  0.3221
 3691SOL    HW122706   3.747   1.842   3.642 -1.3169  1.9979  0.0178
 3691SOL    HW222707   3.879   1.863   3.709  1.6730  0.7737 -0.6883
 3692SOL     OW22708   2.919   0.229  11.870  0.5049 -0.5180 -0.4296
 3692SOL    HW122709   2.886   0.308  11.912  1.3444  0.1370 -0.9889
 3692SOL    HW222710   2.947   0.186  11.951  0.1890  0.7579  0.3463
 3693SOL     OW22711   2.577   3.936   4.588  0.5338  0.7166 -0.6937
 3693SOL    HW122712   2.483   3.952   4.577  1.0070  1.4512 -3.6323
 3693SOL    HW222713   2.578   3.856   4.535  1.1853 -0.1856  0.6664
 3694SOL     OW22714   1.683   2.007  16.760 -0.2485 -0.5913  0.1674
 3694SOL    HW122715   1.754   2.070  16.758 -1.3057  0.6258  1.4357
 3694SOL    HW222716   1.721   1.932  16.805  2.8604  1.6508  1.2091
 3695SOL     OW22717   0.271   1.843   4.321  0.5164 -0.2882  0.4233
 3695SOL    HW122718   0.211   1.833   4.247  0.1721 -1.0674  0.7999
 3695SOL    HW222719   0.340   1.899   4.286 -0.5658 -0.0840 -1.3918
 3696SOL     OW22720   0.247   2.360   2.374  0.3575  0.1123  0.8381
 3696SOL    HW122721   0.302   2.286   2.349 -3.0465 -2.7111  1.6981
 3696SOL    HW222722   0.192   2.332   2.448 -0.5819 -1.0627 -0.3196
 3697SOL     OW22723   4.546   3.288   4.718  0.0578 -0.3002  0.0557
 3697SOL    HW122724   4.524   3.380   4.733  1.0919  0.2717 -1.9816
 3697SOL    HW222725   4.604   3.300   4.643 -0.5256  2.0184 -0.0277
 3698SOL     OW22726   3.556   4.495   2.843 -0.1670  0.3484 -0.0808
 3698SOL    HW122727   3.642   4.457   2.859 -1.5529 -1.9076  1.9444
 3698SOL    HW222728   3.590   4.584   2.831 -0.7780  0.2618 -2.4575
 3699SOL     OW22729   4.099   1.871   8.892  0.0933  0.9272 -0.7313
 3699SOL    HW122730   4.047   1.821   8.829 -0.7759 -1.6955  2.1091
 3699SOL    HW222731   4.150   1.931   8.837 -0.5962  1.8345 -0.3809
 3700SOL     OW22732   2.443   0.773   6.366  0.3452  0.0819 -0.1523
 3700SOL    HW122733   2.473   0.822   6.443  1.5916  1.7932 -1.7264
 3700SOL    HW222734   2.438   0.854   6.314  1.1094  0.8229  0.9262
 3701SOL     OW22735   3.749   3.561   5.277 -0.2475 -0.1226  0.1946
 3701SOL    HW122736   3.674   3.517   5.317 -0.3541 -0.6605 -0.6040
 3701SOL    HW222737   3.709   3.587   5.194  1.9385  0.4613 -0.6558
 3702SOL     OW22738   1.179   1.954   1.587  0.0940 -0.4501  0.2758
 3702SOL    HW122739   1.160   2.029   1.531 -2.6757 -2.0407 -0.9636
 3702SOL    HW222740   1.093   1.956   1.629  0.4885  2.4193  0.9102
 3703SOL     OW22741   3.247   0.845   8.552 -0.0317  0.0864  0.4332
 3703SOL    HW122742   3.180   0.798   8.504 -0.2691  0.3636  0.4905
 3703SOL    HW222743   3.210   0.933   8.544  0.2121  0.1924  0.4664
 3704SOL     OW22744   3.826   0.739   9.068 -0.3091  0.5642  0.0639
 3704SOL    HW122745   3.885   0.705   9.000  0.1319  1.1463  0.1578
 3704SOL    HW222746   3.791   0.652   9.088  0.2101 -0.0813 -1.7724
 3705SOL     OW22747   1.609   1.603   5.434 -0.2925 -0.4553  0.2339
 3705SOL    HW122748   1.668   1.541   5.478 -1.5103 -1.7299  0.0693
 3705SOL    HW222749   1.569   1.648   5.508  1.3366  2.7656 -0.8740
 3706SOL     OW22750   0.797   0.762  12.682  0.0315 -0.4804 -0.2881
 3706SOL    HW122751   0.731   0.827  12.659  0.5054  0.3652  0.7087
 3706SOL    HW222752   0.843   0.754  12.599 -1.1506  0.7411 -1.0521
 3707SOL     OW22753   3.470   1.047   8.172 -0.4171  0.0208  0.0194
 3707SOL    HW122754   3.382   1.039   8.206  0.7172  0.2893  3.0015
 3707SOL    HW222755   3.487   1.140   8.189 -0.1025 -0.2925  1.4192
 3708SOL     OW22756   4.211   2.825   9.469 -0.0050 -0.1580 -0.0649
 3708SOL    HW122757   4.134   2.829   9.413  0.0229  2.0614  0.0658
 3708SOL    HW222758   4.284   2.834   9.407 -0.1883  2.2954  0.0718
 3709SOL     OW22759   4.709   0.856   6.912  0.1565 -0.4332  0.3448
 3709SOL    HW122760   4.664   0.832   6.993  1.4252 -0.0795  1.1675
 3709SOL    HW222761   0.054   0.888   6.940 -0.5139  0.2049  1.6766
 3710SOL     OW22762   3.622   2.387   3.599 -0.0389  0.0108 -0.0807
 3710SOL    HW122763   3.704   2.430   3.574 -0.6657  1.4368  0.3329
 3710SOL    HW222764   3.645   2.298   3.626  1.0745 -0.3144 -2.1580
 3711SOL     OW22765   4.038   0.584   4.592  0.2969  0.2808 -0.6586
 3711SOL    HW122766   4.048   0.491   4.574  1.9260  0.2473  0.4099
 3711SOL    HW222767   4.110   0.595   4.654  0.3908  0.2449 -0.7612
 3712SOL     OW22768   2.053   2.659   2.210 -0.0048 -0.0801 -0.8767
 3712SOL    HW122769   2.106   2.729   2.171  0.8462 -1.9597 -3.1092
 3712SOL    HW222770   2.004   2.700   2.281  0.2407  0.4440 -1.0084
 3713SOL     OW22771   2.857   1.816   9.972 -0.2432 -0.3621  0.4637
 3713SOL    HW122772   2.820   1.810  10.060 -1.3711  2.0451  0.1544
 3713SOL    HW222773   2.809   1.886   9.927 -0.2560 -1.6652 -1.5640
 3714SOL     OW22774   3.811   1.383   1.804 -0.1676  0.2171 -0.2264
 3714SOL    HW122775   3.890   1.415   1.761  1.6297 -0.6427  2.4207
 3714SOL    HW222776   3.754   1.359   1.731 -1.2408  1.2059  0.2792
 3715SOL     OW22777   0.957   1.159   2.313 -0.5695 -0.1934  0.0330
 3715SOL    HW122778   1.023   1.107   2.266  1.8709  2.9241 -0.0246
 3715SOL    HW222779   1.007   1.189   2.389  1.0883 -0.1374 -1.0827
 3716SOL     OW22780   3.001   0.141   2.688  0.0490  0.5634  0.1053
 3716SOL    HW122781   2.973   0.158   2.598 -0.6068 -2.0429 -0.1760
 3716SOL    HW222782   2.953   0.060   2.701  0.3258  0.0012 -2.3375
 3717SOL     OW22783   4.522   1.427   0.975 -0.1198 -0.1210 -0.6023
 3717SOL    HW122784   4.486   1.514   0.957 -1.8235 -1.0568 -1.6706
 3717SOL    HW222785   4.507   1.387   0.889  0.2310 -0.1731 -0.6394
 3718SOL     OW22786   0.455   3.031  16.691 -0.2189 -0.5800  0.6529
 3718SOL    HW122787   0.513   3.076  16.629 -1.3443  2.3055  1.7061
 3718SOL    HW222788   0.525   3.024  16.756  0.5664 -0.6844 -0.2091
 3719SOL     OW22789   3.377   3.581  17.487  0.1147 -0.2419 -0.2050
 3719SOL    HW122790   3.430   3.520  17.538  0.7571  1.6021  1.3410
 3719SOL    HW222791   3.309   3.610  17.548  1.2482 -0.1123  0.9917
 3720SOL     OW22792   0.131   3.048   4.899 -0.1802  0.3410  0.4714
 3720SOL    HW122793   0.112   3.104   4.975 -1.5004  1.4559 -0.6870
 3720SOL    HW222794   0.045   3.026   4.864 -2.0864  2.9813  3.4099
 3721SOL     OW22795   2.449   2.559   1.187 -0.2973  0.1646  0.2228
 3721SOL    HW122796   2.461   2.588   1.278 -0.3161 -0.1146  0.3137
 3721SOL    HW222797   2.379   2.499   1.212 -1.4123  1.1410 -0.5788
 3722SOL     OW22798   1.670   2.419  11.336 -0.2489  0.1552  0.3618
 3722SOL    HW122799   1.674   2.411  11.241  1.1101  1.5715  0.3044
 3722SOL    HW222800   1.661   2.329  11.369 -3.6153  0.9658  1.6101
 3723SOL     OW22801   4.531   0.600   2.258  0.0004 -0.6206  0.8410
 3723SOL    HW122802   4.599   0.656   2.221 -2.1286  1.8623  0.7618
 3723SOL    HW222803   4.553   0.514   2.221  1.6456 -0.8616  2.3828
 3724SOL     OW22804   1.503   2.946  16.218 -0.0909  0.1247 -0.3616
 3724SOL    HW122805   1.588   2.987  16.232 -0.7963  2.0365 -1.7293
 3724SOL    HW222806   1.451   2.993  16.282  0.9145  1.1435 -0.3025
 3725SOL     OW22807   1.939   2.647   1.688  0.1610  0.0773 -0.0524
 3725SOL    HW122808   1.932   2.612   1.777 -0.4470 -1.0136 -0.5283
 3725SOL    HW222809   1.890   2.729   1.695 -0.9713 -0.8026  2.4828
 3726SOL     OW22810   2.945   2.381   6.444  0.3393 -0.0581  0.5219
 3726SOL    HW122811   2.973   2.470   6.426  2.7676 -0.5379  1.8525
 3726SOL    HW222812   3.022   2.355   6.495 -0.8162  2.1184  3.3736
 3727SOL     OW22813   0.000   2.293   4.269  0.0335  0.3057 -0.2396
 3727SOL    HW122814   4.671   2.232   4.296  0.0890  0.2647 -0.1863
 3727SOL    HW222815   4.697   2.350   4.206  2.6099  0.1759 -2.1417
 3728SOL     OW22816   2.620   3.380   7.053 -0.4358 -0.3178 -0.2003
 3728SOL    HW122817   2.645   3.454   6.998  0.3694 -1.4328 -1.3448
 3728SOL    HW222818   2.682   3.381   7.125 -0.1358 -1.6827 -0.4480
 3729SOL     OW22819   2.152   2.321  14.863 -0.0250 -0.1674 -0.9203
 3729SOL    HW122820   2.226   2.338  14.921 -0.0675  1.6701 -1.4012
 3729SOL    HW222821   2.153   2.226  14.852  1.7257 -0.1945 -0.5190
 3730SOL     OW22822   3.618   1.305   1.598 -0.0303  0.5579  0.4513
 3730SOL    HW122823   3.539   1.360   1.599  1.2353  2.3953  0.4316
 3730SOL    HW222824   3.586   1.224   1.637 -0.5830  0.5337 -0.0559
 3731SOL     OW22825   1.389   1.710  10.501 -0.3818  0.1255 -0.0918
 3731SOL    HW122826   1.432   1.796  10.496 -0.4382  0.2238  1.0921
 3731SOL    HW222827   1.346   1.717  10.586  1.0735 -2.9436  0.8960
 3732SOL     OW22828   2.086   3.222  13.212  0.0629  0.0963 -0.3421
 3732SOL    HW122829   2.065   3.160  13.142  0.3959 -0.9103  0.4698
 3732SOL    HW222830   2.000   3.258  13.233  0.6588 -0.1004  2.3885
 3733SOL     OW22831   3.124   0.440  12.379  0.1861  0.0195 -0.2584
 3733SOL    HW122832   3.103   0.416  12.469 -0.7330 -1.7951 -0.9554
 3733SOL    HW222833   3.166   0.525  12.393  0.7797 -0.6599  1.9299
 3734SOL     OW22834   0.309   0.493  15.047  0.4848 -0.3312  0.6880
 3734SOL    HW122835   0.270   0.571  15.086 -0.2680 -0.3980  0.0611
 3734SOL    HW222836   0.304   0.427  15.117 -1.0373 -0.6830  0.2444
 3735SOL     OW22837   3.873   4.676  16.709 -0.0381  0.5105  0.3737
 3735SOL    HW122838   3.899   4.584  16.711  1.0292  0.8662  2.5235
 3735SOL    HW222839   3.866   4.694  16.803 -1.1666 -2.4998  0.8692
 3736SOL     OW22840   2.222   0.600   3.799 -0.3216  0.1343  0.0649
 3736SOL    HW122841   2.259   0.668   3.742 -1.7047  1.1845  0.3846
 3736SOL    HW222842   2.295   0.582   3.858  0.0481  0.2669 -0.3554
 3737SOL     OW22843   1.835   1.512   2.538 -0.3434  0.3282 -0.8717
 3737SOL    HW122844   1.760   1.547   2.489 -0.0716 -0.9857 -2.2251
 3737SOL    HW222845   1.836   1.572   2.612  2.6465 -0.5715 -0.2013
 3738SOL     OW22846   2.344   2.653   4.784 -0.0611 -0.0903  0.4257
 3738SOL    HW122847   2.311   2.565   4.801 -0.2717 -0.5724 -2.5759
 3738SOL    HW222848   2.277   2.717   4.809  0.1530  0.4986 -0.5265
 3739SOL     OW22849   2.003   4.648   5.704  0.0909  0.1462 -0.0208
 3739SOL    HW122850   2.097   4.650   5.689  0.0485 -0.2663 -0.3295
 3739SOL    HW222851   1.972   4.571   5.656  1.0495  0.4923 -1.1896
 3740SOL     OW22852   1.967   2.315   1.298 -0.2375  0.6698  0.0147
 3740SOL    HW122853   1.937   2.325   1.389 -1.3406  0.7982 -0.3757
 3740SOL    HW222854   2.019   2.235   1.313  1.2333  1.7909  0.9347
 3741SOL     OW22855   1.294   3.960   6.853 -0.2962 -0.1821  0.3621
 3741SOL    HW122856   1.222   4.017   6.826 -0.1486  0.1654  0.6918
 3741SOL    HW222857   1.288   3.895   6.784 -0.4744 -0.6218  0.7983
 3742SOL     OW22858   1.824   0.036   4.706 -0.2304 -0.5919  0.7999
 3742SOL    HW122859   1.786   0.066   4.623  2.2456  0.3317 -0.0018
 3742SOL    HW222860   1.845   4.685   4.689  2.4578 -0.0617  1.2603
 3743SOL     OW22861   2.123   1.581  16.273 -0.0655  0.0635 -0.3404
 3743SOL    HW122862   2.186   1.524  16.231  0.0370  0.2082 -0.3842
 3743SOL    HW222863   2.160   1.575  16.361  0.7255  0.8032 -0.6244
 3744SOL     OW22864   1.827   2.512   9.398  0.2816  0.6664 -0.1982
 3744SOL    HW122865   1.902   2.485   9.344 -0.2761 -0.4336 -0.4185
 3744SOL    HW222866   1.772   2.433   9.393 -0.0245  0.7914  1.1332
 3745SOL     OW22867   1.136   2.384   7.375 -0.3773 -0.1772  0.2813
 3745SOL    HW122868   1.224   2.411   7.349 -0.6422  0.1450 -0.2841
 3745SOL    HW222869   1.156   2.303   7.421 -0.7028 -0.7349 -0.5555
 3746SOL     OW22870   4.398   0.251   5.905 -0.2737 -0.0759  0.5222
 3746SOL    HW122871   4.465   0.231   5.970 -0.2695 -1.5582  0.0750
 3746SOL    HW222872   4.352   0.167   5.914 -0.3114 -0.0878  0.2181
 3747SOL     OW22873   1.626   2.892  13.422 -0.2743  0.0087 -0.0982
 3747SOL    HW122874   1.626   2.968  13.480  1.3584  0.4991 -0.7532
 3747SOL    HW222875   1.656   2.817  13.473  2.5027  0.3268 -1.2934
 3748SOL     OW22876   0.140   4.694   2.468  0.9194  0.4397 -0.0151
 3748SOL    HW122877   0.174   4.709   2.556  0.7041 -0.8483  0.2901
 3748SOL    HW222878   0.216   4.660   2.421 -0.5302 -1.3672 -1.0656
 3749SOL     OW22879   1.332   0.878   5.147  0.4157 -0.6052 -0.4721
 3749SOL    HW122880   1.337   0.784   5.166 -2.3271 -0.8528 -0.9597
 3749SOL    HW222881   1.416   0.919   5.165 -0.1501  0.4999 -0.3722
 3750SOL     OW22882   0.937   3.303   6.697  0.3386  0.1061  0.0340
 3750SOL    HW122883   0.973   3.225   6.656 -4.1326 -0.1561 -3.4332
 3750SOL    HW222884   0.845   3.275   6.707  0.6136 -0.6265  0.5120
 3751SOL     OW22885   3.162   2.529   5.845  0.0358 -0.5126  0.4982
 3751SOL    HW122886   3.128   2.511   5.758 -1.1371  2.2757  0.3743
 3751SOL    HW222887   3.253   2.497   5.840  0.4097  0.8310 -1.3219
 3752SOL     OW22888   3.447   0.778   1.380 -0.4633 -0.2784  0.3938
 3752SOL    HW122889   3.381   0.809   1.318  0.8845  0.0461 -0.8810
 3752SOL    HW222890   3.525   0.806   1.333  0.4602 -1.2756  1.3436
 3753SOL     OW22891   1.072   3.747   6.493 -0.1460 -0.1635  0.0250
 3753SOL    HW122892   1.022   3.666   6.492  0.6821 -0.6339 -3.1535
 3753SOL    HW222893   1.014   3.794   6.434  2.3278  1.8942 -0.7684
 3754SOL     OW22894   3.911   0.266   0.343 -0.0338  0.3601  0.2944
 3754SOL    HW122895   3.902   0.172   0.325 -0.4479  0.1095  1.8235
 3754SOL    HW222896   3.946   0.272   0.432  0.6212 -2.5073  0.2495
 3755SOL     OW22897   0.905   1.492   0.804  0.6416  0.4309 -0.7498
 3755SOL    HW122898   0.855   1.441   0.740  0.6845 -2.9783  1.9152
 3755SOL    HW222899   0.873   1.443   0.879 -2.5092  0.4349 -2.0633
 3756SOL     OW22900   1.687   2.101  10.103  0.2443 -0.0821  0.2328
 3756SOL    HW122901   1.666   2.187  10.137 -2.1974 -0.4085 -0.4075
 3756SOL    HW222902   1.687   2.105  10.007  0.8039 -2.6205  0.1221
 3757SOL     OW22903   3.572   2.087   4.020  0.0537  0.3693 -0.0061
 3757SOL    HW122904   3.592   1.995   4.034 -0.9858 -0.0123 -0.9953
 3757SOL    HW222905   3.593   2.097   3.927 -0.6531  0.2693 -0.1783
 3758SOL     OW22906   2.613   3.885   9.173  0.5324  0.4394 -0.5088
 3758SOL    HW122907   2.619   3.895   9.078  1.6276  0.2857 -0.4523
 3758SOL    HW222908   2.530   3.930   9.185  0.2853  0.0552 -0.7683
 3759SOL     OW22909   4.271   1.920   9.815  0.1220  0.2764  0.0836
 3759SOL    HW122910   4.216   1.842   9.821  2.1619 -1.2180 -0.8823
 3759SOL    HW222911   4.248   1.947   9.726  0.3117  2.2427  0.6339
 3760SOL     OW22912   1.065   1.111   2.916 -0.1619  0.0859  0.3092
 3760SOL    HW122913   1.151   1.073   2.897 -0.0002 -0.1672  1.5103
 3760SOL    HW222914   1.071   1.100   3.011 -1.8846 -2.5771  0.1098
 3761SOL     OW22915   2.706   0.746   6.912 -0.8761 -0.6524  0.3053
 3761SOL    HW122916   2.624   0.702   6.935 -2.8684  3.4308  1.1617
 3761SOL    HW222917   2.672   0.790   6.834  0.6758 -1.2565 -0.7154
 3762SOL     OW22918   2.649   4.007  10.735  0.3389  0.3165  0.1885
 3762SOL    HW122919   2.568   4.005  10.785 -0.3246  1.0099 -0.8791
 3762SOL    HW222920   2.653   3.916  10.705  1.9788 -0.6316  3.2947
 3763SOL     OW22921   3.888   2.104   6.771 -0.7695  0.7849  0.3557
 3763SOL    HW122922   3.813   2.156   6.740 -1.5664  1.2449  3.0846
 3763SOL    HW222923   3.963   2.161   6.754  0.3566  0.5798  4.6502
 3764SOL     OW22924   3.397   4.005   7.083 -0.8897 -0.1567  0.2941
 3764SOL    HW122925   3.302   4.010   7.072 -1.1002 -3.3225  0.7397
 3764SOL    HW222926   3.419   4.018   6.991  3.6898 -1.0592  1.2461
 3765SOL     OW22927   1.877   4.506   8.106  0.2632  0.8445 -0.6108
 3765SOL    HW122928   1.792   4.550   8.102  0.0434  0.4746 -0.0918
 3765SOL    HW222929   1.914   4.534   8.190 -1.7709 -1.0683  0.9202
 3766SOL     OW22930   0.179   3.184   4.456 -0.3699  0.3462  0.1119
 3766SOL    HW122931   0.128   3.259   4.427  0.6620  0.8888 -0.2855
 3766SOL    HW222932   0.124   3.155   4.529  1.5874 -1.1553  1.0107
 3767SOL     OW22933   2.702   4.337   8.158  0.4372  0.2210 -0.3656
 3767SOL    HW122934   2.693   4.363   8.250  0.7114  0.9629 -0.5518
 3767SOL    HW222935   2.797   4.341   8.143  0.9697 -0.8170  2.6310
 3768SOL     OW22936   2.908   0.715   3.797 -0.0405  0.3569 -0.0882
 3768SOL    HW122937   2.978   0.740   3.857  0.5490  0.0378 -0.6458
 3768SOL    HW222938   2.855   0.660   3.855  0.4858  0.0470  0.1014
 3769SOL     OW22939   0.743   4.702   4.609  0.6231 -0.2176 -0.3482
 3769SOL    HW122940   0.838   4.697   4.600  0.8359  3.1622  0.2459
 3769SOL    HW222941   0.728   4.616   4.570 -1.3992 -1.1365  2.4121
 3770SOL     OW22942   4.689   2.624   8.050 -0.0284  0.0470  0.0577
 3770SOL    HW122943   4.737   2.634   7.968  1.9703 -0.8275  1.1143
 3770SOL    HW222944   0.007   2.643   8.124 -2.5495 -1.3043  2.3987
 3771SOL     OW22945   0.897   1.657   5.248 -0.6688 -0.3529 -0.6506
 3771SOL    HW122946   0.949   1.717   5.195 -2.1007  1.2617 -0.2312
 3771SOL    HW222947   0.949   1.653   5.328 -1.6227  0.9706  0.0432
 3772SOL     OW22948   2.780   2.283   3.542 -0.2997  0.3151  0.7380
 3772SOL    HW122949   2.739   2.369   3.534 -1.8626 -0.5991 -0.9333
 3772SOL    HW222950   2.864   2.305   3.583 -0.6827  1.2107  1.0289
 3773SOL     OW22951   1.079   1.581   1.861 -0.5995 -0.2722 -0.0454
 3773SOL    HW122952   1.038   1.530   1.931 -0.9087  1.5356  1.0770
 3773SOL    HW222953   1.110   1.658   1.909  0.7850 -1.4412  0.9185
 3774SOL     OW22954   0.459   0.057  10.329  0.1077 -0.2376  0.0749
 3774SOL    HW122955   0.479   0.139  10.285  2.6282 -0.8211  0.1390
 3774SOL    HW222956   0.400   0.022  10.263 -0.1678  0.2578  0.0585
 3775SOL     OW22957   2.401   0.812   6.995  0.2735  0.0979  0.2812
 3775SOL    HW122958   2.363   0.871   6.930 -0.5142 -1.3063 -0.5303
 3775SOL    HW222959   2.318   0.787   7.036  0.3968 -0.6168  0.1019
 3776SOL     OW22960   3.418   3.356  17.299  0.3362 -0.3537 -0.4451
 3776SOL    HW122961   3.425   3.383  17.390 -1.5018  2.7776 -1.2254
 3776SOL    HW222962   3.508   3.376  17.274  1.2241 -1.5497  1.8712
 3777SOL     OW22963   4.299   3.171   6.485  0.2940  0.3463  0.5438
 3777SOL    HW122964   4.322   3.099   6.426  1.8133  1.7598 -0.5967
 3777SOL    HW222965   4.312   3.252   6.435  0.8227  1.0871  1.9009
 3778SOL     OW22966   0.187   2.013   7.022 -0.1268 -0.1928  0.2243
 3778SOL    HW122967   0.196   1.918   7.008 -1.2060 -0.2179 -0.3434
 3778SOL    HW222968   0.100   2.010   7.062  0.5080 -2.4042  1.4750
 3779SOL     OW22969   1.959   3.342   2.406  0.2513  0.0909  0.2482
 3779SOL    HW122970   1.941   3.255   2.371  0.6612  0.1128 -0.0120
 3779SOL    HW222971   1.910   3.389   2.338 -0.1566 -2.0988 -0.9425
 3780SOL     OW22972   0.049   4.393  13.285  0.3252 -0.9691 -0.0602
 3780SOL    HW122973   0.138   4.388  13.320  1.2279  0.0476 -2.1857
 3780SOL    HW222974   0.015   4.309  13.315 -0.2912  0.3382  2.8889
 3781SOL     OW22975   4.544   1.813  16.113  0.1441  0.3835 -0.6297
 3781SOL    HW122976   4.612   1.803  16.180  1.8600 -0.7724 -2.5404
 3781SOL    HW222977   4.592   1.862  16.045  0.6450 -2.3867 -2.2778
 3782SOL     OW22978   3.127   0.163  11.190 -0.0782 -0.2600  0.6368
 3782SOL    HW122979   3.128   0.224  11.264 -1.4398  0.6591 -0.1008
 3782SOL    HW222980   3.034   0.144  11.173  0.4050 -1.9763 -0.0785
 3783SOL     OW22981   0.442   0.230   5.024  0.0308  0.0988 -0.2188
 3783SOL    HW122982   0.439   0.325   5.036  0.4569 -0.0740  1.2828
 3783SOL    HW222983   0.399   0.226   4.938 -0.8329  2.1347  0.1258
 3784SOL     OW22984   2.921   0.730   5.935  0.6188 -0.1706 -0.3599
 3784SOL    HW122985   2.981   0.792   5.979  1.2055 -0.4034 -0.8308
 3784SOL    HW222986   2.840   0.769   5.966 -0.0713 -0.9714 -1.1839
 3785SOL     OW22987   1.214   3.280   4.340  0.3415 -0.0707 -0.2949
 3785SOL    HW122988   1.145   3.337   4.306  1.3599  1.5180  0.3255
 3785SOL    HW222989   1.169   3.207   4.382 -0.2295 -2.0447 -4.2559
 3786SOL     OW22990   0.357   2.298   1.595 -0.2532  0.6864 -0.3294
 3786SOL    HW122991   0.295   2.252   1.539 -1.0898  1.3513  0.0526
 3786SOL    HW222992   0.326   2.266   1.680  0.8944 -0.1194 -0.2098
 3787SOL     OW22993   3.002   0.471  11.162 -0.3386 -0.2571  0.0609
 3787SOL    HW122994   3.059   0.478  11.086 -0.0618  1.8585  0.4880
 3787SOL    HW222995   2.960   0.556  11.154 -0.4332 -0.5414 -2.3959
 3788SOL     OW22996   3.048   0.588   2.157  0.5428  0.0857 -0.1332
 3788SOL    HW122997   3.139   0.589   2.127  0.8773 -0.0888  0.8844
 3788SOL    HW222998   3.024   0.514   2.101 -0.1028  1.4709 -1.6889
 3789SOL     OW22999   3.269   1.326   3.745  0.2135  0.1092 -0.6771
 3789SOL    HW123000   3.316   1.316   3.827 -0.6386  2.2023  0.0694
 3789SOL    HW223001   3.223   1.408   3.763  1.0776 -0.0768  2.3741
 3790SOL     OW23002   4.008   0.945   2.913 -0.2254 -0.8330 -0.6635
 3790SOL    HW123003   3.986   0.918   2.823  0.9364  0.0791 -1.2212
 3790SOL    HW223004   3.952   1.020   2.931  2.3621  1.4422 -2.1984
 3791SOL     OW23005   3.373   3.683   0.088  0.2108  0.1384 -0.2877
 3791SOL    HW123006   3.298   3.674   0.030  0.3824  1.9457 -0.7806
 3791SOL    HW223007   3.387   3.594   0.120  1.8794  0.7038  0.5706
 3792SOL     OW23008   2.978   0.396   9.188 -0.0858 -0.2315 -0.0961
 3792SOL    HW123009   3.072   0.384   9.199  0.1319 -0.7717 -2.4945
 3792SOL    HW223010   2.985   0.395   9.092  0.6765  2.6529 -0.0768
 3793SOL     OW23011   4.220   2.582   8.638  0.8356 -0.5472 -0.4594
 3793SOL    HW123012   4.225   2.666   8.591 -1.0489 -1.0007 -1.4705
 3793SOL    HW223013   4.253   2.528   8.566 -4.1051 -1.8579 -1.7233
 3794SOL     OW23014   2.149   4.404   3.905 -0.3661 -0.6907  0.0294
 3794SOL    HW123015   2.081   4.450   3.855 -1.6168 -0.1732  2.1996
 3794SOL    HW223016   2.170   4.462   3.977 -0.1096 -1.2451  0.3988
 3795SOL     OW23017   2.226   3.210   8.785  0.3378 -0.0319  0.7378
 3795SOL    HW123018   2.134   3.190   8.766  0.8793 -3.5970  1.9154
 3795SOL    HW223019   2.210   3.233   8.877  2.2393  0.0663  1.0319
 3796SOL     OW23020   4.484   0.795   1.478 -0.1897  0.1004 -0.0031
 3796SOL    HW123021   4.461   0.801   1.385 -0.3602 -3.0004 -0.1885
 3796SOL    HW223022   4.570   0.834   1.486 -1.2246  2.1417  1.1789
 3797SOL     OW23023   1.637   0.769  13.118  0.0961 -0.2174 -0.1863
 3797SOL    HW123024   1.722   0.737  13.148  0.4774  1.2909  0.2945
 3797SOL    HW223025   1.656   0.818  13.038  1.1352  1.7637  1.2848
 3798SOL     OW23026   2.494   1.622   3.043 -0.1819 -0.0403  0.0325
 3798SOL    HW123027   2.516   1.629   3.136 -0.3831  0.2561  0.0539
 3798SOL    HW223028   2.581   1.628   3.002 -0.3517  0.3633 -0.2674
 3799SOL     OW23029   3.579   2.025  15.143  0.4720  0.3435 -0.2627
 3799SOL    HW123030   3.614   1.957  15.085 -0.1558  0.0991 -0.3600
 3799SOL    HW223031   3.649   2.024  15.209 -0.2500  2.3689  0.5294
 3800SOL     OW23032   3.411   3.066   6.539  0.2303 -0.6284 -0.3284
 3800SOL    HW123033   3.457   2.986   6.566  0.8402  0.0009  0.5133
 3800SOL    HW223034   3.373   3.033   6.458 -1.3340 -1.4774  0.7525
 3801SOL     OW23035   0.779   0.399   4.356  0.1767  0.3276  0.0656
 3801SOL    HW123036   0.734   0.480   4.333 -0.7559 -0.2478 -0.1539
 3801SOL    HW223037   0.762   0.355   4.273  1.6239 -1.3144  0.6473
 3802SOL     OW23038   4.013   3.394   3.974 -0.0716 -0.0189  0.1109
 3802SOL    HW123039   4.062   3.312   3.963  0.0811 -0.0439  0.9087
 3802SOL    HW223040   4.016   3.401   4.070  3.8701  0.0021  0.0129
 3803SOL     OW23041   2.049   1.188   1.311 -0.7354  0.4372  0.6118
 3803SOL    HW123042   2.035   1.234   1.394  0.5016 -1.7622  2.0511
 3803SOL    HW223043   2.073   1.100   1.341 -0.7923  0.3475  0.3900
 3804SOL     OW23044   1.494   2.368  12.149 -0.0930 -0.0572  0.2931
 3804SOL    HW123045   1.413   2.410  12.176  1.6809  3.3080  0.4256
 3804SOL    HW223046   1.487   2.276  12.174  0.4967 -0.4024 -0.8044
 3805SOL     OW23047   1.876   0.264   7.407 -0.4853 -0.0034 -0.2824
 3805SOL    HW123048   1.874   0.278   7.313  0.3074 -0.1123 -0.3156
 3805SOL    HW223049   1.790   0.290   7.441 -0.6837 -0.2389 -0.6073
 3806SOL     OW23050   1.126   3.785   2.397  0.1030  0.4292  0.1530
 3806SOL    HW123051   1.186   3.860   2.387  0.8537 -0.2167 -0.1730
 3806SOL    HW223052   1.153   3.758   2.485 -1.1940 -0.0777  0.3906
 3807SOL     OW23053   2.959   1.159   9.288  0.6325 -0.5121  0.1273
 3807SOL    HW123054   2.943   1.153   9.193  2.2015 -1.3742 -0.0846
 3807SOL    HW223055   3.042   1.207   9.285  1.9729 -2.7119  2.3040
 3808SOL     OW23056   3.201   3.562  11.107 -0.4107  0.1987 -0.3292
 3808SOL    HW123057   3.202   3.470  11.077 -2.1121 -0.5501  1.9426
 3808SOL    HW223058   3.227   3.548  11.198 -3.4261 -4.3648 -0.1395
 3809SOL     OW23059   1.797   4.174   8.090 -0.2563  0.2000  0.8666
 3809SOL    HW123060   1.764   4.256   8.126 -1.0006  1.4850 -2.6399
 3809SOL    HW223061   1.807   4.185   7.995  0.0848 -1.9357  0.6518
 3810SOL     OW23062   2.963   3.421  12.072  0.1692  0.1436  0.5077
 3810SOL    HW123063   2.926   3.407  12.159  1.8624 -2.6756  0.8075
 3810SOL    HW223064   2.897   3.481  12.039  1.2004  1.4664  0.8311
 3811SOL     OW23065   0.515   1.991  16.028  1.0037  0.1603 -0.6842
 3811SOL    HW123066   0.449   1.928  16.000  1.4314 -0.7702  0.4332
 3811SOL    HW223067   0.537   1.951  16.112 -0.4114 -0.3486 -0.5607
 3812SOL     OW23068   0.874   0.233   7.018  0.0969  0.1669 -0.1038
 3812SOL    HW123069   0.945   0.243   7.082  0.1357  0.2600 -0.1628
 3812SOL    HW223070   0.832   0.318   7.004 -0.7504 -0.1825  0.3027
 3813SOL     OW23071   1.689   2.505  10.490 -0.0523 -0.0646  0.1285
 3813SOL    HW123072   1.756   2.571  10.510 -1.0133  0.8262  0.4338
 3813SOL    HW223073   1.615   2.532  10.545  2.2174  0.6047  2.8616
 3814SOL     OW23074   0.208   2.255  12.637 -0.0863  0.2682  0.7255
 3814SOL    HW123075   0.221   2.289  12.726  0.0528  2.4343 -0.1218
 3814SOL    HW223076   0.144   2.185  12.650 -2.6568  2.7255  1.3732
 3815SOL     OW23077   2.350   4.481   2.512 -0.1213 -0.1999 -0.0057
 3815SOL    HW123078   2.441   4.455   2.527 -0.4356 -0.5000  1.3983
 3815SOL    HW223079   2.327   4.433   2.432  0.5840 -1.4253  0.5327
 3816SOL     OW23080   2.613   1.125   7.073  0.3029 -0.4302  0.1181
 3816SOL    HW123081   2.708   1.139   7.083  0.2152 -0.0643  0.4625
 3816SOL    HW223082   2.620   1.043   7.025  0.6884  0.1248 -0.7775
 3817SOL     OW23083   4.047   2.112   3.744 -0.3932 -0.0484  0.4086
 3817SOL    HW123084   4.058   2.062   3.663 -2.1381  1.2280 -0.6228
 3817SOL    HW223085   4.106   2.185   3.727  1.4819 -2.2358 -2.3504
 3818SOL     OW23086   2.721   1.461  15.729 -1.0146 -0.0413 -0.2979
 3818SOL    HW123087   2.744   1.383  15.679  0.7311 -0.0164  0.4915
 3818SOL    HW223088   2.775   1.527  15.686 -0.6633 -0.7525 -0.9487
 3819SOL     OW23089   2.606   2.844  16.128 -0.0135  0.3753  0.2409
 3819SOL    HW123090   2.662   2.801  16.063 -0.4413 -0.6425  0.5486
 3819SOL    HW223091   2.584   2.766  16.179 -0.6858  0.7118  0.4669
 3820SOL     OW23092   0.071   1.108   4.122 -0.0144 -0.2288  0.5103
 3820SOL    HW123093   0.060   1.128   4.215  1.2383  0.6186  0.4882
 3820SOL    HW223094   0.145   1.047   4.127 -0.3126 -0.6706 -0.4531
 3821SOL     OW23095   4.177   1.759   8.457  0.5033 -0.3303 -0.3350
 3821SOL    HW123096   4.224   1.748   8.374  0.3684  1.8974 -0.6938
 3821SOL    HW223097   4.095   1.710   8.450 -0.0766  0.5328  0.4709
 3822SOL     OW23098   0.521   4.208   0.868 -0.0444 -0.3119 -0.5637
 3822SOL    HW123099   0.427   4.207   0.850 -0.3484 -2.2722  1.1351
 3822SOL    HW223100   0.547   4.300   0.873 -2.9390  0.4699 -0.0012
 3823SOL     OW23101   0.632   2.099   3.435  0.3097  0.2476 -0.0013
 3823SOL    HW123102   0.698   2.132   3.374  2.5416 -0.5492  1.9861
 3823SOL    HW223103   0.616   2.006   3.421 -3.6690  1.1348 -1.1692
 3824SOL     OW23104   0.984   1.260   6.359  0.1792 -0.0540 -0.0530
 3824SOL    HW123105   1.031   1.186   6.320 -0.1033 -0.8818  1.1688
 3824SOL    HW223106   1.031   1.265   6.442  1.7861 -0.2245 -0.9529
 3825SOL     OW23107   3.219   0.211   7.201  0.3379  0.3675 -0.0837
 3825SOL    HW123108   3.152   0.219   7.133 -0.6789 -1.5468  0.6884
 3825SOL    HW223109   3.164   0.197   7.278  0.3868 -0.7262 -0.2433
 3826SOL     OW23110   4.712   0.904   8.268 -0.0052 -0.3362 -0.4672
 3826SOL    HW123111   4.668   0.972   8.216  1.1455  0.1335 -0.8290
 3826SOL    HW223112   0.066   0.917   8.264  0.0576 -0.4721  0.5635
 3827SOL     OW23113   2.181   4.293  13.335  0.8065 -0.6713 -0.1848
 3827SOL    HW123114   2.214   4.364  13.390 -0.1085  0.6359 -1.2876
 3827SOL    HW223115   2.109   4.340  13.291  1.5620  0.8533  0.2022
 3828SOL     OW23116   4.291   2.085   8.002  0.2650  0.4613 -0.5584
 3828SOL    HW123117   4.387   2.087   8.002  0.2991 -1.4340  1.1099
 3828SOL    HW223118   4.281   2.177   7.979 -0.9875  0.4673 -0.0016
 3829SOL     OW23119   3.412   2.828  12.766  0.5173  0.4639  0.3947
 3829SOL    HW123120   3.432   2.772  12.690  0.8479  0.6205  0.3677
 3829SOL    HW223121   3.459   2.783  12.836  0.4922 -3.3045 -1.9767
 3830SOL     OW23122   2.736   3.079   4.078  0.2533  0.4792  0.0906
 3830SOL    HW123123   2.653   3.109   4.117 -0.3562  1.8335 -2.2412
 3830SOL    HW223124   2.718   3.080   3.984 -0.8709  1.2093  0.3114
 3831SOL     OW23125   3.145   0.094   5.819 -0.0196 -0.0221  0.3945
 3831SOL    HW123126   3.203   0.018   5.813  0.9756  0.7341  0.4369
 3831SOL    HW223127   3.175   0.151   5.748 -1.4277  1.5435  1.0736
 3832SOL     OW23128   0.514   1.799  11.986 -0.5694  0.6055  0.6162
 3832SOL    HW123129   0.606   1.821  12.000 -0.0992 -0.8204 -0.1717
 3832SOL    HW223130   0.518   1.741  11.910  0.5696  0.2283  0.9641
 3833SOL     OW23131   4.692   2.254   8.042 -0.1366  0.3276  0.4812
 3833SOL    HW123132   0.008   2.230   7.969 -0.8249 -0.5392  0.2319
 3833SOL    HW223133   4.703   2.348   8.053 -0.5056  0.6158 -1.5881
 3834SOL     OW23134   2.973   4.475   5.577  0.0424  0.1617 -0.3295
 3834SOL    HW123135   3.042   4.516   5.525  2.3648 -4.3735 -0.7809
 3834SOL    HW223136   2.980   4.386   5.544  1.3593  0.3738 -0.6135
 3835SOL     OW23137   2.136   3.076  12.105  0.0994  0.1304 -0.2255
 3835SOL    HW123138   2.202   3.114  12.047  1.1750  0.5876  1.2951
 3835SOL    HW223139   2.077   3.049  12.035 -1.1643  1.9063  0.1417
 3836SOL     OW23140   2.107   1.734  12.121  0.0841 -1.3448 -0.2520
 3836SOL    HW123141   2.115   1.829  12.124 -0.4649 -1.2645 -1.1026
 3836SOL    HW223142   2.112   1.710  12.213 -0.3218 -0.4343  0.0008
 3837SOL     OW23143   3.419   2.557   1.398  0.2018  0.3466 -0.7777
 3837SOL    HW123144   3.328   2.550   1.428  0.3388 -0.3965 -0.5514
 3837SOL    HW223145   3.429   2.465   1.375 -0.8891  0.4341 -1.6618
 3838SOL     OW23146   2.499   4.244   6.426  0.4557 -0.0242  0.0717
 3838SOL    HW123147   2.440   4.253   6.352 -2.7299  0.6464  2.7001
 3838SOL    HW223148   2.583   4.211   6.393 -0.2463  0.1477 -1.8648
 3839SOL     OW23149   1.234   1.837   2.517 -0.4909  0.6437 -0.1976
 3839SOL    HW123150   1.230   1.930   2.539  1.5571  0.7550 -0.3288
 3839SOL    HW223151   1.319   1.810   2.551 -0.5263  1.5663  0.6115
 3840SOL     OW23152   3.794   3.851  15.816  0.0166  0.4632 -0.2995
 3840SOL    HW123153   3.793   3.943  15.791 -0.8752  1.3816  3.1383
 3840SOL    HW223154   3.704   3.819  15.811  0.5093 -0.7720 -1.1682
 3841SOL     OW23155   1.060   1.199   1.022  0.4208  0.3342  0.3747
 3841SOL    HW123156   1.015   1.250   1.089 -0.1239 -0.3768  0.5566
 3841SOL    HW223157   1.130   1.256   0.992  0.3802 -0.1641 -0.6763
 3842SOL     OW23158   3.071   2.011   3.198 -0.1322 -0.4701  0.1210
 3842SOL    HW123159   3.046   1.987   3.287 -2.7373 -2.0576 -1.0364
 3842SOL    HW223160   3.162   1.986   3.185 -0.2350  0.2477 -1.9072
 3843SOL     OW23161   4.649   3.717   7.884 -0.2917 -0.1068 -0.2362
 3843SOL    HW123162   4.713   3.692   7.817 -2.5888  0.3476 -2.6163
 3843SOL    HW223163   4.647   3.813   7.889  1.2933 -0.0101 -1.7267
 3844SOL     OW23164   1.617   0.800   0.579 -0.5171  0.0626  0.3276
 3844SOL    HW123165   1.700   0.814   0.533 -0.3043 -1.0972  0.3732
 3844SOL    HW223166   1.580   0.731   0.525  3.8681 -1.2644 -0.9731
 3845SOL     OW23167   2.115   3.506   3.179  0.1537  0.1902  0.1286
 3845SOL    HW123168   2.158   3.541   3.256 -1.3059 -0.5714  1.2862
 3845SOL    HW223169   2.026   3.538   3.193  0.0380  0.6674 -1.6900
 3846SOL     OW23170   0.269   3.600   8.106 -0.3047 -0.1975  0.1216
 3846SOL    HW123171   0.217   3.541   8.161 -2.6630  1.5670 -0.2148
 3846SOL    HW223172   0.348   3.552   8.079 -0.0179  1.0465 -1.2214
 3847SOL     OW23173   2.242   0.690   8.223  0.4915 -0.0397 -0.0528
 3847SOL    HW123174   2.321   0.729   8.185  1.3023 -1.9580 -0.3499
 3847SOL    HW223175   2.218   0.766   8.276  0.4360 -0.8988  1.1317
 3848SOL     OW23176   4.526   0.005   4.064 -0.5818  0.4217  0.1767
 3848SOL    HW123177   4.511   4.711   3.976 -1.7195 -1.0329  0.9656
 3848SOL    HW223178   4.555   0.090   4.029  1.6192 -0.1591  0.5719
 3849SOL     OW23179   0.074   4.059   6.138 -0.2607  0.0344 -0.0917
 3849SOL    HW123180   0.038   4.147   6.147  1.4512  0.4320  2.8556
 3849SOL    HW223181   4.737   4.012   6.105 -1.6761  1.5636  1.0457
 3850SOL     OW23182   2.830   1.673  15.608 -0.2255  0.6122  0.4404
 3850SOL    HW123183   2.835   1.751  15.664 -0.0007  0.8225  0.1268
 3850SOL    HW223184   2.923   1.655  15.594 -0.3558 -1.8581  2.6044
 3851SOL     OW23185   1.214   2.421   2.190 -0.1221 -0.3293  0.3958
 3851SOL    HW123186   1.138   2.373   2.157  0.0978 -1.7045  1.8976
 3851SOL    HW223187   1.199   2.513   2.166 -2.0888 -0.4628  1.0941
 3852SOL     OW23188   4.247   3.388  15.499 -0.3549  0.4441  0.5984
 3852SOL    HW123189   4.286   3.314  15.453 -1.4120  0.5741 -0.5086
 3852SOL    HW223190   4.321   3.422  15.549  0.5126 -2.2617  1.1604
 3853SOL     OW23191   3.552   0.095   8.928 -0.2731 -0.2386  0.0079
 3853SOL    HW123192   3.625   0.138   8.884  0.0490 -0.6721  0.1210
 3853SOL    HW223193   3.573   0.101   9.021  0.0413  0.1601 -0.0900
 3854SOL     OW23194   3.165   0.782   2.928 -0.5257 -0.1255 -0.0595
 3854SOL    HW123195   3.246   0.737   2.951 -1.1147 -2.0639 -1.7479
 3854SOL    HW223196   3.088   0.752   2.975 -0.1306  0.1134  0.7434
 3855SOL     OW23197   0.307   2.882  12.756 -0.7031  0.1378  0.5194
 3855SOL    HW123198   0.373   2.814  12.770 -0.4775  0.5699  1.5360
 3855SOL    HW223199   0.242   2.827  12.713 -0.1291  0.3540 -0.6272
 3856SOL     OW23200   4.288   2.417   9.160 -0.4623 -0.4420  0.2866
 3856SOL    HW123201   4.309   2.440   9.070  1.6350  0.1850  0.9428
 3856SOL    HW223202   4.192   2.417   9.152 -0.4950  0.3257  0.6810
 3857SOL     OW23203   0.026   2.417   1.334 -0.3071  0.1813 -0.0730
 3857SOL    HW123204   0.055   2.442   1.247 -2.2950 -0.0561 -0.8030
 3857SOL    HW223205   4.719   2.496   1.359  0.4609  0.4329  0.6125
 3858SOL     OW23206   3.541   2.542   3.797 -0.0956 -0.0284 -0.1726
 3858SOL    HW123207   3.533   2.635   3.774  0.3560  0.3620  1.3143
 3858SOL    HW223208   3.553   2.501   3.711 -0.7316  0.8759 -0.7066
 3859SOL     OW23209   2.296   0.944   2.466 -0.2527 -0.0302 -0.4075
 3859SOL    HW123210   2.312   0.856   2.433  0.6837 -0.2398  0.6125
 3859SOL    HW223211   2.303   0.991   2.383 -0.6553  1.8003  0.5742
 3860SOL     OW23212   2.143   2.489   2.728  0.2853  0.0511 -0.4156
 3860SOL    HW123213   2.105   2.403   2.748 -0.2130  0.7457  1.6031
 3860SOL    HW223214   2.060   2.538   2.725 -1.4311 -2.6734  2.6563
 3861SOL     OW23215   3.974   0.988   3.768 -0.0389  0.3508 -0.1773
 3861SOL    HW123216   3.993   1.077   3.736 -0.3889  0.9122  1.1755
 3861SOL    HW223217   3.926   0.948   3.696  0.5993 -1.7886  0.6081
 3862SOL     OW23218   1.220   0.925   6.955  0.0865  0.0819  0.3453
 3862SOL    HW123219   1.220   1.017   6.931 -1.4904 -0.4012 -1.5024
 3862SOL    HW223220   1.191   0.936   7.045 -3.0816  1.6615 -0.8599
 3863SOL     OW23221   0.578   3.209   5.707  0.3970 -0.5215  0.1354
 3863SOL    HW123222   0.501   3.254   5.671 -0.0609 -0.8511  0.6918
 3863SOL    HW223223   0.548   3.118   5.700  0.5715 -0.4536 -1.5400
 3864SOL     OW23224   2.846   3.200   7.805 -0.7265 -0.0316  0.4092
 3864SOL    HW123225   2.843   3.211   7.900  1.7585  0.1774  0.4598
 3864SOL    HW223226   2.824   3.107   7.791  0.4259 -0.3078  0.4245
 3865SOL     OW23227   1.718   2.567   8.485  0.2099 -0.0776 -0.5708
 3865SOL    HW123228   1.812   2.583   8.490  0.3177 -1.4101  2.1832
 3865SOL    HW223229   1.702   2.605   8.399  1.3119  0.1395 -0.6758
 3866SOL     OW23230   2.963   1.763   6.413  1.0312  0.1470  0.0646
 3866SOL    HW123231   3.001   1.851   6.418  0.8224  0.2821 -0.7316
 3866SOL    HW223232   3.039   1.705   6.410  0.6138 -0.3759 -0.2261
 3867SOL     OW23233   2.695   2.109   2.072  0.5183 -0.3501 -0.2491
 3867SOL    HW123234   2.763   2.067   2.125 -0.0692  0.8052  1.4352
 3867SOL    HW223235   2.728   2.092   1.984  0.8543 -1.0704  0.0178
 3868SOL     OW23236   1.471   0.939  15.308  0.0513  0.4792  0.6115
 3868SOL    HW123237   1.567   0.936  15.304  0.0204 -0.2390  0.4751
 3868SOL    HW223238   1.459   0.854  15.266 -0.0742  1.0846 -0.5793
 3869SOL     OW23239   3.350   0.567   1.721  0.8413  0.5528  0.1445
 3869SOL    HW123240   3.324   0.638   1.779  1.1364  1.2678 -0.6022
 3869SOL    HW223241   3.323   0.491   1.772  0.2223  1.5175  1.2444
 3870SOL     OW23242   0.012   2.143  12.811 -0.5212 -0.3366  0.0821
 3870SOL    HW123243   0.024   2.229  12.850 -0.3183 -0.0717 -0.5702
 3870SOL    HW223244   4.731   2.082  12.882  2.6686 -1.5956 -0.0273
 3871SOL     OW23245   0.457   1.250   7.943  0.4284  0.3335 -0.2783
 3871SOL    HW123246   0.465   1.176   8.003  1.6540  0.5279 -0.1955
 3871SOL    HW223247   0.542   1.293   7.935  0.4192  0.3521 -0.2776
 3872SOL     OW23248   0.390   2.935   6.534  0.0872  0.2855  0.8551
 3872SOL    HW123249   0.420   3.024   6.547  1.8116 -0.2063  0.2192
 3872SOL    HW223250   0.304   2.960   6.567 -0.5805 -0.6543 -0.1646
 3873SOL     OW23251   0.498   3.178   3.235 -0.0594  0.5171  0.5135
 3873SOL    HW123252   0.461   3.107   3.288  1.6347 -0.2204  0.6817
 3873SOL    HW223253   0.429   3.244   3.242  0.1278  0.8450 -0.6957
 3874SOL     OW23254   3.522   3.697   3.410 -0.0047  0.3235  0.1017
 3874SOL    HW123255   3.447   3.708   3.468 -0.7895 -0.4045 -0.7713
 3874SOL    HW223256   3.482   3.726   3.328 -2.4307  0.3203  1.2880
 3875SOL     OW23257   2.785   0.949   1.984  0.6114 -0.1285  0.0607
 3875SOL    HW123258   2.777   0.869   2.035 -1.2905 -1.8868 -2.9771
 3875SOL    HW223259   2.743   1.010   2.044 -1.2457 -1.0714 -0.2820
 3876SOL     OW23260   1.864   2.221   2.929  0.5304 -0.2773 -0.8650
 3876SOL    HW123261   1.816   2.247   2.850 -0.2678  1.9037  0.3138
 3876SOL    HW223262   1.839   2.284   2.997 -1.6171 -1.7204 -0.3224
 3877SOL     OW23263   0.821   2.454  13.952 -0.2403  0.1078  0.1603
 3877SOL    HW123264   0.830   2.464  13.858  1.1987 -0.1749  0.2640
 3877SOL    HW223265   0.870   2.531  13.983  0.0599 -0.6223  1.5073
 3878SOL     OW23266   2.622   4.644   5.202 -0.0455 -0.0954 -0.4775
 3878SOL    HW123267   2.596   4.736   5.198  1.9410  0.4847 -0.1269
 3878SOL    HW223268   2.549   4.596   5.164  1.5524 -1.2187 -2.1443
 3879SOL     OW23269   3.852   2.098   7.965 -0.1097  0.1146  0.3411
 3879SOL    HW123270   3.785   2.073   7.901 -0.9460  2.0180  0.4853
 3879SOL    HW223271   3.792   2.147   8.022 -0.6361 -1.2473  0.9672
 3880SOL     OW23272   0.766   2.104   6.903 -0.0609 -0.5209 -0.2522
 3880SOL    HW123273   0.771   2.133   6.995 -2.0377  0.3818 -0.4322
 3880SOL    HW223274   0.729   2.017   6.914  0.9757 -0.8356  0.7688
 3881SOL     OW23275   0.953   2.061   3.347 -0.4499 -0.3426 -0.4141
 3881SOL    HW123276   0.918   2.148   3.330  2.2778  0.9757  0.8216
 3881SOL    HW223277   1.047   2.075   3.352 -0.1686 -1.8637 -1.2097
 3882SOL     OW23278   3.911   1.647  10.453  0.7099 -0.3842  0.4035
 3882SOL    HW123279   3.918   1.646  10.357 -0.5049 -2.0764  0.3391
 3882SOL    HW223280   3.819   1.668  10.466  1.0385  1.3445 -0.0782
 3883SOL     OW23281   2.815   2.330  15.269 -0.1969 -0.5427 -0.6311
 3883SOL    HW123282   2.806   2.322  15.174 -3.4772  1.1453 -0.4568
 3883SOL    HW223283   2.896   2.280  15.281 -0.8464 -1.6684 -1.0291
 3884SOL     OW23284   2.395   2.068   7.838  0.0260 -0.0485 -0.6857
 3884SOL    HW123285   2.413   1.987   7.792  2.6157  0.1767 -0.0589
 3884SOL    HW223286   2.329   2.106   7.780  0.6670  0.0056 -1.3798
 3885SOL     OW23287   0.476   4.648   6.579 -0.1137 -0.4419  0.0010
 3885SOL    HW123288   0.437   4.705   6.645  0.6845 -0.5046  0.5335
 3885SOL    HW223289   0.403   4.608   6.533 -0.3391  1.3840 -1.2053
 3886SOL     OW23290   2.699   4.302   5.629  0.2740 -0.8592 -0.2205
 3886SOL    HW123291   2.758   4.371   5.659 -2.4202  1.1857  0.4132
 3886SOL    HW223292   2.650   4.344   5.558 -2.1147 -0.4451  1.6524
 3887SOL     OW23293   1.424   0.865  14.192 -0.3512  0.4776 -0.4405
 3887SOL    HW123294   1.510   0.847  14.231 -0.0359 -1.2916 -1.9503
 3887SOL    HW223295   1.400   0.948  14.233 -1.9099  0.7741 -1.9589
 3888SOL     OW23296   2.412   3.884  17.377  0.1086 -0.3254 -0.1626
 3888SOL    HW123297   2.500   3.921  17.381 -0.1732  0.7109 -3.5788
 3888SOL    HW223298   2.385   3.902  17.287 -1.7341 -0.4764  0.3575
 3889SOL     OW23299   3.236   0.842   6.163  0.4221 -0.0357 -0.0318
 3889SOL    HW123300   3.146   0.870   6.145  0.3615  0.4854  1.0944
 3889SOL    HW223301   3.212   0.760   6.204 -0.2349  0.1582 -0.0264
 3890SOL     OW23302   1.174   4.348   6.675  0.0044 -0.4387  0.0443
 3890SOL    HW123303   1.265   4.372   6.655  0.4875 -3.5605 -1.4359
 3890SOL    HW223304   1.153   4.275   6.617 -2.1836  0.2175  0.0204
 3891SOL     OW23305   4.344   0.870  16.063  0.3111 -0.1173  0.2780
 3891SOL    HW123306   4.389   0.934  16.118 -2.5646  3.1474 -1.1991
 3891SOL    HW223307   4.354   0.791  16.117  1.2244 -0.3879 -0.2719
 3892SOL     OW23308   3.429   3.662   5.948 -0.0323  0.3749  0.1164
 3892SOL    HW123309   3.518   3.658   5.984  0.0116 -1.2806 -0.2008
 3892SOL    HW223310   3.432   3.745   5.900  0.1423 -0.4932 -1.3844
 3893SOL     OW23311   4.220   0.422   5.053  0.0664 -0.3688 -0.9819
 3893SOL    HW123312   4.295   0.480   5.041  1.3310 -1.5362  1.2502
 3893SOL    HW223313   4.265   0.343   5.022 -1.6190 -1.5014 -0.5391
 3894SOL     OW23314   3.006   3.619  10.673 -0.1301  0.9650 -0.2091
 3894SOL    HW123315   2.987   3.544  10.730  0.3926  0.6479 -0.4632
 3894SOL    HW223316   3.063   3.667  10.732  1.3171 -1.6189  0.4957
 3895SOL     OW23317   1.694   3.698   2.003 -0.4988 -0.3377  0.2471
 3895SOL    HW123318   1.637   3.755   2.056 -0.7436  0.7905 -1.2144
 3895SOL    HW223319   1.674   3.732   1.916  0.1794  1.2537  0.7049
 3896SOL     OW23320   2.723   1.923   4.460 -0.0397 -1.0500 -0.0496
 3896SOL    HW123321   2.656   1.989   4.477  2.0686  1.2130 -0.5480
 3896SOL    HW223322   2.774   1.937   4.540 -1.0761 -2.3148  0.8399
 3897SOL     OW23323   4.479   0.027  16.580 -0.1934 -0.2562  0.1194
 3897SOL    HW123324   4.407   4.733  16.528 -0.0185 -1.1373  0.4732
 3897SOL    HW223325   4.513   4.690  16.624  0.2421 -0.6421 -0.9160
 3898SOL     OW23326   2.300   4.026   7.794  0.0810  0.6304 -0.0799
 3898SOL    HW123327   2.230   4.002   7.853  1.8429 -1.9539  0.9366
 3898SOL    HW223328   2.356   3.949   7.793  0.7345  1.1119 -0.6841
 3899SOL     OW23329   2.004   0.363   1.316  0.1032 -0.1524 -0.0305
 3899SOL    HW123330   1.982   0.308   1.240  0.3757 -1.5042  0.8756
 3899SOL    HW223331   1.921   0.351   1.362 -0.0486 -0.6398 -0.4326
 3900SOL     OW23332   0.164   2.979   2.430  0.2244 -0.1587 -0.1154
 3900SOL    HW123333   0.142   2.963   2.522  0.2151  1.1929  0.1242
 3900SOL    HW223334   0.096   2.928   2.387  0.3533 -1.2445  0.9731
 3901SOL     OW23335   4.568   2.511  16.067 -0.2636 -0.6199 -0.4082
 3901SOL    HW123336   4.515   2.436  16.096 -1.3500  0.1121 -0.5248
 3901SOL    HW223337   4.647   2.464  16.038  1.0489 -0.0823  2.2128
 3902SOL     OW23338   2.702   1.847   0.017  0.0324 -0.2207  0.6620
 3902SOL    HW123339   2.666   1.774   0.067  1.3963 -0.4802  1.2488
 3902SOL    HW223340   2.789   1.855   0.055  0.9377  0.6199 -1.5706
 3903SOL     OW23341   0.492   2.772   8.116  0.4645 -0.6573 -0.5952
 3903SOL    HW123342   0.536   2.688   8.106  0.8851 -0.6677  1.4845
 3903SOL    HW223343   0.499   2.785   8.021  1.8187 -0.3722 -0.4547
 3904SOL     OW23344   2.371   0.568  12.858 -0.5236 -0.1015  0.4816
 3904SOL    HW123345   2.346   0.571  12.951  0.3139 -0.5605  0.7223
 3904SOL    HW223346   2.400   0.478  12.843  0.5495  0.5752 -1.4717
 3905SOL     OW23347   0.600   4.575   5.799 -0.0621 -0.7035  0.4290
 3905SOL    HW123348   0.564   4.521   5.729 -0.4301  0.7329 -0.4706
 3905SOL    HW223349   0.621   4.515   5.871 -0.1206  0.4671  1.4336
 3906SOL     OW23350   1.549   1.299   2.278  0.7317  0.0054 -0.2335
 3906SOL    HW123351   1.526   1.304   2.371 -0.5310 -0.4611 -0.5261
 3906SOL    HW223352   1.593   1.214   2.268 -0.5950 -0.7751  0.5812
 3907SOL     OW23353   3.144   2.851   8.195  0.1734  0.1982  0.5406
 3907SOL    HW123354   3.085   2.874   8.122 -1.5666 -0.4697  1.7360
 3907SOL    HW223355   3.118   2.909   8.266  2.5863  0.1660  1.4418
 3908SOL     OW23356   2.596   2.157  10.174 -0.4275 -0.9215  0.5684
 3908SOL    HW123357   2.652   2.216  10.124 -0.2370 -0.2669  1.5360
 3908SOL    HW223358   2.628   2.178  10.262 -1.4921  2.4636  0.1539
 3909SOL     OW23359   4.412   0.679   8.208  0.0241 -0.0257 -0.8341
 3909SOL    HW123360   4.398   0.769   8.239  0.2080 -0.4129  0.3816
 3909SOL    HW223361   4.485   0.686   8.147  1.0502 -0.9645  0.2693
 3910SOL     OW23362   4.503   3.524   5.605  0.1620  0.0930  0.2200
 3910SOL    HW123363   4.466   3.546   5.690 -1.2927  0.5232 -0.5298
 3910SOL    HW223364   4.589   3.567   5.607 -0.8311  2.0379  2.5735
 3911SOL     OW23365   4.727   4.249   8.015  0.2772 -0.2470  0.2203
 3911SOL    HW123366   4.645   4.299   8.013  0.6487  0.3897  1.4314
 3911SOL    HW223367   0.017   4.269   8.103 -0.0541  0.0079  0.2777
 3912SOL     OW23368   0.145   3.832   5.426  0.0495  0.3825  0.7097
 3912SOL    HW123369   0.183   3.763   5.371  0.7376 -0.0403  1.7223
 3912SOL    HW223370   0.218   3.893   5.409 -0.8412  0.7936 -1.6939
 3913SOL     OW23371   2.041   0.216   7.745 -0.2228  0.1010  0.6241
 3913SOL    HW123372   1.970   0.267   7.783 -1.7181 -3.5328  2.6270
 3913SOL    HW223373   2.006   0.168   7.670  2.4193  0.4201 -0.8416
 3914SOL     OW23374   3.512   0.550  14.879 -0.1586  0.5999  0.4348
 3914SOL    HW123375   3.504   0.484  14.948 -2.1177  0.7482  0.3699
 3914SOL    HW223376   3.605   0.572  14.881  0.4828 -1.7128 -2.8366
 3915SOL     OW23377   2.985   2.179   0.139 -0.7367 -0.0537 -0.0311
 3915SOL    HW123378   3.074   2.189   0.104 -1.0849  1.8885 -0.3112
 3915SOL    HW223379   2.999   2.233   0.216  0.1722  0.4950 -0.5837
 3916SOL     OW23380   1.130   3.129  10.827 -0.5705 -0.2710 -0.1591
 3916SOL    HW123381   1.222   3.142  10.802  0.0386 -1.1228  1.6026
 3916SOL    HW223382   1.122   3.038  10.797  2.2578 -0.0095 -1.7061
 3917SOL     OW23383   4.691   1.157   2.191  0.1575 -0.1893  0.2734
 3917SOL    HW123384   0.007   1.140   2.115 -3.3117  0.4987 -2.4395
 3917SOL    HW223385   4.653   1.242   2.169  1.8538  0.4828 -0.1045
 3918SOL     OW23386   2.050   4.657   9.085 -0.1353 -0.1168  0.1032
 3918SOL    HW123387   2.068   4.672   9.178  1.2148  1.5308 -0.4345
 3918SOL    HW223388   2.028   0.005   9.058  0.2743  0.2530  0.9681
 3919SOL     OW23389   1.063   2.209   4.986  0.0862 -0.3806  0.1015
 3919SOL    HW123390   1.080   2.184   4.895 -0.3431 -0.7260  0.1146
 3919SOL    HW223391   0.977   2.251   4.979  1.2231  2.2075  1.8011
 3920SOL     OW23392   2.040   3.875  15.473 -0.1903 -0.7077 -0.0669
 3920SOL    HW123393   1.963   3.818  15.465  1.1339 -2.5760  0.3871
 3920SOL    HW223394   1.997   3.959  15.487  0.2070 -0.5864  0.4237
 3921SOL     OW23395   0.182   0.998   5.454 -0.2405  0.5158  0.1107
 3921SOL    HW123396   0.213   0.982   5.543 -0.6862  1.1449  0.3846
 3921SOL    HW223397   0.101   0.946   5.453  0.6665 -0.8925  0.8608
 3922SOL     OW23398   0.385   0.793   6.222 -0.1115 -0.1231  0.3851
 3922SOL    HW123399   0.300   0.813   6.184 -1.0679 -2.9140  1.1164
 3922SOL    HW223400   0.398   0.874   6.271 -2.9983 -0.5960  1.8733
 3923SOL     OW23401   4.117   0.215   9.835 -0.0811 -0.2761 -0.7347
 3923SOL    HW123402   4.172   0.294   9.832 -0.7406  0.2092  0.0821
 3923SOL    HW223403   4.120   0.180   9.746  0.4722 -0.3203 -0.6984
 3924SOL     OW23404   0.666   1.674   3.929  0.0514 -0.3127 -0.3056
 3924SOL    HW123405   0.718   1.652   4.006 -0.2359  1.5877  0.4440
 3924SOL    HW223406   0.593   1.728   3.960  0.2012 -0.5288  0.4203
 3925SOL     OW23407   0.932   1.795   9.714  0.6885 -0.0727  0.2486
 3925SOL    HW123408   0.936   1.751   9.798  1.4330  2.3391  1.4762
 3925SOL    HW223409   1.018   1.837   9.715 -0.1891  1.7352  0.6555
 3926SOL     OW23410   3.169   2.861   3.475  0.7864 -0.2246 -0.1713
 3926SOL    HW123411   3.098   2.846   3.537  0.4717 -1.5658 -0.8547
 3926SOL    HW223412   3.244   2.810   3.507  2.4001  0.2655 -3.1075
 3927SOL     OW23413   0.745   4.340   4.126  0.2962 -0.1113 -0.1573
 3927SOL    HW123414   0.775   4.253   4.154  0.1344 -0.8197 -2.1734
 3927SOL    HW223415   0.679   4.358   4.193  0.9483  2.4114 -0.2144
 3928SOL     OW23416   4.639   2.233  12.396 -0.4899  0.7064 -0.0942
 3928SOL    HW123417   4.594   2.231  12.312 -2.0106 -0.5453  0.7618
 3928SOL    HW223418   4.619   2.143  12.420 -0.3814  0.4041 -1.1599
 3929SOL     OW23419   3.949   1.605   5.819  0.1884  0.3873 -0.5076
 3929SOL    HW123420   3.895   1.595   5.741  2.1382  0.0575 -1.8093
 3929SOL    HW223421   4.034   1.582   5.783  0.5476  0.7806  0.0708
 3930SOL     OW23422   1.187   1.320   8.854 -0.6939  0.6491  0.4152
 3930SOL    HW123423   1.271   1.366   8.857  0.3494 -1.2379  0.6219
 3930SOL    HW223424   1.131   1.380   8.805  0.2438  1.1397 -0.0613
 3931SOL     OW23425   0.746   0.977   1.884  0.4222 -0.1167  0.3319
 3931SOL    HW123426   0.771   0.919   1.957 -0.9624  0.8539  1.5870
 3931SOL    HW223427   0.815   1.043   1.888 -0.5117  1.1202 -4.1931
 3932SOL     OW23428   1.021   1.888   6.607 -0.2491 -0.6734 -0.4544
 3932SOL    HW123429   0.932   1.882   6.643  0.1662 -1.5630  0.4415
 3932SOL    HW223430   1.044   1.799   6.578  0.0832 -0.2461 -1.5064
 3933SOL     OW23431   0.394   0.809   1.696  0.1445  0.0482 -0.3422
 3933SOL    HW123432   0.379   0.876   1.763  0.0954  0.0269 -0.3324
 3933SOL    HW223433   0.437   0.737   1.742  1.1251 -0.4914 -2.1111
 3934SOL     OW23434   0.550   1.855   5.455  0.0870 -0.6435  0.1995
 3934SOL    HW123435   0.557   1.776   5.401 -2.6322 -0.8764  0.1870
 3934SOL    HW223436   0.539   1.923   5.388 -2.2506 -0.4171  0.7945
 3935SOL     OW23437   0.143   1.486  15.187  0.9806 -0.0911  0.3250
 3935SOL    HW123438   0.099   1.471  15.103  0.9037  1.3231  0.0997
 3935SOL    HW223439   0.232   1.456  15.167  0.3548 -0.5826 -1.6886
 3936SOL     OW23440   2.562   3.417   2.102 -0.7232 -0.3438  0.3806
 3936SOL    HW123441   2.646   3.395   2.142 -0.6037 -3.2137 -1.4561
 3936SOL    HW223442   2.515   3.391   2.181 -0.3194 -1.0225  0.3926
 3937SOL     OW23443   1.643   1.851   1.888  0.1060 -0.5993 -0.5636
 3937SOL    HW123444   1.625   1.919   1.823  1.0618 -0.1633 -0.3695
 3937SOL    HW223445   1.731   1.821   1.864  1.3134  1.5252  1.2501
 3938SOL     OW23446   2.147   3.641   9.151 -0.1089  0.0027 -0.2220
 3938SOL    HW123447   2.063   3.684   9.135 -0.3260  0.5093  2.2600
 3938SOL    HW223448   2.168   3.630   9.059  0.2379  0.4365 -0.1961
 3939SOL     OW23449   4.533   2.560   4.158  0.1174  0.7979  0.0403
 3939SOL    HW123450   4.494   2.567   4.246 -1.9947 -0.1339 -0.8162
 3939SOL    HW223451   4.542   2.467   4.134 -0.0284  0.7742  0.0761
 3940SOL     OW23452   0.987   3.622  17.187  0.3853  0.3399 -0.3949
 3940SOL    HW123453   0.970   3.710  17.220 -2.8971 -0.1399 -0.7328
 3940SOL    HW223454   1.021   3.576  17.263 -2.6359 -3.2553 -1.1759
 3941SOL     OW23455   2.958   0.049   6.819  0.1011 -0.1906  0.1807
 3941SOL    HW123456   3.027   0.005   6.868  0.4880 -1.8088 -1.7993
 3941SOL    HW223457   2.962   4.736   6.740 -0.3034 -0.4229  0.3217
 3942SOL     OW23458   3.480   2.558  14.727 -0.1222  0.9130  0.7665
 3942SOL    HW123459   3.475   2.518  14.814 -2.6157 -3.3700 -1.3637
 3942SOL    HW223460   3.487   2.483  14.668 -1.5758 -0.1764  1.9922
 3943SOL     OW23461   2.265   3.280   1.967  0.0107 -0.3056  1.0639
 3943SOL    HW123462   2.236   3.367   1.996  1.4379  1.2015 -2.0164
 3943SOL    HW223463   2.353   3.297   1.933 -0.4298  0.2836  0.2176
 3944SOL     OW23464   0.744   3.276   3.271 -0.5495  0.3334 -0.0233
 3944SOL    HW123465   0.660   3.236   3.291 -0.9769  0.5111 -1.4949
 3944SOL    HW223466   0.724   3.369   3.276  4.1354  1.3067  1.0874
 3945SOL     OW23467   0.728   1.016   7.043  0.2843 -0.3750 -0.0502
 3945SOL    HW123468   0.812   0.974   7.060  0.5044  1.3357  3.0388
 3945SOL    HW223469   0.672   0.941   7.027 -0.4771  0.0523  0.6611
 3946SOL     OW23470   3.897   3.198   5.926  0.5380 -0.2143 -0.0457
 3946SOL    HW123471   3.822   3.259   5.931  0.1067 -0.5721 -2.0127
 3946SOL    HW223472   3.936   3.223   6.009  1.6310 -1.8050 -0.0853
 3947SOL     OW23473   0.550   3.016   4.195  0.1005  0.2642 -0.4017
 3947SOL    HW123474   0.456   2.997   4.192 -0.0392  0.9018 -0.1705
 3947SOL    HW223475   0.563   3.034   4.102 -1.0425 -0.0265 -0.6194
 3948SOL     OW23476   3.789   0.507  10.019 -0.1879  0.1316  0.2025
 3948SOL    HW123477   3.877   0.513  10.055  0.7627 -1.3695 -1.9278
 3948SOL    HW223478   3.770   0.601  10.015 -1.6961 -0.1682  0.0929
 3949SOL     OW23479   0.311   1.984   9.166  0.3815  0.0055  0.0989
 3949SOL    HW123480   0.371   1.997   9.239  0.1143 -1.9871  0.6505
 3949SOL    HW223481   0.230   1.993   9.216 -0.5683  1.1604 -1.6389
 3950SOL     OW23482   2.309   2.397  15.655  0.2230 -0.4246 -0.1113
 3950SOL    HW123483   2.218   2.387  15.683  0.8332 -1.2207  1.5477
 3950SOL    HW223484   2.302   2.405  15.560  1.6193 -0.2277 -0.1843
 3951SOL     OW23485   1.914   2.404  12.818  0.5065 -0.0256  0.1131
 3951SOL    HW123486   1.853   2.420  12.746  1.1328  1.5632 -0.0624
 3951SOL    HW223487   1.853   2.413  12.891 -0.8008  2.2427 -1.2308
 3952SOL     OW23488   4.590   2.342   6.347 -0.4822 -0.0751 -0.3164
 3952SOL    HW123489   4.540   2.364   6.425  0.9609 -0.7742  0.8184
 3952SOL    HW223490   4.528   2.373   6.281 -1.6962  0.1233  0.9331
 3953SOL     OW23491   1.203   3.395  16.494 -0.0785  0.2599  0.2170
 3953SOL    HW123492   1.293   3.429  16.485 -0.0042 -0.3453 -1.3444
 3953SOL    HW223493   1.158   3.463  16.444 -2.5864 -0.5232  1.4237
 3954SOL     OW23494   4.021   1.520   7.848 -0.1207 -0.0185 -0.3292
 3954SOL    HW123495   4.035   1.480   7.762 -1.6707 -0.4718 -0.3807
 3954SOL    HW223496   3.986   1.605   7.823  1.2421  0.8872  0.9284
 3955SOL     OW23497   1.903   0.457  14.796  0.6585  0.1410  0.5891
 3955SOL    HW123498   1.862   0.509  14.865 -0.8566  0.1592 -0.3178
 3955SOL    HW223499   1.827   0.415  14.755  1.1822 -0.3067  0.0800
 3956SOL     OW23500   4.512   2.247   1.810  0.2155  0.3666 -0.2039
 3956SOL    HW123501   4.545   2.196   1.736 -0.2952  0.6809 -0.6474
 3956SOL    HW223502   4.467   2.182   1.863 -0.7723  1.4169  0.2341
 3957SOL     OW23503   3.951   0.774   8.470 -0.2978 -0.0649  0.0768
 3957SOL    HW123504   3.956   0.858   8.425  2.5708  0.3453  1.1750
 3957SOL    HW223505   3.865   0.785   8.511 -0.1986 -1.1698  0.5652
 3958SOL     OW23506   4.594   0.756   9.498 -0.7428 -0.3433  0.4376
 3958SOL    HW123507   4.604   0.851   9.497  0.9184 -0.5664 -2.1211
 3958SOL    HW223508   4.524   0.750   9.433 -0.8300  2.2126  0.2944
 3959SOL     OW23509   3.615   0.198   8.151 -0.0022  0.2818  0.3992
 3959SOL    HW123510   3.564   0.208   8.071  1.6826 -0.2510 -0.7296
 3959SOL    HW223511   3.700   0.176   8.114 -0.3229  1.1704 -0.8597
 3960SOL     OW23512   2.482   0.876   8.681 -0.0250 -0.0135  0.0080
 3960SOL    HW123513   2.410   0.891   8.742  0.2381 -0.6701  0.4793
 3960SOL    HW223514   2.520   0.797   8.718  1.4751  0.3489 -0.7714
 3961SOL     OW23515   1.788   2.805  12.042  0.2358 -0.6013  0.3151
 3961SOL    HW123516   1.727   2.738  12.073  1.3923 -1.9409 -0.3198
 3961SOL    HW223517   1.762   2.810  11.950  0.9334  1.4546  0.2310
 3962SOL     OW23518   2.109   1.176   7.977 -0.2087 -0.1086  0.2579
 3962SOL    HW123519   2.147   1.115   8.041  1.9191  1.1778  0.2262
 3962SOL    HW223520   2.185   1.178   7.920 -0.5693  2.1386 -0.1352
 3963SOL     OW23521   2.619   3.475   6.088  0.3359 -0.1137  0.5530
 3963SOL    HW123522   2.676   3.435   6.154  1.6044 -1.3398 -1.2992
 3963SOL    HW223523   2.570   3.398   6.058  0.6390  0.9207 -2.6023
 3964SOL     OW23524   2.795   1.134   9.032  0.1367  0.6497  0.8316
 3964SOL    HW123525   2.725   1.127   9.097  0.2753  0.6526  0.9789
 3964SOL    HW223526   2.754   1.120   8.947  2.6320  0.8107 -0.4024
 3965SOL     OW23527   4.048   1.199  13.338 -0.0263  0.2418 -0.1430
 3965SOL    HW123528   4.108   1.181  13.411  0.9153 -1.4828 -1.3518
 3965SOL    HW223529   4.053   1.115  13.292  1.3377  0.4497 -0.3523
 3966SOL     OW23530   2.335   1.141   7.831  0.4584  0.0515  0.3497
 3966SOL    HW123531   2.352   1.050   7.856 -0.5862 -0.0403  0.7392
 3966SOL    HW223532   2.333   1.133   7.735  0.1096 -0.8632  0.4315
 3967SOL     OW23533   1.587   2.657  14.893 -0.1627  0.0182 -0.2286
 3967SOL    HW123534   1.511   2.672  14.948 -0.8261 -0.6172 -0.9762
 3967SOL    HW223535   1.576   2.722  14.823  3.6835 -0.2803 -1.1386
 3968SOL     OW23536   4.320   3.654  10.882  0.5604 -0.1585 -0.3938
 3968SOL    HW123537   4.360   3.721  10.938 -1.3304 -0.6610  1.5977
 3968SOL    HW223538   4.292   3.718  10.817  2.4008 -0.1400 -1.1761
 3969SOL     OW23539   0.328   3.962   6.372  0.0542 -0.5583  0.3564
 3969SOL    HW123540   0.291   3.984   6.457  1.2594 -2.1032  1.2763
 3969SOL    HW223541   0.256   4.001   6.322  1.2969  3.4837  1.7581
 3970SOL     OW23542   4.469   0.518   3.237 -0.4425  0.0120  0.2057
 3970SOL    HW123543   4.516   0.516   3.320 -0.5001 -1.4195  0.2080
 3970SOL    HW223544   4.526   0.452   3.196 -1.5698 -0.2002 -1.0210
 3971SOL     OW23545   0.709   0.350   9.161 -0.1399  0.8358  0.0193
 3971SOL    HW123546   0.750   0.268   9.187  0.5260  1.5278  1.1477
 3971SOL    HW223547   0.662   0.372   9.241 -0.3280  0.0997  0.1143
 3972SOL     OW23548   1.451   2.294   7.747 -0.1711  0.1506 -0.0203
 3972SOL    HW123549   1.499   2.372   7.776 -0.1618  0.9036 -2.0503
 3972SOL    HW223550   1.497   2.225   7.795  0.9490  0.4901 -0.5962
 3973SOL     OW23551   3.457   2.281   8.205  0.6131  0.0006 -0.7248
 3973SOL    HW123552   3.424   2.252   8.290  1.5090  0.7363 -0.1247
 3973SOL    HW223553   3.550   2.280   8.227  0.5197 -1.0352 -0.3683
 3974SOL     OW23554   0.965   2.254   7.191  0.3212  0.1542  0.6065
 3974SOL    HW123555   1.019   2.309   7.248 -0.7893 -0.6296  2.4183
 3974SOL    HW223556   0.995   2.300   7.113 -1.2415 -0.2103 -0.2179
 3975SOL     OW23557   0.479   4.133   4.170  0.5519  0.1608  0.1480
 3975SOL    HW123558   0.466   4.060   4.231  0.4371  0.2170  0.1916
 3975SOL    HW223559   0.472   4.081   4.090 -0.7661  1.5179 -0.6265
 3976SOL     OW23560   0.482   1.289   4.652 -0.0220  0.2040  0.3029
 3976SOL    HW123561   0.520   1.377   4.646  0.6887 -0.1013  0.4144
 3976SOL    HW223562   0.559   1.240   4.680 -1.3051 -0.6877  2.3102
 3977SOL     OW23563   2.935   4.610  16.707  0.1062 -0.2898 -0.5872
 3977SOL    HW123564   2.854   4.560  16.698 -0.8523  1.1261 -0.0101
 3977SOL    HW223565   2.897   4.691  16.743  0.5063 -0.7149  0.7938
 3978SOL     OW23566   2.860   0.224   6.399  0.2376  0.2709  0.3708
 3978SOL    HW123567   2.891   0.250   6.313  1.0073  1.4309  1.0049
 3978SOL    HW223568   2.919   0.154   6.427 -0.8462 -0.3642  1.1188
 3979SOL     OW23569   4.149   1.668   9.846 -0.2231 -0.3054 -0.5249
 3979SOL    HW123570   4.187   1.587   9.881 -0.6973 -0.1749  0.2971
 3979SOL    HW223571   4.055   1.652   9.852 -0.1164  0.0708  2.4702
 3980SOL     OW23572   2.970   4.038   9.262 -0.0915 -0.2673 -0.1936
 3980SOL    HW123573   3.032   3.990   9.316  1.3566  1.4700 -0.2984
 3980SOL    HW223574   3.025   4.111   9.234 -0.9778  0.0524 -1.0837
 3981SOL     OW23575   1.374   0.328   8.188  0.4591  0.2227  0.1130
 3981SOL    HW123576   1.292   0.362   8.224 -0.2965 -0.2859 -1.1463
 3981SOL    HW223577   1.333   0.280   8.117 -0.1176 -0.1912  0.7206
 3982SOL     OW23578   0.767   2.691   7.267  0.2662  0.2683 -0.1227
 3982SOL    HW123579   0.749   2.660   7.356 -0.5869  1.9070  0.2744
 3982SOL    HW223580   0.852   2.654   7.243  0.4979  1.4719 -1.1666
 3983SOL     OW23581   4.710   4.199   0.348 -0.3678 -0.0127 -0.1881
 3983SOL    HW123582   4.657   4.181   0.271 -1.4642  0.6304  0.4192
 3983SOL    HW223583   0.053   4.157   0.328 -1.5461 -1.9172 -1.0676
 3984SOL     OW23584   1.550   2.263   8.191 -0.0652 -0.1676 -0.1135
 3984SOL    HW123585   1.595   2.179   8.183  0.1823 -0.0152 -0.3123
 3984SOL    HW223586   1.466   2.231   8.225  0.9759  0.8006  3.3794
 3985SOL     OW23587   1.868   2.320   1.551  0.0318 -0.1548 -0.6606
 3985SOL    HW123588   1.786   2.326   1.503 -0.8655 -0.1991  0.8517
 3985SOL    HW223589   1.833   2.347   1.636  2.2922  0.2639  0.1300
 3986SOL     OW23590   2.603   1.429  16.464 -0.5065 -0.2692 -0.2850
 3986SOL    HW123591   2.623   1.341  16.434 -0.3081  0.2174 -1.5558
 3986SOL    HW223592   2.695   1.454  16.474 -0.6465  0.8860 -1.8974
 3987SOL     OW23593   3.353   1.916  16.439 -0.8808  0.3350 -0.3884
 3987SOL    HW123594   3.349   1.972  16.361 -3.0512  1.0926  0.2831
 3987SOL    HW223595   3.410   1.844  16.411  0.0586  1.3269 -1.0502
 3988SOL     OW23596   1.587   0.205   0.093 -0.6664  1.1372 -0.0710
 3988SOL    HW123597   1.517   0.201   0.027  1.1735  0.4917 -1.9655
 3988SOL    HW223598   1.650   0.149   0.047 -1.3207  0.2298  0.1236
 3989SOL     OW23599   4.284   4.627  13.165 -0.3022  0.4250  0.0276
 3989SOL    HW123600   4.224   4.564  13.123  0.0679 -1.0401  1.6970
 3989SOL    HW223601   4.356   4.626  13.102  0.2421  3.2773  0.6282
 3990SOL     OW23602   4.346   1.089   7.961 -0.0117 -0.3405 -0.0661
 3990SOL    HW123603   4.343   1.059   7.870 -0.5014 -1.2374  0.2353
 3990SOL    HW223604   4.287   1.164   7.958  1.3323  0.7185  0.2342
 3991SOL     OW23605   4.283   1.788   6.599 -0.3124 -0.2847  0.0241
 3991SOL    HW123606   4.195   1.750   6.602 -0.7733  0.8642  1.0486
 3991SOL    HW223607   4.303   1.814   6.689 -2.2017  1.7116 -0.1389
 3992SOL     OW23608   3.807   0.184   8.873  0.2963  0.2976 -0.1307
 3992SOL    HW123609   3.846   0.265   8.842 -0.5807  0.3891 -0.9775
 3992SOL    HW223610   3.875   0.150   8.932  0.3396 -0.3552 -0.5600
 3993SOL     OW23611   3.989   0.127   7.310  0.4123 -0.2728  0.2597
 3993SOL    HW123612   3.919   0.062   7.313  0.4312 -0.3047  0.0367
 3993SOL    HW223613   4.042   0.088   7.240 -1.1218  0.8785 -1.5328
 3994SOL     OW23614   3.121   3.539   4.652  0.2468 -0.1479 -0.1092
 3994SOL    HW123615   3.035   3.551   4.612  0.5501  1.4929 -0.2610
 3994SOL    HW223616   3.156   3.626   4.671 -0.7540  0.6981 -2.1997
 3995SOL     OW23617   4.719   0.918  10.187  0.1573 -0.0780  0.3755
 3995SOL    HW123618   4.732   0.961  10.271  1.5146 -0.3537  0.2986
 3995SOL    HW223619   0.049   0.942  10.127 -1.6128  2.4581 -0.7143
 3996SOL     OW23620   2.883   3.856   4.152 -0.2008  0.0850  0.7496
 3996SOL    HW123621   2.946   3.926   4.170  2.1258 -1.6293 -0.7805
 3996SOL    HW223622   2.802   3.902   4.173 -1.3256 -1.0941 -1.0505
 3997SOL     OW23623   1.486   3.274   3.279 -0.0656 -0.5469  0.1968
 3997SOL    HW123624   1.557   3.225   3.237 -0.2180 -1.6303  1.2223
 3997SOL    HW223625   1.424   3.201   3.276 -2.1309  1.1648  1.5512
 3998SOL     OW23626   1.550   2.086   4.923 -0.2718  0.6139  0.2074
 3998SOL    HW123627   1.520   2.107   4.835  1.1564 -0.5429 -0.5791
 3998SOL    HW223628   1.475   2.036   4.956  0.3200 -1.1166 -1.0643
 3999SOL     OW23629   2.453   3.977   2.082  1.0562  0.2950 -0.5228
 3999SOL    HW123630   2.516   3.989   2.012  0.5266 -1.3385 -1.2617
 3999SOL    HW223631   2.490   4.029   2.154  0.0199 -0.2231  0.3806
 4000SOL     OW23632   4.123   0.329   7.091  0.3529  0.3925  0.5849
 4000SOL    HW123633   4.040   0.313   7.135  0.7241 -1.9387  0.4371
 4000SOL    HW223634   4.099   0.390   7.022  2.2707  0.6125  0.1025
 4001SOL     OW23635   3.780   4.620   6.780 -0.3682 -0.0807 -0.4040
 4001SOL    HW123636   3.856   4.577   6.739  0.0019  0.5355 -0.3672
 4001SOL    HW223637   3.824   4.704   6.795 -0.3412 -0.5506  2.1072
 4002SOL     OW23638   0.193   4.684   8.280  0.0739  0.3766 -0.3667
 4002SOL    HW123639   0.163   4.616   8.220  1.2639  0.0186 -0.5661
 4002SOL    HW223640   0.177   4.650   8.368 -2.0831  3.0565  0.2704
 4003SOL     OW23641   3.586   1.921   4.640 -0.4436 -0.5727  0.3972
 4003SOL    HW123642   3.584   2.002   4.589  0.8531 -0.0392  1.2100
 4003SOL    HW223643   3.557   1.861   4.571  1.3016 -0.1835 -0.6754
 4004SOL     OW23644   0.202   1.648  15.419 -0.5906  0.0839  0.5665
 4004SOL    HW123645   0.205   1.718  15.354  0.9943 -1.6795 -1.2573
 4004SOL    HW223646   0.187   1.577  15.357  0.1117 -0.4914  1.0637
 4005SOL     OW23647   0.619   3.569   2.255 -0.0587 -0.8535 -0.8236
 4005SOL    HW123648   0.629   3.599   2.165  0.5860 -0.4165 -0.6001
 4005SOL    HW223649   0.708   3.577   2.290  0.0489  2.3307 -1.8257
 4006SOL     OW23650   4.255   0.962  11.234  0.2356 -0.5129  0.7452
 4006SOL    HW123651   4.261   0.873  11.269 -4.6347 -0.6822  1.0835
 4006SOL    HW223652   4.163   0.960  11.208  0.6037 -0.5435 -0.5383
 4007SOL     OW23653   4.192   0.652  11.941 -0.2889  0.4462  0.2564
 4007SOL    HW123654   4.100   0.656  11.968 -1.1476 -0.3627 -2.5489
 4007SOL    HW223655   4.247   0.662  12.018 -0.3611 -0.6379  0.4494
 4008SOL     OW23656   1.106   0.211   8.555 -0.5157  0.5070  0.3581
 4008SOL    HW123657   1.057   0.164   8.487  0.6906 -2.1327  1.3121
 4008SOL    HW223658   1.093   0.301   8.524  0.1435  0.5329  0.1643
 4009SOL     OW23659   4.168   2.798  11.064  0.1459  0.1684  0.3308
 4009SOL    HW123660   4.196   2.708  11.051 -0.6520  0.3538 -2.7427
 4009SOL    HW223661   4.258   2.831  11.061  0.4088 -0.8595 -3.3114
 4010SOL     OW23662   0.587   2.949  14.961  0.4577 -0.3440  0.1469
 4010SOL    HW123663   0.520   3.016  14.958 -1.9560 -2.8082 -0.5322
 4010SOL    HW223664   0.607   2.954  15.055  0.7608 -2.3561  0.1989
 4011SOL     OW23665   0.698   2.384   6.505  0.2477  0.3390  0.0830
 4011SOL    HW123666   0.757   2.358   6.576 -0.0278 -0.7958 -0.1099
 4011SOL    HW223667   0.723   2.315   6.444 -1.9516 -1.1039  0.8343
 4012SOL     OW23668   4.146   0.025   0.799 -0.1992  0.4948 -0.5546
 4012SOL    HW123669   4.191   4.726   0.873  1.0069  1.7638 -0.5981
 4012SOL    HW223670   4.097   0.092   0.846 -1.0420 -1.0858  0.7858
 4013SOL     OW23671   0.312   0.008   1.891  0.4376  0.5849  0.0659
 4013SOL    HW123672   0.342   4.658   1.893  0.5496  0.6565  1.5402
 4013SOL    HW223673   0.375   0.048   1.951  0.2294 -1.8293  1.9043
 4014SOL     OW23674   2.364   2.349   6.846 -0.5085  1.0934  0.0890
 4014SOL    HW123675   2.335   2.354   6.755  0.2845  1.3323 -0.1555
 4014SOL    HW223676   2.456   2.326   6.832 -1.4167 -2.7110  0.4561
 4015SOL     OW23677   3.442   1.442   5.336  0.0411 -0.1861  0.0246
 4015SOL    HW123678   3.475   1.526   5.371  1.0978 -0.8720  0.6986
 4015SOL    HW223679   3.348   1.454   5.347  0.2361  0.7152  0.7207
 4016SOL     OW23680   1.626   1.558   1.742  0.6429  0.3765 -0.6466
 4016SOL    HW123681   1.541   1.560   1.699  0.9562 -0.4346 -1.3109
 4016SOL    HW223682   1.590   1.554   1.830  0.1795  1.6175 -0.7774
 4017SOL     OW23683   1.765   4.096   2.488  0.6593 -0.2650 -0.2863
 4017SOL    HW123684   1.695   4.032   2.504  0.8119 -0.3961 -0.1454
 4017SOL    HW223685   1.824   4.058   2.553  0.4723 -2.4221 -1.3654
 4018SOL     OW23686   2.784   0.099  12.297  0.6288  0.0268  0.2610
 4018SOL    HW123687   2.774   0.190  12.269 -1.6958  0.0999  1.3365
 4018SOL    HW223688   2.716   0.054  12.247  0.3279  0.1161  0.5842
 4019SOL     OW23689   3.645   0.556  17.055  0.0862 -0.2382 -0.0437
 4019SOL    HW123690   3.595   0.552  17.136  1.2679  1.9083  0.7763
 4019SOL    HW223691   3.708   0.627  17.066 -0.7208  0.6369 -1.1695
 4020SOL     OW23692   2.589   0.479   1.776 -0.4191 -0.6875  0.0679
 4020SOL    HW123693   2.516   0.418   1.785  0.7808 -2.0942  0.1934
 4020SOL    HW223694   2.601   0.503   1.868  1.1249 -1.2486  0.0152
 4021SOL     OW23695   2.801   3.266   8.115  0.3591  0.2430 -0.3792
 4021SOL    HW123696   2.777   3.355   8.090  0.1299 -0.3092 -2.1523
 4021SOL    HW223697   2.889   3.282   8.150  0.0940 -1.0885  0.8830
 4022SOL     OW23698   4.541   1.731   3.066 -0.0457  0.2218 -0.0811
 4022SOL    HW123699   4.513   1.761   2.979  0.2489 -1.3685 -0.7331
 4022SOL    HW223700   4.458   1.711   3.108 -0.3129 -1.6138 -1.4879
 4023SOL     OW23701   0.862   4.602  12.906 -0.1374  0.1428  0.0233
 4023SOL    HW123702   0.882   4.562  12.822 -1.6962 -1.1997  0.3054
 4023SOL    HW223703   0.794   4.663  12.878  0.1804  0.0395 -0.9544
 4024SOL     OW23704   0.561   4.482   3.859 -0.3712  0.2905 -0.1772
 4024SOL    HW123705   0.475   4.463   3.897 -0.3058  1.6885  0.6689
 4024SOL    HW223706   0.616   4.501   3.934 -0.3627  0.2041 -0.1621
 4025SOL     OW23707   4.359   3.326  10.327 -0.0858  0.4681 -0.3021
 4025SOL    HW123708   4.378   3.280  10.246 -1.5007  0.2325 -0.4882
 4025SOL    HW223709   4.381   3.266  10.398  1.3364 -0.2807 -1.3763
 4026SOL     OW23710   2.234   1.995   7.232  0.6225  0.5744 -0.8135
 4026SOL    HW123711   2.275   1.968   7.315 -0.6239  0.1477 -0.3383
 4026SOL    HW223712   2.203   1.908   7.207  1.8409 -0.0713 -0.0852
 4027SOL     OW23713   0.085   1.229   9.043 -0.4461  0.0099 -0.4352
 4027SOL    HW123714   0.180   1.238   9.052 -0.4404 -0.6002  0.1630
 4027SOL    HW223715   0.079   1.134   9.046  0.0991  0.0292  1.4033
 4028SOL     OW23716   0.672   3.243  17.690  0.0555 -0.0831  0.3207
 4028SOL    HW123717   0.623   3.324  17.679 -0.7019 -0.3333  1.8932
 4028SOL    HW223718   0.646   3.208   0.015  1.9174  1.5108  1.5715
 4029SOL     OW23719   2.224   4.556   1.197  0.1734 -0.4020  0.0850
 4029SOL    HW123720   2.176   4.520   1.123  1.0218  1.3836 -1.3257
 4029SOL    HW223721   2.309   4.567   1.154  0.3230 -1.4579  0.0977
 4030SOL     OW23722   4.028   2.324   8.867 -0.0047 -0.2942 -0.4107
 4030SOL    HW123723   4.114   2.325   8.826 -0.4847 -0.9819 -1.4395
 4030SOL    HW223724   3.977   2.367   8.799 -0.2288  0.3121  0.1365
 4031SOL     OW23725   4.369   4.531   6.355 -0.3186 -0.4503 -0.1475
 4031SOL    HW123726   4.296   4.470   6.362 -3.3686  3.4613  2.0542
 4031SOL    HW223727   4.430   4.474   6.402 -0.8395 -0.4248  0.5610
 4032SOL     OW23728   2.130   4.556   4.562 -0.1084 -0.2467 -0.0764
 4032SOL    HW123729   2.130   4.621   4.631  1.0688  1.1761 -1.4155
 4032SOL    HW223730   2.138   4.617   4.489  0.0562 -1.6655 -1.2478
 4033SOL     OW23731   3.311   0.405   8.298  0.0543 -0.3250 -0.2054
 4033SOL    HW123732   3.232   0.400   8.351  1.2003  2.3711  1.7367
 4033SOL    HW223733   3.292   0.488   8.255 -2.2480  0.3370  2.1157
 4034SOL     OW23734   0.737   2.128  14.583  0.1516 -0.8759 -0.1795
 4034SOL    HW123735   0.769   2.194  14.521 -2.1003  2.1769  1.9167
 4034SOL    HW223736   0.799   2.058  14.562 -0.5211 -1.9391  1.3956
 4035SOL     OW23737   0.437   4.095  12.759 -0.6187 -0.0134 -0.2452
 4035SOL    HW123738   0.506   4.152  12.792  0.5325 -1.0072 -0.8816
 4035SOL    HW223739   0.374   4.152  12.716 -0.6448  0.0605 -0.1068
 4036SOL     OW23740   1.805   3.394   4.379 -0.4576 -0.3979  0.0665
 4036SOL    HW123741   1.739   3.462   4.394 -0.2617 -0.3649  0.7945
 4036SOL    HW223742   1.871   3.436   4.435 -1.6792 -0.6530  1.6843
 4037SOL     OW23743   0.126   4.169   3.794 -0.0336  0.0165  0.2467
 4037SOL    HW123744   0.067   4.223   3.743 -1.2072 -0.8644  0.6777
 4037SOL    HW223745   0.130   4.089   3.742 -0.1834  1.2711 -1.6662
 4038SOL     OW23746   2.372   4.199   5.541  0.1375  0.2780  0.0695
 4038SOL    HW123747   2.392   4.212   5.633 -1.4307 -0.2138  0.4742
 4038SOL    HW223748   2.304   4.266   5.531  0.1048  0.0694 -1.1000
 4039SOL     OW23749   2.175   1.639   5.710  0.2656  0.1693  0.0854
 4039SOL    HW123750   2.264   1.669   5.690  1.0782 -1.2701  1.4451
 4039SOL    HW223751   2.166   1.626   5.805  1.9654 -0.8209  0.1261
 4040SOL     OW23752   0.102   3.226  10.875  0.6839  0.5710 -0.6333
 4040SOL    HW123753   0.172   3.281  10.912  1.3421 -1.4008  1.0059
 4040SOL    HW223754   0.085   3.157  10.939  1.4916 -0.2154 -1.2579
 4041SOL     OW23755   3.231   2.490   6.217  0.4563 -0.2893 -0.0225
 4041SOL    HW123756   3.209   2.580   6.192 -1.3159 -0.3550  1.3312
 4041SOL    HW223757   3.147   2.445   6.217  0.2471  0.0961  0.8300
 4042SOL     OW23758   0.623   0.950   4.374 -0.0736 -0.1350 -0.6387
 4042SOL    HW123759   0.607   1.004   4.452 -0.9566  0.8799 -1.5235
 4042SOL    HW223760   0.570   0.872   4.391  2.9451 -2.1858 -0.5813
 4043SOL     OW23761   2.563   1.792   5.965 -0.1010 -1.0780 -1.0777
 4043SOL    HW123762   2.626   1.754   5.904  0.2324 -0.9653 -0.8028
 4043SOL    HW223763   2.632   1.835   6.016 -0.5573 -2.6532  0.8432
 4044SOL     OW23764   0.769   1.949   9.037 -0.2191 -0.5346  0.2006
 4044SOL    HW123765   0.720   1.868   9.055 -1.8843  0.7137  1.3201
 4044SOL    HW223766   0.750   1.978   8.948 -1.4386 -1.7826  0.0595
 4045SOL     OW23767   3.422   2.323   4.383  0.3498 -0.5458  0.3462
 4045SOL    HW123768   3.468   2.344   4.302 -0.9715 -2.5983 -0.9551
 4045SOL    HW223769   3.339   2.295   4.344  0.8512  1.5785 -2.2357
 4046SOL     OW23770   1.866   1.606   4.574 -0.5576  0.1529 -0.0819
 4046SOL    HW123771   1.810   1.530   4.557 -0.4383  0.5716 -2.2978
 4046SOL    HW223772   1.799   1.673   4.562 -0.4654  0.2128 -0.2690
 4047SOL     OW23773   0.427   0.056   8.622  0.1318 -0.2016 -0.1033
 4047SOL    HW123774   0.381   0.130   8.661  2.1972  0.8494  0.3638
 4047SOL    HW223775   0.501   0.090   8.570  0.4942  0.4634  0.8462
 4048SOL     OW23776   0.798   1.750   6.480 -0.3139  0.0166  0.2206
 4048SOL    HW123777   0.795   1.667   6.527  0.0088 -0.3963 -0.4756
 4048SOL    HW223778   0.874   1.744   6.422 -1.0838  0.3144 -0.8238
 4049SOL     OW23779   1.681   0.502   8.243  0.4029  0.2841  0.6976
 4049SOL    HW123780   1.704   0.489   8.335 -1.0145 -1.1229  0.8611
 4049SOL    HW223781   1.745   0.571   8.223 -1.3588  0.5570 -3.9524
 4050SOL     OW23782   1.800   2.025   8.667 -0.3225  0.2717 -0.3395
 4050SOL    HW123783   1.782   2.040   8.760 -0.4442  1.8270 -0.6171
 4050SOL    HW223784   1.843   2.107   8.645 -2.1476  1.3791  0.2005
 4051SOL     OW23785   2.663   2.573   6.438  0.1499  0.3701  0.6034
 4051SOL    HW123786   2.689   2.487   6.405 -0.6570  0.4572 -0.2799
 4051SOL    HW223787   2.568   2.575   6.447  0.1253  0.8353  0.2558
 4052SOL     OW23788   2.533   0.364   9.715  0.2960 -0.0977 -0.0131
 4052SOL    HW123789   2.512   0.449   9.753  3.7584  1.0008 -0.6682
 4052SOL    HW223790   2.582   0.331   9.791  0.9249 -2.5711 -1.5093
 4053SOL     OW23791   1.206   1.497  17.406  0.1243 -0.2498  0.0464
 4053SOL    HW123792   1.173   1.457  17.487 -2.7747  2.7313  0.3187
 4053SOL    HW223793   1.126   1.486  17.354  0.0009 -1.4422  0.4767
 4054SOL     OW23794   2.342   2.259   2.245  0.5704  0.2456 -1.2740
 4054SOL    HW123795   2.401   2.198   2.290  1.0485  2.0857  0.5883
 4054SOL    HW223796   2.380   2.252   2.157  0.0363  0.6625 -1.5345
 4055SOL     OW23797   2.670   4.370   9.105 -0.3922 -0.6233 -0.0627
 4055SOL    HW123798   2.663   4.464   9.093 -0.2103 -0.6438 -0.3319
 4055SOL    HW223799   2.672   4.329   9.018  2.1964 -1.5123  0.4332
 4056SOL     OW23800   4.657   0.169   1.699  0.1629  0.0712 -0.0199
 4056SOL    HW123801   4.617   0.203   1.779  0.2885 -0.9545  0.4744
 4056SOL    HW223802   0.008   0.166   1.725 -0.1189 -0.5474  0.9037
 4057SOL     OW23803   2.972   2.996   9.224 -0.3671 -0.3554  0.1459
 4057SOL    HW123804   2.881   2.972   9.205 -0.1111 -0.9896 -0.2847
 4057SOL    HW223805   3.019   2.929   9.174 -2.2287 -0.1235 -1.9289
 4058SOL     OW23806   2.613   2.239   6.743 -0.8161 -0.0004  0.2603
 4058SOL    HW123807   2.640   2.330   6.759  1.8401 -1.2569  2.8399
 4058SOL    HW223808   2.664   2.213   6.667 -3.0264 -0.3087 -1.1388
 4059SOL     OW23809   3.343   4.699   8.445  0.3405 -0.2159 -0.2602
 4059SOL    HW123810   3.355   0.008   8.526 -0.8535 -0.1015 -0.1517
 4059SOL    HW223811   3.263   4.740   8.414 -0.7373 -1.7056  0.5412
 4060SOL     OW23812   3.669   2.427  11.069 -0.1931  0.5577 -0.1560
 4060SOL    HW123813   3.698   2.507  11.025  0.0811  0.6004  0.1025
 4060SOL    HW223814   3.748   2.374  11.056 -3.0320 -3.6370  0.0163
 4061SOL     OW23815   0.483   1.200  14.385  0.3295  0.0695  0.3935
 4061SOL    HW123816   0.461   1.177  14.295 -1.8455 -4.3238  2.0676
 4061SOL    HW223817   0.576   1.221  14.372  0.2226 -0.2380 -0.7945
 4062SOL     OW23818   1.097   2.959   2.927  0.3244 -0.3127  0.2519
 4062SOL    HW123819   1.069   2.878   2.885  1.9409 -0.8596  0.2289
 4062SOL    HW223820   1.063   3.021   2.862 -0.6700  0.3222  1.3723
 4063SOL     OW23821   2.073   0.296  17.410  0.0024 -0.3047 -0.5051
 4063SOL    HW123822   2.068   0.369  17.473  1.6598  0.4583 -1.2783
 4063SOL    HW223823   2.168   0.290  17.399 -0.1523 -2.1277 -0.8878
 4064SOL     OW23824   0.763   3.071  13.813 -0.5907 -0.4164  0.6828
 4064SOL    HW123825   0.832   3.136  13.804  1.4267 -2.7666 -1.0708
 4064SOL    HW223826   0.689   3.124  13.841 -0.6007 -0.9389  1.6348
 4065SOL     OW23827   2.550   4.722  12.877 -0.7290 -0.4159 -0.0498
 4065SOL    HW123828   2.613   0.044  12.843  1.1988 -1.0073  2.4383
 4065SOL    HW223829   2.603   4.652  12.915  2.1040  0.5313 -2.2688
 4066SOL     OW23830   1.216   2.531   8.461 -0.0003  0.5457 -0.1949
 4066SOL    HW123831   1.128   2.566   8.471 -0.1990  0.3314 -1.1752
 4066SOL    HW223832   1.268   2.599   8.419  1.0481 -0.3599 -0.3777
 4067SOL     OW23833   3.128   1.408  15.247  0.0487  0.1739 -0.5092
 4067SOL    HW123834   3.062   1.345  15.275 -1.6779  1.7156 -1.1272
 4067SOL    HW223835   3.089   1.493  15.268 -0.4071 -0.5584  1.5790
 4068SOL     OW23836   2.370   1.691   7.566  0.1003  0.6777  0.2237
 4068SOL    HW123837   2.355   1.768   7.512  0.3849  1.3463  1.1168
 4068SOL    HW223838   2.443   1.726   7.617 -0.6865  0.4285  1.5241
 4069SOL     OW23839   0.089   3.245   2.643 -0.5350  0.2051 -0.3740
 4069SOL    HW123840   0.159   3.260   2.706 -0.0571  0.4061 -0.9533
 4069SOL    HW223841   0.117   3.288   2.562 -0.1641  0.0480 -0.3278
 4070SOL     OW23842   1.722   4.254  15.726  0.0385  0.3761  0.4313
 4070SOL    HW123843   1.707   4.309  15.649  1.8313  1.4204  0.8456
 4070SOL    HW223844   1.776   4.189  15.682 -0.5243 -0.1280  0.4781
 4071SOL     OW23845   3.542   4.642   4.274 -0.2397  0.1561 -0.0127
 4071SOL    HW123846   3.629   4.628   4.312  0.5230 -0.6623 -2.1036
 4071SOL    HW223847   3.534   4.736   4.292 -0.3738 -0.1252  1.3739
 4072SOL     OW23848   2.984   2.217   1.443 -0.2003  0.4706 -0.1381
 4072SOL    HW123849   2.994   2.174   1.358  0.3391 -0.5389  0.4284
 4072SOL    HW223850   2.901   2.189   1.481  0.2231 -0.4223  0.1346
 4073SOL     OW23851   4.739   4.303   6.167 -0.1537 -0.7081 -0.2197
 4073SOL    HW123852   0.085   4.336   6.189 -0.6131 -1.2640  2.4232
 4073SOL    HW223853   4.733   4.331   6.075 -2.0016  2.2802  0.8147
 4074SOL     OW23854   1.525   0.356   2.342  0.7537  0.2724  0.5121
 4074SOL    HW123855   1.615   0.363   2.310  0.4442 -2.4027 -0.9783
 4074SOL    HW223856   1.528   0.426   2.407 -0.7752 -1.0684  2.0416
 4075SOL     OW23857   2.966   3.245   3.936  0.0869  0.4781  0.3513
 4075SOL    HW123858   3.039   3.233   3.876  0.5178  2.8163  0.4105
 4075SOL    HW223859   2.894   3.199   3.893  1.7306  0.9069 -2.8193
 4076SOL     OW23860   1.884   0.837   8.946 -0.4832  0.4669 -0.3584
 4076SOL    HW123861   1.852   0.747   8.943  1.2983 -0.1711 -0.5458
 4076SOL    HW223862   1.962   0.823   8.999  0.3135  2.8461 -0.8742
 4077SOL     OW23863   0.119   1.099   4.855  0.2462  0.3650 -0.7802
 4077SOL    HW123864   0.108   1.039   4.929  1.6060  0.8723 -0.1628
 4077SOL    HW223865   0.207   1.133   4.867  0.2679 -0.2844  0.9676
 4078SOL     OW23866   0.127   1.525   9.688  0.0594  0.1356 -0.7614
 4078SOL    HW123867   0.215   1.553   9.712 -0.8439  2.6047 -0.3873
 4078SOL    HW223868   0.119   1.560   9.599  0.2857  0.0556 -0.8117
 4079SOL     OW23869   4.002   3.077   5.011 -0.4442 -0.1278 -0.2650
 4079SOL    HW123870   3.936   3.033   4.957 -1.0432 -1.3062  1.4420
 4079SOL    HW223871   3.987   3.040   5.098 -0.3205  1.8638  0.6004
 4080SOL     OW23872   0.971   0.472   6.032 -0.3260  0.0309 -0.6591
 4080SOL    HW123873   0.945   0.382   6.053 -1.1226  0.0076 -1.7834
 4080SOL    HW223874   0.905   0.528   6.073 -0.4383 -1.7968  1.6633
 4081SOL     OW23875   4.722   0.107  14.528 -0.2962  0.1160 -0.0293
 4081SOL    HW123876   0.037   0.029  14.525 -2.7414 -1.6390  0.3569
 4081SOL    HW223877   0.030   0.171  14.475 -3.1686  1.6051 -0.9286
 4082SOL     OW23878   0.465   2.999   3.443 -0.2191  0.6250 -0.2115
 4082SOL    HW123879   0.408   2.948   3.386  0.1026  0.1658 -0.1277
 4082SOL    HW223880   0.444   2.953   3.525 -0.9317  1.2552 -0.0462
 4083SOL     OW23881   2.838   2.476   1.234  0.7751 -0.5575  0.1328
 4083SOL    HW123882   2.917   2.531   1.238  1.4247 -1.4512 -0.2628
 4083SOL    HW223883   2.867   2.400   1.183 -1.8383 -2.2626  1.2073
 4084SOL     OW23884   0.399   2.870  15.300 -0.0194  0.2401  0.8749
 4084SOL    HW123885   0.424   2.789  15.344 -1.8226 -0.2104  1.0724
 4084SOL    HW223886   0.488   2.905  15.304  0.5816 -1.1205 -1.1206
 4085SOL     OW23887   0.607   2.420  15.256  0.4408  0.0885 -0.4806
 4085SOL    HW123888   0.582   2.400  15.346  0.6937  2.9653  0.2484
 4085SOL    HW223889   0.669   2.354  15.227  2.0591  0.7424  1.4379
 4086SOL     OW23890   2.027   1.329   5.286 -0.2011  0.6478 -0.1536
 4086SOL    HW123891   1.992   1.364   5.204  3.2405  0.3704 -1.7346
 4086SOL    HW223892   2.043   1.405   5.342  0.3007  0.5088 -0.1084
 4087SOL     OW23893   4.582   2.259   2.447 -0.2772  0.1238  0.6727
 4087SOL    HW123894   4.644   2.188   2.428  1.1201  1.3824  0.5409
 4087SOL    HW223895   4.618   2.326   2.390  1.2276 -0.2122  1.2267
 4088SOL     OW23896   2.206   3.033   4.734  0.6299 -0.1621 -0.4766
 4088SOL    HW123897   2.188   3.002   4.645  1.0346  0.2675 -0.7063
 4088SOL    HW223898   2.183   2.956   4.786  1.6847 -1.0835 -1.3849
 4089SOL     OW23899   0.672   0.017   6.961  0.2313 -0.4296 -0.2282
 4089SOL    HW123900   0.723   0.032   6.881  1.4819 -0.7098  0.5183
 4089SOL    HW223901   0.698   0.102   6.999 -0.3499 -0.3997  0.1058
 4090SOL     OW23902   3.443   2.220   6.542 -0.2056  0.0097 -0.5448
 4090SOL    HW123903   3.443   2.222   6.446  1.4910  2.9652 -0.4946
 4090SOL    HW223904   3.531   2.186   6.558 -0.3586  0.1735  0.6077
 4091SOL     OW23905   1.354   2.095  10.358  0.2430 -0.1190  0.0984
 4091SOL    HW123906   1.361   2.188  10.338  1.6338  0.3756  2.9227
 4091SOL    HW223907   1.259   2.082  10.356  0.2800 -0.3279 -0.3320
 4092SOL     OW23908   4.484   4.343   9.352 -0.1552  0.0066 -0.2723
 4092SOL    HW123909   4.475   4.364   9.445  2.3806  1.9664 -0.4823
 4092SOL    HW223910   4.492   4.431   9.317  0.0339  0.9273  2.1203
 4093SOL     OW23911   4.168   1.467  17.485  0.2186 -0.1600 -0.3177
 4093SOL    HW123912   4.094   1.459  17.545  1.4814  2.0018  1.5311
 4093SOL    HW223913   4.120   1.434  17.410  0.0925 -0.1785 -0.2282
 4094SOL     OW23914   0.423   3.271   5.349 -0.4146 -0.5485 -0.6107
 4094SOL    HW123915   0.369   3.310   5.280 -0.0165  1.0389 -0.0026
 4094SOL    HW223916   0.449   3.349   5.398  0.0948 -0.7857 -0.5005
 4095SOL     OW23917   1.660   2.983   5.085 -0.2757  0.6405  0.3749
 4095SOL    HW123918   1.736   3.000   5.029  0.5488 -0.5810  1.1179
 4095SOL    HW223919   1.619   2.910   5.039  1.1317  1.5264 -2.2722
 4096SOL     OW23920   4.545   2.312   6.627 -0.7093  0.9217  0.1554
 4096SOL    HW123921   4.550   2.358   6.711  1.3223  0.0887  0.4866
 4096SOL    HW223922   4.450   2.297   6.621 -0.1273 -2.0831 -1.2481
 4097SOL     OW23923   3.255   0.615   0.963  0.0565 -0.3670 -0.2539
 4097SOL    HW123924   3.309   0.682   0.920  0.3557 -0.4723 -0.0492
 4097SOL    HW223925   3.171   0.621   0.919  0.7302 -0.6234 -1.5823
 4098SOL     OW23926   3.862   1.525  16.281  0.1134  0.0081  0.0487
 4098SOL    HW123927   3.863   1.610  16.237 -2.7325 -0.7342 -1.4339
 4098SOL    HW223928   3.915   1.545  16.358 -1.3989 -0.8078  1.2786
 4099SOL     OW23929   0.544   4.349   4.330 -0.3322 -0.4090  0.2568
 4099SOL    HW123930   0.463   4.352   4.381  0.4377  0.7322  1.4024
 4099SOL    HW223931   0.524   4.267   4.285 -0.9263 -0.4686  0.6290
 4100SOL     OW23932   0.092   0.561   9.470  0.4469 -0.0625 -0.0333
 4100SOL    HW123933   0.001   0.540   9.490  0.6600 -0.1494  0.8484
 4100SOL    HW223934   0.129   0.476   9.446 -3.2184 -1.8311  0.6496
 4101SOL     OW23935   0.161   0.809  13.244  0.3427  0.5166  0.1406
 4101SOL    HW123936   0.175   0.904  13.246 -0.1190  0.5858 -0.0663
 4101SOL    HW223937   0.198   0.778  13.327 -3.7615 -2.4980  0.8013
 4102SOL     OW23938   0.809   2.386   3.796 -0.0774 -0.0550  0.0324
 4102SOL    HW123939   0.808   2.370   3.702  2.8386  0.5359 -0.0941
 4102SOL    HW223940   0.717   2.389   3.821 -0.3921  0.0068 -1.1295
 4103SOL     OW23941   3.533   1.797   8.058  0.5696 -0.2163  0.0579
 4103SOL    HW123942   3.497   1.764   8.140  1.7102  0.8104  0.9823
 4103SOL    HW223943   3.625   1.780   8.078  0.8438  0.5262 -0.5483
 4104SOL     OW23944   1.082   4.032   3.213  0.5155 -0.4777 -0.2165
 4104SOL    HW123945   0.998   4.078   3.219 -0.9491 -3.0919 -0.9006
 4104SOL    HW223946   1.116   4.047   3.302  0.0076  0.3804 -0.1719
 4105SOL     OW23947   3.465   3.297  15.745 -0.0550 -0.5083  0.0532
 4105SOL    HW123948   3.482   3.209  15.778 -0.5216 -0.5630  0.1565
 4105SOL    HW223949   3.495   3.290  15.655  1.4519 -2.0428  0.6646
 4106SOL     OW23950   3.179   3.939   5.578  0.0117 -0.3508  0.6042
 4106SOL    HW123951   3.098   3.950   5.627 -0.3596  2.0126 -0.5381
 4106SOL    HW223952   3.218   3.853   5.597 -0.5995 -0.5844  0.7954
 4107SOL     OW23953   2.640   4.442   7.271 -0.4629 -0.2566  0.2686
 4107SOL    HW123954   2.727   4.442   7.311  0.7340  0.0052 -2.3086
 4107SOL    HW223955   2.586   4.487   7.335  0.4886 -1.1823  1.7130
 4108SOL     OW23956   3.784   4.397  15.313 -0.2142  0.2300 -0.1632
 4108SOL    HW123957   3.697   4.391  15.353  0.1513 -0.7540  0.4871
 4108SOL    HW223958   3.841   4.441  15.376  0.2212  2.4644 -2.1474
 4109SOL     OW23959   1.208   2.789   7.691  0.0288  0.4004 -0.4990
 4109SOL    HW123960   1.293   2.744   7.692  0.2091  0.7552  0.3825
 4109SOL    HW223961   1.175   2.779   7.602 -0.5681 -0.5555 -0.1668
 4110SOL     OW23962   1.686   2.156  16.520  0.3250 -0.1258 -1.0278
 4110SOL    HW123963   1.656   2.103  16.594 -1.1214 -0.1989 -1.6660
 4110SOL    HW223964   1.698   2.098  16.445 -0.0045  0.3393 -1.4440
 4111SOL     OW23965   3.457   4.349   3.964  0.1956 -0.2792  0.9152
 4111SOL    HW123966   3.413   4.266   3.983 -0.5422  0.5003  2.6525
 4111SOL    HW223967   3.385   4.382   3.911  1.1190  1.6960  0.9049
 4112SOL     OW23968   2.314   3.086   6.827 -0.0109  0.4860 -0.3540
 4112SOL    HW123969   2.365   3.079   6.746 -0.7558 -0.5588 -0.7336
 4112SOL    HW223970   2.390   3.073   6.885 -0.5310  2.4449  0.7638
 4113SOL     OW23971   0.884   1.336  16.654  0.6196 -0.8550  0.0380
 4113SOL    HW123972   0.917   1.396  16.587 -2.7103  1.7397  0.7422
 4113SOL    HW223973   0.801   1.303  16.620 -0.2599 -0.1194  1.5023
 4114SOL     OW23974   4.082   4.679   1.676 -0.8498 -0.4102 -0.1930
 4114SOL    HW123975   4.059   0.030   1.686  2.9681  0.4223  0.6669
 4114SOL    HW223976   4.040   4.646   1.597 -0.7776 -0.3808 -0.2432
 4115SOL     OW23977   2.209   2.680   3.146 -0.2455  0.4502  0.1540
 4115SOL    HW123978   2.258   2.739   3.204  0.5529  0.1952 -0.2605
 4115SOL    HW223979   2.183   2.741   3.078 -3.1244  1.4502  2.1751
 4116SOL     OW23980   0.455   2.937   5.672 -0.2101  0.2128 -0.2004
 4116SOL    HW123981   0.413   2.938   5.586 -0.7420 -0.8072  0.0533
 4116SOL    HW223982   0.522   2.872   5.651  0.0890 -0.1967  2.0309
 4117SOL     OW23983   3.212   1.063  14.614 -0.0288 -0.6142 -0.1803
 4117SOL    HW123984   3.145   1.082  14.680 -0.0839 -2.2661  0.2524
 4117SOL    HW223985   3.290   1.073  14.668  0.4835  0.8369 -1.2119
 4118SOL     OW23986   2.280   0.870   8.869  0.5942 -0.0874 -0.2774
 4118SOL    HW123987   2.339   0.851   8.942  0.8368  1.1373 -0.1598
 4118SOL    HW223988   2.216   0.929   8.907 -0.7122 -1.5534 -0.1790
 4119SOL     OW23989   3.128   0.982   4.404 -0.3358 -0.2410 -0.1180
 4119SOL    HW123990   3.075   0.904   4.391 -0.7824  0.0593 -0.1000
 4119SOL    HW223991   3.064   1.051   4.421 -0.2594 -0.3904  0.7926
 4120SOL     OW23992   0.346   1.894   2.056  0.0315 -0.3188  0.1203
 4120SOL    HW123993   0.280   1.963   2.051 -1.7993 -2.2976 -3.2803
 4120SOL    HW223994   0.327   1.862   1.968  0.3586 -1.5072  0.4818
 4121SOL     OW23995   2.103   3.717   4.403  0.1841 -0.4057  0.1474
 4121SOL    HW123996   2.193   3.728   4.435  0.8472 -0.9502 -1.4790
 4121SOL    HW223997   2.106   3.751   4.313  0.4063  1.4600  0.8664
 4122SOL     OW23998   1.287   3.129   3.020 -0.0176 -1.0647  0.1067
 4122SOL    HW123999   1.230   3.061   2.985 -1.8572  0.7027 -0.3789
 4122SOL    HW224000   1.298   3.102   3.112  0.3241  1.1852  0.7429
 4123SOL     OW24001   1.401   0.776   2.694 -0.5192  0.2765  0.1744
 4123SOL    HW124002   1.429   0.698   2.741  2.2583  1.3603  0.3115
 4123SOL    HW224003   1.426   0.766   2.602 -0.1344 -0.1881  0.3306
 4124SOL     OW24004   4.714   1.832   5.338 -0.5020 -0.2715  0.7148
 4124SOL    HW124005   0.050   1.852   5.391 -2.2639  0.2292  3.0658
 4124SOL    HW224006   0.006   1.774   5.269 -0.3630 -1.4514  1.7748
 4125SOL     OW24007   3.632   3.053   2.280 -0.1214  0.2880 -0.2342
 4125SOL    HW124008   3.552   3.075   2.232 -0.5357  0.9818  0.7900
 4125SOL    HW224009   3.645   2.960   2.264  4.0291  0.5892  1.5172
 4126SOL     OW24010   0.207   1.909   9.421 -0.7353 -0.7648  0.0419
 4126SOL    HW124011   0.161   1.944   9.497 -1.2952  1.7274 -1.4348
 4126SOL    HW224012   0.293   1.886   9.457  0.0283  0.5309 -0.9444
 4127SOL     OW24013   0.551   2.826   9.719 -0.0426  0.8370  0.0755
 4127SOL    HW124014   0.624   2.815   9.779  0.4770  1.4707 -0.4494
 4127SOL    HW224015   0.479   2.794   9.773 -1.7223  1.6971 -1.6534
 4128SOL     OW24016   4.145   1.548   5.315 -0.0763  0.0410  0.4635
 4128SOL    HW124017   4.155   1.608   5.390  0.4545  1.4808 -0.7723
 4128SOL    HW224018   4.178   1.465   5.348  0.1066  0.7615  2.1276
 4129SOL     OW24019   2.642   2.391   7.595 -0.4103 -0.5756  0.0735
 4129SOL    HW124020   2.561   2.441   7.608 -1.6979 -2.3219 -1.2174
 4129SOL    HW224021   2.672   2.378   7.685 -0.4257 -1.5369 -0.0533
 4130SOL     OW24022   4.020   0.432   1.461  0.6173  0.4869 -0.2431
 4130SOL    HW124023   4.020   0.430   1.556  2.8503 -2.3227 -0.3098
 4130SOL    HW224024   4.082   0.503   1.446  0.0529  1.4294  1.9660
 4131SOL     OW24025   2.648   0.172   1.891  0.3793  0.4241  0.3399
 4131SOL    HW124026   2.684   0.237   1.952 -0.9874  0.1674  1.4091
 4131SOL    HW224027   2.559   0.206   1.884  0.2149 -0.3836 -1.4034
 4132SOL     OW24028   0.987   0.925   8.525  0.1531 -0.6361  0.1652
 4132SOL    HW124029   0.938   0.980   8.587 -0.6685  0.4682 -1.4893
 4132SOL    HW224030   0.927   0.858   8.493 -0.2689 -0.4110  0.4860
 4133SOL     OW24031   0.891   3.588   2.028  0.4321  0.7411  0.3467
 4133SOL    HW124032   0.919   3.503   2.062 -0.4347  0.9187  1.5011
 4133SOL    HW224033   0.828   3.558   1.964 -0.0862 -0.0880  1.2391
 4134SOL     OW24034   2.594   4.313   0.918  0.2714 -0.0416  0.0112
 4134SOL    HW124035   2.545   4.260   0.854  0.7203  1.3759 -1.5190
 4134SOL    HW224036   2.606   4.256   0.994 -2.7743 -0.4984  0.1609
 4135SOL     OW24037   3.347   3.709   5.592 -0.5162  0.0546  0.1581
 4135SOL    HW124038   3.323   3.616   5.593  2.3344 -0.6955 -0.3607
 4135SOL    HW224039   3.427   3.720   5.540 -1.3051  1.1320 -0.8153
 4136SOL     OW24040   2.883   4.367   1.932 -0.2251  0.3270 -0.6014
 4136SOL    HW124041   2.878   4.388   1.839  2.2749  0.4393 -0.7157
 4136SOL    HW224042   2.976   4.380   1.951  0.5342  0.0108 -4.1535
 4137SOL     OW24043   4.664   2.566  11.055  0.0950 -0.1717 -0.4190
 4137SOL    HW124044   4.580   2.527  11.078  1.1585 -2.4930 -0.5007
 4137SOL    HW224045   4.655   2.647  11.105 -0.3246 -0.3239 -0.2462
 4138SOL     OW24046   4.203   0.020   0.399 -0.0096 -0.1997  0.2338
 4138SOL    HW124047   4.217   0.082   0.328  0.6670 -3.1686 -2.2046
 4138SOL    HW224048   4.150   0.074   0.459 -1.3129  1.5770 -2.5423
 4139SOL     OW24049   4.448   0.746   3.386 -0.1963 -0.6371 -0.4388
 4139SOL    HW124050   4.426   0.823   3.333 -1.4863 -1.7954 -1.5913
 4139SOL    HW224051   4.427   0.680   3.320  0.7251 -1.0203 -0.3432
 4140SOL     OW24052   1.656   2.978  13.029  0.2635 -0.2620  0.3331
 4140SOL    HW124053   1.601   2.972  13.106  0.2358 -1.8727  0.2067
 4140SOL    HW224054   1.597   2.926  12.974 -0.2578 -1.2913  1.8616
 4141SOL     OW24055   2.588   0.981   3.908  0.7764  0.1227  0.0810
 4141SOL    HW124056   2.522   1.033   3.954  0.7501 -2.0952  2.5474
 4141SOL    HW224057   2.669   1.031   3.911 -0.5583  2.3140 -0.6480
 4142SOL     OW24058   1.638   3.328  12.984  0.0553 -0.6236  0.0649
 4142SOL    HW124059   1.677   3.344  13.070  0.6067  0.0123 -0.2988
 4142SOL    HW224060   1.580   3.255  13.004 -1.1171  0.2226 -0.2484
 4143SOL     OW24061   4.496   1.841   7.439  0.2924 -0.5480 -0.5086
 4143SOL    HW124062   4.446   1.917   7.409  3.3735 -0.1842 -4.6816
 4143SOL    HW224063   4.585   1.873   7.426  0.3262 -0.9377 -1.2223
 4144SOL     OW24064   1.134   0.426  10.863  0.7098  0.2808  0.7071
 4144SOL    HW124065   1.067   0.358  10.865  0.6285  0.2875 -1.6724
 4144SOL    HW224066   1.161   0.421  10.955  2.6893 -0.8761  0.0634
 4145SOL     OW24067   3.794   0.495   6.459 -0.1620 -0.2962 -0.4654
 4145SOL    HW124068   3.785   0.565   6.524  1.7653  0.8606 -1.4356
 4145SOL    HW224069   3.835   0.546   6.389  1.9610  0.8249  1.6002
 4146SOL     OW24070   2.007   3.903  16.581 -0.4179 -0.2012  0.3893
 4146SOL    HW124071   1.963   3.972  16.631  1.0394  0.1760  1.1456
 4146SOL    HW224072   1.933   3.850  16.551  0.7676 -0.7302 -1.5833
 4147SOL     OW24073   4.133   0.109   4.344 -0.1738 -0.1189 -0.1707
 4147SOL    HW124074   4.054   0.125   4.293  1.2272  3.5856 -1.1817
 4147SOL    HW224075   4.186   0.058   4.282  0.2209  0.2989 -0.1748
 4148SOL     OW24076   3.681   4.090   4.203  0.7368 -0.1621 -0.2118
 4148SOL    HW124077   3.686   4.185   4.192 -0.2467 -0.2430 -1.3855
 4148SOL    HW224078   3.588   4.069   4.215  0.9168 -0.4031  0.7421
 4149SOL     OW24079   1.710   1.868  12.142 -0.0702  0.2169  0.3398
 4149SOL    HW124080   1.730   1.785  12.099  0.5432 -0.1349  1.2946
 4149SOL    HW224081   1.627   1.833  12.174  0.0215 -0.1915  0.1287
 4150SOL     OW24082   2.188   0.990   8.185  0.2735  0.5399  1.1020
 4150SOL    HW124083   2.261   0.954   8.135  0.1987 -0.3407  1.6371
 4150SOL    HW224084   2.239   1.041   8.248  1.1444  1.6618 -0.4873
 4151SOL     OW24085   4.704   3.714   0.232  0.1296 -0.7796  0.3223
 4151SOL    HW124086   4.611   3.717   0.209  0.3420  0.6633 -0.3892
 4151SOL    HW224087   0.008   3.663   0.165  0.1478 -0.9485  0.4628
 4152SOL     OW24088   4.324   0.145   9.155  0.5567 -0.2159  0.2215
 4152SOL    HW124089   4.412   0.149   9.193  0.7915 -1.4467 -0.1892
 4152SOL    HW224090   4.272   0.136   9.234  0.7195  1.0204  0.4681
 4153SOL     OW24091   3.569   0.467  15.531  0.0034 -0.0227  0.0077
 4153SOL    HW124092   3.591   0.537  15.593  0.1128 -0.2509  0.2281
 4153SOL    HW224093   3.605   0.392  15.578  1.9878  1.6710  1.1973
 4154SOL     OW24094   3.573   0.440  14.609  0.3504  0.1407 -0.0125
 4154SOL    HW124095   3.534   0.501  14.671  0.8522 -0.3147  0.7419
 4154SOL    HW224096   3.586   0.358  14.656 -0.7053  0.0064  0.0398
 4155SOL     OW24097   2.841   4.181   2.114 -0.1339 -0.0834 -0.2558
 4155SOL    HW124098   2.918   4.212   2.160 -0.4838 -0.1361  0.3625
 4155SOL    HW224099   2.849   4.235   2.035 -0.5161  2.7184  1.6409
 4156SOL     OW24100   3.364   4.132   9.639  0.7364 -0.3100 -0.2555
 4156SOL    HW124101   3.383   4.220   9.608 -1.6757  0.2867 -0.0270
 4156SOL    HW224102   3.454   4.109   9.662  0.5948 -0.7704 -0.1624
 4157SOL     OW24103   2.626   1.207  13.284  0.0147  0.2526  0.7745
 4157SOL    HW124104   2.567   1.184  13.212 -0.4547  0.2557  1.1589
 4157SOL    HW224105   2.684   1.268  13.237  1.0778  0.2669  2.0988
 4158SOL     OW24106   2.576   4.097  13.477  0.4288 -0.1728 -0.4082
 4158SOL    HW124107   2.605   4.110  13.567  0.7917 -1.1157 -0.3907
 4158SOL    HW224108   2.651   4.054  13.437 -0.4285  1.2161 -3.4753
 4159SOL     OW24109   1.769   4.510   2.115 -0.0717 -0.1543 -0.0188
 4159SOL    HW124110   1.771   4.599   2.079  1.2021  0.0255  0.5339
 4159SOL    HW224111   1.687   4.482   2.073 -0.8524  1.1375  0.6253
 4160SOL     OW24112   3.238   3.223   3.019  0.3939  0.6770 -0.6138
 4160SOL    HW124113   3.316   3.168   3.015  0.1740  0.1246  2.3630
 4160SOL    HW224114   3.199   3.224   2.932 -2.6121  2.6034  0.7440
 4161SOL     OW24115   3.631   0.624   7.510 -0.1072  0.7270 -0.0354
 4161SOL    HW124116   3.561   0.688   7.498  0.2737  1.2407  0.4435
 4161SOL    HW224117   3.618   0.585   7.597 -1.3382  1.5605  0.1575
 4162SOL     OW24118   4.419   2.473   3.790 -0.3391 -0.3122  0.5676
 4162SOL    HW124119   4.359   2.400   3.805 -0.7002 -0.4085 -1.4245
 4162SOL    HW224120   4.404   2.497   3.699 -1.5219 -1.6663  0.3939
 4163SOL     OW24121   0.093   1.745  16.027 -0.0751  0.3890 -0.0133
 4163SOL    HW124122   0.019   1.778  15.976  0.2071  0.2913 -0.4884
 4163SOL    HW224123   0.174   1.773  15.984  0.2791  1.7861  1.5707
 4164SOL     OW24124   3.417   2.174   9.553  0.0148 -0.0351 -0.2968
 4164SOL    HW124125   3.367   2.169   9.472  1.5681  0.7945 -1.3060
 4164SOL    HW224126   3.388   2.097   9.601 -0.6836 -0.1147 -0.8622
 4165SOL     OW24127   2.113   0.550   2.350  0.6024  0.0912 -0.4585
 4165SOL    HW124128   2.047   0.498   2.305 -0.7632  0.0467  1.6093
 4165SOL    HW224129   2.098   0.635   2.311  1.4843 -0.1712 -1.3800
 4166SOL     OW24130   0.451   1.622   4.167  0.1261  0.3901 -0.2154
 4166SOL    HW124131   0.363   1.610   4.204  0.3850  1.7896  0.8705
 4166SOL    HW224132   0.442   1.553   4.102 -1.0922 -0.6534  1.0501
 4167SOL     OW24133   0.727   3.939   3.633  0.4221  0.3258 -1.0414
 4167SOL    HW124134   0.674   3.964   3.557 -0.8694  2.3790  0.5523
 4167SOL    HW224135   0.684   3.855   3.652 -0.7871  0.6124 -2.4638
 4168SOL     OW24136   3.668   4.217   3.826  0.1368  0.8476 -0.0917
 4168SOL    HW124137   3.714   4.234   3.744 -0.8637 -0.4137 -0.9258
 4168SOL    HW224138   3.598   4.283   3.820 -0.1834  0.6590  1.5601
 4169SOL     OW24139   2.787   0.831   9.062  0.2447 -0.2699  0.0997
 4169SOL    HW124140   2.728   0.775   9.011  1.5470 -2.4830  1.0177
 4169SOL    HW224141   2.824   0.898   9.004  1.2480  0.7325  1.9059
 4170SOL     OW24142   3.434   0.488   5.036  0.7129  0.3501  0.5811
 4170SOL    HW124143   3.508   0.527   5.082 -0.0742  2.3478  0.1762
 4170SOL    HW224144   3.379   0.567   5.030  1.4735  0.9483  1.6259
 4171SOL     OW24145   4.338   3.998   4.966 -0.2571  0.0685  0.1864
 4171SOL    HW124146   4.252   4.025   4.998 -0.0085 -1.7607  2.3961
 4171SOL    HW224147   4.354   3.930   5.032  1.9177  0.2445 -0.1577
 4172SOL     OW24148   3.961   3.456   5.166  0.1793  0.0272 -0.5261
 4172SOL    HW124149   4.026   3.488   5.227 -0.1131 -0.7536  0.1879
 4172SOL    HW224150   3.877   3.487   5.199 -0.0041  2.7158 -3.4346
 4173SOL     OW24151   4.652   3.733   3.085  0.6102  0.0549 -0.1066
 4173SOL    HW124152   4.614   3.661   3.135  0.9869  0.1456  0.3049
 4173SOL    HW224153   4.737   3.741   3.128  0.3528  0.3131  0.3520
 4174SOL     OW24154   3.761   0.205  17.424  0.0749  0.3928 -0.4786
 4174SOL    HW124155   3.775   0.288  17.469 -0.7500  0.4468 -0.3262
 4174SOL    HW224156   3.845   0.203  17.378 -1.3781 -0.7368 -3.0863
 4175SOL     OW24157   4.238   4.641  13.427 -0.3425 -0.3553  0.2538
 4175SOL    HW124158   4.256   4.628  13.334 -0.5495 -0.9020  0.2951
 4175SOL    HW224159   4.299   4.576  13.463 -1.1495 -0.4755  1.4076
 4176SOL     OW24160   0.975   2.887   3.624 -0.2178  0.2330  0.3698
 4176SOL    HW124161   0.945   2.932   3.545  0.8134  0.7238  0.2588
 4176SOL    HW224162   1.011   2.965   3.666 -0.4083  1.2437 -1.3507
 4177SOL     OW24163   0.958   0.880   7.170 -0.1432 -0.2844 -0.0276
 4177SOL    HW124164   0.911   0.830   7.236 -0.0044 -1.1191 -0.5647
 4177SOL    HW224165   1.009   0.941   7.223  0.1667  1.1362 -1.9527
 4178SOL     OW24166   2.003   0.102   5.189 -0.3066  0.1017 -0.0434
 4178SOL    HW124167   1.931   0.040   5.197 -0.8074  0.9837  2.3120
 4178SOL    HW224168   1.982   0.138   5.102 -0.9091  1.3418  0.6099
 4179SOL     OW24169   2.626   1.493   7.536  0.2654  0.2285  0.3277
 4179SOL    HW124170   2.588   1.502   7.624  0.5205  0.6520  0.3982
 4179SOL    HW224171   2.572   1.425   7.497  0.3774  0.8678 -0.9561
 4180SOL     OW24172   3.375   2.753   4.886  0.2075  0.2268 -0.0555
 4180SOL    HW124173   3.308   2.730   4.822 -1.0398  0.3874  1.1934
 4180SOL    HW224174   3.380   2.672   4.937 -1.4871 -0.3442 -0.7973
 4181SOL     OW24175   1.608   4.584   5.916  0.1878  0.1574  0.4263
 4181SOL    HW124176   1.617   4.679   5.921 -2.9775  0.3547  2.8819
 4181SOL    HW224177   1.656   4.565   5.835  0.8475 -1.6847  1.2499
 4182SOL     OW24178   0.854   4.243   7.533  0.6281 -0.1059  0.0951
 4182SOL    HW124179   0.938   4.243   7.488 -0.9947 -3.5071 -2.9061
 4182SOL    HW224180   0.887   4.274   7.617 -0.8684  1.0525  0.2558
 4183SOL     OW24181   2.629   0.264   3.594  0.6870  0.5735 -0.3676
 4183SOL    HW124182   2.579   0.241   3.516 -1.0491  2.5424  0.1840
 4183SOL    HW224183   2.671   0.348   3.576  0.3642  0.3526 -2.0871
 4184SOL     OW24184   1.051   3.839   9.384  0.6505 -0.1910  0.0831
 4184SOL    HW124185   1.105   3.852   9.462 -0.7786 -1.8787  1.3634
 4184SOL    HW224186   0.964   3.859   9.418  0.0878 -0.9063 -0.9508
 4185SOL     OW24187   2.857   2.863   1.750 -0.4551 -0.1177 -0.4279
 4185SOL    HW124188   2.781   2.860   1.692 -1.2391  1.5722  0.5235
 4185SOL    HW224189   2.895   2.948   1.728  0.1551  0.2113  1.8191
 4186SOL     OW24190   0.415   2.700  15.878  0.8638  0.0567  0.4718
 4186SOL    HW124191   0.395   2.668  15.967 -0.4194 -1.0538 -0.2096
 4186SOL    HW224192   0.349   2.644  15.836  0.7933 -1.4614  2.5527
 4187SOL     OW24193   4.028   4.427   7.996  0.1050  0.3846 -0.0887
 4187SOL    HW124194   3.944   4.392   8.025  0.7436 -1.4115 -0.3850
 4187SOL    HW224195   4.068   4.356   7.944 -0.5211 -0.2785  0.3289
 4188SOL     OW24196   2.902   1.511   7.401 -0.2420 -0.1200 -0.0274
 4188SOL    HW124197   2.820   1.499   7.450 -0.2645  3.0580  0.7304
 4188SOL    HW224198   2.874   1.508   7.309 -1.2384 -1.1202  0.3100
 4189SOL     OW24199   1.873   4.337  16.551  0.1115 -0.1218 -0.3864
 4189SOL    HW124200   1.918   4.405  16.600  0.6035  0.4090 -1.5803
 4189SOL    HW224201   1.811   4.391  16.502 -0.2063  0.1867  0.3697
 4190SOL     OW24202   1.663   2.010   8.174 -0.0526 -0.5599  0.2327
 4190SOL    HW124203   1.715   2.002   8.254  0.9424  1.8115 -0.1880
 4190SOL    HW224204   1.717   1.982   8.100 -1.9763 -0.3898 -1.2612
 4191SOL     OW24205   3.305   4.271  14.717 -1.1783  0.3239  0.2433
 4191SOL    HW124206   3.220   4.228  14.711  0.0347 -1.5957 -3.0538
 4191SOL    HW224207   3.277   4.360  14.693  0.0121 -0.2738 -3.3092
 4192SOL     OW24208   2.607   0.472   5.014 -0.5235 -0.0677  0.0740
 4192SOL    HW124209   2.645   0.496   4.930 -0.9091 -1.0401 -0.3759
 4192SOL    HW224210   2.636   0.381   5.021  0.8612  0.3777  0.3170
 4193SOL     OW24211   1.559   2.514   4.039  0.6390 -0.1765 -0.2914
 4193SOL    HW124212   1.545   2.558   4.123  1.1735 -2.5336  1.0399
 4193SOL    HW224213   1.653   2.511   4.021  0.3729  2.3793 -1.9678
 4194SOL     OW24214   2.168   0.894   8.468 -0.0121  0.4299  0.0592
 4194SOL    HW124215   2.164   0.989   8.476 -0.5503  0.5110 -1.1084
 4194SOL    HW224216   2.258   0.874   8.496 -0.0860  0.5731  0.3958
 4195SOL     OW24217   1.363   3.065   6.326  0.0459 -0.1624  0.4107
 4195SOL    HW124218   1.440   3.037   6.375 -0.4851  1.1233  1.9877
 4195SOL    HW224219   1.359   2.992   6.265  1.8428 -0.3183  0.4671
 4196SOL     OW24220   1.606   4.735  13.064 -0.2211  0.0188 -0.2817
 4196SOL    HW124221   1.616   0.042  13.146 -0.1684 -0.8021  0.1860
 4196SOL    HW224222   1.517   0.020  13.042 -0.2346  0.5958  0.4541
 4197SOL     OW24223   1.032   3.919   7.197 -0.1833 -0.1134 -0.7846
 4197SOL    HW124224   1.105   3.900   7.256 -0.6871  0.2466 -0.0448
 4197SOL    HW224225   1.059   4.004   7.164  2.4342  0.6680  3.2841
 4198SOL     OW24226   2.392   4.429   4.759  0.0610 -0.0634  0.0292
 4198SOL    HW124227   2.393   4.507   4.705 -0.8878  1.0872  1.6879
 4198SOL    HW224228   2.444   4.368   4.706  1.0093  0.9669 -0.2138
 4199SOL     OW24229   1.000   0.133   8.835 -0.6153  0.1481 -0.1396
 4199SOL    HW124230   1.017   0.164   8.746 -2.0244  0.6484 -0.2325
 4199SOL    HW224231   1.022   0.217   8.874 -0.1667 -0.8151  1.6524
 4200SOL     OW24232   1.609   2.042   7.557  0.0694  0.0461  0.7183
 4200SOL    HW124233   1.517   2.041   7.532 -0.1769  0.7646  1.6047
 4200SOL    HW224234   1.592   2.059   7.649 -0.9049  2.4149  0.0940
 4201SOL     OW24235   3.379   4.027   7.781 -0.0123  0.3046  0.2854
 4201SOL    HW124236   3.344   4.065   7.700 -0.6912 -0.1816  0.3484
 4201SOL    HW224237   3.437   3.958   7.751  1.5991  1.4812  0.6865
 4202SOL     OW24238   4.697   1.927  12.662  0.1745  0.4902  0.4416
 4202SOL    HW124239   4.730   2.013  12.688  1.9939  0.2751 -1.1938
 4202SOL    HW224240   4.658   1.901  12.746 -1.3316  0.1402 -0.3777
 4203SOL     OW24241   0.841   4.136  10.018  0.4952  0.2380 -0.0897
 4203SOL    HW124242   0.922   4.180  10.045 -1.3455  2.1100  2.3120
 4203SOL    HW224243   0.850   4.060  10.075 -1.3336 -0.2154 -0.3884
 4204SOL     OW24244   4.364   2.854   8.565 -0.0201 -0.1511  0.3944
 4204SOL    HW124245   4.459   2.844   8.569 -0.2121 -2.5408 -1.2720
 4204SOL    HW224246   4.345   2.943   8.598  0.4900  1.0494 -2.5712
 4205SOL     OW24247   4.586   2.156   1.558  0.5921  0.2239  0.6644
 4205SOL    HW124248   4.669   2.196   1.531  1.1804 -0.6417  1.1928
 4205SOL    HW224249   4.599   2.070   1.519  0.4002  0.6574 -0.3393
 4206SOL     OW24250   4.204   1.948  14.458 -0.3298 -0.3454 -0.5319
 4206SOL    HW124251   4.204   2.029  14.509 -0.7551  0.5230 -1.9073
 4206SOL    HW224252   4.148   1.967  14.383 -1.1004  1.5922  0.5189
 4207SOL     OW24253   2.786   4.033   4.892 -0.5114  0.1681 -0.4844
 4207SOL    HW124254   2.745   4.113   4.924 -0.5339 -0.3592  0.8039
 4207SOL    HW224255   2.735   3.964   4.934 -1.3647  0.3006 -1.3028
 4208SOL     OW24256   3.400   3.056  17.355  0.1685 -0.4207 -0.0281
 4208SOL    HW124257   3.486   3.015  17.360 -0.5144 -1.5768  1.9779
 4208SOL    HW224258   3.408   3.149  17.330 -0.7804 -0.0030  1.2464
 4209SOL     OW24259   3.278   2.024  12.361 -0.9921 -0.0774 -0.4863
 4209SOL    HW124260   3.252   1.975  12.283 -1.6243  1.5619 -1.3113
 4209SOL    HW224261   3.373   2.008  12.358 -1.1473 -1.0401 -0.0623
 4210SOL     OW24262   2.141   3.563   2.703  0.1253 -0.3985  0.5958
 4210SOL    HW124263   2.126   3.531   2.792 -1.3771 -0.2880  0.3879
 4210SOL    HW224264   2.163   3.655   2.716 -1.1592 -0.2974  2.0069
 4211SOL     OW24265   4.565   0.046   5.686  0.3137  0.3445  0.5706
 4211SOL    HW124266   4.514   4.714   5.651 -1.0258  0.6687  1.8530
 4211SOL    HW224267   4.568   0.023   5.779 -1.7734  2.4698  1.1465
 4212SOL     OW24268   0.102   1.585  12.386  0.6555 -0.4131  0.1919
 4212SOL    HW124269   0.189   1.562  12.354  0.3596  1.4278 -1.8804
 4212SOL    HW224270   0.052   1.510  12.357  0.4761 -0.4131  0.5048
 4213SOL     OW24271   3.996   3.802  14.799 -0.1015  0.2832  0.4707
 4213SOL    HW124272   4.064   3.743  14.830  1.2311  1.0948 -0.8920
 4213SOL    HW224273   3.926   3.747  14.834 -0.9294 -0.5069 -2.4406
 4214SOL     OW24274   3.245   4.402   9.333 -0.0529 -0.3074 -0.0828
 4214SOL    HW124275   3.334   4.431   9.312 -0.7765 -0.0721 -2.7536
 4214SOL    HW224276   3.239   4.411   9.428 -0.6056  0.5140 -0.1956
 4215SOL     OW24277   2.407   1.709   8.913 -0.6458  0.1431  1.2362
 4215SOL    HW124278   2.327   1.730   8.865 -0.1864 -2.4568 -0.6899
 4215SOL    HW224279   2.381   1.650   8.984  2.6647 -2.1951  0.5094
 4216SOL     OW24280   2.160   4.145   8.983  0.7327  0.1309 -0.4561
 4216SOL    HW124281   2.116   4.193   8.912  0.2977  2.5418  1.4602
 4216SOL    HW224282   2.217   4.086   8.933  2.0174  1.6480 -0.7672
 4217SOL     OW24283   0.598   1.529   5.703 -0.0178  0.0599  0.3204
 4217SOL    HW124284   0.506   1.548   5.722 -0.0384  0.9639 -0.6634
 4217SOL    HW224285   0.597   1.513   5.609  2.0101 -1.2939  0.5376
 4218SOL     OW24286   2.799   4.593   6.012  0.0614 -0.0604 -0.4800
 4218SOL    HW124287   2.847   4.550   5.941  0.7570 -0.1875  0.0692
 4218SOL    HW224288   2.875   4.634   6.054 -1.2838 -0.3969  2.2611
 4219SOL     OW24289   3.055   2.025   8.069 -0.2712  0.8689 -0.1270
 4219SOL    HW124290   3.060   2.030   7.973 -1.3706  0.7932 -0.1901
 4219SOL    HW224291   3.148   2.017   8.091  0.1030  2.3962 -1.1297
 4220SOL     OW24292   2.162   2.791   8.447 -0.0166 -0.0603  0.4104
 4220SOL    HW124293   2.159   2.850   8.371  1.6725 -1.7924 -0.9858
 4220SOL    HW224294   2.255   2.792   8.465 -0.0880  0.8108  0.7281
 4221SOL     OW24295   1.536   4.456   6.987  0.2352  0.5914  0.1299
 4221SOL    HW124296   1.523   4.374   7.036 -2.0427  0.2533 -1.0401
 4221SOL    HW224297   1.449   4.483   6.959 -0.4471 -0.1641  1.5634
 4222SOL     OW24298   1.007   3.044   6.179  0.4610 -0.0739 -0.1745
 4222SOL    HW124299   0.934   3.007   6.229  0.4700 -1.6476 -1.3233
 4222SOL    HW224300   1.025   3.131   6.214  0.1598 -0.4522  0.9246
 4223SOL     OW24301   0.646   4.706   9.013  0.1937  0.3979 -0.4379
 4223SOL    HW124302   0.595   4.666   9.084  0.9903 -0.6804 -0.4638
 4223SOL    HW224303   0.620   4.645   8.943  1.5911  0.3173 -0.8818
 4224SOL     OW24304   2.450   0.853   8.427  0.4179 -0.1742  0.4991
 4224SOL    HW124305   2.471   0.847   8.520 -0.1184  0.8860  0.6949
 4224SOL    HW224306   2.457   0.948   8.415 -0.3842 -0.1153  0.4794
 4225SOL     OW24307   2.230   0.346   4.398  0.6473  0.2906 -0.7255
 4225SOL    HW124308   2.263   0.412   4.458  1.6205 -0.6066 -0.2642
 4225SOL    HW224309   2.163   0.305   4.453  1.4128 -1.9490 -1.4725
 4226SOL     OW24310   3.575   3.671  15.447  0.3701 -0.1100 -0.0910
 4226SOL    HW124311   3.641   3.655  15.515 -0.6134 -0.5580  0.7552
 4226SOL    HW224312   3.597   3.592  15.397  0.0306 -0.7343  0.7384
 4227SOL     OW24313   0.961   1.832  11.486 -0.0096 -0.3000  0.2695
 4227SOL    HW124314   0.917   1.748  11.501 -0.9329 -0.1962 -1.7799
 4227SOL    HW224315   1.024   1.818  11.415  1.0804  1.4357  0.8994
 4228SOL     OW24316   3.192   0.543   5.494 -0.1042  0.4116  0.6691
 4228SOL    HW124317   3.267   0.519   5.547 -0.0060 -1.4771 -0.3274
 4228SOL    HW224318   3.192   0.638   5.505 -1.5614  0.6759 -1.5555
 4229SOL     OW24319   2.103   4.561  11.806  0.0610  0.0693 -0.7238
 4229SOL    HW124320   2.012   4.590  11.800  0.6944  2.2383  0.0269
 4229SOL    HW224321   2.103   4.560  11.901  1.4798  1.6076 -0.7043
 4230SOL     OW24322   1.797   4.292   9.792 -0.2946 -0.0519 -0.4506
 4230SOL    HW124323   1.804   4.371   9.738  1.4303 -0.2004 -0.4619
 4230SOL    HW224324   1.719   4.314   9.843  0.3723 -1.4267  1.1398
 4231SOL     OW24325   1.497   0.981   7.383 -0.0816  0.3449 -0.0466
 4231SOL    HW124326   1.588   1.007   7.370 -0.5877  1.7532 -0.8007
 4231SOL    HW224327   1.505   0.886   7.372 -0.5737  0.5465 -2.2631
 4232SOL     OW24328   3.740   1.280  16.227  0.0542 -0.4985  0.0189
 4232SOL    HW124329   3.797   1.352  16.256  0.5513 -0.6064 -0.6953
 4232SOL    HW224330   3.772   1.207  16.280  0.5058  0.3673  0.9263
 4233SOL     OW24331   2.293   4.255   1.223  0.0332 -0.5427  0.4087
 4233SOL    HW124332   2.375   4.236   1.177 -0.7693 -1.4302 -0.6671
 4233SOL    HW224333   2.305   4.341   1.262  2.0059 -1.3587  1.5795
 4234SOL     OW24334   0.679   2.593   1.497  0.2827 -0.2221  0.1218
 4234SOL    HW124335   0.601   2.648   1.488  0.1342 -0.0352  2.5144
 4234SOL    HW224336   0.730   2.654   1.445 -0.8105 -0.7345 -1.5398
 4235SOL     OW24337   3.709   2.427   4.724 -0.0938  0.5295 -0.6498
 4235SOL    HW124338   3.648   2.397   4.657 -1.6576 -1.6244  1.7278
 4235SOL    HW224339   3.662   2.416   4.807  0.4028 -0.9774 -0.5727
 4236SOL     OW24340   1.266   3.862  11.126 -0.0832  0.6931  0.1308
 4236SOL    HW124341   1.257   3.819  11.041  1.1508  1.1636 -0.2453
 4236SOL    HW224342   1.317   3.803  11.181 -0.1477  2.2093  1.8297
 4237SOL     OW24343   4.463   1.081   4.542 -0.5780  0.5385  0.1071
 4237SOL    HW124344   4.538   1.059   4.488 -1.0333  1.4393 -0.8971
 4237SOL    HW224345   4.413   1.003   4.569 -0.6587 -0.1166 -1.9800
 4238SOL     OW24346   3.429   2.375   0.105 -0.4174 -0.2810 -0.6275
 4238SOL    HW124347   3.521   2.351   0.096  0.1550  1.1672  1.3705
 4238SOL    HW224348   3.443   2.427   0.184  0.5020 -1.1521 -0.2197
 4239SOL     OW24349   4.511   2.605  10.715 -0.1569 -0.2600  0.4844
 4239SOL    HW124350   4.448   2.653  10.769  1.0390  0.1322  1.5304
 4239SOL    HW224351   4.530   2.673  10.651 -0.1795 -0.4793  0.2419
 4240SOL     OW24352   2.019   2.203  16.362  0.1303 -0.2978  0.7325
 4240SOL    HW124353   2.006   2.261  16.437  0.4169 -1.8994  2.0225
 4240SOL    HW224354   1.992   2.122  16.406 -0.0573 -1.1378 -0.9321
 4241SOL     OW24355   0.746   0.231  14.935  0.3255  0.5411 -0.1162
 4241SOL    HW124356   0.656   0.260  14.917  0.1440 -0.8442 -1.4203
 4241SOL    HW224357   0.797   0.311  14.946  3.2009 -1.5053  1.3465
 4242SOL     OW24358   3.428   1.097   5.031 -0.1297 -0.1876  0.3150
 4242SOL    HW124359   3.471   1.110   5.116 -2.1721  2.4326  0.9572
 4242SOL    HW224360   3.371   1.173   5.027 -0.5783 -0.4236  1.9758
 4243SOL     OW24361   2.824   4.240   2.502  0.3549 -0.4312  0.4101
 4243SOL    HW124362   2.842   4.150   2.473 -1.9446 -0.5025 -0.7465
 4243SOL    HW224363   2.879   4.298   2.449  0.6575 -0.2269  0.9426
 4244SOL     OW24364   0.112   1.811  14.318  0.5314  0.5127  0.7452
 4244SOL    HW124365   0.038   1.802  14.378  1.2202 -0.7321  1.4098
 4244SOL    HW224366   0.187   1.836  14.373  1.1431  0.0260  0.1352
 4245SOL     OW24367   0.372   1.340   7.129  0.0791  0.7690 -0.1395
 4245SOL    HW124368   0.437   1.341   7.059 -0.1949 -0.7974 -0.4229
 4245SOL    HW224369   0.296   1.299   7.086  0.8185 -0.5773 -0.1654
 4246SOL     OW24370   3.995   3.029   5.755 -0.2093 -0.4473  0.3434
 4246SOL    HW124371   4.087   3.048   5.741 -0.3110 -0.5681 -0.4935
 4246SOL    HW224372   3.979   3.066   5.841  1.0211  1.0953 -0.1029
 4247SOL     OW24373   1.038   4.111   4.532  0.3732 -0.4691  0.7513
 4247SOL    HW124374   1.027   4.129   4.625  1.6795  1.9753  0.4436
 4247SOL    HW224375   1.071   4.195   4.499 -0.9235  0.2577  1.3326
 4248SOL     OW24376   0.274   4.475   6.906 -0.6099  0.2854 -0.3310
 4248SOL    HW124377   0.183   4.449   6.916 -0.3723  0.1121  1.3194
 4248SOL    HW224378   0.285   4.509   6.995  2.6407  0.4887 -0.8081
 4249SOL     OW24379   2.758   3.408   4.306 -0.3830  0.5500 -0.2137
 4249SOL    HW124380   2.803   3.346   4.365  0.6413  1.8250  0.3540
 4249SOL    HW224381   2.796   3.496   4.311  1.5173 -0.3386  1.1934
 4250SOL     OW24382   3.582   0.409   4.547  0.0415 -0.0608 -0.0601
 4250SOL    HW124383   3.660   0.414   4.492 -0.8338 -0.3256 -1.3399
 4250SOL    HW224384   3.622   0.408   4.634  0.7815  0.9002 -0.3993
 4251SOL     OW24385   1.133   3.892   4.758 -0.2640  0.7062 -0.2496
 4251SOL    HW124386   1.078   3.891   4.836  2.7613 -0.4444  1.8893
 4251SOL    HW224387   1.066   3.912   4.693 -0.3141 -0.0393 -0.4372
 4252SOL     OW24388   2.346   1.866   9.240  0.0493 -0.3519  0.0054
 4252SOL    HW124389   2.400   1.918   9.181 -0.0890  0.2442  0.4025
 4252SOL    HW224390   2.269   1.869   9.183 -0.0275 -0.2104  0.1156
 4253SOL     OW24391   2.568   0.487  12.032 -0.0861 -0.5478 -0.2464
 4253SOL    HW124392   2.501   0.534  12.080 -0.2007 -1.8165  0.8429
 4253SOL    HW224393   2.518   0.407  12.011 -0.9970  0.2594 -1.1443
 4254SOL     OW24394   3.043   2.080   7.005  0.1147  0.3446  0.3723
 4254SOL    HW124395   2.952   2.065   6.981  0.7093 -2.5618 -0.1589
 4254SOL    HW224396   3.060   2.172   6.990 -1.3702  0.5263 -0.1571
 4255SOL     OW24397   3.551   1.298   7.404 -0.2766 -0.1115 -0.3733
 4255SOL    HW124398   3.638   1.317   7.368 -1.2820  1.9686 -1.7125
 4255SOL    HW224399   3.533   1.380   7.450 -0.9804 -0.4359 -0.0661
 4256SOL     OW24400   2.788   2.759  15.905  0.0390  0.0290  0.4821
 4256SOL    HW124401   2.769   2.839  15.856  1.7380  0.5070  0.6297
 4256SOL    HW224402   2.881   2.766  15.925  0.2137 -0.8581 -0.0198
 4257SOL     OW24403   0.143   3.484  14.747 -0.7795  0.1956  0.1570
 4257SOL    HW124404   0.171   3.556  14.690 -0.0805 -0.2215 -0.0315
 4257SOL    HW224405   0.166   3.520  14.833 -2.1478 -1.6268  1.2690
 4258SOL     OW24406   3.553   3.493   5.739 -0.6604  0.2250 -0.2749
 4258SOL    HW124407   3.582   3.428   5.803  0.4926  0.4392 -0.5928
 4258SOL    HW224408   3.600   3.571   5.766  0.7439 -0.8275  0.3308
 4259SOL     OW24409   1.152   2.640  12.741 -0.5131 -0.4253  0.0697
 4259SOL    HW124410   1.194   2.634  12.827 -1.1571  2.0270  0.5422
 4259SOL    HW224411   1.087   2.709  12.754  0.6258  0.3186  1.9078
 4260SOL     OW24412   3.014   3.787   3.681 -0.4545  0.4283  0.7161
 4260SOL    HW124413   3.010   3.788   3.776  1.6760 -0.8710  0.8291
 4260SOL    HW224414   2.926   3.817   3.658 -0.4965  0.8366  1.4069
 4261SOL     OW24415   3.621   1.653   3.426  0.3824  0.6188 -0.0541
 4261SOL    HW124416   3.620   1.642   3.331  1.9867  0.3827 -0.0424
 4261SOL    HW224417   3.711   1.650   3.460  0.0444  2.2460  0.9469
 4262SOL     OW24418   2.020   2.799   9.192  0.3283 -0.1641 -0.1468
 4262SOL    HW124419   2.038   2.880   9.144 -1.8274  0.0009 -0.6481
 4262SOL    HW224420   1.995   2.731   9.130  0.0811 -1.6516  1.5819
 4263SOL     OW24421   0.636   1.966   2.570 -0.0234  0.1120  0.0247
 4263SOL    HW124422   0.687   1.910   2.511  1.5571  2.7734 -1.1049
 4263SOL    HW224423   0.548   1.929   2.563 -1.8870  4.4263  0.9165
 4264SOL     OW24424   0.872   2.389   5.002  0.9439  0.4125 -0.3098
 4264SOL    HW124425   0.786   2.352   4.986  0.6191  0.4042  1.5172
 4264SOL    HW224426   0.845   2.481   5.013 -1.1689 -0.2331 -0.1288
 4265SOL     OW24427   1.336   0.429   3.572  0.1228 -0.5336  0.8381
 4265SOL    HW124428   1.357   0.400   3.484  2.1489 -0.0975  1.1708
 4265SOL    HW224429   1.255   0.385   3.598 -0.8817  0.8283  0.0605
 4266SOL     OW24430   1.640   1.533   0.285  0.3247  0.0830 -0.3648
 4266SOL    HW124431   1.572   1.533   0.217  0.0483 -0.0759 -0.0872
 4266SOL    HW224432   1.592   1.595   0.340  1.9215  0.0827  0.9915
 4267SOL     OW24433   3.850   4.517   3.401 -0.1461 -0.4969  0.7407
 4267SOL    HW124434   3.786   4.585   3.378  0.4470  0.3696  1.6348
 4267SOL    HW224435   3.909   4.534   3.327  0.0792  0.4876  1.1375
 4268SOL     OW24436   1.759   0.905   3.231 -0.3787  0.9945 -0.3285
 4268SOL    HW124437   1.799   0.916   3.317 -0.8919  1.8980 -0.2043
 4268SOL    HW224438   1.795   0.979   3.182  2.3279 -0.0654  0.0793
 4269SOL     OW24439   2.402   1.155   6.433  0.8402  0.0520 -0.1403
 4269SOL    HW124440   2.480   1.209   6.443  1.1864 -0.1355 -1.8380
 4269SOL    HW224441   2.344   1.216   6.387 -0.3573 -2.2555 -1.7084
 4270SOL     OW24442   1.422   1.598  10.089  0.7463  0.1692 -0.6458
 4270SOL    HW124443   1.358   1.554  10.145  2.3735 -0.6874  0.5664
 4270SOL    HW224444   1.487   1.527  10.089 -0.7824 -1.2470 -0.2462
 4271SOL     OW24445   0.895   0.853   5.553  0.5379 -0.3765  0.6892
 4271SOL    HW124446   0.927   0.942   5.557 -0.6917 -0.0018  2.1940
 4271SOL    HW224447   0.920   0.831   5.463  0.1128  0.4984  0.3569
 4272SOL     OW24448   4.594   4.442   4.447 -0.6128 -0.2034 -0.0091
 4272SOL    HW124449   4.567   4.387   4.373  2.0591 -2.3612  0.6362
 4272SOL    HW224450   4.676   4.480   4.414 -0.2520 -3.3040 -2.6998
 4273SOL     OW24451   4.276   0.695   7.196 -0.4456  0.4324  0.3726
 4273SOL    HW124452   4.312   0.779   7.224  1.2767  0.0190 -0.5948
 4273SOL    HW224453   4.186   0.720   7.179 -0.3367 -0.1170 -1.0093
 4274SOL     OW24454   3.566   3.427  17.575 -0.3742  0.5028  0.1335
 4274SOL    HW124455   3.643   3.476  17.603 -0.4407  1.1191 -0.7656
 4274SOL    HW224456   3.589   3.339  17.605  0.8793  0.8980  0.3044
 4275SOL     OW24457   4.354   4.612   9.893  0.1400  0.2133  0.1298
 4275SOL    HW124458   4.260   4.630   9.902 -0.1057 -1.6357  1.2036
 4275SOL    HW224459   4.372   4.690   9.842 -0.6533 -0.0631 -0.5823
 4276SOL     OW24460   2.138   1.108   8.927  0.4388  0.5668  0.1176
 4276SOL    HW124461   2.222   1.153   8.923  0.6392  0.2745  0.9942
 4276SOL    HW224462   2.114   1.115   9.019  0.3500 -0.8116  0.2062
 4277SOL     OW24463   1.498   1.036  11.713  0.0373 -0.7156  0.7218
 4277SOL    HW124464   1.567   1.046  11.648  0.7775 -0.3098  1.5680
 4277SOL    HW224465   1.538   1.040  11.799  0.7896 -0.1514  0.3454
 4278SOL     OW24466   4.135   4.336   8.582  0.4675 -0.4298  0.3431
 4278SOL    HW124467   4.110   4.326   8.673 -2.4667  0.2702 -0.4032
 4278SOL    HW224468   4.077   4.275   8.537 -1.5961  0.9960  1.1041
 4279SOL     OW24469   2.975   3.721   6.556 -0.3681  0.0075 -0.2738
 4279SOL    HW124470   2.904   3.677   6.509 -1.4933  0.1734  1.2982
 4279SOL    HW224471   3.059   3.709   6.512  0.5944  1.9202  1.0686
 4280SOL     OW24472   1.839   2.515   7.678 -0.0993 -0.7068 -0.4296
 4280SOL    HW124473   1.910   2.462   7.644  2.1236  0.1248  2.9334
 4280SOL    HW224474   1.866   2.606   7.666  0.0825 -0.9008 -1.5590
 4281SOL     OW24475   1.279   4.483   6.903  0.0515 -0.1179 -0.0388
 4281SOL    HW124476   1.239   4.567   6.922  0.5181  0.4977 -1.7600
 4281SOL    HW224477   1.226   4.448   6.832 -1.0849  1.0933  0.2190
 4282SOL     OW24478   0.224   0.780   8.620  0.3890 -0.0254 -0.3180
 4282SOL    HW124479   0.278   0.779   8.699  0.7836  3.9176 -0.5375
 4282SOL    HW224480   0.183   0.862   8.646  0.8882 -0.4480  1.8162
 4283SOL     OW24481   3.727   2.370   5.998 -0.0768  0.2026 -0.1813
 4283SOL    HW124482   3.657   2.427   6.027  0.1447 -0.7185  2.1890
 4283SOL    HW224483   3.689   2.321   5.925 -2.1973 -1.8054  2.2390
 4284SOL     OW24484   3.676   2.257  13.815  0.5324  0.0286  0.0711
 4284SOL    HW124485   3.620   2.180  13.810 -0.2759  0.4784  2.4476
 4284SOL    HW224486   3.763   2.216  13.812  1.8505  2.7891  0.2708
 4285SOL     OW24487   1.784   4.629  15.964 -0.1835 -0.1880  0.1598
 4285SOL    HW124488   1.851   4.612  15.898 -0.7902  0.1837 -0.5475
 4285SOL    HW224489   1.729   4.690  15.914  0.1706 -0.5524 -0.6591
 4286SOL     OW24490   3.509   0.753   5.128  0.0574 -0.7672 -0.2415
 4286SOL    HW124491   3.479   0.770   5.218  0.8729  0.1806 -0.1465
 4286SOL    HW224492   3.593   0.799   5.134  0.1191 -0.7141 -1.7038
 4287SOL     OW24493   1.552   2.254  14.552 -0.0729  0.3418  0.2938
 4287SOL    HW124494   1.597   2.248  14.468  1.5570  0.2748  1.1699
 4287SOL    HW224495   1.606   2.188  14.594  0.0443 -0.0274 -0.4332
 4288SOL     OW24496   4.467   1.412   6.064 -0.0171 -0.1644  0.1612
 4288SOL    HW124497   4.546   1.467   6.064  2.3232 -3.5469 -0.3372
 4288SOL    HW224498   4.517   1.331   6.072 -0.4018 -0.5567 -1.3725
 4289SOL     OW24499   0.060   0.347   6.731  0.3917  0.1398 -0.2326
 4289SOL    HW124500   0.087   0.319   6.818 -0.6770 -1.5216 -0.4391
 4289SOL    HW224501   4.726   0.401   6.756  0.1267 -1.1415  1.7248
 4290SOL     OW24502   4.138   1.478   7.158  0.1996  0.2122  0.0458
 4290SOL    HW124503   4.139   1.560   7.108 -0.7007 -0.0994 -0.4809
 4290SOL    HW224504   4.083   1.425   7.099 -1.5264 -0.0473  1.9082
 4291SOL     OW24505   4.007   4.479   2.437  0.0324 -0.1896  0.5784
 4291SOL    HW124506   4.014   4.451   2.346 -0.2765 -0.9151  0.7828
 4291SOL    HW224507   4.077   4.427   2.474  0.2407 -0.3988 -0.1052
 4292SOL     OW24508   2.311   0.675   5.313 -0.4288  0.2255  0.1853
 4292SOL    HW124509   2.248   0.729   5.361 -1.6626 -0.6794 -0.4385
 4292SOL    HW224510   2.285   0.693   5.223 -0.2825 -0.5236 -0.0048
 4293SOL     OW24511   2.422   3.859  17.067  0.2170 -0.0870 -0.3543
 4293SOL    HW124512   2.424   3.835  16.974 -0.3338  0.7168 -0.5777
 4293SOL    HW224513   2.504   3.823  17.100 -0.0346 -0.9958 -0.7162
 4294SOL     OW24514   0.017   1.921   8.166 -0.2664 -0.5253  0.1344
 4294SOL    HW124515   0.103   1.924   8.125  0.1067  0.5518  1.0023
 4294SOL    HW224516   0.028   1.860   8.239 -0.6667 -0.2626  0.4102
 4295SOL     OW24517   2.094   2.458  14.647  0.6451  0.1256  0.3139
 4295SOL    HW124518   2.008   2.417  14.643  0.7124  0.0060  0.0931
 4295SOL    HW224519   2.117   2.426  14.734 -0.5144  0.1104  0.6138
 4296SOL     OW24520   0.971   2.036   4.583  0.0325 -0.4360  0.7606
 4296SOL    HW124521   0.957   2.086   4.503  3.2530 -1.7384 -0.6428
 4296SOL    HW224522   1.039   2.090   4.624 -0.4132  0.6525  0.0727
 4297SOL     OW24523   4.564   3.555   6.148  0.4890  0.1368 -0.0256
 4297SOL    HW124524   4.605   3.641   6.160  0.7224  0.1367 -0.8098
 4297SOL    HW224525   4.627   3.493   6.183  2.4236  0.7576 -2.4305
 4298SOL     OW24526   4.661   1.369   5.635  0.2854  0.3233 -0.3089
 4298SOL    HW124527   4.631   1.371   5.544  1.7088  1.4984 -0.7622
 4298SOL    HW224528   4.689   1.278   5.631  1.0907  0.5353  0.3099
 4299SOL     OW24529   2.334   2.518   2.350 -0.1415  0.0931  0.5738
 4299SOL    HW124530   2.275   2.562   2.288 -1.0004  1.0068  2.0343
 4299SOL    HW224531   2.349   2.436   2.303 -2.3017  0.7471 -1.2799
 4300SOL     OW24532   0.805   3.069   6.445 -0.4929  0.3230  0.8007
 4300SOL    HW124533   0.740   3.060   6.515 -1.5371 -0.0086 -0.2053
 4300SOL    HW224534   0.876   3.041   6.502 -1.3160 -1.7086  0.8047
 4301SOL     OW24535   1.677   3.774   2.923  0.7040 -0.2067  0.1334
 4301SOL    HW124536   1.680   3.870   2.928  1.4407 -0.2056 -0.3150
 4301SOL    HW224537   1.701   3.746   2.835 -1.2799 -0.3992 -0.3401
 4302SOL     OW24538   1.052   3.160  10.495  0.0662 -0.1634 -0.5178
 4302SOL    HW124539   1.145   3.141  10.498 -0.1169 -1.2410 -2.0325
 4302SOL    HW224540   1.052   3.256  10.493 -2.2806 -0.0982  1.8486
 4303SOL     OW24541   2.205   0.219   8.808  0.0736  0.2658  0.8635
 4303SOL    HW124542   2.181   0.128   8.790  1.2063  0.3621 -1.1660
 4303SOL    HW224543   2.242   0.243   8.723  0.3558  0.5542  1.0728
 4304SOL     OW24544   3.156   3.373  13.302  0.6061 -0.4572  0.1480
 4304SOL    HW124545   3.098   3.338  13.235 -0.0798 -0.0365  0.5237
 4304SOL    HW224546   3.119   3.460  13.314  0.8038 -0.4408  0.6741
 4305SOL     OW24547   2.883   1.314  12.479 -0.7768  0.0345  0.3302
 4305SOL    HW124548   2.855   1.400  12.448 -0.7433 -0.3069 -0.6426
 4305SOL    HW224549   2.848   1.308  12.568  0.2933  0.6791  0.8033
 4306SOL     OW24550   0.942   2.773   1.906  0.6876  0.3825 -0.6382
 4306SOL    HW124551   0.936   2.690   1.859  1.6791  1.2533 -2.3289
 4306SOL    HW224552   0.986   2.746   1.987 -0.3334  1.1268  0.1624
 4307SOL     OW24553   4.585   2.353   5.985  0.1862 -0.1711 -0.0018
 4307SOL    HW124554   4.602   2.384   5.896 -1.7063 -0.1980 -0.3687
 4307SOL    HW224555   4.640   2.275   5.980  1.0041  0.5413 -2.1768
 4308SOL     OW24556   4.246   3.898   1.847 -0.4210  0.3126  0.5784
 4308SOL    HW124557   4.179   3.960   1.877  1.4929  0.9859  3.4766
 4308SOL    HW224558   4.331   3.920   1.885 -0.2231  2.0390 -0.8645
 4309SOL     OW24559   4.248   0.640   3.089 -0.0060 -0.0070  0.1741
 4309SOL    HW124560   4.179   0.628   3.154 -1.6856  0.4409 -1.5103
 4309SOL    HW224561   4.325   0.592   3.118  0.3549 -0.1585 -1.0112
 4310SOL     OW24562   3.907   0.564   6.849  0.0856  0.3852 -0.5210
 4310SOL    HW124563   3.842   0.497   6.871  0.8493 -0.4070 -0.6423
 4310SOL    HW224564   3.973   0.504   6.812 -0.1654 -0.2537  0.0608
 4311SOL     OW24565   3.669   3.955   3.932  0.0413  0.3874 -0.8505
 4311SOL    HW124566   3.647   4.031   3.877 -1.6324  2.9870  3.3969
 4311SOL    HW224567   3.629   3.978   4.016  0.3873 -1.4778 -0.1720
 4312SOL     OW24568   3.445   1.020   2.571 -0.3056  0.1862 -0.3463
 4312SOL    HW124569   3.403   0.942   2.535  0.4154 -0.1061 -0.5631
 4312SOL    HW224570   3.425   1.078   2.498 -1.6098  0.6553  0.3827
 4313SOL     OW24571   0.024   1.650   7.304  0.9192 -0.0132  0.0307
 4313SOL    HW124572   0.069   1.597   7.238  0.0153  0.2914 -0.8305
 4313SOL    HW224573   4.726   1.587   7.365 -0.7279  2.0734  1.1660
 4314SOL     OW24574   3.898   1.747   7.787  0.4636 -0.1139  0.2218
 4314SOL    HW124575   3.902   1.733   7.692 -1.6545  1.6265 -0.1125
 4314SOL    HW224576   3.939   1.833   7.789 -2.1067  1.1179 -0.4007
 4315SOL     OW24577   3.005   0.353  12.606 -0.0905  0.0672 -0.2864
 4315SOL    HW124578   2.956   0.404  12.671 -2.1354 -0.9528 -1.0129
 4315SOL    HW224579   2.924   0.307  12.584 -1.7032  2.5385  0.4082
 4316SOL     OW24580   4.141   1.051   4.445 -0.0634 -0.2994  1.1928
 4316SOL    HW124581   4.061   1.006   4.418  0.0172  0.0317  0.4278
 4316SOL    HW224582   4.186   0.971   4.474 -1.2227 -1.2980  0.2080
 4317SOL     OW24583   1.176   4.012   3.467 -0.7399 -1.0198 -0.3560
 4317SOL    HW124584   1.091   4.037   3.504 -0.2032 -0.9788  0.8307
 4317SOL    HW224585   1.225   3.977   3.542 -0.6060  1.5394  0.7539
 4318SOL     OW24586   3.438   3.618  10.178  0.3726 -0.1036  0.0786
 4318SOL    HW124587   3.473   3.664  10.254 -0.6431 -1.5165  1.4017
 4318SOL    HW224588   3.424   3.680  10.107  1.0519  2.0201  1.8142
 4319SOL     OW24589   2.957   1.807   2.138 -0.7622  0.4204 -0.2500
 4319SOL    HW124590   2.879   1.801   2.192 -0.8096  1.9617 -0.1643
 4319SOL    HW224591   3.030   1.814   2.200 -0.2375  0.4012 -0.8609
 4320SOL     OW24592   2.177   3.310   4.477  0.2655  0.0156 -0.3899
 4320SOL    HW124593   2.265   3.277   4.494  0.3723  1.4524  1.8649
 4320SOL    HW224594   2.163   3.386   4.533 -1.4458  0.1053 -0.9333
 4321SOL     OW24595   2.494   0.806   3.344  0.1648 -0.2101  0.0534
 4321SOL    HW124596   2.587   0.784   3.343  0.3053  0.3982 -1.1591
 4321SOL    HW224597   2.493   0.879   3.406  2.0236 -1.9565  2.1062
 4322SOL     OW24598   1.049   0.608   5.568 -0.3502  0.7309  0.2676
 4322SOL    HW124599   1.061   0.696   5.602 -0.6810  0.7931  0.2273
 4322SOL    HW224600   1.030   0.638   5.479  1.2201 -0.2375 -0.3991
 4323SOL     OW24601   1.390   1.171   0.936 -0.1125 -0.1933  0.1253
 4323SOL    HW124602   1.482   1.161   0.963  0.4853 -0.3681 -1.9229
 4323SOL    HW224603   1.363   1.087   0.973  1.1534 -0.1780  1.1185
 4324SOL     OW24604   3.832   2.766   0.020 -0.5771  0.6904  0.0847
 4324SOL    HW124605   3.744   2.738  17.758  1.0892 -1.6241 -3.7615
 4324SOL    HW224606   3.839   2.735   0.110 -2.0927  0.4157  0.0913
 4325SOL     OW24607   1.860   2.952   4.585  0.9885  0.9077  0.3792
 4325SOL    HW124608   1.772   2.953   4.547  1.1322  0.2274  0.0371
 4325SOL    HW224609   1.905   3.012   4.527  1.5849 -0.0771 -0.1728
 4326SOL     OW24610   0.849   4.357   0.708 -0.0863  0.6425 -0.5470
 4326SOL    HW124611   0.858   4.326   0.618 -1.1650  1.5065 -0.9595
 4326SOL    HW224612   0.916   4.426   0.707 -0.7345  1.2929  0.6837
 4327SOL     OW24613   3.421   1.667   6.974  0.6829  0.0299  0.0629
 4327SOL    HW124614   3.369   1.679   7.053 -2.2195 -1.8848 -1.5567
 4327SOL    HW224615   3.487   1.602   6.995  0.2536 -0.8523 -1.3089
 4328SOL     OW24616   4.101   1.733   0.914 -0.5038 -0.0474 -0.0412
 4328SOL    HW124617   4.056   1.731   0.830  0.7801 -0.0134 -0.7259
 4328SOL    HW224618   4.045   1.776   0.978  0.2698  1.5182 -0.4226
 4329SOL     OW24619   4.355   1.102   3.858  0.1812  0.8155 -0.3559
 4329SOL    HW124620   4.449   1.089   3.864  0.3349  1.2123 -1.9072
 4329SOL    HW224621   4.344   1.117   3.764 -0.1247  0.2284 -0.4184
 4330SOL     OW24622   1.139   4.400   5.017  0.0098  0.1581 -0.2039
 4330SOL    HW124623   1.077   4.378   5.088 -0.1000  2.6825  0.4683
 4330SOL    HW224624   1.210   4.345   5.049 -1.2285 -0.9980  0.5952
 4331SOL     OW24625   0.376   1.192   4.884  0.2875 -0.2833  1.0457
 4331SOL    HW124626   0.427   1.205   4.803 -1.0783 -0.4023  0.1763
 4331SOL    HW224627   0.390   1.268   4.940 -0.5930 -0.5209  1.5682
 4332SOL     OW24628   4.169   3.355   9.691 -0.6505  0.2989  0.5703
 4332SOL    HW124629   4.122   3.303   9.756 -0.0363  1.1674  1.7053
 4332SOL    HW224630   4.261   3.334   9.706 -0.6734 -0.4703 -0.3779
 4333SOL     OW24631   3.029   2.844   2.674 -0.1105  0.1406 -0.2210
 4333SOL    HW124632   2.946   2.878   2.708  0.3317  0.3446  0.6534
 4333SOL    HW224633   3.086   2.851   2.751  1.7334  0.6462 -1.6268
 4334SOL     OW24634   0.087   3.182   2.170  0.0104 -0.6803  0.4352
 4334SOL    HW124635   0.021   3.249   2.188 -1.0597 -1.9099  1.0916
 4334SOL    HW224636   0.048   3.124   2.104  2.2017  0.0414 -1.4898
 4335SOL     OW24637   1.283   3.081   7.715 -0.2535 -0.3077  0.5110
 4335SOL    HW124638   1.341   3.017   7.756  0.8855 -1.3934 -2.7938
 4335SOL    HW224639   1.280   3.039   7.629 -0.5326  0.3440  0.2069
 4336SOL     OW24640   3.263   2.832   6.832  0.4586  0.1244  0.2777
 4336SOL    HW124641   3.277   2.897   6.901 -0.6210  1.6163 -0.9483
 4336SOL    HW224642   3.283   2.755   6.887  1.9811  0.3897  0.0909
 4337SOL     OW24643   0.139   2.826  11.127  0.0449 -0.0278  0.2110
 4337SOL    HW124644   0.047   2.800  11.134 -0.2310  0.9978  0.3988
 4337SOL    HW224645   0.142   2.831  11.032 -1.0245 -1.9057  0.0761
 4338SOL     OW24646   1.414   1.969  15.239  0.6596  0.2330 -0.4497
 4338SOL    HW124647   1.429   2.063  15.244  0.4001  0.2695 -0.3826
 4338SOL    HW224648   1.354   1.966  15.165 -0.3353  1.0296  0.3403
 4339SOL     OW24649   2.695   3.943   6.833  0.3023 -0.3142  0.1622
 4339SOL    HW124650   2.650   3.862   6.811 -0.9218  0.0558  1.2962
 4339SOL    HW224651   2.742   3.954   6.751  0.4568  0.7822  0.3938
 4340SOL     OW24652   1.922   1.762   1.921 -0.2727  0.4547  0.2369
 4340SOL    HW124653   1.936   1.702   1.994  2.3384 -0.1487 -0.7428
 4340SOL    HW224654   1.938   1.700   1.849  2.1225 -0.4819  1.5551
 4341SOL     OW24655   4.674   0.879   5.454 -0.2070 -0.1994  0.4366
 4341SOL    HW124656   4.632   0.869   5.368 -1.0967  1.2966  0.7030
 4341SOL    HW224657   4.620   0.949   5.488 -1.2606 -1.5547  1.5623
 4342SOL     OW24658   3.913   0.107   6.894  0.1364  0.2597  0.5652
 4342SOL    HW124659   3.941   0.119   6.803 -2.6585 -1.1629 -0.5029
 4342SOL    HW224660   3.889   0.199   6.908  0.9843  0.0855  3.0059
 4343SOL     OW24661   1.520   1.672  12.139 -0.8059  0.3788 -0.1525
 4343SOL    HW124662   1.425   1.666  12.125 -0.5805 -0.3131 -1.3506
 4343SOL    HW224663   1.536   1.602  12.201 -1.4720 -0.8664 -1.3781
 4344SOL     OW24664   0.662   4.499   5.376 -1.1775 -0.6432  0.3478
 4344SOL    HW124665   0.720   4.570   5.403 -1.9172 -0.2408  0.8540
 4344SOL    HW224666   0.630   4.485   5.465 -0.8014  1.3223  0.7804
 4345SOL     OW24667   1.824   2.325   6.118  0.1320  0.4540 -0.1021
 4345SOL    HW124668   1.867   2.328   6.033  1.5441 -0.2254  0.5792
 4345SOL    HW224669   1.825   2.230   6.130  1.4486  0.2858 -1.6161
 4346SOL     OW24670   1.287   2.815   3.844 -0.4968 -0.1693 -0.0785
 4346SOL    HW124671   1.356   2.805   3.778 -0.8092 -2.0030 -0.1402
 4346SOL    HW224672   1.335   2.860   3.913 -2.6067  1.8643  0.0358
 4347SOL     OW24673   3.713   0.830   4.670  0.0898 -0.1292 -0.2435
 4347SOL    HW124674   3.749   0.811   4.583  2.0827  1.7435  0.2026
 4347SOL    HW224675   3.619   0.815   4.656 -0.2345  1.2379  0.5269
 4348SOL     OW24676   0.134   4.571   4.990 -0.5608 -0.0905  0.4181
 4348SOL    HW124677   0.184   4.651   5.008  0.4456 -0.4575 -0.7510
 4348SOL    HW224678   0.054   4.582   5.041 -1.0553 -1.5522 -0.0303
 4349SOL     OW24679   3.760   2.157   3.760  0.3182 -0.0726 -0.0201
 4349SOL    HW124680   3.739   2.075   3.716  1.5190 -0.5249  0.2421
 4349SOL    HW224681   3.856   2.159   3.760  0.3266 -0.0840  2.6555
 4350SOL     OW24682   1.815   1.200   9.345 -0.0732  0.4592  0.1655
 4350SOL    HW124683   1.869   1.124   9.324 -1.3046 -0.4453  0.2685
 4350SOL    HW224684   1.755   1.203   9.270  0.2879 -1.5814 -0.2012
 4351SOL     OW24685   2.961   0.898   2.723 -0.6541 -0.0565 -0.3612
 4351SOL    HW124686   3.044   0.875   2.767  0.0639 -0.5505 -1.9621
 4351SOL    HW224687   2.921   0.957   2.786 -1.8924 -1.8598  0.5526
 4352SOL     OW24688   0.701   0.265   4.829 -0.2557 -0.0276  0.1675
 4352SOL    HW124689   0.669   0.252   4.918  0.7012  1.2490  0.7037
 4352SOL    HW224690   0.727   0.176   4.804 -1.1103 -0.8384  2.1642
 4353SOL     OW24691   4.107   4.408  13.853 -0.1229  0.3361 -0.0608
 4353SOL    HW124692   4.113   4.403  13.949  1.0428 -2.0114 -0.2486
 4353SOL    HW224693   4.084   4.315  13.843  3.7117 -0.6313  0.1793
 4354SOL     OW24694   4.415   3.118   3.936  0.2826  0.5892 -0.2787
 4354SOL    HW124695   4.444   3.131   3.845  0.3300 -1.9337 -0.6115
 4354SOL    HW224696   4.426   3.024   3.942  0.2466  0.5025 -1.5981
 4355SOL     OW24697   3.902   1.356   6.789  0.4305  0.1004  0.1743
 4355SOL    HW124698   3.940   1.386   6.707  0.4739  0.1113  0.1987
 4355SOL    HW224699   3.916   1.262   6.772  1.7185  0.1183  1.1798
 4356SOL     OW24700   1.660   4.287   1.581 -0.4721  0.0294  0.5551
 4356SOL    HW124701   1.576   4.261   1.617 -0.5157 -0.2851  0.2265
 4356SOL    HW224702   1.688   4.363   1.632 -1.1487 -0.5901  1.8243
 4357SOL     OW24703   1.548   1.077   4.722 -0.0029 -0.2967  0.0359
 4357SOL    HW124704   1.495   1.077   4.802  2.2241 -1.8840  1.5047
 4357SOL    HW224705   1.634   1.068   4.762  0.2113  0.8687 -0.1606
 4358SOL     OW24706   2.275   0.660   2.055 -0.2800 -0.1471 -0.3640
 4358SOL    HW124707   2.212   0.732   2.048  0.2756  0.3566 -0.2248
 4358SOL    HW224708   2.248   0.627   1.969  0.9374 -1.4667 -0.2287
 4359SOL     OW24709   0.014   0.660   1.520 -0.6373  0.2825  0.0664
 4359SOL    HW124710   0.002   0.592   1.587  3.8949 -0.1056  0.4392
 4359SOL    HW224711   4.700   0.621   1.452  0.5670 -2.4437  0.6674
 4360SOL     OW24712   2.051   0.794   2.075  0.4722  0.0135 -0.5874
 4360SOL    HW124713   1.955   0.804   2.072  0.3929 -1.5608 -3.6230
 4360SOL    HW224714   2.070   0.844   2.154  0.3364  2.2586 -1.9507
 4361SOL     OW24715   1.350   3.365   2.868 -0.4745  0.0328 -0.4361
 4361SOL    HW124716   1.410   3.378   2.941 -2.1698 -1.0678  1.1527
 4361SOL    HW224717   1.312   3.286   2.906  1.4623 -0.6579  0.0646
 4362SOL     OW24718   3.627   1.670   9.301 -0.0904  0.3282 -0.2885
 4362SOL    HW124719   3.688   1.649   9.231  0.8319  1.9655  0.0268
 4362SOL    HW224720   3.689   1.702   9.367  0.5389  2.0406 -1.7159
 4363SOL     OW24721   2.270   2.755   8.051 -0.2617 -0.0686  0.0486
 4363SOL    HW124722   2.238   2.798   8.130  1.7089  1.8126 -0.1620
 4363SOL    HW224723   2.184   2.758   8.008  0.2869  0.7995 -0.9944
 4364SOL     OW24724   3.545   1.813  14.295 -0.5468  0.2403 -0.2090
 4364SOL    HW124725   3.584   1.882  14.241 -1.3865  0.4667 -0.5374
 4364SOL    HW224726   3.609   1.824  14.365 -0.7255 -2.3723  0.3586
 4365SOL     OW24727   2.591   4.573   7.835  0.3903  0.2376  0.2401
 4365SOL    HW124728   2.519   4.570   7.772  0.2886  2.4520  0.2768
 4365SOL    HW224729   2.664   4.565   7.774  0.3443  2.6931 -0.1106
 4366SOL     OW24730   4.363   1.961   4.746  0.2124  0.4204  0.4435
 4366SOL    HW124731   4.275   1.998   4.741 -0.4523 -1.0067  1.6943
 4366SOL    HW224732   4.378   1.982   4.838  0.8868  1.3166  0.1268
 4367SOL     OW24733   3.514   1.148   0.785  0.0194  0.1848 -0.0014
 4367SOL    HW124734   3.429   1.191   0.792  0.7123  1.4898  0.3526
 4367SOL    HW224735   3.575   1.219   0.804 -0.1285  0.6687 -1.3159
 4368SOL     OW24736   3.043   3.966   3.377  0.2852  0.1280  0.0540
 4368SOL    HW124737   3.138   3.953   3.367 -0.3044 -3.1058 -1.1892
 4368SOL    HW224738   3.009   3.881   3.349 -0.7062  0.1149  1.3268
 4369SOL     OW24739   4.289   2.771   6.602  0.3208  0.2204  0.3592
 4369SOL    HW124740   4.379   2.803   6.598  0.2186  0.4014 -0.5152
 4369SOL    HW224741   4.294   2.729   6.688 -0.6992 -0.8235 -0.1035
 4370SOL     OW24742   1.860   2.579  11.765  0.8939 -0.3841 -0.9936
 4370SOL    HW124743   1.840   2.576  11.672  3.6206 -3.8331 -1.4738
 4370SOL    HW224744   1.822   2.661  11.797  0.6394 -0.2501 -1.6529
 4371SOL     OW24745   1.578   1.212   5.058 -0.3044  0.3988  0.2334
 4371SOL    HW124746   1.630   1.136   5.032  2.1624  1.5997  1.5944
 4371SOL    HW224747   1.605   1.230   5.148  2.1096  0.3625 -0.4931
 4372SOL     OW24748   3.911   4.387  16.644  0.4314 -0.1563  0.9183
 4372SOL    HW124749   3.981   4.329  16.673  2.0680  1.1258 -0.4887
 4372SOL    HW224750   3.832   4.352  16.684  0.3604 -0.3765  0.5830
 4373SOL     OW24751   1.676   3.811   4.967 -0.3785 -0.6598  1.0344
 4373SOL    HW124752   1.640   3.816   4.878  0.1592 -1.4652  0.7786
 4373SOL    HW224753   1.672   3.717   4.979  1.1352 -0.9487 -0.6612
 4374SOL     OW24754   4.658   2.208   5.483  0.0198  0.4179 -0.1922
 4374SOL    HW124755   4.715   2.144   5.527 -0.8096  1.2349  2.0672
 4374SOL    HW224756   4.576   2.161   5.499 -0.4924  1.5034  0.3158
 4375SOL     OW24757   2.594   0.674  12.732 -0.1592 -0.3529 -0.1822
 4375SOL    HW124758   2.581   0.767  12.750 -1.5793 -0.5778 -0.0549
 4375SOL    HW224759   2.511   0.636  12.760 -0.1788 -1.0923 -1.2249
 4376SOL     OW24760   1.576   1.757   0.909 -0.0172  0.2591  0.3929
 4376SOL    HW124761   1.530   1.800   0.981 -1.1741  1.6275 -1.1427
 4376SOL    HW224762   1.644   1.713   0.959 -0.3652 -0.8645 -0.1166
 4377SOL     OW24763   2.942   1.425   2.548  0.0418  0.0968 -0.6037
 4377SOL    HW124764   2.849   1.425   2.526 -0.6198 -2.1167  2.1686
 4377SOL    HW224765   2.973   1.372   2.474 -0.6168 -0.2993 -0.6037
 4378SOL     OW24766   2.216   1.633  16.522  0.2733 -0.1960 -0.0963
 4378SOL    HW124767   2.241   1.713  16.476 -3.4548  0.9367 -0.1358
 4378SOL    HW224768   2.279   1.629  16.594  1.2698  0.5299 -0.9266
 4379SOL     OW24769   2.330   1.105   9.537  0.7306  0.3821 -0.0541
 4379SOL    HW124770   2.348   1.103   9.631  1.5659  0.3337 -0.2112
 4379SOL    HW224771   2.257   1.166   9.537 -0.4924 -1.0832 -1.7740
 4380SOL     OW24772   1.069   1.020   3.691 -0.2439  0.3430 -0.5868
 4380SOL    HW124773   1.037   0.952   3.632  0.4894  0.7990 -1.5168
 4380SOL    HW224774   0.991   1.075   3.689  1.7135  3.1139 -0.0971
 4381SOL     OW24775   0.615   2.327   8.521 -0.4246 -0.7131  0.5802
 4381SOL    HW124776   0.554   2.256   8.539 -2.2792  0.8248  0.3559
 4381SOL    HW224777   0.681   2.321   8.591  0.5813 -0.1805 -0.3255
 4382SOL     OW24778   1.615   1.332  11.647 -0.0217 -0.8064  0.1193
 4382SOL    HW124779   1.604   1.240  11.671 -1.0947 -0.9156 -0.8536
 4382SOL    HW224780   1.692   1.360  11.698  0.2993 -0.4223 -0.5834
 4383SOL     OW24781   0.506   2.263  15.960 -0.3038 -0.4387 -0.4275
 4383SOL    HW124782   0.488   2.170  15.972 -1.3331 -0.3522 -1.2854
 4383SOL    HW224783   0.514   2.296  16.050 -2.0381 -0.7406 -0.1757
 4384SOL     OW24784   3.973   0.361   5.186  0.3012  0.2696 -0.1473
 4384SOL    HW124785   3.962   0.294   5.119  1.7083 -1.6596  1.5478
 4384SOL    HW224786   4.056   0.399   5.157  0.0746  1.9182  1.3515
 4385SOL     OW24787   0.764   1.436   2.430 -0.0144 -0.5626 -0.3681
 4385SOL    HW124788   0.738   1.456   2.520  1.8627 -1.5513  0.3943
 4385SOL    HW224789   0.688   1.386   2.402 -0.9683  0.8693 -0.2715
 4386SOL     OW24790   2.998   3.034   8.040 -0.4904 -0.1027 -0.1096
 4386SOL    HW124791   3.076   3.042   7.984 -0.3168 -0.3550  0.0942
 4386SOL    HW224792   3.006   3.122   8.076 -2.6357 -0.8579  2.1881
 4387SOL     OW24793   3.562   4.389   8.394  0.4347 -0.0716 -0.2881
 4387SOL    HW124794   3.571   4.453   8.464 -2.2050 -0.0486  0.0569
 4387SOL    HW224795   3.575   4.439   8.314  0.9197 -2.3470 -1.6386
 4388SOL     OW24796   1.715   3.146   0.323 -0.5221 -0.0021  0.0494
 4388SOL    HW124797   1.731   3.160   0.416 -1.9904 -0.2043  0.3249
 4388SOL    HW224798   1.680   3.057   0.323  0.7496 -0.5182 -0.9817
 4389SOL     OW24799   4.560   0.273   4.680  0.4049  0.4858 -0.3944
 4389SOL    HW124800   4.571   0.218   4.602 -0.6926 -0.9400  0.4441
 4389SOL    HW224801   4.489   0.225   4.724  0.0053  1.2504 -0.2122
 4390SOL     OW24802   2.071   2.446  13.068 -0.1866  0.7230 -0.4324
 4390SOL    HW124803   2.090   2.361  13.027 -0.8512  0.9723 -1.2537
 4390SOL    HW224804   2.152   2.495  13.052  1.1343 -0.6566  1.9453
 4391SOL     OW24805   0.318   2.542  10.917  0.0508  0.4025 -0.3297
 4391SOL    HW124806   0.283   2.527  11.005 -1.6013  0.6330 -0.9499
 4391SOL    HW224807   0.245   2.589  10.877 -1.1958 -0.9090  0.4210
 4392SOL     OW24808   1.477   1.686   5.178  0.5163 -0.3253 -0.3249
 4392SOL    HW124809   1.533   1.661   5.251 -2.5491 -1.0112  1.7544
 4392SOL    HW224810   1.410   1.727   5.232  0.6059  1.2467 -1.4119
 4393SOL     OW24811   0.593   4.054   7.838 -0.3474 -0.0199 -0.0115
 4393SOL    HW124812   0.574   3.991   7.768 -1.5785  2.2791 -1.7433
 4393SOL    HW224813   0.568   4.000   7.913 -2.2800 -0.1786 -0.7568
 4394SOL     OW24814   2.837   0.311   9.437 -0.0800  0.0916  0.3638
 4394SOL    HW124815   2.883   0.234   9.403 -2.0169 -0.0416 -1.9467
 4394SOL    HW224816   2.874   0.379   9.381 -1.2008  0.3574 -0.0467
 4395SOL     OW24817   1.379   2.011   8.020  0.0773 -0.1232 -0.0168
 4395SOL    HW124818   1.311   2.024   8.086  0.1836 -0.9551  0.2493
 4395SOL    HW224819   1.449   2.075   8.032  0.7483 -1.2074  1.8169
 4396SOL     OW24820   3.990   4.060   1.945 -0.0385 -0.1833  0.3948
 4396SOL    HW124821   3.975   4.111   1.866 -0.9120  0.3715  0.9240
 4396SOL    HW224822   4.025   4.128   2.002 -1.1541  0.2550  0.5566
 4397SOL     OW24823   0.700   3.922   0.116 -0.0010 -0.0183  0.3141
 4397SOL    HW124824   0.679   4.014   0.130 -0.2322  0.2493 -1.8350
 4397SOL    HW224825   0.645   3.886   0.186  0.1017 -0.1339  0.3369
 4398SOL     OW24826   3.384   2.283   6.110  0.1578 -0.4300 -0.1124
 4398SOL    HW124827   3.321   2.351   6.131 -0.6625 -1.7733  1.6962
 4398SOL    HW224828   3.468   2.322   6.135  1.0914 -2.3191 -0.2769
 4399SOL     OW24829   4.026   2.833   1.410  0.3732  0.0759 -0.5554
 4399SOL    HW124830   4.089   2.767   1.382 -0.3847 -0.9748  0.2197
 4399SOL    HW224831   3.964   2.814   1.340 -2.0188  1.4150  1.2063
 4400SOL     OW24832   4.432   4.404  13.856  0.3466 -0.3527 -0.1425
 4400SOL    HW124833   4.495   4.332  13.869  1.1087  0.0303 -1.7029
 4400SOL    HW224834   4.354   4.352  13.874  0.8777 -0.9509  0.4580
 4401SOL     OW24835   3.218   1.048   8.222  0.8720 -0.1876 -0.0114
 4401SOL    HW124836   3.141   1.066   8.169  1.4375  2.9352  0.2262
 4401SOL    HW224837   3.188   0.966   8.262 -1.8430  0.0021 -1.6508
 4402SOL     OW24838   1.389   4.584   2.117 -0.1305 -0.1740 -0.0373
 4402SOL    HW124839   1.398   4.645   2.191 -1.3413  0.0659 -0.0812
 4402SOL    HW224840   1.444   4.634   2.056  2.6386 -3.1339  0.0276
 4403SOL     OW24841   0.374   0.119   7.728 -0.4240 -0.4518 -0.3314
 4403SOL    HW124842   0.279   0.108   7.733 -0.2776 -0.7666  1.8264
 4403SOL    HW224843   0.387   0.088   7.639 -1.3186  3.2944 -1.7694
 4404SOL     OW24844   2.627   2.951   5.853 -0.0203 -1.0585  0.0041
 4404SOL    HW124845   2.553   2.961   5.913  0.5025 -1.6062  0.7459
 4404SOL    HW224846   2.583   2.897   5.787 -1.1799 -0.0147 -0.0876
 4405SOL     OW24847   0.194   0.949   7.042 -0.0757 -0.2711 -0.5863
 4405SOL    HW124848   0.278   0.921   7.079 -0.2897  0.7333  0.6340
 4405SOL    HW224849   0.154   0.983   7.121  0.1092 -0.0939 -0.5677
 4406SOL     OW24850   0.752   2.814   4.184 -0.8391 -0.2271 -0.4305
 4406SOL    HW124851   0.809   2.831   4.259 -0.5819  0.8821 -0.8687
 4406SOL    HW224852   0.696   2.892   4.177 -0.3802  0.2663  1.2116
 4407SOL     OW24853   1.726   2.719  14.260  0.2898  0.0003  0.3501
 4407SOL    HW124854   1.791   2.789  14.268  1.0230 -0.5550 -0.6468
 4407SOL    HW224855   1.723   2.695  14.352  2.9900  0.7396  0.6280
 4408SOL     OW24856   0.645   2.595  11.994  0.3565 -0.0154  0.5406
 4408SOL    HW124857   0.703   2.529  12.033  1.0213  1.1150  1.4367
 4408SOL    HW224858   0.560   2.562  12.025  0.1498 -2.2370 -2.3628
 4409SOL     OW24859   2.087   4.076   5.235  0.1370 -0.5589 -0.0928
 4409SOL    HW124860   2.033   4.086   5.157 -1.7348  1.5962  1.4963
 4409SOL    HW224861   2.055   4.147   5.291 -0.6385 -1.4368  0.5780
 4410SOL     OW24862   2.547   1.595   3.329 -0.2643  0.4867 -0.5360
 4410SOL    HW124863   2.569   1.552   3.412  1.3238  2.4075  0.0595
 4410SOL    HW224864   2.520   1.685   3.347  1.9575  0.7400  1.6155
 4411SOL     OW24865   3.815   3.346   7.220  0.2376  0.2081  0.0295
 4411SOL    HW124866   3.727   3.312   7.236 -0.7699  2.0715 -1.5977
 4411SOL    HW224867   3.817   3.422   7.279 -2.5902  1.2571 -1.2672
 4412SOL     OW24868   1.856   3.262   5.899  0.4468  0.0121  0.1180
 4412SOL    HW124869   1.912   3.281   5.974  1.0463  0.5894 -0.4797
 4412SOL    HW224870   1.768   3.242   5.930  0.6264  0.6709  1.0513
 4413SOL     OW24871   3.635   0.920   8.975  0.0622  0.1936  0.3544
 4413SOL    HW124872   3.561   0.881   8.929  0.2750  0.0096  0.1712
 4413SOL    HW224873   3.682   0.850   9.020 -0.3141  0.0749  0.5561
 4414SOL     OW24874   0.863   0.509  14.958  0.3743  0.4978 -0.1152
 4414SOL    HW124875   0.794   0.534  14.896 -0.0662 -1.1413 -0.3101
 4414SOL    HW224876   0.806   0.522  15.034 -0.0623  0.1069 -0.3695
 4415SOL     OW24877   3.919   1.220   5.984  0.0471  0.1231  0.2396
 4415SOL    HW124878   3.903   1.236   6.077  2.5531 -0.3544  0.7541
 4415SOL    HW224879   3.958   1.133   5.993 -1.1768 -0.5371 -0.7234
 4416SOL     OW24880   2.434   1.031   9.263 -0.2913 -0.5288 -0.1427
 4416SOL    HW124881   2.415   1.043   9.356 -0.5534  0.8915 -0.3922
 4416SOL    HW224882   2.444   1.118   9.227 -0.7604  0.2954  1.7033
 4417SOL     OW24883   1.297   3.942   6.565  0.0305  0.6303  0.0713
 4417SOL    HW124884   1.245   4.014   6.529 -0.7806 -0.6601 -1.3440
 4417SOL    HW224885   1.239   3.869   6.545  1.5952 -0.1621 -1.6349
 4418SOL     OW24886   4.695   4.592  11.113  0.4201 -0.2224 -0.4790
 4418SOL    HW124887   4.643   4.521  11.074  0.7898  1.1992 -3.5914
 4418SOL    HW224888   0.035   4.547  11.136  0.6110  0.9188  1.0946
 4419SOL     OW24889   3.827   1.612   6.945  0.4857 -0.1158 -0.2301
 4419SOL    HW124890   3.886   1.550   6.903 -0.0413 -0.7626 -0.0223
 4419SOL    HW224891   3.778   1.559   7.008 -0.5364  0.4310 -0.5567
 4420SOL     OW24892   1.228   0.742   3.821 -0.3115 -0.2904  0.8903
 4420SOL    HW124893   1.138   0.775   3.816 -0.4514 -0.4478  2.3829
 4420SOL    HW224894   1.258   0.798   3.893  0.5323 -0.7799  0.9051
 4421SOL     OW24895   3.395   3.114   6.227  0.6301  0.0641 -0.3862
 4421SOL    HW124896   3.409   3.207   6.244 -1.6792  0.6120 -1.5469
 4421SOL    HW224897   3.457   3.099   6.155  0.9803 -0.9995  0.1317
 4422SOL     OW24898   2.899   2.600   2.904 -0.4528  0.0902 -0.1742
 4422SOL    HW124899   2.893   2.506   2.925 -1.2157  0.3499  0.7560
 4422SOL    HW224900   2.926   2.629   2.990  0.7184  0.4652 -0.6732
 4423SOL     OW24901   3.840   3.105   3.601  0.3179  1.0641  0.2838
 4423SOL    HW124902   3.810   3.175   3.544  2.3023  1.3745 -0.3429
 4423SOL    HW224903   3.874   3.053   3.529 -0.0496 -1.0730  1.6323
 4424SOL     OW24904   3.727   1.564   4.610  0.1013 -0.6727 -0.3278
 4424SOL    HW124905   3.705   1.484   4.658  2.4101 -1.5611 -0.7415
 4424SOL    HW224906   3.654   1.620   4.636  0.2903 -0.5591 -0.0447
 4425SOL     OW24907   4.327   2.986   9.674  0.4857  0.4636  0.2063
 4425SOL    HW124908   4.305   2.936   9.596 -0.9938  0.8685  0.3593
 4425SOL    HW224909   4.381   2.919   9.717  0.4816 -0.4179 -1.1907
 4426SOL     OW24910   1.182   1.573  15.007 -0.3328  1.0553 -0.3413
 4426SOL    HW124911   1.114   1.567  15.074 -0.0086 -0.2563 -0.1228
 4426SOL    HW224912   1.222   1.489  14.986 -2.7229  0.2840 -1.8643
 4427SOL     OW24913   4.024   3.624  15.301  0.2524  0.6200 -0.1743
 4427SOL    HW124914   3.958   3.660  15.242  1.2259 -0.2229 -1.7799
 4427SOL    HW224915   4.071   3.704  15.327  1.1734 -0.1892  0.6605
 4428SOL     OW24916   2.537   2.035  15.051 -0.1280 -0.6553  0.2506
 4428SOL    HW124917   2.593   1.972  15.096  2.4263  2.2091  1.0857
 4428SOL    HW224918   2.507   1.976  14.982  0.4196 -0.3070 -0.2898
 4429SOL     OW24919   0.870   4.501   7.651  0.0744 -0.3739  0.2247
 4429SOL    HW124920   0.877   4.594   7.634 -1.7449 -0.3420 -0.3397
 4429SOL    HW224921   0.911   4.496   7.738  1.9179  0.8657 -0.5627
 4430SOL     OW24922   0.529   1.445   5.432 -0.0246 -0.5786 -0.0496
 4430SOL    HW124923   0.614   1.439   5.388 -0.6036  1.4781 -1.4598
 4430SOL    HW224924   0.517   1.359   5.472 -0.3740 -0.9060 -0.8442
 4431SOL     OW24925   0.791   1.142   7.472 -0.2317 -0.3177 -0.2835
 4431SOL    HW124926   0.783   1.130   7.566  2.5785  0.7265  0.0859
 4431SOL    HW224927   0.715   1.111   7.421 -0.9362  0.1220  0.4937
 4432SOL     OW24928   0.674   4.208  12.589 -0.3332  0.2974 -0.6437
 4432SOL    HW124929   0.685   4.248  12.676  1.0515 -0.9523 -0.2386
 4432SOL    HW224930   0.676   4.116  12.615  0.0209  0.8546  1.3129
 4433SOL     OW24931   1.300   1.650   9.818 -0.5895  0.4045 -0.0670
 4433SOL    HW124932   1.354   1.615   9.889  1.1126  0.3621 -1.3778
 4433SOL    HW224933   1.217   1.662   9.864 -1.1978  2.0559 -1.5938
 4434SOL     OW24934   4.221   1.158  13.548  0.0403 -0.7534 -0.5143
 4434SOL    HW124935   4.219   1.197  13.635 -1.5895 -0.5821 -0.6329
 4434SOL    HW224936   4.288   1.090  13.558 -0.0773 -0.7623  0.1737
 4435SOL     OW24937   1.300   0.950   7.585 -0.5657  0.1745  0.4517
 4435SOL    HW124938   1.374   0.952   7.524 -1.1770  0.2218 -0.2882
 4435SOL    HW224939   1.348   0.961   7.667  3.0364 -1.5930 -1.4145
 4436SOL     OW24940   3.159   2.612   3.655  0.4916 -0.3709 -0.4687
 4436SOL    HW124941   3.252   2.617   3.631  0.3306  0.5846 -0.8484
 4436SOL    HW224942   3.164   2.649   3.743  0.7617 -1.5480  0.0161
 4437SOL     OW24943   3.917   2.218   2.870  0.1485 -0.1938 -0.0176
 4437SOL    HW124944   3.949   2.260   2.791 -0.1467  1.4332  0.7204
 4437SOL    HW224945   3.967   2.139   2.886 -0.0252 -0.3564 -0.2818
 4438SOL     OW24946   0.304   2.812   8.756 -0.2007 -0.0663 -0.3454
 4438SOL    HW124947   0.390   2.808   8.713 -0.6015 -0.7879 -1.0726
 4438SOL    HW224948   0.297   2.906   8.774  2.4652 -0.1955  1.3816
 4439SOL     OW24949   1.223   0.601   9.332  0.6767 -0.5203  0.1673
 4439SOL    HW124950   1.267   0.574   9.251 -1.6136  1.3400 -1.6694
 4439SOL    HW224951   1.296   0.639   9.382  0.3955  1.3590 -0.8798
 4440SOL     OW24952   1.382   1.644   7.156  0.3399 -0.0419  0.3207
 4440SOL    HW124953   1.379   1.682   7.068  0.1747 -1.4674 -0.2814
 4440SOL    HW224954   1.389   1.724   7.208  0.8192  1.1192 -1.5344
 4441SOL     OW24955   3.006   4.656   8.808 -0.5781 -0.5846 -0.0484
 4441SOL    HW124956   2.912   4.675   8.802 -1.0971 -3.5117 -1.6321
 4441SOL    HW224957   3.013   4.607   8.890  1.4613  1.5635  1.0656
 4442SOL     OW24958   3.528   3.430   9.259  0.3473  0.2214 -0.0265
 4442SOL    HW124959   3.573   3.492   9.318  3.4598  0.0624 -2.2561
 4442SOL    HW224960   3.535   3.351   9.313 -0.6989 -1.2564 -2.0875
 4443SOL     OW24961   2.665   3.940   8.907  0.0668 -0.5241  0.1169
 4443SOL    HW124962   2.668   3.868   8.844 -0.0185 -0.4381  0.0130
 4443SOL    HW224963   2.750   3.978   8.884 -0.1822 -0.3986 -0.5937
 4444SOL     OW24964   0.994   1.879  17.323  0.1588  0.1587 -0.6341
 4444SOL    HW124965   0.918   1.857  17.378  2.2033 -2.2548  1.2136
 4444SOL    HW224966   0.966   1.852  17.235 -0.3059 -0.0408 -0.4281
 4445SOL     OW24967   4.628   4.163   4.052  0.2728  0.5539 -0.0759
 4445SOL    HW124968   4.697   4.164   3.986 -0.3379 -0.6225 -0.7271
 4445SOL    HW224969   4.554   4.127   4.003  0.0763  2.7716 -1.4060
 4446SOL     OW24970   2.816   2.432   7.396 -0.1483 -0.7705  0.4034
 4446SOL    HW124971   2.822   2.524   7.421 -0.1325 -0.5814 -0.2884
 4446SOL    HW224972   2.759   2.406   7.468  0.6819 -5.2586 -0.5560
 4447SOL     OW24973   4.527   0.187   7.793  0.4210 -0.3897  0.2804
 4447SOL    HW124974   4.557   0.236   7.870 -1.4117 -1.2317  1.5496
 4447SOL    HW224975   4.435   0.172   7.816  0.1652 -0.1771 -0.6111
 4448SOL     OW24976   3.406   1.517   1.301  0.0808 -0.3396  0.1062
 4448SOL    HW124977   3.328   1.566   1.325 -0.6355  0.1305 -3.1397
 4448SOL    HW224978   3.454   1.524   1.383 -1.2508 -0.6326  0.9079
 4449SOL     OW24979   4.069   2.596  12.975  0.0760 -0.1515  0.5232
 4449SOL    HW124980   4.044   2.545  12.898  2.1015 -2.6372  1.5239
 4449SOL    HW224981   4.084   2.683  12.937 -0.1386 -0.3686 -0.0618
 4450SOL     OW24982   3.258   4.102   1.509 -0.1877  1.3439  0.2174
 4450SOL    HW124983   3.330   4.093   1.571  1.8809  2.3697 -2.0001
 4450SOL    HW224984   3.185   4.067   1.560  0.0633 -0.4828 -0.6534
 4451SOL     OW24985   3.978   1.291   9.206 -0.0286  0.2860  0.1690
 4451SOL    HW124986   4.064   1.278   9.166  0.7242 -0.1361  1.9544
 4451SOL    HW224987   3.922   1.322   9.134 -0.8780  0.0720  0.7389
 4452SOL     OW24988   3.395   1.271   4.186  0.2246  0.2182 -0.6549
 4452SOL    HW124989   3.469   1.275   4.247  1.0487  3.0934 -1.8187
 4452SOL    HW224990   3.365   1.184   4.211  3.1898 -0.3633  0.9435
 4453SOL     OW24991   1.891   1.222   8.092 -0.3388 -0.0624  0.2896
 4453SOL    HW124992   1.977   1.193   8.061 -0.1571  1.4437 -0.6234
 4453SOL    HW224993   1.906   1.312   8.122  1.1332 -0.1813 -0.0646
 4454SOL     OW24994   1.486   0.677  15.249 -0.8113  0.2880  0.4811
 4454SOL    HW124995   1.421   0.674  15.178 -0.4381  0.1189  0.1510
 4454SOL    HW224996   1.543   0.604  15.226  0.0393  0.4947  1.9553
 4455SOL     OW24997   3.813   2.587   3.573 -0.5662 -0.1850  0.3777
 4455SOL    HW124998   3.802   2.637   3.492 -1.3624 -1.3901 -0.2423
 4455SOL    HW224999   3.813   2.655   3.641  0.0126 -0.5030  0.6883
 4456SOL     OW25000   0.018   3.729   5.064 -0.1450  0.4091 -0.6819
 4456SOL    HW125001   4.725   3.802   5.116 -0.6905 -1.7396  1.9971
 4456SOL    HW225002   0.060   3.764   4.986  0.4289  1.1800 -0.0353
 4457SOL     OW25003   3.478   0.201   7.917 -0.4427  0.5353 -0.4090
 4457SOL    HW125004   3.442   0.141   7.852  1.3887 -0.8150 -0.1773
 4457SOL    HW225005   3.433   0.279   7.884 -2.5342  0.3276  2.0265
 4458SOL     OW25006   0.336   3.821   5.667  0.6306 -0.3269 -0.6738
 4458SOL    HW125007   0.296   3.884   5.726 -0.0529 -1.8671  0.5045
 4458SOL    HW225008   0.269   3.810   5.600 -0.2814 -0.7281  0.3134
 4459SOL     OW25009   4.634   2.612   3.388  0.2402  1.1107  0.2596
 4459SOL    HW125010   4.612   2.519   3.379  0.3309  0.9662  1.4919
 4459SOL    HW225011   4.725   2.619   3.359 -0.0723  0.5868 -0.8679
 4460SOL     OW25012   0.682   4.283  11.145  0.1926 -0.4979  0.0545
 4460SOL    HW125013   0.719   4.267  11.232 -0.1512  1.2028  0.4978
 4460SOL    HW225014   0.762   4.294  11.093  1.5941 -0.7301  2.1549
 4461SOL     OW25015   3.008   1.968   4.344 -0.5911  0.1567 -0.6197
 4461SOL    HW125016   2.987   2.027   4.271 -0.7929  1.5073  0.5247
 4461SOL    HW225017   2.931   1.911   4.343 -0.5734  0.1051  0.6262
 4462SOL     OW25018   2.792   3.634  17.367  0.4035 -0.2449 -0.5831
 4462SOL    HW125019   2.849   3.698  17.323 -0.8013  0.5557 -0.9778
 4462SOL    HW225020   2.748   3.591  17.294 -2.3080  0.5813  0.5832
 4463SOL     OW25021   2.797   3.577  11.971  0.1471  0.0013  0.1557
 4463SOL    HW125022   2.711   3.579  11.928 -0.0001  1.6075  0.5275
 4463SOL    HW225023   2.818   3.670  11.970  1.1587 -0.2207  0.5718
 4464SOL     OW25024   0.896   1.897   4.275  0.0686 -0.2240  0.1557
 4464SOL    HW125025   0.865   1.960   4.210 -2.2892 -1.9766 -0.4403
 4464SOL    HW225026   0.811   1.852   4.281 -0.1457  0.1768  0.0976
 4465SOL     OW25027   2.836   0.845   7.131  0.1096 -0.5111 -0.0051
 4465SOL    HW125028   2.785   0.823   7.053 -1.9088 -1.2838  1.5155
 4465SOL    HW225029   2.912   0.885   7.090  0.7366 -0.9151  0.7638
 4466SOL     OW25030   3.445   0.406   2.504 -0.2891 -0.0652 -0.3348
 4466SOL    HW125031   3.519   0.413   2.443 -0.7574  0.2470 -0.8682
 4466SOL    HW225032   3.398   0.339   2.453 -0.3324 -1.9903  2.2576
 4467SOL     OW25033   2.876   4.440   7.825  0.3206 -0.2075 -0.2772
 4467SOL    HW125034   2.879   4.467   7.916 -2.9935  1.6999 -0.7160
 4467SOL    HW225035   2.920   4.359   7.849  0.3940 -0.2806 -0.6571
 4468SOL     OW25036   0.552   1.181  10.007 -0.3247 -0.4509 -0.0241
 4468SOL    HW125037   0.529   1.124  10.080 -1.5665  0.5643  0.3701
 4468SOL    HW225038   0.563   1.111   9.942 -1.0838 -0.3790 -0.2355
 4469SOL     OW25039   0.157   3.124   8.056  0.2620 -0.2585  0.0776
 4469SOL    HW125040   0.218   3.090   7.990  1.0923  1.4011 -0.0170
 4469SOL    HW225041   0.210   3.188   8.104  0.0876  0.5382 -0.7708
 4470SOL     OW25042   2.854   1.948   1.388 -0.3570  0.3044 -0.1860
 4470SOL    HW125043   2.795   2.017   1.416 -0.5717 -0.5950  1.5361
 4470SOL    HW225044   2.801   1.883   1.343  1.2677 -1.0774 -0.1290
 4471SOL     OW25045   4.451   2.054   5.538 -0.5244  0.0452  0.0262
 4471SOL    HW125046   4.436   1.960   5.526 -1.7771  0.5115 -1.9199
 4471SOL    HW225047   4.360   2.081   5.546 -1.4350 -2.3742 -2.3162
 4472SOL     OW25048   1.999   3.217   3.445 -0.3410 -0.2449  0.4137
 4472SOL    HW125049   2.037   3.304   3.456 -0.3521 -0.1600 -0.1844
 4472SOL    HW225050   1.913   3.220   3.486  0.0523 -1.5784  1.3244
 4473SOL     OW25051   3.671   0.810   5.470  0.3790  0.4623  0.0652
 4473SOL    HW125052   3.597   0.861   5.437  1.5980  1.3526 -1.2785
 4473SOL    HW225053   3.644   0.813   5.562 -1.6562  0.1317 -0.5210
 4474SOL     OW25054   4.274   2.217   2.023 -0.0342 -0.2146  0.1416
 4474SOL    HW125055   4.322   2.144   1.985 -3.3691 -2.7013  0.6721
 4474SOL    HW225056   4.197   2.173   2.060  0.8058 -0.9680  1.0083
 4475SOL     OW25057   3.981   1.396   8.247  0.3173  0.7723  0.0011
 4475SOL    HW125058   3.956   1.405   8.155  1.5082  0.3919 -0.3674
 4475SOL    HW225059   3.896   1.367   8.280  1.0983 -0.4992  0.8719
 4476SOL     OW25060   0.897   1.437   9.739 -0.3144 -0.2908  0.1174
 4476SOL    HW125061   0.949   1.435   9.819  0.2753 -1.5161 -0.2924
 4476SOL    HW225062   0.815   1.410   9.780 -1.3813  1.3982 -0.9300
 4477SOL     OW25063   0.063   4.688   7.557  0.2132  0.0460 -0.0734
 4477SOL    HW125064   0.071   0.036   7.593 -2.0817  0.5123 -0.6808
 4477SOL    HW225065   4.728   4.663   7.611 -0.2737 -0.3827 -0.9633
 4478SOL     OW25066   4.662   2.813   4.574 -0.3510 -0.6166 -0.9171
 4478SOL    HW125067   4.631   2.771   4.654  0.6431 -0.6330 -0.5419
 4478SOL    HW225068   4.584   2.847   4.528 -1.2503  0.5939  1.4860
 4479SOL     OW25069   3.975   1.262   3.707 -0.4130 -0.1906 -0.3114
 4479SOL    HW125070   4.064   1.292   3.690  0.7372 -3.9370 -0.8760
 4479SOL    HW225071   3.957   1.307   3.789 -0.1701  2.5303 -1.7448
 4480SOL     OW25072   3.552   1.093   7.590  0.3195 -0.2964  0.0595
 4480SOL    HW125073   3.458   1.093   7.605  0.5009  2.0520  1.1088
 4480SOL    HW225074   3.555   1.175   7.540  0.6801 -1.6661 -2.1967
 4481SOL     OW25075   3.217   4.473  16.495  0.1323 -0.4649  0.1792
 4481SOL    HW125076   3.257   4.387  16.508  1.0082 -0.3335 -1.6925
 4481SOL    HW225077   3.283   4.535  16.527  1.0548 -1.5248  0.3484
 4482SOL     OW25078   4.470   1.647   7.640  0.1103  0.1682 -0.2504
 4482SOL    HW125079   4.500   1.600   7.563  1.0451 -0.5070  0.5173
 4482SOL    HW225080   4.470   1.738   7.612  0.7543  0.5484  0.9840
 4483SOL     OW25081   1.944   0.620   6.155 -0.4397 -0.0204 -0.0276
 4483SOL    HW125082   1.911   0.694   6.104  1.6018  0.5121 -0.6096
 4483SOL    HW225083   2.037   0.645   6.152 -0.8375  1.4631 -0.2657
 4484SOL     OW25084   2.860   0.125  11.154 -0.1074  0.0945 -0.1061
 4484SOL    HW125085   2.784   0.156  11.104 -1.7291 -0.0478  2.2564
 4484SOL    HW225086   2.861   0.037  11.116  1.1053 -0.9913  2.4195
 4485SOL     OW25087   2.317   0.724  16.869 -0.2467 -0.1065  0.3922
 4485SOL    HW125088   2.303   0.658  16.937 -0.4235  1.3071  1.7457
 4485SOL    HW225089   2.292   0.678  16.789  0.4612  0.2479 -0.0309
 4486SOL     OW25090   2.669   4.265  16.144 -0.1083  0.4656  0.5069
 4486SOL    HW125091   2.603   4.327  16.113  0.2273  1.2557  1.3977
 4486SOL    HW225092   2.742   4.326  16.154  1.0955 -0.7683 -0.6488
 4487SOL     OW25093   1.201   0.118   5.450  0.4319 -0.0060  0.0958
 4487SOL    HW125094   1.183   0.039   5.399  2.0942  0.3428 -1.0452
 4487SOL    HW225095   1.115   0.145   5.482  0.2477  0.1739 -0.5412
 4488SOL     OW25096   0.573   0.304   5.504 -0.0639  0.1264 -0.3935
 4488SOL    HW125097   0.483   0.318   5.474  0.4342  2.3982 -0.8263
 4488SOL    HW225098   0.607   0.387   5.537 -0.0145  0.6834 -1.8453
 4489SOL     OW25099   0.839   0.812   4.878  0.2729 -0.0374 -0.5319
 4489SOL    HW125100   0.908   0.864   4.920  2.6422 -1.9103 -2.0809
 4489SOL    HW225101   0.870   0.725   4.904 -1.6389 -0.8749 -0.9948
 4490SOL     OW25102   2.275   0.675   5.695 -0.2397  0.2391  0.2064
 4490SOL    HW125103   2.188   0.655   5.731  0.1781 -0.1822  0.9739
 4490SOL    HW225104   2.258   0.762   5.660 -0.1804  0.2643  0.2410
 4491SOL     OW25105   1.778   1.960   2.379 -0.2632 -1.0017  0.7952
 4491SOL    HW125106   1.840   1.917   2.438 -0.6559 -2.4860  0.1425
 4491SOL    HW225107   1.766   1.890   2.314 -0.5027  2.6532 -3.0473
 4492SOL     OW25108   3.218   1.608   7.166  0.5535  0.1095  0.0035
 4492SOL    HW125109   3.167   1.658   7.102 -0.1120 -0.6209 -0.0368
 4492SOL    HW225110   3.214   1.522   7.125 -0.5953  0.2137 -0.1034
 4493SOL     OW25111   2.307   3.209  11.943  0.7115 -0.4929 -0.6636
 4493SOL    HW125112   2.395   3.223  11.979  0.1619 -0.3163  0.5899
 4493SOL    HW225113   2.306   3.295  11.902  1.3003  0.1842  0.7284
 4494SOL     OW25114   2.651   3.270   2.883  0.2513 -0.1427  0.0587
 4494SOL    HW125115   2.566   3.228   2.892 -0.3192  0.6673 -1.6968
 4494SOL    HW225116   2.697   3.206   2.938 -0.6035  0.2855  1.2808
 4495SOL     OW25117   1.536   1.949   3.338  0.1039  0.1657 -0.5943
 4495SOL    HW125118   1.606   2.007   3.309  1.5829 -2.4310 -2.2438
 4495SOL    HW225119   1.561   1.929   3.428 -0.5406 -1.2139 -0.7192
 4496SOL     OW25120   0.157   0.159  15.982  0.1089 -0.0150  0.0342
 4496SOL    HW125121   0.169   0.066  15.964 -0.8836 -0.1503  0.0600
 4496SOL    HW225122   0.083   0.163  16.043  0.6117 -0.3040  0.6524
 4497SOL     OW25123   0.636   1.265   6.508 -0.4302  0.1200 -0.5271
 4497SOL    HW125124   0.664   1.305   6.426 -0.7092  1.3261 -0.0378
 4497SOL    HW225125   0.715   1.290   6.558 -1.5246  0.4435  1.0411
 4498SOL     OW25126   3.037   2.092   5.669 -0.5601 -0.1655 -0.1697
 4498SOL    HW125127   3.114   2.107   5.723 -1.1336  1.6771  0.1437
 4498SOL    HW225128   3.079   2.069   5.586  3.3788 -2.6463  2.5674
 4499SOL     OW25129   4.554   2.958  13.642  0.4699  0.0687 -0.4795
 4499SOL    HW125130   4.647   2.963  13.622  0.8368  0.9596  1.4320
 4499SOL    HW225131   4.517   3.039  13.605  2.5161  0.8291 -0.8652
 4500SOL     OW25132   1.831   0.227  14.993 -0.7582 -0.1625  0.7210
 4500SOL    HW125133   1.854   0.203  14.903 -0.4980  1.3010  0.4032
 4500SOL    HW225134   1.743   0.265  14.999 -1.2212 -0.9007 -1.2883
 4501SOL     OW25135   3.110   2.033   7.799 -0.0528  0.1367  0.6094
 4501SOL    HW125136   3.111   2.092   7.724 -0.4462  1.5272  1.7039
 4501SOL    HW225137   3.066   1.957   7.760  0.1364  0.5349 -0.3911
 4502SOL     OW25138   3.772   2.666  12.722 -0.3459  0.0868  0.1934
 4502SOL    HW125139   3.732   2.619  12.796 -0.4932  0.7839  0.5561
 4502SOL    HW225140   3.854   2.620  12.702 -0.4896  1.3195 -3.1640
 4503SOL     OW25141   1.288   2.658   2.527 -0.7143 -0.7374  0.4031
 4503SOL    HW125142   1.248   2.613   2.601 -1.4260 -0.0015  0.4619
 4503SOL    HW225143   1.254   2.746   2.536 -1.4085 -0.9534 -0.0520
 4504SOL     OW25144   4.384   1.147  10.550  0.0368 -0.4802 -0.2900
 4504SOL    HW125145   4.329   1.118  10.623 -0.5411 -1.1592 -0.9945
 4504SOL    HW225146   4.467   1.104  10.571 -0.4809 -1.0229  0.6730
 4505SOL     OW25147   3.261   0.001  17.403 -0.2786 -0.4348  0.2874
 4505SOL    HW125148   3.299   4.717  17.319 -0.0898  0.5184  0.0939
 4505SOL    HW225149   3.180   4.691  17.400 -0.1429 -0.6102 -0.4555
 4506SOL     OW25150   0.727   3.718   4.709 -0.6802 -0.3011  0.9065
 4506SOL    HW125151   0.754   3.809   4.714  0.5351 -0.8770  4.3871
 4506SOL    HW225152   0.805   3.674   4.676 -1.5431  0.2047 -1.8139
 4507SOL     OW25153   3.465   0.730   9.141 -0.6437 -0.8213  0.0964
 4507SOL    HW125154   3.417   0.706   9.220  0.1606  2.7357  1.6349
 4507SOL    HW225155   3.431   0.656   9.089 -0.3034 -2.5460  2.3260
 4508SOL     OW25156   4.023   1.454  17.258  0.2618 -0.9050  0.3015
 4508SOL    HW125157   4.062   1.442  17.171 -0.6932 -2.5420  0.0905
 4508SOL    HW225158   4.009   1.548  17.265 -0.7033 -0.9021 -1.5419
 4509SOL     OW25159   4.570   3.632   7.027 -0.6884 -0.0398  0.0928
 4509SOL    HW125160   4.634   3.638   7.098  0.1136 -2.6547 -0.4168
 4509SOL    HW225161   4.614   3.687   6.962  0.0198  2.3345  2.5409
 4510SOL     OW25162   0.161   0.200  10.083 -0.3353 -0.1031 -0.0427
 4510SOL    HW125163   0.232   0.263  10.097 -0.1498 -0.5639  1.0849
 4510SOL    HW225164   0.199   0.120  10.121 -0.5098 -0.5291 -0.7643
 4511SOL     OW25165   0.976   1.698   9.037  0.1193  0.1843  0.6513
 4511SOL    HW125166   0.922   1.745   8.973  0.4169 -0.8100 -0.3258
 4511SOL    HW225167   0.939   1.709   9.124 -0.7300 -2.2654  0.5703
 4512SOL     OW25168   0.204   1.694  10.702  0.1934 -0.2216 -0.1523
 4512SOL    HW125169   0.252   1.725  10.625  2.1747 -0.8585  0.8314
 4512SOL    HW225170   0.164   1.780  10.715  0.0916 -0.5035  1.3836
 4513SOL     OW25171   1.091   1.728   3.368 -0.2390 -0.1207 -0.1314
 4513SOL    HW125172   1.161   1.793   3.360 -0.4476  0.0691 -0.4530
 4513SOL    HW225173   1.035   1.767   3.434  2.1162  0.8948  1.2562
 4514SOL     OW25174   0.642   1.137   1.694  0.0861 -0.4174  1.0397
 4514SOL    HW125175   0.674   1.070   1.754  0.5288 -1.4029 -0.2743
 4514SOL    HW225176   0.680   1.105   1.611 -2.1574 -0.2209 -0.0614
 4515SOL     OW25177   2.749   3.363   7.618 -0.5409 -0.4004 -0.1060
 4515SOL    HW125178   2.788   3.301   7.680 -1.6965  1.1593  2.1949
 4515SOL    HW225179   2.829   3.409   7.594 -0.1275 -1.6319 -1.0651
 4516SOL     OW25180   0.026   1.258   3.245 -0.5424  0.3858 -0.3964
 4516SOL    HW125181   4.722   1.277   3.328  0.0856 -0.8564  0.2272
 4516SOL    HW225182   0.077   1.338   3.234  1.5327 -0.7638  0.8684
 4517SOL     OW25183   0.237   1.285  14.549  0.3933 -0.8463 -0.3204
 4517SOL    HW125184   0.264   1.355  14.608 -0.5940 -0.8914  0.1781
 4517SOL    HW225185   0.319   1.264  14.504  1.5653  0.9148  1.0027
 4518SOL     OW25186   4.314   0.968   0.983  0.4040  0.0876  0.1871
 4518SOL    HW125187   4.322   0.931   0.895 -0.5867  1.3072 -0.4282
 4518SOL    HW225188   4.277   1.052   0.953  0.0878 -0.4610 -0.9765
 4519SOL     OW25189   3.324   0.530   0.006 -0.1569 -0.1997  0.5471
 4519SOL    HW125190   3.263   0.475  17.718  0.5661 -1.2297  0.8180
 4519SOL    HW225191   3.289   0.515   0.094  1.6738 -0.4280  1.2261
 4520SOL     OW25192   3.525   1.318   3.565 -0.7242  0.0375 -0.8465
 4520SOL    HW125193   3.496   1.382   3.630 -0.4239  0.6019 -1.2693
 4520SOL    HW225194   3.442   1.319   3.517 -0.6135  0.7348 -1.0241
 4521SOL     OW25195   3.185   3.582   2.321  0.3329  0.0887 -0.1388
 4521SOL    HW125196   3.204   3.614   2.409 -0.9644 -1.4614  0.6981
 4521SOL    HW225197   3.115   3.519   2.340 -0.7063  1.2107 -0.2555
 4522SOL     OW25198   3.240   2.985   0.755 -0.1790 -0.3642  0.0289
 4522SOL    HW125199   3.244   3.033   0.838  0.2208 -1.8580  0.8812
 4522SOL    HW225200   3.164   3.022   0.711  0.1544 -1.3815 -1.4201
 4523SOL     OW25201   0.523   3.476   7.300 -0.2973 -0.2544  0.6307
 4523SOL    HW125202   0.604   3.431   7.321 -0.1154 -0.5672 -0.7548
 4523SOL    HW225203   0.463   3.457   7.372 -0.2114  0.5410  0.9172
 4524SOL     OW25204   3.020   0.282   4.608  0.4108  0.2010  0.1351
 4524SOL    HW125205   3.087   0.249   4.667 -2.3609  0.2246  3.3162
 4524SOL    HW225206   2.948   0.218   4.609 -1.4764  2.2694 -2.6704
 4525SOL     OW25207   4.732   4.737   1.389  0.3596  0.0563  0.2186
 4525SOL    HW125208   0.064   4.739   1.452  0.4696  3.5326 -0.0187
 4525SOL    HW225209   4.663   4.722   1.453  1.8028  1.0900  1.9970
 4526SOL     OW25210   4.572   3.561  15.362 -0.0687 -0.5438 -0.4895
 4526SOL    HW125211   4.619   3.640  15.390  2.3001 -2.2756  0.3333
 4526SOL    HW225212   4.575   3.519  15.447  1.1593  0.7516  0.1079
 4527SOL     OW25213   1.778   0.234  11.397  0.0732 -0.3100  0.4929
 4527SOL    HW125214   1.847   0.275  11.345  1.3403 -1.4835  1.2688
 4527SOL    HW225215   1.712   0.252  11.329 -0.4057 -3.3515  0.1282
 4528SOL     OW25216   0.685   1.175   8.447 -0.4273  0.8463 -0.3419
 4528SOL    HW125217   0.699   1.213   8.533  3.2704  1.3791 -1.1640
 4528SOL    HW225218   0.764   1.204   8.401  1.6722 -1.5307  1.7119
 4529SOL     OW25219   2.986   2.167   6.027 -0.3463 -0.3640  1.0915
 4529SOL    HW125220   2.990   2.073   6.007  1.2597 -0.3793  1.4625
 4529SOL    HW225221   2.997   2.220   5.948  1.8388 -2.1946  0.1385
 4530SOL     OW25222   3.563   3.712   2.998  0.3040 -0.0971 -0.3567
 4530SOL    HW125223   3.616   3.786   2.967  0.8207 -1.0565 -1.7283
 4530SOL    HW225224   3.586   3.642   2.938  1.1347 -0.9901  0.9938
 4531SOL     OW25225   4.101   0.726   1.920  0.0651 -0.4290 -0.1909
 4531SOL    HW125226   4.126   0.776   1.998  0.3886 -2.1633  0.8310
 4531SOL    HW225227   4.049   0.788   1.868 -0.7713  0.0418  1.1974
 4532SOL     OW25228   3.223   0.240   8.938 -0.2606  0.1019  0.0171
 4532SOL    HW125229   3.226   0.157   8.985 -1.2336 -1.2743 -2.4111
 4532SOL    HW225230   3.166   0.217   8.866 -0.1216  1.2868 -0.4739
 4533SOL     OW25231   0.407   0.225   7.019  0.6309 -0.1945  0.3315
 4533SOL    HW125232   0.416   0.156   7.085  1.4556  0.5569  1.0247
 4533SOL    HW225233   0.475   0.287   7.047 -0.0728  1.0688 -0.7714
 4534SOL     OW25234   4.466   4.252   5.586  0.2917  0.2391  0.0887
 4534SOL    HW125235   4.536   4.192   5.558 -0.2972 -0.2688 -0.3050
 4534SOL    HW225236   4.406   4.232   5.515 -0.9026  0.0577  1.1427
 4535SOL     OW25237   2.405   2.169   7.137  0.4825 -0.3650  0.2021
 4535SOL    HW125238   2.402   2.256   7.178  1.2475 -0.1745 -0.1411
 4535SOL    HW225239   2.328   2.122   7.169  1.9863 -1.7803  1.7899
 4536SOL     OW25240   2.920   1.648   3.970 -0.2110 -0.1148 -0.1744
 4536SOL    HW125241   2.915   1.673   4.062 -3.4830  0.8185 -0.6018
 4536SOL    HW225242   2.826   1.651   3.954 -0.2532 -1.2586 -0.1707
 4537SOL     OW25243   3.710   4.183   8.571 -0.3440  0.3103 -0.0636
 4537SOL    HW125244   3.681   4.229   8.493 -2.1395 -0.6569  0.0198
 4537SOL    HW225245   3.624   4.170   8.613  0.3871 -0.0550  1.3287
 4538SOL     OW25246   3.389   0.833   4.639  0.3733  0.0071  0.7207
 4538SOL    HW125247   3.413   0.855   4.729 -0.4459  0.1612  0.9044
 4538SOL    HW225248   3.296   0.812   4.638  0.5157 -0.5623 -0.6422
 4539SOL     OW25249   0.271   4.314   4.414  0.5163  0.1046 -0.0401
 4539SOL    HW125250   0.251   4.222   4.433  2.6734 -0.2456  0.5598
 4539SOL    HW225251   0.244   4.352   4.498  0.5958 -1.4428  0.6891
 4540SOL     OW25252   2.339   1.466   7.284  0.0470 -0.2217  0.4172
 4540SOL    HW125253   2.293   1.406   7.226  1.1273 -1.5092  0.8978
 4540SOL    HW225254   2.389   1.410   7.343 -1.8806 -0.9570  1.3467
 4541SOL     OW25255   4.175   0.452   2.882 -0.0567 -0.1042  0.0263
 4541SOL    HW125256   4.109   0.414   2.940  0.8443  0.2628  1.2922
 4541SOL    HW225257   4.209   0.521   2.938  0.7863 -0.5758  0.0982
 4542SOL     OW25258   2.595   1.443  15.973 -0.1995 -0.7615 -0.3271
 4542SOL    HW125259   2.643   1.438  15.890  0.9042  0.8162  0.2402
 4542SOL    HW225260   2.543   1.520  15.953 -0.5500 -0.5858  1.2857
 4543SOL     OW25261   3.454   4.276   3.602 -0.2137  0.0817 -0.4207
 4543SOL    HW125262   3.426   4.358   3.561 -1.8281  1.2000  2.9024
 4543SOL    HW225263   3.533   4.267   3.548  2.0625 -0.2777  3.0207
 4544SOL     OW25264   0.788   3.599   7.790 -0.1621  0.0797  0.3297
 4544SOL    HW125265   0.876   3.574   7.821 -1.0035 -0.9851  1.8649
 4544SOL    HW225266   0.817   3.653   7.717  0.1142  0.1147  0.4615
 4545SOL     OW25267   2.666   3.666   7.046 -0.3781 -0.1151 -0.1030
 4545SOL    HW125268   2.573   3.658   7.024 -0.3543  1.0505 -0.6614
 4545SOL    HW225269   2.670   3.755   7.081 -0.9464  0.6866 -2.0833
 4546SOL     OW25270   2.125   0.063   2.329 -0.4805 -0.8131 -0.8608
 4546SOL    HW125271   2.060   0.021   2.386 -0.5769 -1.9749 -1.8289
 4546SOL    HW225272   2.103   0.152   2.356  0.7136 -0.1425 -2.1223
 4547SOL     OW25273   0.284   1.512   9.132 -0.0920 -0.0935  0.4728
 4547SOL    HW125274   0.272   1.601   9.098 -2.8461 -1.8041 -3.0370
 4547SOL    HW225275   0.197   1.519   9.171  0.2620 -1.2966  1.4580
 4548SOL     OW25276   0.373   1.202  16.713 -0.7261 -0.3430 -0.2683
 4548SOL    HW125277   0.450   1.225  16.766 -1.2074  0.3935  0.1100
 4548SOL    HW225278   0.409   1.232  16.629 -1.0630  0.2337 -0.2086
 4549SOL     OW25279   1.593   3.406   3.503 -0.4661  0.2464 -0.3161
 4549SOL    HW125280   1.616   3.485   3.455  1.9992 -0.9718 -1.1803
 4549SOL    HW225281   1.545   3.361   3.434 -1.1582 -0.2667  0.5039
 4550SOL     OW25282   2.934   2.632  17.108  0.5048  0.2787  0.3852
 4550SOL    HW125283   2.865   2.596  17.052 -0.1527 -0.2102  1.5164
 4550SOL    HW225284   2.890   2.696  17.163 -1.9451  0.0092 -1.2736
 4551SOL     OW25285   4.340   1.975   6.394  0.5688  0.3972  0.3806
 4551SOL    HW125286   4.346   1.942   6.304 -1.8379 -2.2752  1.2159
 4551SOL    HW225287   4.333   1.894   6.445 -1.0136  0.4817  0.3042
 4552SOL     OW25288   1.337   1.372   8.338  0.0146  0.5046 -0.3124
 4552SOL    HW125289   1.293   1.364   8.423  0.3425 -1.0666 -0.2902
 4552SOL    HW225290   1.408   1.429   8.368 -0.0385 -0.6592  1.9823
 4553SOL     OW25291   3.959   0.440  13.196 -0.4045 -0.2891  0.2529
 4553SOL    HW125292   4.008   0.410  13.272 -1.9298  1.5678  1.9760
 4553SOL    HW225293   3.971   0.372  13.130  2.1136 -0.9361  1.4072
 4554SOL     OW25294   1.457   1.153   4.222 -0.7896 -0.3711  0.1325
 4554SOL    HW125295   1.454   1.240   4.262  2.4658 -0.4051  0.4306
 4554SOL    HW225296   1.539   1.120   4.259 -1.3847 -1.7920  0.1651
 4555SOL     OW25297   2.285   4.266   1.992  0.2654  0.3113  0.1549
 4555SOL    HW125298   2.193   4.290   1.984  0.5592  2.0628  1.9661
 4555SOL    HW225299   2.273   4.173   2.013  1.7067 -0.1191 -0.8929
 4556SOL     OW25300   0.759   2.050   7.495 -0.5425  0.5651  0.1710
 4556SOL    HW125301   0.820   2.082   7.562  0.1491 -0.1917 -0.0905
 4556SOL    HW225302   0.798   1.963   7.484 -0.9113  0.2230  1.4958
 4557SOL     OW25303   3.468   4.093  12.140  0.4932  0.3113 -0.6227
 4557SOL    HW125304   3.560   4.115  12.124  0.6667 -1.0602 -1.5100
 4557SOL    HW225305   3.435   4.182  12.135  1.1859  0.6523  0.8064
 4558SOL     OW25306   0.026   1.719   3.390  0.0878  0.0464 -0.0315
 4558SOL    HW125307   4.732   1.654   3.329 -0.4434  1.4206 -1.1996
 4558SOL    HW225308   4.709   1.793   3.373 -1.1355 -0.8869  0.0696
 4559SOL     OW25309   3.095   2.878   7.206 -0.1080 -0.4940  0.2914
 4559SOL    HW125310   3.075   2.830   7.126  3.4949 -0.1489 -0.8006
 4559SOL    HW225311   3.172   2.835   7.243 -0.8202 -0.4576  1.8126
 4560SOL     OW25312   3.975   0.813  11.836  0.1313  0.2397 -0.3273
 4560SOL    HW125313   4.064   0.846  11.826  1.5109 -3.2003  0.5380
 4560SOL    HW225314   3.978   0.754  11.761  1.9006 -0.6660  0.4547
 4561SOL     OW25315   1.944   0.286   1.024 -0.3807 -0.3952  0.3687
 4561SOL    HW125316   1.978   0.369   0.993 -2.7860 -0.1928 -1.7617
 4561SOL    HW225317   1.871   0.315   1.078  0.3426  0.5014  0.8583
 4562SOL     OW25318   0.502   2.548   4.375  0.1954 -0.0404  0.0925
 4562SOL    HW125319   0.451   2.619   4.337 -1.6861 -1.0789  0.6850
 4562SOL    HW225320   0.442   2.516   4.442  1.1096 -0.1260  0.8630
 4563SOL     OW25321   3.989   0.551  17.741 -0.0139  0.6964  0.0741
 4563SOL    HW125322   4.005   0.636  17.699  1.1383 -0.2583 -1.4154
 4563SOL    HW225323   3.935   0.508  17.675  0.3256 -1.6571  1.3362
 4564SOL     OW25324   0.550   4.377   5.604  0.0236  0.2511 -0.2701
 4564SOL    HW125325   0.491   4.303   5.616  0.7691 -0.4365 -0.8151
 4564SOL    HW225326   0.635   4.342   5.631  0.2686  2.1022  1.3674
 4565SOL     OW25327   2.979   1.549   3.438  0.3414  0.8788 -0.3287
 4565SOL    HW125328   2.931   1.480   3.392  0.2292 -0.4939  1.8705
 4565SOL    HW225329   3.070   1.523   3.421  0.4201  1.2529 -0.4904
 4566SOL     OW25330   2.019   1.946   6.814  0.5118 -0.2871  0.0665
 4566SOL    HW125331   2.053   1.896   6.740  1.0447  1.2002 -0.7046
 4566SOL    HW225332   2.098   1.965   6.865  0.6614 -1.3423  0.2349
 4567SOL     OW25333   3.342   1.042   9.098  0.4980 -0.4976 -0.4548
 4567SOL    HW125334   3.340   0.965   9.154  0.5287 -0.5906 -0.5836
 4567SOL    HW225335   3.262   1.029   9.047 -0.5025 -1.6317  1.3990
 4568SOL     OW25336   4.198   2.388  13.939 -0.0766 -0.5631 -0.2269
 4568SOL    HW125337   4.164   2.469  13.902 -0.7490  0.4651  2.6954
 4568SOL    HW225338   4.257   2.359  13.870 -4.0032 -2.0525 -2.9501
 4569SOL     OW25339   1.944   0.924   9.366  0.3874  0.0543  0.2211
 4569SOL    HW125340   1.901   0.840   9.353 -1.1532  0.5321  2.3207
 4569SOL    HW225341   1.977   0.914   9.455  2.2772 -0.8509 -0.5898
 4570SOL     OW25342   4.151   3.574   6.331 -0.3152  0.2460  0.0127
 4570SOL    HW125343   4.106   3.610   6.255 -0.0950 -1.9485 -1.1811
 4570SOL    HW225344   4.093   3.609   6.398 -1.5628 -2.3586  0.3283
 4571SOL     OW25345   3.874   4.059  10.959  0.2954  0.0008  0.1467
 4571SOL    HW125346   3.900   4.118  11.030  0.8435  0.6714 -0.6115
 4571SOL    HW225347   3.851   4.118  10.888  0.1173 -0.4403 -0.1614
 4572SOL     OW25348   2.873   4.710   4.586 -0.0645  0.5163  0.0233
 4572SOL    HW125349   2.798   4.650   4.585 -0.7618  1.3659  0.6554
 4572SOL    HW225350   2.833   0.044   4.631  1.1686  0.5972  0.9751
 4573SOL     OW25351   0.353   4.135  14.023 -0.2525  0.0199  1.0237
 4573SOL    HW125352   0.272   4.088  14.045 -1.0421  0.7529 -0.3572
 4573SOL    HW225353   0.328   4.223  14.052 -2.2911 -1.1217  2.7518
 4574SOL     OW25354   1.558   1.197   0.021  0.5305  0.6325 -0.2646
 4574SOL    HW125355   1.599   1.132   0.078  0.4173  0.5971 -0.2237
 4574SOL    HW225356   1.469   1.191   0.056  0.0104  0.1820 -1.6534
 4575SOL     OW25357   3.225   3.498  11.376  0.1327  0.6556 -0.1183
 4575SOL    HW125358   3.254   3.586  11.403 -0.2205  0.5453  0.6189
 4575SOL    HW225359   3.296   3.446  11.414  2.0065  2.8793 -0.5746
 4576SOL     OW25360   2.540   3.779   8.473 -0.1224  0.3793  0.5190
 4576SOL    HW125361   2.481   3.850   8.450 -0.1392  0.3847  0.5784
 4576SOL    HW225362   2.579   3.764   8.386 -1.8422  1.6980 -0.4692
 4577SOL     OW25363   3.615   0.897   5.979  0.2378 -0.1356 -0.3349
 4577SOL    HW125364   3.601   0.991   5.987 -1.9100 -0.4748 -0.2615
 4577SOL    HW225365   3.711   0.891   5.982  0.2169  0.0349  0.8982
 4578SOL     OW25366   2.237   4.098   2.460 -0.5384 -0.1193 -0.0728
 4578SOL    HW125367   2.148   4.069   2.443 -0.6107  1.4947 -2.5272
 4578SOL    HW225368   2.261   4.146   2.381  2.2493  0.7421  1.3172
 4579SOL     OW25369   0.037   0.288  14.328 -0.1196 -0.2864  0.3278
 4579SOL    HW125370   0.109   0.344  14.299  1.5105 -0.8490  3.3300
 4579SOL    HW225371   4.709   0.354  14.330  0.6652  0.4758  1.3980
 4580SOL     OW25372   1.165   0.718   8.364  0.2764  0.1320  0.1004
 4580SOL    HW125373   1.132   0.781   8.429  0.6314  0.0002  0.4052
 4580SOL    HW225374   1.259   0.718   8.380  0.5447  2.0734 -1.4446
 4581SOL     OW25375   0.728   4.201   2.646 -0.1648 -0.9167 -0.1181
 4581SOL    HW125376   0.696   4.179   2.734  0.2249 -0.3253  0.1665
 4581SOL    HW225377   0.786   4.126   2.631 -0.7525 -1.3936 -0.0384
 4582SOL     OW25378   0.700   4.539   6.228 -0.5969  0.2855 -0.8925
 4582SOL    HW125379   0.684   4.446   6.247 -0.4246  0.7034  1.2767
 4582SOL    HW225380   0.740   4.543   6.142  0.7770  0.8720 -0.2167
 4583SOL     OW25381   3.354   1.293   3.048 -0.0862  0.8165 -0.2233
 4583SOL    HW125382   3.272   1.312   3.002 -0.6887  1.9291  1.3043
 4583SOL    HW225383   3.314   1.263   3.130  0.6461 -1.9239 -0.8625
 4584SOL     OW25384   1.852   1.636   5.670 -0.4566  0.0739 -0.2017
 4584SOL    HW125385   1.948   1.640   5.669 -0.4400 -0.1115  0.9963
 4584SOL    HW225386   1.834   1.728   5.653 -1.2700  0.8689  4.9154
 4585SOL     OW25387   2.513   1.939   4.851 -0.4402 -0.8272  0.4835
 4585SOL    HW125388   2.607   1.923   4.838 -0.3332 -1.7776  2.4512
 4585SOL    HW225389   2.494   2.003   4.783 -0.3613 -1.7147 -0.3712
 4586SOL     OW25390   0.395   4.119  15.548  0.0046 -0.7710  0.0298
 4586SOL    HW125391   0.330   4.138  15.481 -0.2132  0.3301  0.5509
 4586SOL    HW225392   0.377   4.030  15.579 -0.8799 -0.4241  0.4887
 4587SOL     OW25393   4.264   2.189   6.538 -0.0943  0.0952 -0.4628
 4587SOL    HW125394   4.298   2.099   6.536 -0.9752 -0.2375 -0.4343
 4587SOL    HW225395   4.259   2.211   6.444  2.2858  0.5255 -0.4769
 4588SOL     OW25396   0.630   0.938   0.661  0.1445  0.3012 -0.0989
 4588SOL    HW125397   0.716   0.925   0.622 -0.1225  0.2047 -0.6573
 4588SOL    HW225398   0.596   0.850   0.641  3.1998 -0.4607 -1.9138
 4589SOL     OW25399   3.354   3.876   4.184 -0.5630  0.5002  0.1654
 4589SOL    HW125400   3.400   3.808   4.135  0.7223 -0.0898  2.1987
 4589SOL    HW225401   3.390   3.865   4.272  1.4615 -0.6065 -0.7911
 4590SOL     OW25402   1.933   2.758   7.356 -0.5865 -0.0809  0.7265
 4590SOL    HW125403   1.922   2.716   7.270  0.9084 -0.1629  0.5816
 4590SOL    HW225404   1.849   2.740   7.398 -2.1745  0.1870 -2.3155
 4591SOL     OW25405   2.075   4.452   5.901  0.3628  0.6346 -0.1973
 4591SOL    HW125406   2.165   4.476   5.880  0.3193  0.4644 -0.5658
 4591SOL    HW225407   2.028   4.521   5.853 -1.0238 -0.6410 -0.6539
 4592SOL     OW25408   2.675   2.218   4.787  0.1633  0.0216 -0.2013
 4592SOL    HW125409   2.669   2.151   4.719  0.6907 -1.1130  0.8742
 4592SOL    HW225410   2.696   2.295   4.734  2.1495  0.0114  0.5643
 4593SOL     OW25411   3.949   3.963   9.114  1.0578 -0.2673  0.4356
 4593SOL    HW125412   3.993   3.926   9.190  0.7925 -0.7050  0.3754
 4593SOL    HW225413   3.882   4.011   9.161  0.1654 -1.6981  0.6247
 4594SOL     OW25414   1.970   1.105  10.764  0.0349 -0.4448  0.0487
 4594SOL    HW125415   1.957   1.175  10.699  2.2904 -0.9042 -0.8940
 4594SOL    HW225416   1.992   1.035  10.703  2.6121 -0.7871  1.3886
 4595SOL     OW25417   0.925   0.895   2.691 -0.0264  0.3539 -0.2801
 4595SOL    HW125418   0.911   0.805   2.661 -0.7743  0.2558  0.3407
 4595SOL    HW225419   1.002   0.931   2.647 -0.1145  0.8618 -0.0244
 4596SOL     OW25420   4.271   2.237  14.370 -0.9100 -0.1929  0.4590
 4596SOL    HW125421   4.195   2.274  14.415 -1.6019 -1.8342  0.6295
 4596SOL    HW225422   4.313   2.307  14.321  1.3766 -1.8779  0.0496
 4597SOL     OW25423   2.104   3.622   8.861 -0.0445  0.2056 -0.0105
 4597SOL    HW125424   2.137   3.542   8.822 -0.1256 -0.1954  0.7339
 4597SOL    HW225425   2.167   3.688   8.832 -1.2960  0.5592 -1.9312
 4598SOL     OW25426   3.220   4.573  12.884  0.0601  0.7414 -0.2450
 4598SOL    HW125427   3.285   4.531  12.827 -0.0169  1.0897 -0.5932
 4598SOL    HW225428   3.284   4.618  12.939 -2.5741  2.2860  1.5592
 4599SOL     OW25429   2.811   0.819  14.497  0.0967  0.1581 -0.0529
 4599SOL    HW125430   2.891   0.766  14.488  0.5386  0.3118  2.9443
 4599SOL    HW225431   2.778   0.801  14.410 -1.3064 -0.9976  0.7156
 4600SOL     OW25432   3.735   2.918   1.699  0.0132 -0.4380 -0.2277
 4600SOL    HW125433   3.677   2.973   1.752  0.2419  0.2701 -0.7063
 4600SOL    HW225434   3.810   2.977   1.683  1.3886 -2.2156 -0.2981
 4601SOL     OW25435   1.873   0.862   2.720 -0.0477  0.2290 -0.2881
 4601SOL    HW125436   1.938   0.902   2.777 -0.0540  0.8157 -0.6894
 4601SOL    HW225437   1.843   0.790   2.775  2.0400 -0.5847 -0.2023
 4602SOL     OW25438   0.194   1.760   9.040 -0.0114 -0.2954 -0.5060
 4602SOL    HW125439   0.105   1.755   9.076  1.3667 -0.1155  2.9542
 4602SOL    HW225440   0.224   1.841   9.082  2.1775 -1.7545  0.7157
 4603SOL     OW25441   2.309   3.898   7.171 -0.0612  0.1275 -0.1626
 4603SOL    HW125442   2.296   3.814   7.127 -1.0462  0.3485 -0.3022
 4603SOL    HW225443   2.336   3.947   7.093 -4.4770  1.0017 -1.1671
 4604SOL     OW25444   2.036   1.261   7.340  0.0588  0.4580  0.3160
 4604SOL    HW125445   2.074   1.211   7.412 -0.8129  1.8169  1.6872
 4604SOL    HW225446   2.045   1.194   7.271  1.6755 -0.0164  0.9864
 4605SOL     OW25447   2.179   0.308   3.545 -0.6338  0.7776 -0.5431
 4605SOL    HW125448   2.244   0.365   3.504 -0.9602  1.0864 -0.6282
 4605SOL    HW225449   2.229   0.227   3.552 -1.0139  0.4081 -2.1196
 4606SOL     OW25450   2.494   2.741   3.452  0.2208  0.1640  0.3843
 4606SOL    HW125451   2.432   2.799   3.408  2.0057  1.3026 -0.6243
 4606SOL    HW225452   2.478   2.658   3.407 -0.5353  0.2204  0.5446
 4607SOL     OW25453   2.546   0.099   3.278  0.4038 -0.4979  0.0193
 4607SOL    HW125454   2.632   0.110   3.319  0.8673 -0.5900 -0.9266
 4607SOL    HW225455   2.541   0.007   3.255 -0.4528 -0.9628  2.1161
 4608SOL     OW25456   1.300   4.397   7.428  0.7835  0.2198  0.0532
 4608SOL    HW125457   1.297   4.464   7.360  0.1896  1.9763  1.8181
 4608SOL    HW225458   1.346   4.323   7.386  1.0803  0.2448  0.3303
 4609SOL     OW25459   3.395   0.797   7.487 -0.0594 -0.0583  0.3410
 4609SOL    HW125460   3.358   0.710   7.475 -0.2630  0.5963 -3.8873
 4609SOL    HW225461   3.424   0.805   7.396 -1.1551 -0.0401  0.0017
 4610SOL     OW25462   4.412   2.300   7.708 -0.0752 -0.0719  0.4540
 4610SOL    HW125463   4.334   2.249   7.686  0.6911 -0.8883 -0.3595
 4610SOL    HW225464   4.476   2.232   7.686  1.4350  1.0372  1.4721
 4611SOL     OW25465   1.051   4.650   4.983 -0.1766 -0.3054  0.6539
 4611SOL    HW125466   1.107   4.572   4.983 -0.2246 -0.3403  0.3635
 4611SOL    HW225467   1.116   4.718   4.970  0.6463 -0.6260  3.0609
 4612SOL     OW25468   2.758   3.426   0.166  0.4494  0.3502 -0.0265
 4612SOL    HW125469   2.829   3.471   0.121 -0.2002 -1.8041 -3.2663
 4612SOL    HW225470   2.797   3.375   0.237  1.5847  2.5910  0.9374
 4613SOL     OW25471   2.656   4.086   5.767  0.1274  0.2296  0.1060
 4613SOL    HW125472   2.567   4.115   5.786 -0.3151 -0.9889 -0.0681
 4613SOL    HW225473   2.685   4.158   5.712 -1.9353  1.2874  0.3864
 4614SOL     OW25474   4.233   0.161  16.301  0.4465  0.2652  0.0270
 4614SOL    HW125475   4.166   0.176  16.234 -1.1072  1.1860  1.7997
 4614SOL    HW225476   4.232   0.247  16.344  0.0363  0.1485  0.2492
 4615SOL     OW25477   0.120   4.353   8.801  0.3803  0.0048  0.0985
 4615SOL    HW125478   0.041   4.331   8.752  1.2430  0.2294 -1.4087
 4615SOL    HW225479   0.122   4.285   8.869 -1.9935  0.3594  0.5292
 4616SOL     OW25480   1.355   4.212   1.211  0.5130 -0.1069  0.3306
 4616SOL    HW125481   1.321   4.299   1.193 -0.6698 -0.6237  0.0672
 4616SOL    HW225482   1.349   4.173   1.124 -0.4866 -1.1045  0.8387
 4617SOL     OW25483   0.384   3.108   4.846 -0.4853 -0.4525 -0.8690
 4617SOL    HW125484   0.363   3.199   4.865  3.0313 -0.1672  1.7372
 4617SOL    HW225485   0.292   3.083   4.848 -0.6745  0.1606 -1.6349
 4618SOL     OW25486   4.246   3.419  10.652  0.2998  0.2531  0.0543
 4618SOL    HW125487   4.313   3.435  10.718 -0.2034 -0.8940  0.8603
 4618SOL    HW225488   4.207   3.341  10.691 -1.9389  0.3578 -1.9429
 4619SOL     OW25489   4.004   3.227   4.775 -0.1046 -0.1414 -0.2116
 4619SOL    HW125490   3.948   3.164   4.730 -0.0214 -1.3174  1.3429
 4619SOL    HW225491   4.008   3.199   4.866  0.6231 -0.4221 -0.3242
 4620SOL     OW25492   0.351   0.668   8.344 -0.1263 -0.2172  0.0795
 4620SOL    HW125493   0.370   0.637   8.256  1.8203 -1.6593  1.0016
 4620SOL    HW225494   0.327   0.583   8.382 -0.5518  1.2378  3.1021
 4621SOL     OW25495   4.355   4.128  11.720  0.1026  0.2505  0.1810
 4621SOL    HW125496   4.388   4.121  11.630 -0.9393 -2.8032  0.0149
 4621SOL    HW225497   4.350   4.040  11.758 -1.7109  1.1623  2.0174
 4622SOL     OW25498   3.819   2.925  17.545 -0.6836 -0.5372 -0.1323
 4622SOL    HW125499   3.825   2.863  17.618  1.4192  1.3070  1.2614
 4622SOL    HW225500   3.910   2.948  17.529 -0.2760 -1.5886  0.6900
 4623SOL     OW25501   2.681   3.233   8.861 -0.6421  0.4064 -0.2301
 4623SOL    HW125502   2.630   3.216   8.941 -1.0002 -1.3654 -0.8370
 4623SOL    HW225503   2.608   3.254   8.802 -0.6499  2.9180  0.6722
 4624SOL     OW25504   0.293   0.613  11.795  0.9742 -0.7238  0.1285
 4624SOL    HW125505   0.364   0.626  11.859 -0.8878 -0.2810  2.1044
 4624SOL    HW225506   0.218   0.656  11.836 -0.8928 -2.4437 -1.5363
 4625SOL     OW25507   1.936   3.090  12.340  0.1987 -0.2727 -1.0863
 4625SOL    HW125508   2.024   3.100  12.303 -0.1790  0.2105 -1.8412
 4625SOL    HW225509   1.955   3.007  12.384  0.2592 -0.6770 -1.8841
 4626SOL     OW25510   2.137   2.909  10.335 -0.4830  0.1968 -0.2157
 4626SOL    HW125511   2.137   2.828  10.386  2.3442 -1.1240 -2.3428
 4626SOL    HW225512   2.217   2.890  10.287 -1.2527  0.9223 -1.7845
 4627SOL     OW25513   0.274   2.784   5.070  0.1340 -0.1182  0.1969
 4627SOL    HW125514   0.263   2.873   5.105 -0.2940  0.5089 -1.4804
 4627SOL    HW225515   0.186   2.747   5.060 -1.0105  2.2314  1.5825
 4628SOL     OW25516   4.456   2.193   4.375  0.7508  0.2966  0.6268
 4628SOL    HW125517   4.486   2.119   4.428 -1.5554 -1.2288 -0.1861
 4628SOL    HW225518   4.458   2.266   4.437 -1.0327 -1.0163  2.2222
 4629SOL     OW25519   3.212   4.264   7.005  0.9704 -0.1673 -0.2870
 4629SOL    HW125520   3.266   4.264   7.084 -1.6413 -1.7654  1.5089
 4629SOL    HW225521   3.197   4.169   7.004 -2.7862  0.4722 -1.9286
 4630SOL     OW25522   2.949   4.345   6.210  0.0788 -0.5605 -0.1824
 4630SOL    HW125523   3.041   4.341   6.184  0.1131  0.8626 -0.3011
 4630SOL    HW225524   2.919   4.258   6.185  0.8071 -0.7530 -0.3879
 4631SOL     OW25525   4.116   2.937  11.511  0.0338 -0.2988 -0.3313
 4631SOL    HW125526   4.048   3.004  11.520  0.7615  0.2769  0.9823
 4631SOL    HW225527   4.123   2.923  11.605  1.0674 -2.1282 -0.6879
 4632SOL     OW25528   3.133   1.189  12.426 -0.3922 -0.0884 -0.7941
 4632SOL    HW125529   3.192   1.265  12.428 -0.8941  0.2796  0.4589
 4632SOL    HW225530   3.044   1.222  12.438 -0.5685 -0.5061 -0.9651
 4633SOL     OW25531   2.181   4.155   2.737  0.0602  0.0539 -0.3062
 4633SOL    HW125532   2.204   4.161   2.644 -1.1537  0.8781 -0.5593
 4633SOL    HW225533   2.257   4.199   2.775 -0.1412  1.1144 -1.1233
 4634SOL     OW25534   1.862   1.100  15.376 -0.2679  0.3098 -0.2591
 4634SOL    HW125535   1.879   1.130  15.286 -1.2973 -0.4400 -0.7101
 4634SOL    HW225536   1.818   1.018  15.356  1.3424 -0.8846  1.0680
 4635SOL     OW25537   3.252   2.920   6.341 -0.6578 -0.1168  0.2254
 4635SOL    HW125538   3.177   2.953   6.291  1.8284  3.4513 -1.1206
 4635SOL    HW225539   3.316   2.969   6.290 -0.3000 -0.7282  0.0891
 4636SOL     OW25540   1.124   0.366   2.414  0.3687 -0.2215 -0.2111
 4636SOL    HW125541   1.204   0.416   2.430  1.3858 -2.1945  0.8614
 4636SOL    HW225542   1.124   0.366   2.318  0.8435 -0.4032 -0.2119
 4637SOL     OW25543   4.294   3.031  14.953  0.0995  0.0531 -0.1518
 4637SOL    HW125544   4.277   3.030  14.859 -0.0656 -2.7348 -0.0988
 4637SOL    HW225545   4.352   3.108  14.955  1.9624 -1.4123  2.9873
 4638SOL     OW25546   2.755   0.390   7.868 -0.9699 -0.1918 -0.2004
 4638SOL    HW125547   2.760   0.400   7.773 -0.4573 -1.0862 -0.2604
 4638SOL    HW225548   2.706   0.465   7.903  0.0117  1.1541 -1.7405
 4639SOL     OW25549   3.934   3.893   3.079 -0.2397  0.0758 -0.0621
 4639SOL    HW125550   3.945   3.802   3.053  0.1197 -0.2563  1.2426
 4639SOL    HW225551   3.873   3.924   3.012 -2.4041 -1.4392  1.1930
 4640SOL     OW25552   0.112   0.257   3.558 -0.3900 -0.0994  0.2232
 4640SOL    HW125553   0.136   0.180   3.609  2.4390 -0.8829 -2.2930
 4640SOL    HW225554   0.112   0.226   3.467 -0.5932 -0.0950  0.2212
 4641SOL     OW25555   0.267   2.017  15.511  0.2336 -0.1266  0.5476
 4641SOL    HW125556   0.351   1.970  15.514 -0.0071 -0.5308  1.0553
 4641SOL    HW225557   0.279   2.098  15.461  0.4719 -0.2159  0.4625
 4642SOL     OW25558   0.906   2.887  13.641  0.0849 -0.0901 -0.3275
 4642SOL    HW125559   0.854   2.948  13.693 -1.1242 -0.3471 -1.2430
 4642SOL    HW225560   0.835   2.835  13.604 -1.4544  1.2891  0.7003
 4643SOL     OW25561   4.399   3.231   9.812  0.2807  0.2694  0.2719
 4643SOL    HW125562   4.355   3.147   9.804 -0.3094  0.6441 -0.4014
 4643SOL    HW225563   4.465   3.197   9.872 -0.0861  0.1551  0.6119
 4644SOL     OW25564   1.411   2.983   2.667  0.1180 -0.0217  1.2077
 4644SOL    HW125565   1.319   2.989   2.691  0.0368  1.7316  0.4641
 4644SOL    HW225566   1.438   2.907   2.718  0.2456 -0.7937  0.0108
 4645SOL     OW25567   3.901   0.604   2.091 -0.0323 -0.2499 -0.1167
 4645SOL    HW125568   3.856   0.534   2.046  1.1352 -1.1271  0.0769
 4645SOL    HW225569   3.965   0.642   2.031 -0.5662 -0.0785 -0.5751
 4646SOL     OW25570   4.453   3.125   8.630 -0.9461  0.1096 -0.0263
 4646SOL    HW125571   4.451   3.166   8.544  0.8587  1.5579  0.6338
 4646SOL    HW225572   4.387   3.179   8.673 -0.1996  0.6379  0.4424
 4647SOL     OW25573   3.371   2.972   2.109  0.3580 -0.5016 -0.9518
 4647SOL    HW125574   3.305   2.909   2.080 -0.1155 -0.2542 -0.4155
 4647SOL    HW225575   3.449   2.918   2.105  0.9528  0.2412  0.4700
 4648SOL     OW25576   2.590   2.648  11.783 -0.0284 -0.3931  0.0017
 4648SOL    HW125577   2.543   2.625  11.863 -1.3909  0.8307 -0.4514
 4648SOL    HW225578   2.530   2.596  11.730 -0.6932 -1.4219  1.7886
 4649SOL     OW25579   3.923   3.888   3.841 -0.0705  0.0912  0.1281
 4649SOL    HW125580   3.943   3.799   3.869 -1.1435 -0.5592 -1.1890
 4649SOL    HW225581   3.835   3.892   3.878 -0.5136 -0.7459 -0.8575
 4650SOL     OW25582   2.747   0.608  16.102  0.2476 -0.0236 -0.1094
 4650SOL    HW125583   2.774   0.516  16.096  0.3213 -0.1783  2.6941
 4650SOL    HW225584   2.687   0.606  16.028 -0.8299  0.5350  0.7454
 4651SOL     OW25585   1.841   0.143   3.614  0.6310 -0.1854  0.4711
 4651SOL    HW125586   1.930   0.131   3.583 -0.1529 -1.9280 -1.0513
 4651SOL    HW225587   1.838   0.226   3.664 -0.5473  0.4747 -0.6935
 4652SOL     OW25588   3.778   4.117   5.645  0.3803  0.3183 -0.2079
 4652SOL    HW125589   3.748   4.206   5.666 -0.7833 -0.1658  0.1773
 4652SOL    HW225590   3.838   4.114   5.719  0.4927  0.7388 -0.2835
 4653SOL     OW25591   3.802   1.770   7.260 -0.8187  0.6106  0.2139
 4653SOL    HW125592   3.800   1.795   7.168 -1.1283 -0.7405 -0.1526
 4653SOL    HW225593   3.709   1.782   7.274 -1.0140 -0.9901  0.3145
 4654SOL     OW25594   2.545   4.213   3.137 -1.0416 -0.1305  0.2573
 4654SOL    HW125595   2.518   4.144   3.077  0.2143 -1.6562  1.4739
 4654SOL    HW225596   2.561   4.283   3.073 -0.9859 -0.8986 -0.5673
 4655SOL     OW25597   3.316   4.262   4.538  0.5191 -0.4635  0.3776
 4655SOL    HW125598   3.234   4.280   4.582 -1.0324 -0.9197 -2.3217
 4655SOL    HW225599   3.272   4.207   4.473 -0.4424 -0.1912  0.8036
 4656SOL     OW25600   1.709   4.306   2.836 -0.4342 -0.0415 -0.2266
 4656SOL    HW125601   1.626   4.337   2.799 -0.0006  2.9150  1.2694
 4656SOL    HW225602   1.777   4.356   2.792 -1.1487 -1.4154 -2.8546
 4657SOL     OW25603   0.281   2.737   5.720 -0.3980  0.5831 -0.0085
 4657SOL    HW125604   0.369   2.775   5.714  1.0234 -2.2475  2.4214
 4657SOL    HW225605   0.300   2.647   5.693  1.4599  1.1651 -0.6262
 4658SOL     OW25606   0.023   3.286   4.991 -0.8686  0.4866  0.2781
 4658SOL    HW125607   4.671   3.265   4.974  0.0919 -1.5341 -2.5859
 4658SOL    HW225608   0.036   3.367   4.941 -0.0877 -1.1818 -2.2298
 4659SOL     OW25609   4.733   1.334   1.121  0.3265  0.2647 -0.5142
 4659SOL    HW125610   4.739   1.381   1.204  2.6941 -0.3153 -0.3588
 4659SOL    HW225611   4.655   1.365   1.075  0.0464  2.4744  1.4472
 4660SOL     OW25612   1.755   0.361  10.937 -0.0305  0.4582  0.5751
 4660SOL    HW125613   1.782   0.281  10.983 -0.3570  0.3328  0.5465
 4660SOL    HW225614   1.704   0.410  11.001  0.0454  1.5343 -0.1954
 4661SOL     OW25615   0.604   1.226  16.842 -0.1923  0.1375 -0.4442
 4661SOL    HW125616   0.647   1.141  16.845 -0.1053  0.0814 -3.0811
 4661SOL    HW225617   0.614   1.250  16.934  1.6242 -1.9529 -0.1146
 4662SOL     OW25618   3.386   3.989   8.086  0.4431 -0.2353  0.3180
 4662SOL    HW125619   3.475   3.994   8.121  2.0234 -1.2907 -3.5280
 4662SOL    HW225620   3.405   3.993   7.992 -0.5686  0.9136  0.1720
 4663SOL     OW25621   4.038   3.834  10.117 -0.2213  0.2074  0.0140
 4663SOL    HW125622   4.085   3.916  10.102 -2.3524  1.2936 -0.7126
 4663SOL    HW225623   4.036   3.795  10.030 -0.5895 -0.6536  0.4150
 4664SOL     OW25624   2.127   4.047  13.169  0.3999 -0.3429 -0.0097
 4664SOL    HW125625   2.060   4.050  13.237  0.4768  2.5521 -0.0515
 4664SOL    HW225626   2.173   4.131  13.180  0.9051 -0.2467 -2.6672
 4665SOL     OW25627   3.367   4.376   7.569  0.0179  0.3489  0.4526
 4665SOL    HW125628   3.361   4.350   7.662  0.9835  2.0401  0.9774
 4665SOL    HW225629   3.344   4.468   7.576 -1.9060 -0.2237  1.9144
 4666SOL     OW25630   3.472   0.164  12.036 -0.3740  0.1205  0.2800
 4666SOL    HW125631   3.541   0.228  12.019 -0.4677 -0.3152 -1.7247
 4666SOL    HW225632   3.425   0.211  12.105  1.1840  2.5352 -0.2996
 4667SOL     OW25633   3.104   4.518   2.138 -0.3251  0.1831  0.1935
 4667SOL    HW125634   3.167   4.456   2.102  0.0480  0.3042  0.6419
 4667SOL    HW225635   3.144   4.601   2.114 -1.2057  1.3397  2.7358
 4668SOL     OW25636   1.809   4.504   4.689  0.2869 -0.0807 -0.5788
 4668SOL    HW125637   1.771   4.425   4.651 -0.9035 -0.5866  1.6206
 4668SOL    HW225638   1.885   4.478   4.742 -0.8548 -0.8182  0.7083
 4669SOL     OW25639   0.324   2.734   7.654  0.0791 -0.2749 -0.0031
 4669SOL    HW125640   0.285   2.817   7.628  1.4825  0.1695 -0.7419
 4669SOL    HW225641   0.277   2.666   7.606  1.3128 -1.0817 -0.0570
 4670SOL     OW25642   0.585   3.182   5.090 -0.2878 -0.3244 -0.1319
 4670SOL    HW125643   0.529   3.186   5.013 -0.7469  0.9895  0.2642
 4670SOL    HW225644   0.513   3.200   5.150 -0.0658 -0.9273  0.3161
 4671SOL     OW25645   3.223   3.418   7.669  0.0499  0.2473  0.0717
 4671SOL    HW125646   3.289   3.382   7.609 -0.7587  1.4529 -1.5424
 4671SOL    HW225647   3.264   3.504   7.680 -1.0209  0.6197  1.1376
 4672SOL     OW25648   1.260   2.314  16.374 -0.2256  0.1212 -0.2982
 4672SOL    HW125649   1.264   2.331  16.280 -2.5212 -3.1711 -0.9869
 4672SOL    HW225650   1.180   2.363  16.395 -0.7703 -1.1126  0.5116
 4673SOL     OW25651   4.457   4.340   7.968 -0.8256 -0.1401 -0.2622
 4673SOL    HW125652   4.393   4.338   8.040 -0.6519 -0.5847 -0.1202
 4673SOL    HW225653   4.415   4.412   7.921 -0.5499  0.0039 -0.2827
 4674SOL     OW25654   4.572   0.839   8.488 -0.1264 -0.0480 -0.1436
 4674SOL    HW125655   4.485   0.878   8.479  0.5183  1.8661  1.9248
 4674SOL    HW225656   4.618   0.873   8.411 -1.0589  0.0533 -0.6540
 4675SOL     OW25657   0.294   3.386   4.845  0.0059 -0.1245 -0.0888
 4675SOL    HW125658   0.355   3.458   4.826  1.2183 -0.9900  0.5823
 4675SOL    HW225659   0.207   3.421   4.824 -0.3653 -1.0183 -0.0388
 4676SOL     OW25660   1.953   0.307   9.693 -0.3464 -0.0702 -0.0406
 4676SOL    HW125661   1.947   0.229   9.637  0.5660 -1.0212  1.1686
 4676SOL    HW225662   2.046   0.321   9.709 -0.1078  0.3135 -1.7460
 4677SOL     OW25663   0.993   4.206   8.061 -0.0842  0.8479 -0.2200
 4677SOL    HW125664   0.987   4.113   8.083  0.3372  1.0755  0.8373
 4677SOL    HW225665   0.929   4.218   7.990 -0.4518 -1.0169 -0.1953
 4678SOL     OW25666   1.748   4.127   6.535  0.0327 -0.5651  0.1165
 4678SOL    HW125667   1.820   4.064   6.537 -0.2793 -0.9302  0.0579
 4678SOL    HW225668   1.731   4.126   6.629 -0.7631  1.5955 -0.0129
 4679SOL     OW25669   3.751   0.993   6.608  0.1719  0.1964  0.0054
 4679SOL    HW125670   3.785   0.904   6.605 -0.0469  0.0189  3.1253
 4679SOL    HW225671   3.830   1.047   6.610 -0.9439  1.8285 -0.1732
 4680SOL     OW25672   0.322   1.846  14.550 -0.1579 -0.5012  0.5503
 4680SOL    HW125673   0.413   1.851  14.523  0.2185 -3.0126  1.4169
 4680SOL    HW225674   0.310   1.932  14.589  0.8856  1.5900 -3.6989
 4681SOL     OW25675   3.320   2.877   8.486 -0.2679  0.3057 -0.5812
 4681SOL    HW125676   3.415   2.867   8.472 -0.2828 -1.9632  1.0536
 4681SOL    HW225677   3.305   2.969   8.465 -0.3462  0.6821  1.1460
 4682SOL     OW25678   3.481   4.444   7.276  0.1108 -0.3649 -0.3938
 4682SOL    HW125679   3.427   4.435   7.354 -0.3067 -3.2779 -1.0340
 4682SOL    HW225680   3.573   4.425   7.292 -0.0785 -0.4685  0.5969
 4683SOL     OW25681   3.528   0.292   4.881  0.0773  0.6079  0.0028
 4683SOL    HW125682   3.486   0.361   4.932  1.0864 -0.0651  1.7120
 4683SOL    HW225683   3.598   0.332   4.830  0.7922  0.7784  1.1351
 4684SOL     OW25684   0.694   3.784   2.550 -0.1931 -0.4638  0.1962
 4684SOL    HW125685   0.672   3.844   2.479 -0.4866 -1.2991 -0.4096
 4684SOL    HW225686   0.748   3.725   2.498  1.1471 -0.6649  1.8181
 4685SOL     OW25687   2.019   3.625   5.625 -0.8004  0.0062 -0.0184
 4685SOL    HW125688   1.941   3.679   5.629  1.2209  3.0632 -2.0139
 4685SOL    HW225689   2.067   3.648   5.545 -3.5469  1.1983 -1.3278
 4686SOL     OW25690   3.369   4.204   8.387  0.1469  0.2347  0.4776
 4686SOL    HW125691   3.312   4.245   8.451 -0.5855  1.5581 -1.0476
 4686SOL    HW225692   3.430   4.277   8.376 -0.3215  0.6761  0.8693
 4687SOL     OW25693   3.037   1.276   5.165  0.4067 -0.1229  0.3187
 4687SOL    HW125694   2.968   1.212   5.156  1.1760 -0.7184 -1.3889
 4687SOL    HW225695   2.994   1.346   5.115 -2.2111 -1.2007  1.0861
 4688SOL     OW25696   4.591   1.442   4.461  0.1765  0.4454  0.2363
 4688SOL    HW125697   4.508   1.401   4.436  0.3348 -0.2115  0.7729
 4688SOL    HW225698   4.580   1.520   4.407  2.7718  0.8336  0.2462
 4689SOL     OW25699   0.498   1.488  14.043 -0.3336  0.1685  0.0517
 4689SOL    HW125700   0.545   1.408  14.018 -1.7981 -1.2680  1.9068
 4689SOL    HW225701   0.423   1.480  13.983  0.4945 -0.2800 -0.9303
 4690SOL     OW25702   1.876   2.267   7.959  0.6578 -0.0834  0.5713
 4690SOL    HW125703   1.896   2.286   8.050 -0.2928 -2.4142  1.2642
 4690SOL    HW225704   1.965   2.282   7.927  0.6744  1.7738  1.5027
 4691SOL     OW25705   2.183   0.987   6.562 -0.1301 -0.7468 -0.5454
 4691SOL    HW125706   2.110   1.025   6.514  1.4583  1.4949 -1.1792
 4691SOL    HW225707   2.255   1.042   6.530  0.7063 -0.4132  1.8724
 4692SOL     OW25708   4.116   1.137   7.689 -0.4768  0.1345 -0.0063
 4692SOL    HW125709   4.059   1.070   7.726 -1.4116  0.8323 -0.1957
 4692SOL    HW225710   4.191   1.082   7.664  1.4701  1.4475  3.0095
 4693SOL     OW25711   1.319   1.447   4.995 -0.1660 -0.0260  0.4337
 4693SOL    HW125712   1.290   1.516   5.054 -2.5350  0.6903 -1.5768
 4693SOL    HW225713   1.396   1.416   5.043  0.3577 -1.6546 -1.4816
 4694SOL     OW25714   1.609   1.759  11.793 -0.6138 -0.4597 -0.0597
 4694SOL    HW125715   1.618   1.706  11.713 -1.5911 -1.0640  0.2311
 4694SOL    HW225716   1.608   1.699  11.867 -3.0858  2.5643  2.3597
 4695SOL     OW25717   4.705   1.793   4.538  0.0516  0.1757  0.0339
 4695SOL    HW125718   4.711   1.782   4.633  0.9755 -0.8868 -0.1549
 4695SOL    HW225719   0.020   1.723   4.503  0.2422  0.2828  0.1223
 4696SOL     OW25720   1.842   0.403   5.797 -0.3478 -0.4067 -0.0988
 4696SOL    HW125721   1.817   0.447   5.715  0.3077  0.3421  0.1092
 4696SOL    HW225722   1.860   0.316   5.760 -1.6470 -0.1268 -1.3817
 4697SOL     OW25723   3.241   3.362   1.300  0.4907  0.2305 -0.1859
 4697SOL    HW125724   3.293   3.411   1.237  1.4613 -0.1512  0.3164
 4697SOL    HW225725   3.309   3.357   1.368 -1.1573 -0.6093  1.4148
 4698SOL     OW25726   1.757   4.301   4.492  0.3164  0.2588 -0.0949
 4698SOL    HW125727   1.765   4.332   4.402  0.3664 -1.6011 -0.7262
 4698SOL    HW225728   1.849   4.284   4.515  0.5463  0.2524 -1.0316
 4699SOL     OW25729   2.482   4.674   3.901  0.1146 -0.0851  0.2155
 4699SOL    HW125730   2.558   4.730   3.884  0.8347 -1.0120  0.3986
 4699SOL    HW225731   2.403   4.728   3.898  0.6121  0.6963  1.1023
 4700SOL     OW25732   4.019   0.931   2.333  0.2218  1.1340  0.5868
 4700SOL    HW125733   4.063   0.929   2.248  0.9288 -2.0766  1.0414
 4700SOL    HW225734   3.975   0.846   2.326  0.6474  0.7070  3.0697
 4701SOL     OW25735   4.050   3.030  17.473 -0.2618  0.3799 -0.5616
 4701SOL    HW125736   4.067   2.984  17.391  3.3514  0.1514  0.3268
 4701SOL    HW225737   4.092   3.112  17.445 -2.1369  2.4746  2.7589
 4702SOL     OW25738   1.134   0.117   4.469 -0.1378 -0.0376 -0.0933
 4702SOL    HW125739   1.168   0.029   4.482  1.6256  0.4798 -1.2426
 4702SOL    HW225740   1.049   0.089   4.435 -0.2540 -0.1339  0.2747
 4703SOL     OW25741   0.073   0.283   2.819 -0.1755  0.5441 -0.8770
 4703SOL    HW125742   0.001   0.222   2.830 -0.0060  0.5605  0.2838
 4703SOL    HW225743   0.091   0.310   2.909 -1.5427  2.6348 -1.2322
 4704SOL     OW25744   4.434   3.029   7.353 -0.3359  0.2663  0.6586
 4704SOL    HW125745   4.442   3.112   7.306 -0.0520  0.2245  0.6315
 4704SOL    HW225746   4.519   3.007   7.391 -0.5491 -1.1998  0.2780
 4705SOL     OW25747   0.136   2.071   2.102 -0.2582  0.2675  0.2691
 4705SOL    HW125748   0.050   2.029   2.106 -1.0446  1.5111 -3.5644
 4705SOL    HW225749   0.108   2.163   2.104  0.9873  0.6868 -1.5151
 4706SOL     OW25750   3.370   2.371   6.872  0.7314 -1.5067 -0.5999
 4706SOL    HW125751   3.428   2.420   6.930 -2.2023  0.5833  0.5464
 4706SOL    HW225752   3.368   2.439   6.805  0.6675 -0.1759  0.7545
 4707SOL     OW25753   2.988   2.318   4.994 -0.3454  0.0933  0.3370
 4707SOL    HW125754   2.956   2.389   4.939 -1.9526 -1.6865 -1.0144
 4707SOL    HW225755   3.063   2.363   5.033 -0.6339  1.6429 -0.9138
 4708SOL     OW25756   0.722   1.294   6.271  0.3400 -0.3325  0.0302
 4708SOL    HW125757   0.799   1.241   6.293  1.8425  1.8238 -0.1104
 4708SOL    HW225758   0.757   1.336   6.192 -1.9876  1.6974  0.0991
 4709SOL     OW25759   2.872   4.302   5.066 -0.0324  0.2248  0.3023
 4709SOL    HW125760   2.811   4.335   5.000 -0.5368 -0.3736  0.4804
 4709SOL    HW225761   2.904   4.384   5.104  2.3510 -0.9875  0.8990
 4710SOL     OW25762   0.412   1.866   5.709 -0.4085 -0.7472  0.6609
 4710SOL    HW125763   0.326   1.890   5.674  0.0415 -1.0880 -0.6759
 4710SOL    HW225764   0.468   1.873   5.632 -1.8198 -0.4899 -0.3392
 4711SOL     OW25765   2.947   2.553   4.887 -0.0721 -0.1087  0.7890
 4711SOL    HW125766   2.979   2.526   4.801 -1.7223  0.1809  0.0634
 4711SOL    HW225767   2.890   2.629   4.871 -0.4821 -0.8071 -1.1492
 4712SOL     OW25768   2.642   3.300   3.790 -0.1154  0.3434  0.3518
 4712SOL    HW125769   2.668   3.383   3.750 -0.5595  0.9581  1.3097
 4712SOL    HW225770   2.549   3.315   3.810 -0.8175 -1.2908 -1.7039
 4713SOL     OW25771   2.977   4.710  17.385 -0.4626  0.7608 -0.0639
 4713SOL    HW125772   2.914   4.661  17.333  0.2953  0.2839 -0.5237
 4713SOL    HW225773   2.947   0.060  17.376 -2.5275  0.1534  1.0127
 4714SOL     OW25774   2.948   0.997   6.630 -0.8700  0.0606  0.4768
 4714SOL    HW125775   3.039   1.003   6.661 -0.5735 -4.6553  0.5751
 4714SOL    HW225776   2.915   1.061   6.693  2.2229  0.5320  1.6629
 4715SOL     OW25777   2.792   0.765   4.713 -0.1873  0.3410  0.3716
 4715SOL    HW125778   2.882   0.799   4.720  0.0547 -0.0413 -0.9042
 4715SOL    HW225779   2.752   0.812   4.640  0.0396  2.5551  1.6505
 4716SOL     OW25780   1.707   4.250   7.499  0.6342 -0.6305  0.6902
 4716SOL    HW125781   1.685   4.161   7.526  0.3493 -0.5312  0.7875
 4716SOL    HW225782   1.650   4.299   7.559  0.3853  1.8401 -1.5590
 4717SOL     OW25783   1.269   3.247  12.205 -0.4327  0.1058 -0.2095
 4717SOL    HW125784   1.286   3.336  12.236  2.8761 -0.6049 -0.0241
 4717SOL    HW225785   1.193   3.225  12.260 -0.9237  0.6992 -0.6570
 4718SOL     OW25786   3.289   3.330   2.462  0.0072 -0.0662 -0.3677
 4718SOL    HW125787   3.322   3.242   2.478  0.3822  0.2142  0.4339
 4718SOL    HW225788   3.200   3.306   2.438 -0.1487 -1.8721  2.0297
 4719SOL     OW25789   0.201   0.472  14.207 -0.2174 -0.2244  0.2286
 4719SOL    HW125790   0.134   0.505  14.148  0.8661  1.1815 -0.2215
 4719SOL    HW225791   0.274   0.459  14.147  0.3621  0.8690  0.7026
 4720SOL     OW25792   0.934   2.088   7.691  0.1520  0.2403  0.2663
 4720SOL    HW125793   1.009   2.137   7.724 -0.8138  2.9644 -1.5604
 4720SOL    HW225794   0.957   2.003   7.726 -1.3834  0.0218  0.7742
 4721SOL     OW25795   3.784   4.149   7.996  0.1073 -0.2586 -0.2420
 4721SOL    HW125796   3.809   4.170   7.906  0.0713 -1.4244 -0.5305
 4721SOL    HW225797   3.837   4.070   8.007  2.1734  1.0553 -0.7386
 4722SOL     OW25798   0.462   2.131   4.629  0.4045 -0.3619 -0.6744
 4722SOL    HW125799   0.388   2.165   4.579 -1.8803 -1.3532  2.0967
 4722SOL    HW225800   0.528   2.144   4.560  1.5946 -0.5419  0.4128
 4723SOL     OW25801   2.586   0.467  13.643 -0.4907 -0.0436  0.1869
 4723SOL    HW125802   2.557   0.384  13.680  0.4214 -0.3495  0.2110
 4723SOL    HW225803   2.620   0.514  13.719 -0.0846 -1.1440  0.6742
 4724SOL     OW25804   4.363   0.692   9.028  0.6306  0.2465  0.2631
 4724SOL    HW125805   4.457   0.682   9.016  0.4503 -0.2050 -0.7947
 4724SOL    HW225806   4.326   0.634   8.961  0.5388  1.4879 -0.7564
 4725SOL     OW25807   4.005   2.498   7.825 -0.3813  0.2536  0.2427
 4725SOL    HW125808   3.985   2.482   7.733  1.9497 -0.2576 -0.1880
 4725SOL    HW225809   4.082   2.441   7.826  0.0408  0.8517  1.5099
 4726SOL     OW25810   0.575   0.386   4.557  0.2756  0.5261 -0.9071
 4726SOL    HW125811   0.589   0.305   4.508 -0.6255  0.8596 -1.7151
 4726SOL    HW225812   0.637   0.370   4.628 -1.2861 -1.1663  0.0465
 4727SOL     OW25813   3.762   3.695   8.450  0.1131 -0.4014 -0.0803
 4727SOL    HW125814   3.718   3.730   8.527 -2.0275  0.6187 -1.7848
 4727SOL    HW225815   3.839   3.752   8.444  0.5218 -0.9884 -0.4675
 4728SOL     OW25816   1.075   0.998   6.309 -0.1759 -0.2529  0.4157
 4728SOL    HW125817   1.068   0.903   6.318  0.3439 -0.2648  0.6928
 4728SOL    HW225818   1.079   0.999   6.213  2.6366 -0.8627  0.5106
 4729SOL     OW25819   3.576   2.570  16.241  0.5205 -0.2375  0.6831
 4729SOL    HW125820   3.667   2.583  16.212  0.2587  0.8071  0.3522
 4729SOL    HW225821   3.574   2.636  16.310  1.9198  0.7628 -0.2382
 4730SOL     OW25822   0.613   2.798   4.700 -0.0834 -0.0550 -0.3832
 4730SOL    HW125823   0.591   2.802   4.793 -1.1308 -0.8431 -0.6007
 4730SOL    HW225824   0.579   2.884   4.673 -1.0869 -0.7082 -1.2026
 4731SOL     OW25825   4.584   2.335   4.822  0.3736 -0.2850 -0.2223
 4731SOL    HW125826   4.553   2.318   4.911  1.2169 -0.9198 -0.0440
 4731SOL    HW225827   4.635   2.255   4.810  2.3934  1.1126 -1.1818
 4732SOL     OW25828   0.167   0.772   0.778  0.9433  0.2430 -0.4256
 4732SOL    HW125829   0.153   0.727   0.861  1.1129 -0.1088 -0.5893
 4732SOL    HW225830   0.239   0.833   0.797  1.9171 -0.6121 -1.3766
 4733SOL     OW25831   4.121   3.535   8.141 -0.4491 -0.0110 -0.0919
 4733SOL    HW125832   4.095   3.553   8.231  1.6454  1.0652  0.2910
 4733SOL    HW225833   4.148   3.443   8.138 -0.3203 -0.0258  1.4114
 4734SOL     OW25834   2.118   0.531   2.842 -0.4389 -0.6643  0.3060
 4734SOL    HW125835   2.030   0.558   2.817  0.3827  2.9783  1.3856
 4734SOL    HW225836   2.162   0.534   2.757 -1.4670  2.5393 -0.1113
 4735SOL     OW25837   2.720   1.481   8.960 -0.0412 -0.3762 -0.3328
 4735SOL    HW125838   2.692   1.532   9.036  1.7748 -1.3722  0.9939
 4735SOL    HW225839   2.806   1.519   8.941  0.9711 -1.3598  2.2762
 4736SOL     OW25840   0.566   1.442  15.749 -0.1023 -0.0276  0.1298
 4736SOL    HW125841   0.609   1.357  15.735  0.1064 -0.1319  1.4127
 4736SOL    HW225842   0.557   1.459  15.655  1.2733 -0.7614 -0.1361
 4737SOL     OW25843   1.678   3.889   9.996 -0.8882 -0.1730  0.3519
 4737SOL    HW125844   1.728   3.887  10.077  0.8504 -0.0292 -0.7079
 4737SOL    HW225845   1.646   3.800  10.010 -0.8869 -0.0817  0.9235
 4738SOL     OW25846   3.232   4.588   3.210  0.2620  0.3606  0.1608
 4738SOL    HW125847   3.264   4.542   3.133 -1.4152 -1.1362  0.3239
 4738SOL    HW225848   3.318   4.615   3.241  0.4258  0.0503 -0.0285
 4739SOL     OW25849   4.015   2.184  16.411  0.2905  0.2685 -0.4168
 4739SOL    HW125850   4.089   2.226  16.456  1.2092 -2.0400  0.2322
 4739SOL    HW225851   4.024   2.091  16.431 -1.6030 -0.2228 -1.7929
 4740SOL     OW25852   0.795   1.415   0.319  0.1373 -0.5814 -0.0669
 4740SOL    HW125853   0.844   1.408   0.401 -0.9030 -0.1581  0.5898
 4740SOL    HW225854   0.713   1.369   0.338 -0.3666 -1.0778 -3.3961
 4741SOL     OW25855   3.974   3.913   1.610 -0.2055 -0.1334  0.1562
 4741SOL    HW125856   3.971   3.935   1.516 -0.1127  0.9009  0.3897
 4741SOL    HW225857   4.003   3.999   1.641 -3.8274  1.9620 -2.2382
 4742SOL     OW25858   4.520   2.947   5.397 -0.6474 -0.3627  0.1644
 4742SOL    HW125859   4.455   3.010   5.366 -0.5096 -0.4053 -0.2151
 4742SOL    HW225860   4.530   2.974   5.488  0.9389  0.5624 -0.2890
 4743SOL     OW25861   1.633   4.383   8.728  0.2218 -0.0512 -0.2584
 4743SOL    HW125862   1.627   4.476   8.753  1.5354  0.3081 -1.2964
 4743SOL    HW225863   1.542   4.367   8.702  0.0707  1.5007 -0.6862
 4744SOL     OW25864   0.021   2.213  10.876 -0.2012 -0.4105 -0.1229
 4744SOL    HW125865   0.115   2.225  10.864 -0.2770 -1.1498 -1.4626
 4744SOL    HW225866   0.008   2.236  10.968 -2.1230  1.2739 -0.8092
 4745SOL     OW25867   0.057   0.550   8.223 -0.0060 -0.1382  0.5006
 4745SOL    HW125868   0.055   0.461   8.256 -0.2417 -0.5419 -0.6012
 4745SOL    HW225869   0.065   0.599   8.305  0.8604 -1.8494  1.4343
 4746SOL     OW25870   2.963   2.822   2.009  0.2796  0.3021 -0.2122
 4746SOL    HW125871   2.884   2.867   2.041 -0.1569 -0.0449 -0.8003
 4746SOL    HW225872   2.950   2.839   1.916 -0.6521 -0.7287 -0.2680
 4747SOL     OW25873   1.260   2.513   3.168  0.8175 -0.8167  0.4434
 4747SOL    HW125874   1.217   2.596   3.147  0.5995 -1.5380 -2.0373
 4747SOL    HW225875   1.223   2.460   3.097  0.1304  2.7354 -1.8547
 4748SOL     OW25876   4.511   3.412  15.582  0.7505 -0.2466  0.5566
 4748SOL    HW125877   4.495   3.320  15.600  3.3106 -0.7959  0.0449
 4748SOL    HW225878   4.589   3.420  15.637  0.5590  3.6750  0.2488
 4749SOL     OW25879   0.245   3.655   7.402  0.1478 -0.0074  0.4026
 4749SOL    HW125880   0.326   3.678   7.358  0.4826  1.1610  1.6184
 4749SOL    HW225881   0.264   3.569   7.438 -0.6031 -0.6866 -0.8229
 4750SOL     OW25882   4.376   4.272   8.739 -0.7897  1.0707 -0.7297
 4750SOL    HW125883   4.347   4.193   8.785  0.0116  0.9351 -0.4570
 4750SOL    HW225884   4.315   4.280   8.666  0.2501 -3.3479 -2.1304
 4751SOL     OW25885   0.278   2.220   6.395  0.1269 -0.3186 -0.3021
 4751SOL    HW125886   0.206   2.163   6.420  0.9688 -1.5634 -0.7490
 4751SOL    HW225887   0.239   2.304   6.369  0.7050  0.1283  0.2970
 4752SOL     OW25888   1.647   2.608   6.791  0.3877 -0.1446  0.2592
 4752SOL    HW125889   1.663   2.524   6.749  0.1042 -0.5644  0.9840
 4752SOL    HW225890   1.686   2.673   6.733 -1.6930  0.4219 -0.4734
 4753SOL     OW25891   0.452   0.470  11.505  0.2003  0.3198  0.1822
 4753SOL    HW125892   0.542   0.470  11.473 -0.8620 -0.9096 -2.8286
 4753SOL    HW225893   0.429   0.384  11.471 -0.2411  0.6196 -0.2770
 4754SOL     OW25894   1.546   0.042   0.923 -0.0717  1.0537  0.3446
 4754SOL    HW125895   1.464   0.014   0.965 -0.7137  1.4985 -0.6253
 4754SOL    HW225896   1.531   0.137   0.917 -0.6910  0.8603 -1.1385
 4755SOL     OW25897   2.813   2.058   3.378 -0.5545 -0.0957 -0.5970
 4755SOL    HW125898   2.886   2.030   3.433  0.1914 -0.0921 -1.5892
 4755SOL    HW225899   2.778   2.136   3.421  0.9264 -0.2539  0.8987
 4756SOL     OW25900   0.832   4.589   9.497  0.5442 -0.4451 -0.0390
 4756SOL    HW125901   0.825   4.575   9.402 -0.6563 -2.2452  0.3343
 4756SOL    HW225902   0.817   4.682   9.514 -1.4004 -1.2953  2.8057
 4757SOL     OW25903   0.973   0.216   5.547  0.0736  0.3565 -0.3528
 4757SOL    HW125904   0.892   0.200   5.595 -0.0693  1.8598 -0.1017
 4757SOL    HW225905   0.941   0.257   5.466  0.0506 -0.7516 -0.9102
 4758SOL     OW25906   3.467   0.547   9.671 -0.1147 -0.3383  0.2615
 4758SOL    HW125907   3.473   0.582   9.760 -1.2510 -2.0220  0.9825
 4758SOL    HW225908   3.376   0.572   9.656  0.9021  2.4708 -1.1487
 4759SOL     OW25909   0.691   3.465   4.823 -0.2731  0.4004 -0.3912
 4759SOL    HW125910   0.699   3.547   4.775 -1.8195  0.2290 -0.9376
 4759SOL    HW225911   0.755   3.403   4.788  0.6138  1.3836 -0.5056
 4760SOL     OW25912   1.808   4.007   8.753  0.2642 -0.3247 -0.7158
 4760SOL    HW125913   1.889   4.027   8.705  0.9609  0.3878  0.7451
 4760SOL    HW225914   1.827   3.916   8.774 -0.3790  0.2612  2.5308
 4761SOL     OW25915   1.561   3.364   8.074  0.4459  0.5490  0.1853
 4761SOL    HW125916   1.535   3.454   8.053  1.2118  0.2227 -2.1870
 4761SOL    HW225917   1.544   3.315   7.993  0.1432  2.0137 -0.6385
 4762SOL     OW25918   1.554   3.792  15.442 -0.5783  0.0120 -0.0759
 4762SOL    HW125919   1.523   3.718  15.389  0.6424 -1.0498  0.6837
 4762SOL    HW225920   1.483   3.850  15.417 -0.2063 -0.0158 -1.1831
 4763SOL     OW25921   1.371   3.977   5.457 -0.4092  0.0351  0.2736
 4763SOL    HW125922   1.276   3.965   5.448 -0.2734 -1.3042  0.5095
 4763SOL    HW225923   1.384   3.974   5.552 -3.2644 -1.4857  0.6192
 4764SOL     OW25924   0.629   0.604   2.705  0.1421 -0.3983 -0.6462
 4764SOL    HW125925   0.642   0.695   2.731 -1.0154 -0.3791 -0.1137
 4764SOL    HW225926   0.722   0.593   2.685  0.6985  2.7238  0.2781
 4765SOL     OW25927   4.653   0.563   0.131 -0.4036 -0.3669 -0.2878
 4765SOL    HW125928   4.696   0.478   0.127 -0.4919 -0.3844 -0.8487
 4765SOL    HW225929   4.695   0.624   0.192  1.9578 -2.0925 -0.1858
 4766SOL     OW25930   3.430   3.680  11.611 -0.1593  0.0386 -0.4083
 4766SOL    HW125931   3.373   3.719  11.544 -1.2948  0.0672  0.5685
 4766SOL    HW225932   3.363   3.637  11.664  0.1367  1.3052  0.9808
 4767SOL     OW25933   3.529   0.229   3.949 -0.6705 -0.0849  0.0408
 4767SOL    HW125934   3.596   0.270   3.895 -0.2239  2.5733  2.6247
 4767SOL    HW225935   3.523   0.277   4.032 -1.9887  0.3732 -0.3117
 4768SOL     OW25936   2.584   1.146   2.653  0.3969  0.3284 -0.3372
 4768SOL    HW125937   2.564   1.201   2.728  0.3770  2.0501 -1.6051
 4768SOL    HW225938   2.500   1.106   2.628  0.6399  1.0618 -2.3146
 4769SOL     OW25939   0.256   2.756   4.750 -0.0789 -0.1947 -0.1143
 4769SOL    HW125940   0.161   2.742   4.746  0.0209 -0.7469 -0.5800
 4769SOL    HW225941   0.275   2.670   4.713 -0.9192  0.0441 -1.1219
 4770SOL     OW25942   3.946   2.418   3.101 -0.4694  0.0312 -0.2971
 4770SOL    HW125943   3.974   2.450   3.015 -0.1189 -1.1001 -0.6057
 4770SOL    HW225944   3.898   2.341   3.072 -0.6910 -0.3240  1.0118
 4771SOL     OW25945   3.179   2.530  13.348  0.4165 -0.1387  0.3407
 4771SOL    HW125946   3.182   2.470  13.423  2.2617 -0.1825  0.2364
 4771SOL    HW225947   3.089   2.547  13.318  0.3363  1.8254  1.7254
 4772SOL     OW25948   2.069   4.010   1.545  0.1793 -0.2172 -0.1529
 4772SOL    HW125949   2.013   4.078   1.508 -0.1305 -0.8609 -0.8801
 4772SOL    HW225950   2.142   4.017   1.484  0.5440  0.2048  0.3324
 4773SOL     OW25951   0.252   1.619   2.102  0.1879  0.1156 -0.2636
 4773SOL    HW125952   0.284   1.588   2.186  2.8917  0.2011 -1.2672
 4773SOL    HW225953   0.271   1.712   2.115 -1.2073  0.3635  0.0298
 4774SOL     OW25954   0.281   3.896   7.852  0.7091 -0.4221 -0.3279
 4774SOL    HW125955   0.284   3.898   7.757 -0.0665  1.0055 -0.3282
 4774SOL    HW225956   0.200   3.943   7.871  1.1671  0.9657 -1.8183
 4775SOL     OW25957   3.046   3.438   9.288  0.3962 -0.3376 -0.6294
 4775SOL    HW125958   3.050   3.360   9.232  1.6749 -0.9281  0.2790
 4775SOL    HW225959   2.990   3.496   9.237 -0.8782 -0.8035  0.2625
 4776SOL     OW25960   2.736   4.472  17.014  0.1634 -0.2590 -0.1855
 4776SOL    HW125961   2.665   4.532  16.993  0.4869  0.5680  1.0954
 4776SOL    HW225962   2.747   4.430  16.928 -1.2161  0.7149 -0.8249
 4777SOL     OW25963   2.646   2.837   6.587  0.2714  0.2610 -0.2546
 4777SOL    HW125964   2.684   2.765   6.537  1.0521  0.1149  0.5482
 4777SOL    HW225965   2.717   2.900   6.586  0.3763  0.0632 -3.5640
 4778SOL     OW25966   0.070   4.302   7.112  0.1535  0.6922  0.5102
 4778SOL    HW125967   0.130   4.229   7.098  0.0626  1.0472 -1.7842
 4778SOL    HW225968   0.049   4.277   7.202 -1.0567  0.4849  0.1734
 4779SOL     OW25969   1.547   3.927  13.486  0.5118 -0.7608 -0.3608
 4779SOL    HW125970   1.617   3.921  13.551  0.1754 -0.8216 -0.0074
 4779SOL    HW225971   1.465   3.937  13.533 -1.2250 -1.2092 -3.3051
 4780SOL     OW25972   2.983   3.704   5.067 -0.3254  0.1375 -0.3887
 4780SOL    HW125973   2.889   3.698   5.083 -0.4184  2.1070 -0.1687
 4780SOL    HW225974   3.011   3.734   5.154  0.3726  0.6126 -0.7789
 4781SOL     OW25975   3.636   3.761   9.015  0.2475  0.7224  0.5333
 4781SOL    HW125976   3.658   3.670   8.997  0.8253  0.5482  2.0582
 4781SOL    HW225977   3.656   3.763   9.109 -1.3898 -0.3199  0.9082
 4782SOL     OW25978   1.158   3.583   8.535  0.8075 -0.2698 -0.5284
 4782SOL    HW125979   1.161   3.650   8.604 -0.1266  0.0561 -0.8030
 4782SOL    HW225980   1.067   3.554   8.541  0.3717  1.2395  0.3912
 4783SOL     OW25981   2.677   3.135   3.468  0.5005 -0.1201  0.0672
 4783SOL    HW125982   2.591   3.094   3.463  1.1568 -1.4079 -0.6025
 4783SOL    HW225983   2.731   3.056   3.461  0.0844 -0.2611 -1.5021
 4784SOL     OW25984   3.861   2.018  17.567 -0.1491  0.7712 -0.0303
 4784SOL    HW125985   3.859   2.010  17.472  0.9747  2.3454 -0.1836
 4784SOL    HW225986   3.799   1.947  17.583 -2.0228  2.7027  1.1664
 4785SOL     OW25987   4.610   1.072   2.534 -0.3879 -0.1997 -0.2620
 4785SOL    HW125988   4.550   1.076   2.608  0.0590  1.0506  0.0289
 4785SOL    HW225989   4.569   1.007   2.477  0.8793 -0.5845 -0.7325
 4786SOL     OW25990   2.071   4.128   5.647  0.5233 -0.0273  0.2001
 4786SOL    HW125991   2.127   4.076   5.590  0.4481  0.5510 -0.3932
 4786SOL    HW225992   2.019   4.063   5.694 -2.7155  1.0474 -1.8801
 4787SOL     OW25993   0.145   2.621  17.477  0.1337 -0.0547  0.3327
 4787SOL    HW125994   0.122   2.660  17.393  1.7841  1.6765  0.6728
 4787SOL    HW225995   0.161   2.701  17.528  4.1421 -1.5736  1.4503
 4788SOL     OW25996   4.021   3.677   3.378  0.1424  0.2454  0.2720
 4788SOL    HW125997   3.957   3.675   3.449 -0.4376 -3.3660 -0.3816
 4788SOL    HW225998   3.986   3.602   3.331 -0.4462  0.2121  0.7646
 4789SOL     OW25999   0.686   4.728   6.420  0.2580  0.5858 -0.0359
 4789SOL    HW126000   0.616   4.707   6.482  0.2606  0.5099 -0.0586
 4789SOL    HW226001   0.685   4.643   6.376  0.3602 -0.0391  1.1700
 4790SOL     OW26002   0.339   4.070  10.574  0.5656 -0.1113 -0.3732
 4790SOL    HW126003   0.327   4.005  10.504 -1.2078 -0.8586  0.6179
 4790SOL    HW226004   0.326   4.147  10.518 -0.7089  0.2879  0.4814
 4791SOL     OW26005   1.448   4.164   6.955 -0.3468 -0.4121 -0.3732
 4791SOL    HW126006   1.367   4.215   6.958 -1.9290 -2.8170 -1.2837
 4791SOL    HW226007   1.410   4.093   6.903  2.0012  0.1533 -2.8662
 4792SOL     OW26008   0.874   3.869   5.545 -0.5142 -0.3814 -0.2541
 4792SOL    HW126009   0.914   3.803   5.602 -2.9507 -1.5916  0.0644
 4792SOL    HW226010   0.794   3.881   5.598 -1.3785  1.0394 -1.8979
 4793SOL     OW26011   2.932   4.545  16.423  0.2864 -0.2197 -0.0399
 4793SOL    HW126012   2.918   4.566  16.515  3.0528 -0.9133  0.5580
 4793SOL    HW226013   3.023   4.513  16.420  0.5462  0.4453  0.8680
 4794SOL     OW26014   0.527   1.496   9.267  0.3704 -0.8676 -0.5033
 4794SOL    HW126015   0.437   1.506   9.237 -0.6710  0.1633  3.0332
 4794SOL    HW226016   0.527   1.553   9.344 -0.7623 -1.3822 -0.1232
 4795SOL     OW26017   2.742   2.875  17.230 -0.6999  0.7718  0.2054
 4795SOL    HW126018   2.829   2.913  17.239 -0.2822 -0.5652  1.6792
 4795SOL    HW226019   2.690   2.915  17.299 -1.5710 -1.1108  0.6336
 4796SOL     OW26020   3.786   0.155   2.503 -0.6087  0.1967  0.1068
 4796SOL    HW126021   3.733   0.168   2.581 -2.7936 -0.8080 -1.1919
 4796SOL    HW226022   3.762   0.062   2.493  2.8309 -0.7725  0.9729
 4797SOL     OW26023   2.475   0.910  12.499 -0.5673 -0.1804  0.1955
 4797SOL    HW126024   2.389   0.951  12.493 -0.2273  0.1725 -2.5583
 4797SOL    HW226025   2.478   0.912  12.594 -1.1634  0.6579  0.1965
 4798SOL     OW26026   1.734   2.224  17.112  0.2711  0.0346 -0.3896
 4798SOL    HW126027   1.830   2.214  17.114  0.1977 -0.3934  1.3019
 4798SOL    HW226028   1.709   2.264  17.195  0.2723  0.3774 -0.5548
 4799SOL     OW26029   2.616   0.038   2.347  0.7790 -0.0240  0.4129
 4799SOL    HW126030   2.643   4.699   2.393  0.0806 -0.9257 -0.7504
 4799SOL    HW226031   2.638   0.007   2.260  0.5784  0.6807  0.1081
 4800SOL     OW26032   0.394   4.494   7.205 -0.0812  0.5082  0.4673
 4800SOL    HW126033   0.360   4.447   7.280 -0.5022  0.1029  0.0189
 4800SOL    HW226034   0.468   4.439   7.176 -1.4932  0.7330 -3.5860
 4801SOL     OW26035   0.550   2.455  13.870 -0.7300 -0.2894  0.0393
 4801SOL    HW126036   0.483   2.411  13.922 -0.7970  0.5725  0.6665
 4801SOL    HW226037   0.625   2.467  13.928 -0.8468  0.1069  0.1085
 4802SOL     OW26038   2.959   3.007   4.696  0.8382  0.0553 -0.0633
 4802SOL    HW126039   2.984   3.096   4.671 -0.7598 -0.3958 -3.2625
 4802SOL    HW226040   3.003   2.950   4.633  0.5877  1.0654 -1.1607
 4803SOL     OW26041   1.459   4.384   2.741 -0.3327  0.0123 -0.1108
 4803SOL    HW126042   1.453   4.374   2.646  0.4597  0.5927 -0.2171
 4803SOL    HW226043   1.449   4.479   2.745  2.3745  0.4086 -2.8903
 4804SOL     OW26044   3.154   4.426  13.098 -0.4428  0.0256 -0.0812
 4804SOL    HW126045   3.179   4.471  13.017  0.6029 -0.3394  0.0425
 4804SOL    HW226046   3.238   4.387  13.123  0.3444  1.4168 -0.5685
 4805SOL     OW26047   3.243   0.320  12.139  0.0503 -0.2136 -0.4263
 4805SOL    HW126048   3.170   0.258  12.135  1.4528 -1.9491  0.6262
 4805SOL    HW226049   3.206   0.385  12.198  1.2081  1.1411 -1.1991
 4806SOL     OW26050   1.774   1.861   1.611  0.0782 -0.4137  0.2423
 4806SOL    HW126051   1.714   1.860   1.537  0.7398  1.4711 -0.3387
 4806SOL    HW226052   1.749   1.788   1.666 -3.1922  0.1512 -0.5155
 4807SOL     OW26053   2.805   0.581   5.438 -0.4148 -0.0785  0.0760
 4807SOL    HW126054   2.865   0.523   5.391 -0.3849 -1.0263  1.2595
 4807SOL    HW226055   2.721   0.558   5.399 -0.0308  1.0202 -1.4010
 4808SOL     OW26056   4.654   3.043   8.076 -0.3753  0.4243  0.0965
 4808SOL    HW126057   0.007   3.059   8.066 -0.2791  0.6049  1.2828
 4808SOL    HW226058   4.631   3.130   8.108  0.3906  0.4625  0.5500
 4809SOL     OW26059   0.604   0.467   8.349 -0.0917 -0.7820 -0.0211
 4809SOL    HW126060   0.628   0.409   8.276 -0.9987 -0.4240 -0.6007
 4809SOL    HW226061   0.611   0.403   8.420 -1.8695 -0.3847  0.5198
 4810SOL     OW26062   1.385   3.530   0.410  0.0190 -0.0867 -0.1884
 4810SOL    HW126063   1.292   3.530   0.387  0.2370 -0.0751 -1.0616
 4810SOL    HW226064   1.428   3.469   0.351 -0.6949 -0.5682 -0.2135
 4811SOL     OW26065   2.765   0.495  14.286 -0.1594  0.5738  0.3800
 4811SOL    HW126066   2.851   0.455  14.301 -0.6605 -0.6314  0.0197
 4811SOL    HW226067   2.784   0.586  14.264 -0.2377  0.2494 -1.0105
 4812SOL     OW26068   3.434   3.797  17.088 -0.2152 -0.0024  0.0257
 4812SOL    HW126069   3.514   3.827  17.130  0.0941  1.5760 -1.6656
 4812SOL    HW226070   3.374   3.761  17.153  1.0725  0.5433  1.5020
 4813SOL     OW26071   0.051   1.350   0.131 -0.2678  0.4566  0.5106
 4813SOL    HW126072   0.013   1.369   0.045 -0.5855  1.5814  0.9012
 4813SOL    HW226073   4.727   1.375   0.197 -1.4477 -2.1770  0.3767
 4814SOL     OW26074   3.428   4.331   3.275  0.4590  0.0638  0.2939
 4814SOL    HW126075   3.504   4.385   3.253  0.3998  0.1945  0.4086
 4814SOL    HW226076   3.469   4.254   3.237  3.3973  2.5864 -1.6109
 4815SOL     OW26077   2.785   0.891   8.375 -0.3653  0.1506 -0.6677
 4815SOL    HW126078   2.772   0.917   8.467  0.4551 -0.2449 -0.4389
 4815SOL    HW226079   2.718   0.944   8.333 -1.2836 -0.4235  0.0517
 4816SOL     OW26080   0.824   3.740   7.531 -0.1129  0.2573 -0.4701
 4816SOL    HW126081   0.784   3.803   7.471 -0.2604  1.0480  0.4512
 4816SOL    HW226082   0.863   3.672   7.476 -0.4277  0.0006 -0.3769
 4817SOL     OW26083   1.232   3.333   6.110 -0.0995 -0.8396  0.0882
 4817SOL    HW126084   1.284   3.413   6.106 -0.4036 -0.5456  2.2290
 4817SOL    HW226085   1.148   3.379   6.117  0.4163  0.2500 -0.8118
 4818SOL     OW26086   0.831   3.274   4.129 -0.8478  0.0627  0.1286
 4818SOL    HW126087   0.744   3.296   4.163 -0.9050 -0.7039  0.4944
 4818SOL    HW226088   0.883   3.330   4.187 -1.0974 -0.8477  1.2304
 4819SOL     OW26089   3.556   1.149   9.842  0.4432 -0.4187 -0.0207
 4819SOL    HW126090   3.507   1.067   9.836 -0.8026  0.4805 -2.0498
 4819SOL    HW226091   3.550   1.189   9.756  1.4264  3.2746  1.6080
 4820SOL     OW26092   1.078   1.359   3.162 -0.5507 -0.9883 -0.1308
 4820SOL    HW126093   1.036   1.342   3.246 -0.1216 -0.9449  0.0943
 4820SOL    HW226094   1.041   1.443   3.134  1.0801 -0.5120 -0.8556
 4821SOL     OW26095   0.482   3.763  13.116  0.2118 -0.5670  0.2765
 4821SOL    HW126096   0.506   3.679  13.076  1.5663  0.3997 -0.9042
 4821SOL    HW226097   0.561   3.815  13.108 -0.7005  0.5926 -1.2537
 4822SOL     OW26098   0.483   2.348   6.937  0.6197  0.0606  0.6568
 4822SOL    HW126099   0.472   2.285   7.008 -1.5182 -0.6423 -0.3154
 4822SOL    HW226100   0.390   2.368   6.926  0.6939  0.9173  1.5521
 4823SOL     OW26101   4.568   2.196   2.709  0.2138 -0.1138 -0.4024
 4823SOL    HW126102   4.584   2.287   2.732 -1.4794  0.6232 -2.1085
 4823SOL    HW226103   4.549   2.211   2.616  1.2425  1.9308 -0.2816
 4824SOL     OW26104   1.069   3.474   5.847  0.0055 -0.4546 -0.6561
 4824SOL    HW126105   1.044   3.381   5.847 -1.8464  0.0187  1.0813
 4824SOL    HW226106   1.164   3.465   5.849 -0.0234 -0.6094  0.1190
 4825SOL     OW26107   3.575   1.710   4.941  0.1337 -0.1289 -0.5402
 4825SOL    HW126108   3.649   1.746   4.893  0.6666  0.5072  0.7513
 4825SOL    HW226109   3.611   1.691   5.028 -1.3355  0.0638  0.1081
 4826SOL     OW26110   1.243   0.620   5.290 -0.0340 -0.4683 -0.2380
 4826SOL    HW126111   1.222   0.528   5.308  0.2953 -0.0620  2.2107
 4826SOL    HW226112   1.331   0.623   5.327  0.1798  2.4689 -1.0314
 4827SOL     OW26113   0.118   3.718   3.333 -0.6072  0.3203 -0.4307
 4827SOL    HW126114   0.177   3.758   3.270  0.3321 -0.0104  0.2426
 4827SOL    HW226115   0.174   3.733   3.409  0.6356 -0.4631 -1.2088
 4828SOL     OW26116   3.951   0.957   7.780  0.7710 -1.1416 -0.2414
 4828SOL    HW126117   3.904   0.908   7.713 -0.6096 -0.6735  0.3904
 4828SOL    HW226118   3.939   0.895   7.852  0.0780 -0.8391 -0.0951
 4829SOL     OW26119   1.691   4.735   8.135 -0.6931 -0.6091 -0.8951
 4829SOL    HW126120   1.642   0.030   8.209  1.8460  1.0781 -0.0091
 4829SOL    HW226121   1.680   0.064   8.071  1.6013  0.0162 -0.6021
 4830SOL     OW26122   1.030   2.444   6.692  0.1689 -0.5812 -0.0139
 4830SOL    HW126123   1.034   2.522   6.636 -0.1487 -0.4790  0.1065
 4830SOL    HW226124   0.985   2.484   6.766 -2.4188 -0.9954 -1.3589
 4831SOL     OW26125   1.911   1.285   2.692  0.1611  0.1186 -0.2423
 4831SOL    HW126126   1.897   1.356   2.629 -1.2232  0.4170  0.4042
 4831SOL    HW226127   1.898   1.333   2.774 -0.7032 -0.0371 -0.2946
 4832SOL     OW26128   1.560   0.283   5.227  0.5843  0.8195 -0.5999
 4832SOL    HW126129   1.655   0.284   5.211  0.9159 -0.8199  1.1795
 4832SOL    HW226130   1.562   0.202   5.278 -2.7273  1.2132  0.1218
 4833SOL     OW26131   1.123   4.566  11.222  0.3099 -0.2695  0.1549
 4833SOL    HW126132   1.185   4.635  11.197  0.8903 -0.5513  0.8180
 4833SOL    HW226133   1.175   4.488  11.202  0.1060 -0.9815  2.4328
 4834SOL     OW26134   1.837   2.009  11.612 -0.2233 -0.2448 -0.5167
 4834SOL    HW126135   1.886   1.966  11.682  0.3824  3.0923  1.1075
 4834SOL    HW226136   1.832   2.093  11.657  0.0077 -0.7735  0.4785
 4835SOL     OW26137   1.806   3.171   0.605  0.2587 -0.0401 -0.1812
 4835SOL    HW126138   1.820   3.138   0.693  1.5706 -0.2856 -0.4781
 4835SOL    HW226139   1.891   3.154   0.564  0.0746 -2.8192  0.5866
 4836SOL     OW26140   3.735   1.231   1.365  0.3824  0.8161  0.3295
 4836SOL    HW126141   3.821   1.237   1.407  1.2061  1.1086 -1.4050
 4836SOL    HW226142   3.687   1.274   1.436 -1.8926 -3.1189  1.1842
 4837SOL     OW26143   1.411   1.698   9.137 -0.4113 -0.0944  0.2763
 4837SOL    HW126144   1.486   1.751   9.165  0.7318 -0.7334 -1.6305
 4837SOL    HW226145   1.357   1.705   9.216  2.6438  2.6625  2.1112
 4838SOL     OW26146   2.317   3.927   6.282  0.0757 -0.0966  0.4649
 4838SOL    HW126147   2.227   3.945   6.254  0.2709 -0.7813 -0.5895
 4838SOL    HW226148   2.338   3.860   6.217 -0.4102  1.4507 -1.2973
 4839SOL     OW26149   4.690   3.452   7.347  0.7075  0.3571  0.1823
 4839SOL    HW126150   4.626   3.501   7.399 -2.9841 -2.6988 -1.4578
 4839SOL    HW226151   4.724   3.527   7.297  0.3810  0.4330  0.0726
 4840SOL     OW26152   3.592   4.007   6.872 -0.1140 -0.2549  0.4356
 4840SOL    HW126153   3.629   3.926   6.907 -1.5592 -2.3345 -2.9329
 4840SOL    HW226154   3.663   4.067   6.896 -0.0111 -0.9529  1.8851
 4841SOL     OW26155   0.060   1.418  16.415 -0.0882 -0.7289  0.2569
 4841SOL    HW126156   0.151   1.445  16.404 -0.7624  1.9391  1.1547
 4841SOL    HW226157   0.064   1.378  16.502 -2.5186 -0.4411  0.5094
 4842SOL     OW26158   1.986   4.299   2.212 -0.0408 -0.7139  0.1535
 4842SOL    HW126159   1.916   4.363   2.199 -0.0502 -0.4918  1.2386
 4842SOL    HW226160   1.998   4.307   2.307  1.2545 -1.5742  0.0615
 4843SOL     OW26161   3.381   1.828   0.888 -0.5114  0.3762 -0.1290
 4843SOL    HW126162   3.345   1.861   0.806  1.3839  0.6646 -0.8318
 4843SOL    HW226163   3.406   1.739   0.865  0.5727  0.6754 -0.1118
 4844SOL     OW26164   1.083   1.261  14.032  0.1400 -0.2545  0.5328
 4844SOL    HW126165   1.073   1.186  13.973  2.0231 -0.0119 -0.0750
 4844SOL    HW226166   1.034   1.227  14.108 -1.0528  2.0592  0.8237
 4845SOL     OW26167   4.083   3.274   4.329 -0.4942  0.9720  0.2480
 4845SOL    HW126168   4.157   3.327   4.299  0.7369 -1.2644 -0.7124
 4845SOL    HW226169   4.081   3.295   4.422 -1.0797 -1.1289  0.7137
 4846SOL     OW26170   3.430   1.755  11.488 -0.4158 -0.5222  0.1515
 4846SOL    HW126171   3.349   1.792  11.454  1.0130  0.5528 -2.1333
 4846SOL    HW226172   3.458   1.699  11.415  1.8205 -0.7807  1.2160
 4847SOL     OW26173   0.838   0.754   3.265 -0.1372 -0.1900 -0.3222
 4847SOL    HW126174   0.832   0.746   3.170 -3.4471 -1.1036 -0.0339
 4847SOL    HW226175   0.796   0.675   3.299 -1.7280  0.0913 -1.6594
 4848SOL     OW26176   1.965   2.120   5.522  0.4872 -0.3819  0.4990
 4848SOL    HW126177   2.019   2.062   5.470 -1.0940  0.3433 -1.9732
 4848SOL    HW226178   2.012   2.203   5.518  0.4296 -0.3495  0.4885
 4849SOL     OW26179   2.158   1.012   7.261  0.6129  0.4754 -0.3228
 4849SOL    HW126180   2.240   1.008   7.310  1.3015  1.6690 -1.3832
 4849SOL    HW226181   2.147   0.923   7.226  0.1836  0.2222  0.4498
 4850SOL     OW26182   1.141   2.926   4.355  0.2889 -0.2929  0.4478
 4850SOL    HW126183   1.078   2.862   4.389  1.9089 -1.2302  1.7072
 4850SOL    HW226184   1.083   2.960   4.288 -1.9546 -2.0933  1.4677
 4851SOL     OW26185   1.151   0.060   6.874  0.3080 -0.1299 -0.4595
 4851SOL    HW126186   1.193   0.055   6.788 -1.4285 -1.2526 -1.2454
 4851SOL    HW226187   1.189   0.140   6.911 -1.1075  0.3063  0.0287
 4852SOL     OW26188   1.147   0.236   3.677 -0.1761 -0.5661 -0.5274
 4852SOL    HW126189   1.199   0.274   3.747 -0.4665  2.1735 -1.7983
 4852SOL    HW226190   1.080   0.179   3.714 -0.4376 -0.3357 -0.6468
 4853SOL     OW26191   1.743   3.738   5.629 -0.0040 -0.4196 -0.0039
 4853SOL    HW126192   1.719   3.745   5.536  0.3134 -1.5284 -0.1683
 4853SOL    HW226193   1.656   3.739   5.669 -0.0696  0.1777 -0.1486
 4854SOL     OW26194   1.001   1.759   4.572 -0.0777  0.1242  0.2421
 4854SOL    HW126195   0.990   1.743   4.478  2.6250  0.6874 -0.1616
 4854SOL    HW226196   0.987   1.854   4.576  2.9588  0.5195  1.1655
 4855SOL     OW26197   3.425   0.470   5.716 -0.0600 -0.4146  0.1785
 4855SOL    HW126198   3.478   0.396   5.746  1.4926  0.5936 -0.0350
 4855SOL    HW226199   3.490   0.511   5.659  1.4060 -2.0769  0.6411
 4856SOL     OW26200   3.883   3.294   8.680 -0.2829 -0.4809 -0.1260
 4856SOL    HW126201   3.938   3.260   8.609  0.0765 -0.8646  0.3333
 4856SOL    HW226202   3.919   3.382   8.692  0.3829 -0.6234 -1.0873
 4857SOL     OW26203   2.515   2.698   5.162 -0.4346 -0.0961 -0.5380
 4857SOL    HW126204   2.543   2.674   5.074 -1.8197  2.1341 -1.5767
 4857SOL    HW226205   2.440   2.638   5.169  1.6773 -2.4241  1.8209
 4858SOL     OW26206   3.226   4.464   4.986  0.1912 -0.3046 -0.3736
 4858SOL    HW126207   3.186   4.519   4.918  0.4037 -2.2384 -2.0982
 4858SOL    HW226208   3.158   4.457   5.053  0.0957  1.9050 -0.2694
 4859SOL     OW26209   4.447   3.612   5.872 -0.6138  0.1780 -0.4794
 4859SOL    HW126210   4.358   3.585   5.894 -0.5480  1.9244  1.9205
 4859SOL    HW226211   4.491   3.598   5.955 -0.2382  1.1624 -0.5160
 4860SOL     OW26212   0.950   1.764  10.141 -0.4122  0.0586  0.2902
 4860SOL    HW126213   0.922   1.729  10.225 -1.4688 -0.5940 -0.3429
 4860SOL    HW226214   0.931   1.857  10.153  1.4862  0.6359 -1.2122
 4861SOL     OW26215   0.312   2.443  15.766  0.2241  0.1269 -0.4336
 4861SOL    HW126216   0.323   2.349  15.774  0.0583  0.1423 -0.0280
 4861SOL    HW226217   0.329   2.459  15.673  2.0064  0.8184  0.0016
 4862SOL     OW26218   2.210   0.650   6.221 -0.2900  0.3313  0.2528
 4862SOL    HW126219   2.181   0.740   6.212 -1.2700 -0.1272 -1.0964
 4862SOL    HW226220   2.291   0.668   6.270 -0.2640 -0.2779  0.4409
 4863SOL     OW26221   0.324   3.533  10.308  0.5025 -0.1128  0.2019
 4863SOL    HW126222   0.369   3.562  10.228 -0.5360 -1.6395 -0.9468
 4863SOL    HW226223   0.365   3.447  10.316  1.5536  0.3662 -0.0719
 4864SOL     OW26224   4.591   1.851   6.103 -0.0125  0.0214 -0.9661
 4864SOL    HW126225   4.498   1.859   6.128  0.7372  1.9143  1.2425
 4864SOL    HW226226   4.633   1.919   6.156  2.0759 -0.6057 -1.8216
 4865SOL     OW26227   0.971   3.694   2.822  0.1762  0.2910 -0.5436
 4865SOL    HW126228   0.910   3.684   2.749 -1.4056 -0.6782  0.9068
 4865SOL    HW226229   0.970   3.604   2.856 -0.3938  0.3539 -0.3901
 4866SOL     OW26230   3.994   2.882   4.561 -0.1147 -0.5034 -0.8166
 4866SOL    HW126231   3.903   2.913   4.563  0.0595 -0.1136  1.0276
 4866SOL    HW226232   3.980   2.822   4.488 -0.1797 -1.2011 -0.2279
 4867SOL     OW26233   3.158   1.528   6.050  0.1502 -0.1993  0.0940
 4867SOL    HW126234   3.227   1.555   5.988 -0.9750 -1.2228 -1.5937
 4867SOL    HW226235   3.202   1.448   6.078 -0.6090 -1.6771 -2.9805
 4868SOL     OW26236   0.180   0.707   5.895 -0.1547 -0.1516  0.1289
 4868SOL    HW126237   0.172   0.696   5.990 -1.4173  0.9968  0.1568
 4868SOL    HW226238   0.166   0.801   5.887 -1.2212 -0.2403  0.9622
 4869SOL     OW26239   0.021   0.263   0.907  0.2582  0.2679  0.2022
 4869SOL    HW126240   0.073   0.207   0.965  1.6801  0.7412 -0.6139
 4869SOL    HW226241   4.691   0.202   0.886  1.6453 -1.8040  1.6145
 4870SOL     OW26242   0.115   2.415  15.013  0.8397 -0.2370 -0.1677
 4870SOL    HW126243   0.072   2.385  15.093  0.9161  3.1837  1.1611
 4870SOL    HW226244   0.104   2.510  15.020  2.1682 -0.2323  1.8080
 4871SOL     OW26245   3.432   0.054   7.307 -0.5815  0.1881  0.0723
 4871SOL    HW126246   3.375   4.720   7.286  2.2731 -1.9690  0.0121
 4871SOL    HW226247   3.378   0.131   7.291 -1.1534 -0.1902  0.1695
 4872SOL     OW26248   0.880   1.564   5.727 -0.3160 -0.2783 -0.2611
 4872SOL    HW126249   0.789   1.548   5.753 -0.4229  0.6284 -0.0995
 4872SOL    HW226250   0.931   1.504   5.781 -0.7361 -2.4476 -2.2684
 4873SOL     OW26251   2.359   0.210  12.085  0.4866  0.1246 -0.4104
 4873SOL    HW126252   2.379   0.265  12.161  2.0590  0.2011 -0.8876
 4873SOL    HW226253   2.426   0.141  12.084 -0.1863 -0.5205 -1.0073
 4874SOL     OW26254   2.495   3.631   0.829 -0.3908  0.4737 -0.2697
 4874SOL    HW126255   2.534   3.676   0.755 -0.2382 -2.0316 -1.7229
 4874SOL    HW226256   2.530   3.542   0.817 -1.8301 -0.1961  0.4913
 4875SOL     OW26257   4.416   3.083   6.896 -0.0375  0.2372  0.2513
 4875SOL    HW126258   4.400   3.166   6.850  0.0162  0.3366  0.4106
 4875SOL    HW226259   4.349   3.083   6.964 -0.8810 -0.6960 -0.5646
 4876SOL     OW26260   3.330   2.918  10.923  0.1247 -0.5199  0.1450
 4876SOL    HW126261   3.393   2.919  10.995 -0.8692  1.0558  0.9906
 4876SOL    HW226262   3.277   2.991  10.954 -1.1128 -2.0419  1.5525
 4877SOL     OW26263   4.251   2.139   2.911 -0.2739  0.1565  0.0569
 4877SOL    HW126264   4.287   2.109   2.827  1.4766 -2.6436  1.8034
 4877SOL    HW226265   4.203   2.061   2.939 -0.4547  0.6300  1.0533
 4878SOL     OW26266   1.831   2.141  13.048  0.1063  0.1875 -0.2430
 4878SOL    HW126267   1.781   2.088  13.110  0.8662  0.8816  0.9636
 4878SOL    HW226268   1.842   2.080  12.974  2.4079 -0.3145  0.5049
 4879SOL     OW26269   0.117   1.658   5.175  0.1822 -0.3527 -0.4603
 4879SOL    HW126270   0.091   1.595   5.108 -0.3234 -0.4335 -0.1901
 4879SOL    HW226271   0.208   1.638   5.197 -0.0008  0.2054  0.8100
 4880SOL     OW26272   1.592   0.940   4.492  0.2088  0.5579 -0.1676
 4880SOL    HW126273   1.685   0.960   4.506 -0.0328 -0.9697  3.5166
 4880SOL    HW226274   1.554   0.981   4.569 -1.0986 -1.5709  0.2957
 4881SOL     OW26275   3.358   1.465  13.981 -0.0207  0.2940  0.0427
 4881SOL    HW126276   3.373   1.512  13.899 -0.1665  1.3796  0.6300
 4881SOL    HW226277   3.277   1.504  14.012  0.1895 -0.1376  1.1208
 4882SOL     OW26278   2.588   1.715  11.574 -0.4742  0.3465 -0.4600
 4882SOL    HW126279   2.606   1.716  11.667  1.9702 -0.5264 -0.9376
 4882SOL    HW226280   2.675   1.703  11.536  0.7472  0.4391  2.3961
 4883SOL     OW26281   3.287   4.473   2.961  0.1680 -0.2146  0.0495
 4883SOL    HW126282   3.228   4.404   2.930  0.3520  0.1804 -1.1743
 4883SOL    HW226283   3.374   4.436   2.969 -0.2406 -0.7891  1.8691
 4884SOL     OW26284   1.957   4.687   7.592  0.2019 -0.1185  0.4318
 4884SOL    HW126285   1.912   4.710   7.673 -0.8673  0.5179 -0.3440
 4884SOL    HW226286   1.994   4.601   7.608 -0.7681 -0.4229  1.0576
 4885SOL     OW26287   2.473   4.116  11.549  0.0264  0.0247 -0.1318
 4885SOL    HW126288   2.380   4.113  11.570 -0.0821 -0.6411 -0.7107
 4885SOL    HW226289   2.475   4.131  11.455  3.1080 -0.2138 -0.1201
 4886SOL     OW26290   1.669   3.228   9.597 -0.1403  0.2754  0.0376
 4886SOL    HW126291   1.756   3.263   9.618  0.2626 -1.3384  1.0213
 4886SOL    HW226292   1.682   3.200   9.506  0.1058 -1.2629  0.5430
 4887SOL     OW26293   2.281   4.655   5.678 -0.3645 -0.2251  0.4129
 4887SOL    HW126294   2.353   4.717   5.665  0.2251 -1.0831 -0.4123
 4887SOL    HW226295   2.302   4.625   5.767 -0.8263 -0.9086  0.2907
 4888SOL     OW26296   3.183   1.380   0.666  0.1916 -0.1971  0.1505
 4888SOL    HW126297   3.232   1.354   0.588 -0.0261 -0.3188  0.0566
 4888SOL    HW226298   3.102   1.331   0.652 -0.5077  1.2825 -1.0535
 4889SOL     OW26299   2.666   3.231  13.188  0.0227 -0.2539  0.7658
 4889SOL    HW126300   2.726   3.235  13.113  1.2022 -3.1806  1.5755
 4889SOL    HW226301   2.589   3.275  13.152 -1.3633 -4.3060 -1.2408
 4890SOL     OW26302   0.790   1.100   8.041  0.1809 -0.0484  0.0322
 4890SOL    HW126303   0.850   1.167   8.008 -0.3240  0.8267  0.9259
 4890SOL    HW226304   0.748   1.153   8.108  0.0864 -0.5555  0.3660
 4891SOL     OW26305   0.053   4.505  11.376  0.0392  0.3474 -0.1487
 4891SOL    HW126306   0.142   4.492  11.343  0.3236 -0.3201  0.8775
 4891SOL    HW226307   0.078   4.518  11.467  0.9631  0.3305 -0.4022
 4892SOL     OW26308   3.404   0.111   6.278  0.1952  0.5028  0.5199
 4892SOL    HW126309   3.455   0.191   6.288  0.1228  0.7290 -0.8871
 4892SOL    HW226310   3.345   0.140   6.208 -1.4668 -0.2441  1.6054
 4893SOL     OW26311   2.125   3.139   7.152 -0.4390  0.5149  0.3671
 4893SOL    HW126312   2.167   3.225   7.160 -1.2354  0.7867  1.7378
 4893SOL    HW226313   2.169   3.080   7.213 -1.6394 -1.7530 -0.9664
 4894SOL     OW26314   1.925   2.394   4.431 -0.8244  0.1216 -0.2407
 4894SOL    HW126315   1.901   2.340   4.355 -0.4560 -0.2307 -0.1039
 4894SOL    HW226316   1.852   2.456   4.435 -0.8951  0.0687 -0.6094
 4895SOL     OW26317   4.542   1.752   8.770 -0.1997  0.3579 -0.4640
 4895SOL    HW126318   4.508   1.760   8.859  3.0684 -0.8317  0.9030
 4895SOL    HW226319   4.476   1.696   8.729  2.7812 -3.4522  0.0001
 4896SOL     OW26320   3.940   1.356   3.960  0.7775  0.2855 -0.1151
 4896SOL    HW126321   3.987   1.435   3.989  0.8895 -0.2591  1.1839
 4896SOL    HW226322   3.923   1.309   4.042  0.9462  2.8553  1.4037
 4897SOL     OW26323   3.797   3.331   7.776 -0.1499 -0.7034 -0.3837
 4897SOL    HW126324   3.829   3.296   7.859  0.0538 -2.2826 -1.1217
 4897SOL    HW226325   3.797   3.249   7.727 -0.2884 -0.8297 -0.1711
 4898SOL     OW26326   0.529   0.352  11.778  0.0720  0.3464  0.3809
 4898SOL    HW126327   0.473   0.283  11.742 -1.1480  0.7043  1.5673
 4898SOL    HW226328   0.607   0.336  11.724 -0.4388  0.2667 -0.3454
 4899SOL     OW26329   2.001   3.069   8.729 -0.2401  0.3550 -0.4454
 4899SOL    HW126330   1.922   3.039   8.682  0.9613 -2.1989 -0.8377
 4899SOL    HW226331   2.055   2.997   8.697 -0.1181  0.8010 -1.2548
 4900SOL     OW26332   3.222   1.742  13.696  0.1795  0.2013  0.6472
 4900SOL    HW126333   3.286   1.714  13.762  2.9292  0.4807 -1.8965
 4900SOL    HW226334   3.200   1.830  13.728 -0.7555  0.5421 -0.9798
 4901SOL     OW26335   1.783   0.724  12.353 -0.0633  0.2514  0.3113
 4901SOL    HW126336   1.857   0.664  12.344  0.1843  0.6572 -0.2980
 4901SOL    HW226337   1.721   0.670  12.305  2.4552 -3.5430  1.3469
 4902SOL     OW26338   2.634   2.857   4.775 -0.5236  0.0246 -0.7442
 4902SOL    HW126339   2.541   2.858   4.752 -1.1655 -0.0631  1.9303
 4902SOL    HW226340   2.652   2.950   4.787  1.5828 -0.4952  0.0535
 4903SOL     OW26341   3.745   0.875  14.208  0.4895 -0.1437  0.2905
 4903SOL    HW126342   3.735   0.862  14.302 -1.2207 -1.2293 -0.0464
 4903SOL    HW226343   3.728   0.785  14.181  1.7817  0.1129 -1.4232
 4904SOL     OW26344   2.083   0.349   5.080  0.2749 -0.8254  0.1579
 4904SOL    HW126345   2.166   0.366   5.037 -1.5070 -0.0474 -3.0324
 4904SOL    HW226346   2.104   0.341   5.173  0.1000  1.2536  0.3800
 4905SOL     OW26347   0.448   4.148   5.285 -0.3973  0.2668  0.2392
 4905SOL    HW126348   0.497   4.149   5.367  0.4493  2.8522 -0.3116
 4905SOL    HW226349   0.455   4.057   5.256  0.5633  0.0676  1.1003
 4906SOL     OW26350   3.658   4.347   5.718 -0.1489  0.6603 -0.1871
 4906SOL    HW126351   3.681   4.432   5.755  0.3568 -0.4293  1.9869
 4906SOL    HW226352   3.581   4.327   5.772  0.0117 -2.4845 -1.0822
 4907SOL     OW26353   2.443   0.174  13.401 -0.5456  0.2816 -0.3162
 4907SOL    HW126354   2.448   0.192  13.495 -0.8039  0.9220 -0.4218
 4907SOL    HW226355   2.369   0.114  13.394  0.4265 -0.7971 -1.3631
 4908SOL     OW26356   4.101   1.538  16.793 -0.2822 -0.2071 -0.1861
 4908SOL    HW126357   4.035   1.556  16.726 -2.2744 -1.2946  1.4838
 4908SOL    HW226358   4.093   1.616  16.849  1.6244  1.3274 -2.0552
 4909SOL     OW26359   2.971   3.406  14.508  0.2921 -0.4355  0.3281
 4909SOL    HW126360   3.025   3.343  14.556  1.2148 -2.1641 -2.9563
 4909SOL    HW226361   2.948   3.473  14.572  1.2544  0.0526  0.1673
 4910SOL     OW26362   2.764   1.184   1.434  0.0244  0.1038 -0.0592
 4910SOL    HW126363   2.694   1.200   1.370 -1.0175  0.5702  1.2075
 4910SOL    HW226364   2.747   1.241   1.508 -1.3666 -1.8261  1.1074
 4911SOL     OW26365   1.779   1.792   6.839  0.1972 -0.0345  0.3540
 4911SOL    HW126366   1.731   1.800   6.921  0.3685  3.9274  0.0537
 4911SOL    HW226367   1.849   1.855   6.855 -0.3262  0.4206  0.8261
 4912SOL     OW26368   0.239   0.715   4.751  0.2913 -0.0245 -0.3787
 4912SOL    HW126369   0.242   0.620   4.739  1.7409 -0.2740  2.0150
 4912SOL    HW226370   0.320   0.720   4.801 -1.3208 -0.0385  2.2393
 4913SOL     OW26371   4.030   3.502  15.619  0.3931  0.8384 -0.1601
 4913SOL    HW126372   4.108   3.459  15.585  0.7420  0.4450  1.1492
 4913SOL    HW226373   4.042   3.474  15.710  0.9244  0.9742 -0.1912
 4914SOL     OW26374   0.401   0.955   3.988  0.0091  0.3920 -0.1396
 4914SOL    HW126375   0.343   0.927   4.059  0.0178  0.5448 -0.0703
 4914SOL    HW226376   0.484   0.915   4.016 -1.0202 -0.6230  1.4790
 4915SOL     OW26377   1.829   1.983   4.729 -0.4930  0.2173  0.5498
 4915SOL    HW126378   1.838   1.961   4.822  0.6912  0.5595  0.5147
 4915SOL    HW226379   1.763   1.921   4.699 -0.1487  0.3306 -0.4321
 4916SOL     OW26380   0.430   1.423   5.012 -0.2843 -0.1765  0.2965
 4916SOL    HW126381   0.382   1.477   5.074 -1.3830 -1.0656  0.2138
 4916SOL    HW226382   0.506   1.478   4.993 -0.9268 -0.0814 -2.0454
 4917SOL     OW26383   2.194   2.123   4.418  0.4579  0.0552 -0.5979
 4917SOL    HW126384   2.269   2.088   4.370  0.4297 -0.7391 -0.0500
 4917SOL    HW226385   2.208   2.218   4.420 -1.3686  0.3168 -0.0063
 4918SOL     OW26386   1.594   2.488   3.388  0.0558  0.4186  1.7374
 4918SOL    HW126387   1.673   2.482   3.440  0.6059  2.2797  1.1291
 4918SOL    HW226388   1.647   2.492   3.309 -0.9607  1.0538  1.0881
 4919SOL     OW26389   0.886   0.191   6.739 -0.3052 -0.4183 -0.7922
 4919SOL    HW126390   0.890   0.098   6.721 -2.0667 -0.8431  0.9279
 4919SOL    HW226391   0.925   0.202   6.826 -0.9715 -0.7105 -0.4590
 4920SOL     OW26392   1.250   3.551   8.140 -0.4517 -0.1162 -0.4035
 4920SOL    HW126393   1.274   3.537   8.049 -0.3339  0.8138 -0.5142
 4920SOL    HW226394   1.158   3.578   8.135  0.2031  2.4180  1.6874
 4921SOL     OW26395   3.322   3.074   7.565 -0.2253  0.1628  0.4973
 4921SOL    HW126396   3.254   3.098   7.502  0.1026 -1.7348 -0.5896
 4921SOL    HW226397   3.375   3.015   7.512 -1.2944 -0.0217 -0.3620
 4922SOL     OW26398   1.466   4.100   8.083 -0.0148 -0.0634 -0.2843
 4922SOL    HW126399   1.486   4.181   8.131  0.2828  0.1072 -0.6961
 4922SOL    HW226400   1.501   4.040   8.149  1.5659 -0.8592 -1.8605
 4923SOL     OW26401   1.970   4.220   9.441 -0.0369  0.5602  0.2979
 4923SOL    HW126402   1.962   4.215   9.346 -0.2756 -1.1130  0.4121
 4923SOL    HW226403   1.932   4.134   9.459  1.4087 -0.1889 -0.2558
 4924SOL     OW26404   2.806   1.805   3.732  0.1611  0.0921 -0.0670
 4924SOL    HW126405   2.820   1.877   3.793 -1.0783  1.2321 -1.1310
 4924SOL    HW226406   2.887   1.796   3.683 -0.0915  0.8087 -0.6159
 4925SOL     OW26407   1.258   1.064   2.299  0.3603 -0.2381  0.1232
 4925SOL    HW126408   1.255   1.159   2.304  2.1597 -0.0865 -1.6538
 4925SOL    HW226409   1.278   1.040   2.389 -2.9885 -1.5389  0.5193
 4926SOL     OW26410   0.857   1.190   3.711  0.6339 -0.5066  0.1414
 4926SOL    HW126411   0.822   1.159   3.795 -1.2398 -1.4225 -0.9789
 4926SOL    HW226412   0.775   1.206   3.665  1.5498  1.9639 -0.5918
 4927SOL     OW26413   2.455   1.297   7.451 -0.2749  0.0200  0.6265
 4927SOL    HW126414   2.481   1.225   7.394  0.2193 -0.0624  0.9527
 4927SOL    HW226415   2.380   1.255   7.493 -0.1343 -0.0363  0.8200
 4928SOL     OW26416   3.916   3.046   6.962  0.0373 -0.2411  0.3374
 4928SOL    HW126417   3.844   3.053   7.025  0.4953 -0.6071  0.8966
 4928SOL    HW226418   3.917   3.131   6.918  1.8606  0.6516  2.1199
 4929SOL     OW26419   0.493   4.430   6.004  0.6073 -0.7195 -0.3321
 4929SOL    HW126420   0.413   4.426   5.952  0.4615 -1.3432 -0.0592
 4929SOL    HW226421   0.499   4.349   6.055 -0.8343 -0.7667 -0.2422
 4930SOL     OW26422   1.546   1.395   6.911 -0.1760 -0.0293  0.3219
 4930SOL    HW126423   1.631   1.439   6.904  0.1295 -0.6809 -0.0827
 4930SOL    HW226424   1.530   1.370   7.002 -0.5467 -1.7465 -0.2215
 4931SOL     OW26425   3.668   0.491   9.177 -0.5716 -0.7485  0.0516
 4931SOL    HW126426   3.652   0.506   9.270  0.0850  2.0771 -0.2827
 4931SOL    HW226427   3.579   0.495   9.141 -0.1802  4.3496 -0.3782
 4932SOL     OW26428   0.440   3.888   4.876 -0.0281 -0.4858  0.2145
 4932SOL    HW126429   0.347   3.865   4.878 -0.5231  1.4589 -0.1684
 4932SOL    HW226430   0.428   3.958   4.811 -0.8886 -1.4680 -0.6732
 4933SOL     OW26431   3.479   3.095   2.946  0.1159 -0.7654  0.1208
 4933SOL    HW126432   3.514   3.039   3.015  0.9311  0.2476  0.5323
 4933SOL    HW226433   3.547   3.161   2.933  0.1179 -0.9678 -0.9240
 4934SOL     OW26434   3.368   2.899   5.100 -0.0695  0.1072 -0.2805
 4934SOL    HW126435   3.317   2.971   5.063  0.4623  0.8519  0.4243
 4934SOL    HW226436   3.361   2.841   5.025  3.7813  0.2600 -0.7331
 4935SOL     OW26437   3.315   1.779  10.923 -0.1695  0.4109  0.1604
 4935SOL    HW126438   3.380   1.787  10.853 -0.0462 -3.3103 -0.1297
 4935SOL    HW226439   3.259   1.708  10.892  0.0697  0.5125 -0.5127
 4936SOL     OW26440   2.256   0.282   9.774 -0.2387  0.3241  0.4314
 4936SOL    HW126441   2.333   0.235   9.743  1.4319  0.7526  3.9599
 4936SOL    HW226442   2.247   0.354   9.712  1.1988 -0.2302 -0.4188
 4937SOL     OW26443   2.119   3.243   4.002 -0.3129  0.0757 -0.2901
 4937SOL    HW126444   2.065   3.214   3.929 -0.6250 -0.5194  0.1760
 4937SOL    HW226445   2.183   3.172   4.004 -0.1115  0.2568 -0.2383
 4938SOL     OW26446   2.631   1.696   7.309  0.0796 -0.2054  0.3992
 4938SOL    HW126447   2.606   1.630   7.374 -2.4123  0.3035 -0.0146
 4938SOL    HW226448   2.615   1.780   7.353  2.2954  0.7137 -0.5546
 4939SOL     OW26449   1.317   4.079   7.689 -0.3225  0.1091 -0.1551
 4939SOL    HW126450   1.245   4.031   7.648  1.1309 -3.0948  0.9944
 4939SOL    HW226451   1.272   4.129   7.757  0.1222 -0.6500  0.7067
 4940SOL     OW26452   1.512   4.492   7.576 -0.6557 -0.2641  0.3556
 4940SOL    HW126453   1.436   4.443   7.543 -1.3636 -0.2524  1.9863
 4940SOL    HW226454   1.556   4.506   7.492 -2.9359 -0.1339 -0.8129
 4941SOL     OW26455   1.663   2.533  13.005  0.1025 -0.6428  0.0961
 4941SOL    HW126456   1.658   2.585  12.924 -4.4947 -0.2797  0.6223
 4941SOL    HW226457   1.730   2.577  13.057 -0.4984  0.1530  0.1938
 4942SOL     OW26458   4.519   2.795   7.490 -0.3910 -0.1875 -0.0061
 4942SOL    HW126459   4.579   2.834   7.428  0.4402  1.4954  1.8600
 4942SOL    HW226460   4.559   2.819   7.574  0.3433 -2.8267  0.4110
 4943SOL     OW26461   4.027   3.997   4.968 -0.1085 -0.5077 -0.0444
 4943SOL    HW126462   3.952   3.956   5.011 -0.5264  1.4341  1.0900
 4943SOL    HW226463   4.013   3.978   4.876 -0.3771 -1.9856  0.3057
 4944SOL     OW26464   4.238   4.187  10.846 -0.3894  0.0121  0.9934
 4944SOL    HW126465   4.163   4.243  10.827 -1.8967 -2.4267 -0.3091
 4944SOL    HW226466   4.291   4.189  10.767 -2.7290 -1.6154 -0.6142
 4945SOL     OW26467   4.700   1.961   2.393  0.2540 -0.4685 -0.4512
 4945SOL    HW126468   4.668   1.914   2.470  0.6163  1.3141  0.7837
 4945SOL    HW226469   0.053   1.971   2.411  0.0702 -0.5254  0.5502
 4946SOL     OW26470   2.411   0.968   9.814  0.0015  0.3569  0.4483
 4946SOL    HW126471   2.495   0.960   9.860 -2.4034 -2.0599  4.3721
 4946SOL    HW226472   2.407   0.881   9.775 -1.6018 -0.2560  1.9883
 4947SOL     OW26473   4.454   2.620  10.201  0.3436 -0.1083  0.7975
 4947SOL    HW126474   4.519   2.688  10.183  0.9555 -1.0442 -0.5209
 4947SOL    HW226475   4.376   2.675  10.201 -0.8541 -1.8089  1.6780
 4948SOL     OW26476   4.345   1.534   9.108 -0.0169  0.0538 -0.1789
 4948SOL    HW126477   4.382   1.470   9.048 -1.0244  0.1648 -0.9127
 4948SOL    HW226478   4.253   1.529   9.085 -0.0392 -3.5206  0.7653
 4949SOL     OW26479   1.852   0.063   4.299 -0.3599 -0.3053 -0.1731
 4949SOL    HW126480   1.769   0.038   4.339 -2.2731  0.9923 -3.3192
 4949SOL    HW226481   1.873   0.140   4.352  0.6263 -0.0880 -0.8777
 4950SOL     OW26482   0.305   1.534   5.548  0.0016 -0.2095 -0.1485
 4950SOL    HW126483   0.278   1.443   5.539 -1.4561  0.4240 -2.3366
 4950SOL    HW226484   0.390   1.525   5.505  0.0725 -2.2309  0.4457
 4951SOL     OW26485   2.313   1.679  12.471  0.3200  0.6090  0.2091
 4951SOL    HW126486   2.314   1.632  12.555 -3.0385  1.4183  0.6956
 4951SOL    HW226487   2.224   1.716  12.473  0.8650  1.8728  0.7946
 4952SOL     OW26488   4.279   1.775   2.606  0.4925  0.3948 -0.2411
 4952SOL    HW126489   4.332   1.835   2.659 -0.5571  1.2756 -0.1653
 4952SOL    HW226490   4.224   1.734   2.673  0.7143  2.8921  1.4888
 4953SOL     OW26491   1.174   1.054   7.221  0.0290 -0.4350 -0.6534
 4953SOL    HW126492   1.148   1.112   7.293  1.1467 -1.3304  0.4693
 4953SOL    HW226493   1.268   1.049   7.239 -0.6177 -2.7189  2.1437
 4954SOL     OW26494   0.439   2.158  14.292  0.5100  0.0309  0.0894
 4954SOL    HW126495   0.475   2.074  14.319  0.7815  0.8892  2.3948
 4954SOL    HW226496   0.352   2.157  14.332  0.7340 -1.0180  0.5307
 4955SOL     OW26497   2.257   3.463   5.224 -0.2700  0.1561 -0.4887
 4955SOL    HW126498   2.270   3.523   5.150  3.7579  0.1737  0.2191
 4955SOL    HW226499   2.240   3.382   5.176 -2.5793  0.2747  0.1437
 4956SOL     OW26500   4.399   4.597   8.513 -0.1210  0.5160 -0.9383
 4956SOL    HW126501   4.319   4.562   8.473 -0.7874  1.3040 -0.2768
 4956SOL    HW226502   4.420   4.667   8.451  0.0564  0.8777 -0.4643
 4957SOL     OW26503   1.481   1.598   4.026  1.0605 -0.1881 -0.2637
 4957SOL    HW126504   1.427   1.528   4.062 -0.0682  0.9247  0.1909
 4957SOL    HW226505   1.424   1.675   4.026  2.4401  0.8283 -1.5558
 4958SOL     OW26506   1.556   4.330  15.299 -0.0001  0.0027 -0.0433
 4958SOL    HW126507   1.567   4.319  15.205 -1.8715  1.2988 -0.4099
 4958SOL    HW226508   1.482   4.390  15.297  0.1716  0.0970 -3.5570
 4959SOL     OW26509   1.068   4.535   0.732 -0.0521 -0.1273 -0.1271
 4959SOL    HW126510   1.127   4.463   0.708 -0.9585 -0.6596 -0.7706
 4959SOL    HW226511   1.124   4.586   0.790  0.1704 -2.0577  1.3553
 4960SOL     OW26512   3.707   1.785   2.431 -0.3023  0.0336 -0.9068
 4960SOL    HW126513   3.713   1.754   2.341 -1.0751  0.9770 -1.2870
 4960SOL    HW226514   3.701   1.876   2.402  3.7093 -0.4287 -3.1950
 4961SOL     OW26515   2.473   3.079   4.827  0.1133 -0.0934 -0.3116
 4961SOL    HW126516   2.511   3.117   4.748 -0.1941 -0.4408 -0.6253
 4961SOL    HW226517   2.382   3.068   4.798 -0.6679  1.2588  1.5932
 4962SOL     OW26518   1.060   4.407   6.293  0.1987 -0.6715  0.3907
 4962SOL    HW126519   1.004   4.435   6.366  1.7000 -1.5573  1.8849
 4962SOL    HW226520   1.145   4.412   6.338  0.2314  1.4588  0.0953
 4963SOL     OW26521   1.606   3.347  14.072  0.5255  0.5704 -0.0673
 4963SOL    HW126522   1.697   3.324  14.056  0.5019 -0.2356  0.9865
 4963SOL    HW226523   1.557   3.272  14.039 -1.3673  1.9442 -0.4539
 4964SOL     OW26524   3.574   0.364   1.644 -0.0804  0.1800 -0.6755
 4964SOL    HW126525   3.593   0.410   1.562  2.3969 -0.1890 -0.3140
 4964SOL    HW226526   3.557   0.443   1.696  2.5154  0.2389  0.0712
 4965SOL     OW26527   1.252   2.270  17.597 -0.2672 -0.0770 -0.8424
 4965SOL    HW126528   1.206   2.190  17.624 -2.8259  1.6115 -0.2342
 4965SOL    HW226529   1.241   2.319  17.678  0.5455 -0.1067 -0.7103
 4966SOL     OW26530   3.265   3.833   3.880  0.1616 -0.7047  0.0477
 4966SOL    HW126531   3.325   3.875   3.818  0.1808 -1.5017 -0.4634
 4966SOL    HW226532   3.212   3.907   3.909  1.4921  0.0089  0.6880
 4967SOL     OW26533   2.492   0.394   0.008  0.7221 -0.1411  0.0953
 4967SOL    HW126534   2.435   0.464   0.041 -0.0969 -0.2161 -1.1564
 4967SOL    HW226535   2.456   0.324   0.062 -0.6829  1.2666  0.9582
 4968SOL     OW26536   1.598   1.578   6.249  0.1337  0.1335  0.2905
 4968SOL    HW126537   1.563   1.614   6.168 -0.5841 -0.8405  0.1745
 4968SOL    HW226538   1.536   1.617   6.309  0.1926 -0.0134  0.4484
 4969SOL     OW26539   4.500   4.652   2.889  0.2092  0.2255  0.1903
 4969SOL    HW126540   4.481   4.648   2.795 -0.3816 -0.6063  0.3451
 4969SOL    HW226541   4.594   4.638   2.883  0.2082  0.2595  0.0946
 4970SOL     OW26542   4.098   2.254   6.769 -0.2278  1.0924 -0.0640
 4970SOL    HW126543   4.160   2.249   6.696  0.7232 -2.8974  1.0045
 4970SOL    HW226544   4.141   2.300   6.841 -2.8653  1.0163  1.5345
 4971SOL     OW26545   2.265   0.277   1.018 -0.2545 -0.6333 -0.1315
 4971SOL    HW126546   2.228   0.261   0.932 -0.3336 -0.5622 -0.1102
 4971SOL    HW226547   2.189   0.320   1.058  0.4640 -0.1613  0.7277
 4972SOL     OW26548   2.838   0.600   8.216 -0.1896 -0.3733 -0.1666
 4972SOL    HW126549   2.781   0.592   8.140 -0.3787 -1.8648  0.1361
 4972SOL    HW226550   2.794   0.671   8.262 -1.5858 -0.4948 -1.3210
 4973SOL     OW26551   0.002   2.094  16.151 -0.1810  0.6016  0.1557
 4973SOL    HW126552   0.065   2.124  16.085 -0.7388 -1.4662 -1.3149
 4973SOL    HW226553   0.034   2.008  16.181  0.8871  1.0204  0.2199
 4974SOL     OW26554   2.196   4.658   5.331 -0.1271 -0.3980  0.7183
 4974SOL    HW126555   2.102   4.645   5.316  0.6311 -3.9181 -1.1250
 4974SOL    HW226556   2.225   4.672   5.241  0.1336 -0.0569  0.8549
 4975SOL     OW26557   2.417   4.225   5.820 -0.3978  0.4819 -0.7254
 4975SOL    HW126558   2.337   4.219   5.872  2.0391 -0.5387  2.9340
 4975SOL    HW226559   2.464   4.302   5.852  1.0972  0.1474 -2.0880
 4976SOL     OW26560   2.548   2.025   2.876 -0.0712  0.3038 -0.0247
 4976SOL    HW126561   2.581   2.056   2.792  1.1338  1.3886  0.8432
 4976SOL    HW226562   2.607   2.069   2.938 -0.2767  0.5625 -0.0128
 4977SOL     OW26563   2.527   3.911   5.432 -0.1294  0.1244  0.2287
 4977SOL    HW126564   2.589   3.922   5.360 -0.3098  2.0970  0.3742
 4977SOL    HW226565   2.447   3.927   5.382 -2.7704 -3.1052  3.4897
 4978SOL     OW26566   4.374   0.705   9.995 -0.2209  0.0815 -0.5306
 4978SOL    HW126567   4.413   0.785   9.961 -0.9044  0.1546 -1.1546
 4978SOL    HW226568   4.430   0.675  10.066  1.3944  3.1244 -0.5604
 4979SOL     OW26569   1.628   2.903   0.395  0.2062 -0.4820  0.1394
 4979SOL    HW126570   1.544   2.881   0.434 -1.7579  1.0588 -3.2332
 4979SOL    HW226571   1.681   2.860   0.462  1.9699 -0.3543 -1.1830
 4980SOL     OW26572   1.697   2.061  12.546  0.3939  0.2353  0.0957
 4980SOL    HW126573   1.749   2.067  12.626  0.7202  1.3074 -0.1952
 4980SOL    HW226574   1.627   2.124  12.566  0.6364 -0.6493  3.6436
 4981SOL     OW26575   4.136   2.368   4.560  0.6498  0.4656  0.3211
 4981SOL    HW126576   4.209   2.374   4.498  0.2152  0.4273 -0.1912
 4981SOL    HW226577   4.072   2.425   4.517  1.0448  0.3408 -0.4343
 4982SOL     OW26578   4.390   1.697   4.643  0.0237  0.2942 -0.2893
 4982SOL    HW126579   4.298   1.674   4.656 -0.2191  0.0591 -2.3550
 4982SOL    HW226580   4.392   1.771   4.704 -1.4092 -1.7248  2.1858
 4983SOL     OW26581   1.461   3.744   5.659 -0.2575 -0.0545  0.6224
 4983SOL    HW126582   1.478   3.661   5.614 -1.0542  0.3282 -0.3903
 4983SOL    HW226583   1.365   3.740   5.667 -0.2282  2.0208  1.9851
 4984SOL     OW26584   0.555   4.598   8.761 -0.2589  0.0069  0.1850
 4984SOL    HW126585   0.488   4.529   8.766 -1.3693  1.2419  2.1667
 4984SOL    HW226586   0.503   4.671   8.729  1.0046  0.1614 -1.5330
 4985SOL     OW26587   3.008   0.818   8.781  0.0308 -0.1660  0.1702
 4985SOL    HW126588   3.061   0.744   8.809  0.4588  0.9138  2.2451
 4985SOL    HW226589   2.984   0.781   8.696 -0.8481 -1.0863  0.8264
 4986SOL     OW26590   2.166   0.645   8.751  0.0689  0.0182 -0.3066
 4986SOL    HW126591   2.105   0.684   8.688 -0.5073  0.7237  0.7056
 4986SOL    HW226592   2.195   0.719   8.804  3.1545 -0.7286 -0.9278
 4987SOL     OW26593   2.618   1.003   9.990  0.2437  0.1397  0.0902
 4987SOL    HW126594   2.633   1.096  10.010 -2.2831  0.6824 -0.5602
 4987SOL    HW226595   2.703   0.966  10.015  0.0519 -1.8553 -2.2083
 4988SOL     OW26596   1.625   0.014   6.230 -0.3344  0.2497 -0.1803
 4988SOL    HW126597   1.667   0.016   6.144 -1.0755  0.6569 -0.5394
 4988SOL    HW226598   1.665   0.081   6.284 -1.0715  0.8611 -0.3899
 4989SOL     OW26599   3.756   3.075  13.558 -0.2633  0.4261  0.8997
 4989SOL    HW126600   3.674   3.101  13.516  0.2631  0.4994 -0.0782
 4989SOL    HW226601   3.733   3.082  13.650 -2.0111 -2.3654  0.6622
 4990SOL     OW26602   3.593   3.242   6.869 -0.0681  0.8324  0.0298
 4990SOL    HW126603   3.680   3.283   6.876  0.4950 -0.5851  1.2938
 4990SOL    HW226604   3.591   3.211   6.778 -0.4691 -1.1386  0.7169
 4991SOL     OW26605   4.454   2.781   1.673 -0.2923  0.1210 -0.1331
 4991SOL    HW126606   4.402   2.708   1.706 -0.5959  0.5051  0.2465
 4991SOL    HW226607   4.412   2.851   1.722  1.4233  1.2109 -0.2055
 4992SOL     OW26608   2.525   3.379   5.283 -0.6057 -0.3111 -0.0935
 4992SOL    HW126609   2.540   3.309   5.220  0.3300  0.2797 -0.5227
 4992SOL    HW226610   2.434   3.406   5.270 -1.1721 -1.6572  1.1072
 4993SOL     OW26611   4.516   0.346   9.916  0.3028  0.0497 -0.0346
 4993SOL    HW126612   4.504   0.346  10.011 -1.5766 -1.2287 -0.2720
 4993SOL    HW226613   4.444   0.405   9.892  2.1367  1.5113 -1.9564
 4994SOL     OW26614   0.378   2.165  15.265 -0.5556 -0.3845  0.7424
 4994SOL    HW126615   0.372   2.227  15.192 -0.4400 -2.2972 -0.9081
 4994SOL    HW226616   0.468   2.131  15.265 -0.7436 -0.8894 -1.1116
 4995SOL     OW26617   2.332   2.003   8.251 -0.1321  0.2076 -0.3954
 4995SOL    HW126618   2.256   2.032   8.200 -0.4161  0.0809 -0.0505
 4995SOL    HW226619   2.338   1.911   8.227 -2.3547 -0.5674  1.9315
 4996SOL     OW26620   1.383   4.099   0.957  0.4025  0.6948  0.0978
 4996SOL    HW126621   1.477   4.100   0.971  0.7481 -1.9301 -2.1240
 4996SOL    HW226622   1.378   4.122   0.864  0.1205  0.1447 -0.0235
 4997SOL     OW26623   3.303   2.814   3.198  0.2107  0.4327 -0.3783
 4997SOL    HW126624   3.333   2.734   3.154  1.4498  1.0285 -0.6181
 4997SOL    HW226625   3.275   2.779   3.282  1.2350  2.2394  0.7041
 4998SOL     OW26626   4.329   2.306   3.139  0.4812 -0.7788 -0.0877
 4998SOL    HW126627   4.268   2.270   3.074 -0.8243  1.1088  0.0992
 4998SOL    HW226628   4.271   2.349   3.202  0.3094 -0.6884 -0.3053
 4999SOL     OW26629   4.724   0.534   3.393 -0.2460 -0.2929 -0.1141
 4999SOL    HW126630   4.719   0.518   3.487 -2.1101 -0.1968 -0.1998
 4999SOL    HW226631   0.061   0.483   3.371  1.0102  0.9639  1.4000
 5000SOL     OW26632   3.693   1.357   9.419  0.6709  0.4709 -0.1006
 5000SOL    HW126633   3.753   1.289   9.388 -0.7772 -0.2543 -1.3232
 5000SOL    HW226634   3.674   1.416   9.346 -1.5875  0.7732  0.7305
 5001SOL     OW26635   0.472   0.216  14.542  0.1303 -0.0142 -0.0810
 5001SOL    HW126636   0.547   0.217  14.481  1.2427  0.1934  1.2883
 5001SOL    HW226637   0.432   0.298  14.514 -1.1928 -0.9811 -0.9844
 5002SOL     OW26638   0.624   1.328   9.456  0.3478 -0.2533 -0.2258
 5002SOL    HW126639   0.617   1.373   9.373 -0.4971 -0.7374 -0.4181
 5002SOL    HW226640   0.547   1.271   9.460  1.9982 -2.4326  0.7273
 5003SOL     OW26641   2.747   1.669   4.335  0.3677  0.1009 -0.1579
 5003SOL    HW126642   2.831   1.641   4.372  0.7582  1.7112  0.1446
 5003SOL    HW226643   2.748   1.764   4.346 -1.1025 -0.1683  2.2884
 5004SOL     OW26644   0.572   1.747   7.385 -0.1382  0.2833 -0.2487
 5004SOL    HW126645   0.577   1.842   7.381  1.1060  0.2138 -0.5917
 5004SOL    HW226646   0.484   1.724   7.356  0.3018  1.1147 -2.2584
 5005SOL     OW26647   0.085   0.823   7.692 -0.3770  0.2581 -0.6355
 5005SOL    HW126648   0.054   0.889   7.631  0.4908  1.1936 -0.0693
 5005SOL    HW226649   0.168   0.850   7.731 -0.1464 -0.5518 -0.5469
 5006SOL     OW26650   4.103   1.891  13.559 -0.0945  0.2185  0.5038
 5006SOL    HW126651   4.042   1.840  13.613 -0.6113 -0.3824 -0.6438
 5006SOL    HW226652   4.113   1.970  13.613 -0.3314 -0.0833  0.9888
 5007SOL     OW26653   3.243   1.620   8.425  0.1425  0.0664 -0.0318
 5007SOL    HW126654   3.199   1.633   8.509  0.6767  0.1104  0.2426
 5007SOL    HW226655   3.214   1.702   8.386  0.4474  1.1121  1.9258
 5008SOL     OW26656   0.176   0.085   1.032  0.0428 -0.0500 -0.2697
 5008SOL    HW126657   0.187   0.015   0.967 -3.7981 -0.8274 -0.0867
 5008SOL    HW226658   0.260   0.129   1.019  0.2503 -0.7745 -1.3671
 5009SOL     OW26659   0.007   0.357   9.755 -0.3218  0.2133 -0.1500
 5009SOL    HW126660   4.669   0.323   9.797  0.3869  0.0141  1.0031
 5009SOL    HW226661   4.706   0.429   9.707 -0.3112  1.1115  1.1936
 5010SOL     OW26662   0.576   1.451   0.721 -0.1841  0.0490  0.0499
 5010SOL    HW126663   0.576   1.402   0.639 -0.7045 -1.2443  0.8251
 5010SOL    HW226664   0.486   1.481   0.726  0.2227  1.5580 -1.7920
 5011SOL     OW26665   2.518   1.838   3.420  0.6465 -0.2890 -0.2493
 5011SOL    HW126666   2.495   1.897   3.348 -0.1207 -0.3985 -0.0869
 5011SOL    HW226667   2.527   1.900   3.492 -0.9034  0.6288 -0.8478
 5012SOL     OW26668   1.326   0.891  11.261 -0.0781 -0.1911 -0.2134
 5012SOL    HW126669   1.328   0.834  11.338  0.7940  2.6786  1.8785
 5012SOL    HW226670   1.394   0.955  11.281  1.3099 -1.5195 -0.6572
 5013SOL     OW26671   2.272   2.401   5.970 -0.1818  0.5924  0.2843
 5013SOL    HW126672   2.309   2.400   6.058  2.6411  0.2202 -0.8945
 5013SOL    HW226673   2.289   2.309   5.949 -0.7735  0.7451 -0.8956
 5014SOL     OW26674   0.472   3.683  16.517 -0.1666 -0.0992 -0.1020
 5014SOL    HW126675   0.414   3.743  16.564 -1.4376 -2.7875  1.8115
 5014SOL    HW226676   0.421   3.603  16.503  0.5494 -0.5005 -0.4228
 5015SOL     OW26677   1.623   2.647  11.108  0.0231 -0.1394 -0.0055
 5015SOL    HW126678   1.533   2.664  11.080 -0.7319  2.2576  3.8123
 5015SOL    HW226679   1.622   2.704  11.185  3.3469 -0.4570  0.2609
 5016SOL     OW26680   1.057   1.264  13.427  0.2577 -0.4125 -0.0188
 5016SOL    HW126681   1.058   1.354  13.395  0.7313 -0.6710 -0.7406
 5016SOL    HW226682   1.135   1.223  13.390  1.0031 -0.0658  1.1540
 5017SOL     OW26683   0.902   2.863  17.132 -0.0559 -0.3108  0.4807
 5017SOL    HW126684   0.896   2.958  17.117 -2.0556 -1.0002 -3.0087
 5017SOL    HW226685   0.937   2.864  17.221 -0.9467  1.2815  0.8211
 5018SOL     OW26686   0.038   2.649   2.662  0.1680 -0.4895 -0.0581
 5018SOL    HW126687   0.081   2.658   2.577  1.7191 -2.1565  0.5562
 5018SOL    HW226688   4.690   2.621   2.636 -0.2953 -0.2359  1.2293
 5019SOL     OW26689   3.497   2.226   2.669 -0.0774 -0.3350 -0.3271
 5019SOL    HW126690   3.549   2.306   2.669  0.5945 -0.7630 -3.0971
 5019SOL    HW226691   3.419   2.249   2.619  0.7326  0.5605 -1.1765
 5020SOL     OW26692   1.299   3.164   5.351 -0.0910 -0.1584  0.5698
 5020SOL    HW126693   1.356   3.166   5.274 -2.1998 -0.9200 -1.0482
 5020SOL    HW226694   1.325   3.081   5.391 -0.3198  0.2790  1.6164
 5021SOL     OW26695   0.957   1.585   7.104  0.4384  0.5503 -0.1157
 5021SOL    HW126696   0.981   1.492   7.102  0.0501  0.4255  1.0346
 5021SOL    HW226697   0.880   1.585   7.160  1.0985 -0.8035  0.8080
 5022SOL     OW26698   0.530   1.918  14.832 -0.3196  0.3720 -0.0806
 5022SOL    HW126699   0.511   1.990  14.772 -0.5303 -0.7572 -1.3694
 5022SOL    HW226700   0.507   1.960  14.915 -1.1402 -0.6457  0.2111
 5023SOL     OW26701   1.339   4.022   4.851 -0.3823  0.2940 -0.2795
 5023SOL    HW126702   1.269   3.987   4.796 -1.0485  0.1481  0.6674
 5023SOL    HW226703   1.350   4.114   4.826 -3.4199  0.3893 -1.1895
 5024SOL     OW26704   3.779   4.083   2.694 -0.6499  0.5619 -0.3689
 5024SOL    HW126705   3.775   4.076   2.599 -0.5534 -1.9524 -0.1882
 5024SOL    HW226706   3.855   4.138   2.709  0.3966 -0.2695 -2.6972
 5025SOL     OW26707   2.419   0.325  12.349  0.0094 -0.1645  0.5236
 5025SOL    HW126708   2.402   0.408  12.394 -0.8588  0.1316 -0.3735
 5025SOL    HW226709   2.501   0.303  12.395  0.4455  0.1802 -0.0802
 5026SOL     OW26710   0.740   2.762  14.596  0.0286 -0.4296 -0.2464
 5026SOL    HW126711   0.790   2.681  14.592  0.5423 -0.0485 -1.5760
 5026SOL    HW226712   0.811   2.823  14.615  1.2596 -2.3194  1.1235
 5027SOL     OW26713   0.236   1.653  13.200 -0.2130 -0.2266 -0.1297
 5027SOL    HW126714   0.196   1.586  13.144 -0.3796  0.1960 -0.5137
 5027SOL    HW226715   0.172   1.671  13.269  0.1323  0.2377  0.0637
 5028SOL     OW26716   0.525   4.144   6.087 -0.1466 -0.9938  0.2442
 5028SOL    HW126717   0.552   4.104   6.170 -1.2521 -2.7398 -0.2332
 5028SOL    HW226718   0.603   4.133   6.032 -0.4249 -0.4979 -0.2495
 5029SOL     OW26719   2.915   1.302   6.674  0.1729  0.3953  0.1359
 5029SOL    HW126720   2.873   1.252   6.745 -1.7687 -0.0078 -1.2929
 5029SOL    HW226721   2.841   1.352   6.640  2.1705  2.1194 -1.6883
 5030SOL     OW26722   2.526   3.941   5.141  0.2976  0.0016 -0.0858
 5030SOL    HW126723   2.456   4.003   5.162  0.3931 -0.3599  1.2916
 5030SOL    HW226724   2.479   3.893   5.072 -0.6836 -1.2593  1.4573
 5031SOL     OW26725   4.278   2.262   8.723 -0.1480 -0.1026 -0.0692
 5031SOL    HW126726   4.257   2.253   8.630  0.0565  1.2444 -0.2379
 5031SOL    HW226727   4.366   2.225   8.721 -0.4463 -0.8821  0.8800
 5032SOL     OW26728   3.583   1.375   7.885 -0.2857  0.0138  0.4218
 5032SOL    HW126729   3.496   1.335   7.893  0.1508 -1.3293 -1.4931
 5032SOL    HW226730   3.635   1.295   7.893 -0.1289  0.0556 -0.1379
 5033SOL     OW26731   2.376   2.977   3.695 -0.1572  0.2268  0.1813
 5033SOL    HW126732   2.326   2.895   3.687  1.7371 -0.8900 -0.2022
 5033SOL    HW226733   2.332   3.036   3.634 -0.8310 -0.2050  0.2410
 5034SOL     OW26734   1.357   3.016   8.783  0.0864  0.3883 -0.7599
 5034SOL    HW126735   1.378   3.081   8.716  3.8142  0.9918  0.9794
 5034SOL    HW226736   1.428   3.035   8.845  0.5780  1.8790 -1.7819
 5035SOL     OW26737   2.268   4.572   3.425 -0.2806  0.3315  0.8223
 5035SOL    HW126738   2.301   4.563   3.514  1.5846 -0.5446  0.0364
 5035SOL    HW226739   2.241   4.481   3.410 -1.1536  0.5156  1.2163
 5036SOL     OW26740   4.039   4.247   6.959 -0.3198  0.2311 -0.2406
 5036SOL    HW126741   4.043   4.335   6.996  0.3517  0.2084 -0.2528
 5036SOL    HW226742   3.944   4.235   6.958 -0.2412 -0.6528  2.2647
 5037SOL     OW26743   1.240   3.529  12.027 -0.1629  0.2234 -0.2111
 5037SOL    HW126744   1.187   3.451  12.008 -0.7923  0.7134 -0.4739
 5037SOL    HW226745   1.264   3.517  12.118 -0.3965 -0.0026 -0.1783
 5038SOL     OW26746   2.323   0.571   7.292  0.7945  0.1064 -0.2668
 5038SOL    HW126747   2.332   0.497   7.232 -0.6665 -2.3780  2.5527
 5038SOL    HW226748   2.320   0.526   7.376  0.5165 -0.8478 -0.7801
 5039SOL     OW26749   2.889   1.605  11.190 -0.2443 -0.3006  0.3313
 5039SOL    HW126750   2.919   1.651  11.112 -0.3461 -1.2326 -0.2476
 5039SOL    HW226751   2.850   1.676  11.242  3.1064  1.6029  0.2236
 5040SOL     OW26752   1.500   3.459  12.009  0.0696  0.0640  0.1169
 5040SOL    HW126753   1.410   3.492  12.008  0.4724  1.2040  3.4090
 5040SOL    HW226754   1.514   3.437  11.917 -1.6536  2.8184 -0.8075
 5041SOL     OW26755   3.410   1.532   3.159 -0.0026  0.3562 -0.1001
 5041SOL    HW126756   3.491   1.581   3.146  1.3151 -1.4336  1.3302
 5041SOL    HW226757   3.411   1.456   3.100  0.7954  0.2639  0.0342
 5042SOL     OW26758   1.068   2.510   4.272 -0.2653 -0.3724  0.0547
 5042SOL    HW126759   1.048   2.548   4.187  1.7090 -0.0057 -0.2648
 5042SOL    HW226760   1.000   2.544   4.329  0.1131  0.2791  0.1170
 5043SOL     OW26761   4.554   2.953  10.845 -0.3011 -0.6943  0.1902
 5043SOL    HW126762   4.650   2.952  10.849 -0.3444 -0.9332  1.1323
 5043SOL    HW226763   4.543   2.972  10.751  1.2527 -0.5722  0.0345
 5044SOL     OW26764   0.157   3.261  11.349 -0.0695 -0.1898  0.0472
 5044SOL    HW126765   0.242   3.249  11.392  0.1686 -1.1605 -0.7130
 5044SOL    HW226766   0.151   3.185  11.292 -1.4467 -0.3921  0.4759
 5045SOL     OW26767   3.318   2.205   9.295 -0.5789 -0.1511  0.2156
 5045SOL    HW126768   3.392   2.240   9.245 -1.8672  1.8681 -0.2626
 5045SOL    HW226769   3.249   2.232   9.234 -0.1258  0.2284 -0.1249
 5046SOL     OW26770   1.473   1.748   5.616 -0.3346 -0.0415  0.5147
 5046SOL    HW126771   1.390   1.763   5.660 -0.7771 -3.3916  0.8047
 5046SOL    HW226772   1.476   1.823   5.557 -0.3884  0.2457  0.8717
 5047SOL     OW26773   3.315   0.840   1.135 -0.1329  0.2137  0.5762
 5047SOL    HW126774   3.319   0.746   1.118 -1.3774  0.8259 -2.8891
 5047SOL    HW226775   3.237   0.870   1.089  1.3498 -0.7035 -2.4909
 5048SOL     OW26776   3.774   3.109   9.268  0.0151  0.0763  0.0281
 5048SOL    HW126777   3.819   3.161   9.334 -0.7258  0.7434  0.0092
 5048SOL    HW226778   3.692   3.159   9.274  0.5801  0.9841  0.0769
 5049SOL     OW26779   3.935   2.128   1.636  0.1341 -0.0592  0.2463
 5049SOL    HW126780   3.919   2.199   1.698  0.0830  0.7032 -0.6485
 5049SOL    HW226781   4.019   2.089   1.662 -1.0292 -1.5782  1.7182
 5050SOL     OW26782   1.899   4.573   4.114  0.0694  0.2611  0.0271
 5050SOL    HW126783   1.908   4.646   4.175  1.2487  0.6176 -0.5696
 5050SOL    HW226784   1.992   4.553   4.106  0.4642  1.4047  1.6951
 5051SOL     OW26785   0.726   1.353  15.468 -0.0813 -0.2273  0.7611
 5051SOL    HW126786   0.699   1.308  15.548 -1.9764 -0.8380 -0.2284
 5051SOL    HW226787   0.678   1.310  15.397  0.8235  0.7693 -0.4516
 5052SOL     OW26788   3.669   0.052   5.551  0.4249  0.3846  0.5478
 5052SOL    HW126789   3.634   4.727   5.491 -1.8440  0.6369  1.6194
 5052SOL    HW226790   3.613   0.029   5.625  0.4359  0.2592  0.5162
 5053SOL     OW26791   4.371   2.141   7.383 -0.0793 -0.0137 -0.5500
 5053SOL    HW126792   4.334   2.123   7.470  0.8887 -1.5541 -0.4557
 5053SOL    HW226793   4.306   2.107   7.321 -1.1143 -1.3785  1.2721
 5054SOL     OW26794   0.700   0.833   3.514 -0.2810  0.4628 -0.0287
 5054SOL    HW126795   0.780   0.845   3.565 -1.0807 -0.2298  1.3835
 5054SOL    HW226796   0.742   0.802   3.434 -1.5429 -2.8219  0.5938
 5055SOL     OW26797   0.615   1.607   7.637 -0.2783  0.2998  0.0496
 5055SOL    HW126798   0.586   1.667   7.568  0.6093 -0.6494 -1.1593
 5055SOL    HW226799   0.539   1.561   7.672 -1.0244  1.8856  0.5236
 5056SOL     OW26800   3.103   0.672   3.974 -0.2241  0.1522 -0.0418
 5056SOL    HW126801   3.126   0.594   3.923 -2.5975 -1.6040  1.5423
 5056SOL    HW226802   3.144   0.652   4.058  0.8620  0.9364 -0.3903
 5057SOL     OW26803   3.210   2.276   1.628  0.1589  0.0600  0.4678
 5057SOL    HW126804   3.233   2.352   1.574  1.5791 -0.0242  0.9627
 5057SOL    HW226805   3.136   2.239   1.580  0.0230  1.4463 -0.3952
 5058SOL     OW26806   2.307   0.537   4.612 -0.0664 -0.1189 -0.3008
 5058SOL    HW126807   2.360   0.479   4.666 -0.5757  1.4606  1.9103
 5058SOL    HW226808   2.377   0.585   4.568  0.0027 -1.7629 -2.0057
 5059SOL     OW26809   1.836   3.383   8.868 -0.7050 -0.4054 -0.0962
 5059SOL    HW126810   1.915   3.353   8.914 -1.4761 -0.3412  1.2620
 5059SOL    HW226811   1.811   3.469   8.903  0.0447 -0.8347  1.5022
 5060SOL     OW26812   2.597   3.573   2.924  0.0931  0.0499 -0.6655
 5060SOL    HW126813   2.597   3.480   2.947  2.6143 -0.8331 -4.4172
 5060SOL    HW226814   2.665   3.599   2.986  0.8857 -1.2544 -0.9922
 5061SOL     OW26815   1.277   0.088  11.181 -0.4773 -0.0399 -0.2059
 5061SOL    HW126816   1.365   0.099  11.145 -0.2554 -0.3703  0.2392
 5061SOL    HW226817   1.220   0.117  11.109 -1.3023 -2.5089 -0.5305
 5062SOL     OW26818   4.381   2.087   3.659  0.0874 -0.5317  0.0524
 5062SOL    HW126819   4.457   2.138   3.630 -0.7950  1.8187  1.9138
 5062SOL    HW226820   4.372   2.118   3.750  3.7163 -1.5812  0.7724
 5063SOL     OW26821   2.812   0.057   1.720  0.5132  0.6895  0.5566
 5063SOL    HW126822   2.806   0.006   1.801  0.7457 -1.5252 -0.8316
 5063SOL    HW226823   2.748   0.126   1.738  1.9134  2.3766 -0.8112
 5064SOL     OW26824   2.508   4.181   8.546 -0.2399  0.0105 -0.2263
 5064SOL    HW126825   2.470   4.104   8.504 -3.2291  1.8530 -0.9399
 5064SOL    HW226826   2.444   4.249   8.524 -0.2349  0.1000  0.0327
 5065SOL     OW26827   1.761   0.491   6.632 -0.0551 -0.2805  0.0120
 5065SOL    HW126828   1.775   0.421   6.568  0.0996 -0.7715  0.5768
 5065SOL    HW226829   1.846   0.535   6.631 -0.6640  0.9200  1.9163
 5066SOL     OW26830   0.620   3.710   8.354  0.4370  0.1076 -0.1966
 5066SOL    HW126831   0.578   3.649   8.294  2.6504 -2.1511  0.5232
 5066SOL    HW226832   0.622   3.796   8.313 -0.7155 -0.7464 -2.0061
 5067SOL     OW26833   3.566   3.530   4.463 -0.0961  0.3663  0.5805
 5067SOL    HW126834   3.639   3.539   4.525 -1.0148 -1.5412  1.9687
 5067SOL    HW226835   3.609   3.489   4.388  1.3270  2.7326  0.1119
 5068SOL     OW26836   0.588   3.178   7.841  0.5268 -0.4539  0.5950
 5068SOL    HW126837   0.616   3.246   7.780 -4.6023  1.1808  0.0267
 5068SOL    HW226838   0.660   3.117   7.854  2.0759  1.3557  0.5318
 5069SOL     OW26839   4.422   2.985   4.275 -0.1407 -0.0833  0.4737
 5069SOL    HW126840   4.365   3.038   4.330  1.3348 -0.8163  2.7429
 5069SOL    HW226841   4.496   3.040   4.251 -0.0782 -1.1263 -1.7701
 5070SOL     OW26842   2.850   0.897   1.072  0.1226  0.5200 -0.2308
 5070SOL    HW126843   2.913   0.963   1.104  1.4852 -0.6640 -0.4762
 5070SOL    HW226844   2.848   0.908   0.977  2.0597 -2.0883 -0.5758
 5071SOL     OW26845   3.815   4.057  10.052  0.0384  0.1501 -0.6072
 5071SOL    HW126846   3.754   4.108  10.107  0.8133  2.3399 -1.7605
 5071SOL    HW226847   3.900   4.064  10.094 -0.7953  0.4221  1.0360
 5072SOL     OW26848   2.316   2.921  17.236 -0.3220 -0.0750 -0.2337
 5072SOL    HW126849   2.312   2.947  17.328  1.7801 -0.0896 -0.1232
 5072SOL    HW226850   2.269   2.991  17.190  0.1070  0.9303  0.8553
 5073SOL     OW26851   2.914   1.254   2.752 -0.3135  0.2227 -0.1539
 5073SOL    HW126852   2.910   1.320   2.821 -0.9593 -1.1577  1.1277
 5073SOL    HW226853   2.926   1.312   2.677 -2.2452  0.7513 -0.0480
 5074SOL     OW26854   2.924   1.090   3.133  0.3042 -0.3326 -0.5593
 5074SOL    HW126855   2.991   1.146   3.093 -1.0054  0.5080 -1.5878
 5074SOL    HW226856   2.861   1.073   3.063  1.0342 -0.0848 -1.2923
 5075SOL     OW26857   3.981   2.187   6.319  0.1522 -0.1448  0.4577
 5075SOL    HW126858   4.074   2.187   6.295 -0.2955  0.0309 -1.2228
 5075SOL    HW226859   3.980   2.277   6.352 -0.9265 -0.3383  0.9307
 5076SOL     OW26860   0.388   2.534   5.110 -0.8745  0.0072  0.2829
 5076SOL    HW126861   0.305   2.486   5.111 -1.1170  0.3642 -1.8903
 5076SOL    HW226862   0.365   2.623   5.084 -1.6881  0.2868  1.9776
 5077SOL     OW26863   1.498   3.990   7.481  0.1609 -0.4084  0.5746
 5077SOL    HW126864   1.467   4.049   7.413 -0.4575 -1.0556  0.2926
 5077SOL    HW226865   1.455   4.014   7.563 -2.6450 -0.0788 -0.9839
 5078SOL     OW26866   2.043   3.912   6.729  0.0027 -0.4645 -0.0238
 5078SOL    HW126867   2.092   3.994   6.719  1.4291 -1.2070  0.8693
 5078SOL    HW226868   2.019   3.913   6.822 -2.1651 -0.9222 -0.5746
 5079SOL     OW26869   2.380   0.299  12.829 -0.9063  0.6250  0.0223
 5079SOL    HW126870   2.298   0.271  12.869 -0.0395 -3.1333 -0.7708
 5079SOL    HW226871   2.449   0.258  12.882  0.0388  1.7341 -0.3542
 5080SOL     OW26872   1.386   3.014   2.143 -0.1555 -0.3043  0.3535
 5080SOL    HW126873   1.442   3.081   2.181  0.1922  1.1782 -2.7394
 5080SOL    HW226874   1.408   3.023   2.050 -1.6417 -1.2076 -0.0850
 5081SOL     OW26875   0.298   0.750  13.466  0.4432  0.0805  0.5855
 5081SOL    HW126876   0.377   0.803  13.462 -2.2142  3.6949 -3.2608
 5081SOL    HW226877   0.328   0.689  13.533  0.3488  0.8381  1.3098
 5082SOL     OW26878   0.152   0.440   9.096  0.4384 -0.3148 -0.1275
 5082SOL    HW126879   0.089   0.483   9.038  0.6049  1.0957  0.7613
 5082SOL    HW226880   0.235   0.486   9.081 -0.2109  0.2561 -2.0346
 5083SOL     OW26881   3.189   4.141   5.939  0.5262  0.3177 -0.8137
 5083SOL    HW126882   3.203   4.067   5.998  0.7203  0.1572 -1.0610
 5083SOL    HW226883   3.112   4.103   5.896  0.4370 -0.9681  0.4668
 5084SOL     OW26884   4.714   2.694   5.155  0.3592 -0.6735 -0.1915
 5084SOL    HW126885   4.684   2.626   5.215 -1.4558 -0.1335 -0.4704
 5084SOL    HW226886   4.685   2.659   5.070 -1.9042 -0.5548  0.5210
 5085SOL     OW26887   3.530   2.715  12.979 -0.0958  0.1861  0.8303
 5085SOL    HW126888   3.586   2.638  12.988 -2.6276 -1.6619  0.5624
 5085SOL    HW226889   3.449   2.697  13.026 -0.3010  1.8996  1.1217
 5086SOL     OW26890   1.645   0.089   1.639  0.6872  0.1340 -0.3694
 5086SOL    HW126891   1.594   0.037   1.578 -1.1438  0.6510  0.7408
 5086SOL    HW226892   1.580   0.129   1.696  0.4812 -1.4644  0.5014
 5087SOL     OW26893   0.492   1.176   0.663 -0.1455 -0.1672 -0.0587
 5087SOL    HW126894   0.540   1.095   0.647 -0.7293 -0.1179 -2.1021
 5087SOL    HW226895   0.514   1.192   0.755  1.6582 -0.0539 -0.4982
 5088SOL     OW26896   0.881   0.060  10.627  0.6981  0.3409  0.0224
 5088SOL    HW126897   0.813   4.737  10.650 -0.5609  1.5629 -0.2628
 5088SOL    HW226898   0.857   0.134  10.683  0.3548  0.7199 -0.6292
 5089SOL     OW26899   3.611   1.738   2.746 -0.6782 -0.4540 -0.2165
 5089SOL    HW126900   3.567   1.807   2.696 -1.0411 -2.4884 -2.6844
 5089SOL    HW226901   3.547   1.667   2.749 -0.3230 -0.8479 -1.8133
 5090SOL     OW26902   3.693   0.087  16.556  0.0570  0.0544  0.3062
 5090SOL    HW126903   3.740   0.017  16.600 -0.7657 -0.3190  0.6029
 5090SOL    HW226904   3.606   0.095  16.595 -0.8058  0.6710 -1.7260
 5091SOL     OW26905   2.590   1.639   3.735  0.5291 -0.5699  0.3704
 5091SOL    HW126906   2.658   1.706   3.727 -1.4615  1.1277 -2.4804
 5091SOL    HW226907   2.620   1.587   3.659 -0.3328 -1.7887  0.8615
 5092SOL     OW26908   2.090   1.190   6.843 -0.8825 -0.2157 -0.3470
 5092SOL    HW126909   2.011   1.137   6.830  1.8779 -4.5700  0.5440
 5092SOL    HW226910   2.071   1.271   6.796 -0.0321  1.9418  2.9910
 5093SOL     OW26911   1.431   3.750  12.285  0.3226  0.6248  0.3025
 5093SOL    HW126912   1.351   3.790  12.250 -0.9196 -2.7987 -0.7771
 5093SOL    HW226913   1.444   3.796  12.368  1.2796  0.2389  0.3603
 5094SOL     OW26914   2.275   2.034   6.312  0.0324  0.5346 -0.3196
 5094SOL    HW126915   2.292   1.941   6.299 -0.8939  0.6262 -2.3215
 5094SOL    HW226916   2.213   2.047   6.240  1.4044  0.9648 -1.4297
 5095SOL     OW26917   2.273   4.251   6.195 -0.3416  0.4071 -0.8412
 5095SOL    HW126918   2.181   4.239   6.172 -0.2380  1.7994 -2.0344
 5095SOL    HW226919   2.284   4.346   6.201  0.9656  0.2354 -0.4102
 5096SOL     OW26920   0.356   1.305   8.780 -0.2607 -0.0498  0.2656
 5096SOL    HW126921   0.349   1.386   8.830  1.6446 -1.0680  2.1837
 5096SOL    HW226922   0.308   1.330   8.701  1.3544  3.9486  0.5897
 5097SOL     OW26923   3.928   0.176   3.880  0.1785  0.1324  0.7635
 5097SOL    HW126924   4.002   0.235   3.896  0.6596 -0.3175  0.1789
 5097SOL    HW226925   3.961   0.123   3.807  0.1594  0.4070  0.5550
 5098SOL     OW26926   3.065   1.989  14.418 -0.0208 -0.5395 -0.1936
 5098SOL    HW126927   3.059   1.899  14.449 -0.3156 -0.8151 -1.0737
 5098SOL    HW226928   2.984   2.002  14.370  0.4591  0.9099 -0.6238
 5099SOL     OW26929   1.341   0.655  13.103  0.6744  0.7343 -0.1275
 5099SOL    HW126930   1.427   0.678  13.067  1.5805 -1.2801  0.7014
 5099SOL    HW226931   1.347   0.702  13.186 -2.5946  1.6319 -0.3966
 5100SOL     OW26932   3.619   3.638   6.411 -0.0555  0.0629 -0.1087
 5100SOL    HW126933   3.639   3.729   6.392  2.5108 -0.8563 -1.9233
 5100SOL    HW226934   3.540   3.644   6.465 -0.0413 -0.4212 -0.0280
 5101SOL     OW26935   3.261   1.813   2.665 -0.1640  0.0578 -0.0422
 5101SOL    HW126936   3.330   1.878   2.650  0.6169 -1.1324 -1.5258
 5101SOL    HW226937   3.190   1.870   2.696 -0.4145 -0.7474  0.8626
 5102SOL     OW26938   1.117   1.342   3.630 -0.2654  0.5658 -0.1342
 5102SOL    HW126939   1.065   1.266   3.656  0.7496  0.2755  0.9869
 5102SOL    HW226940   1.052   1.394   3.581  0.9277  1.4110 -0.8228
 5103SOL     OW26941   2.863   1.144   6.207 -0.6363 -0.1110  0.1219
 5103SOL    HW126942   2.831   1.136   6.117 -2.3525 -0.1979  0.7374
 5103SOL    HW226943   2.781   1.184   6.235 -1.2903 -0.0450 -1.8710
 5104SOL     OW26944   1.705   0.283   6.406 -0.1738 -0.3025 -0.3051
 5104SOL    HW126945   1.613   0.259   6.406 -0.5652  1.2572  0.6296
 5104SOL    HW226946   1.699   0.364   6.356  1.7072  0.0579  0.0610
 5105SOL     OW26947   4.254   0.018   6.472  0.2160 -0.5739  0.0065
 5105SOL    HW126948   4.298   0.015   6.557 -2.8014  1.4136  1.6100
 5105SOL    HW226949   4.294   4.679   6.437 -0.5580 -1.0873  0.3156
 5106SOL     OW26950   0.304   1.581  14.593  0.1131 -0.2669  0.5831
 5106SOL    HW126951   0.300   1.672  14.562  0.0180 -0.8841 -1.2240
 5106SOL    HW226952   0.241   1.591  14.664  0.5793  1.1317  0.8057
 5107SOL     OW26953   3.819   2.814   5.713 -0.2907 -0.1170  0.0054
 5107SOL    HW126954   3.769   2.833   5.634  1.8811  2.1069 -0.8258
 5107SOL    HW226955   3.902   2.861   5.716 -0.4691  0.1459  0.9061
 5108SOL     OW26956   1.036   0.727  12.506  0.3032 -0.4953  0.4161
 5108SOL    HW126957   1.075   0.642  12.529  0.6710 -0.5848 -0.5570
 5108SOL    HW226958   1.113   0.772  12.472  0.2554 -0.3781  0.4644
 5109SOL     OW26959   2.150   1.723   8.820 -0.2809 -0.2652  0.3663
 5109SOL    HW126960   2.057   1.701   8.824 -0.5960  1.2525  1.2416
 5109SOL    HW226961   2.145   1.793   8.755 -2.2432  1.0499  1.9319
 5110SOL     OW26962   0.124   3.522  11.201 -0.0045  0.0670 -0.1941
 5110SOL    HW126963   0.099   3.429  11.208  0.8448  0.0592  2.4960
 5110SOL    HW226964   0.218   3.518  11.189  0.0985 -0.1877  0.7255
 5111SOL     OW26965   3.185   4.499  14.623  0.3879 -0.2266 -0.0427
 5111SOL    HW126966   3.094   4.526  14.618  0.4282 -0.2845 -1.0715
 5111SOL    HW226967   3.213   4.478  14.534 -3.2170 -0.4058 -1.1239
 5112SOL     OW26968   0.072   0.851   9.742  0.4919 -0.2964 -0.3013
 5112SOL    HW126969   0.167   0.842   9.750  0.1967 -1.6819  1.6882
 5112SOL    HW226970   0.061   0.790   9.669  0.2825  0.8515 -1.2126
 5113SOL     OW26971   3.894   1.590   9.829  0.2303 -0.1666  0.6646
 5113SOL    HW126972   3.834   1.558   9.897 -1.4002 -0.0239 -0.6859
 5113SOL    HW226973   3.885   1.532   9.753  0.4773 -0.3463  0.7740
 5114SOL     OW26974   1.784   0.851   7.614 -0.1869  0.3149 -0.2205
 5114SOL    HW126975   1.733   0.917   7.661 -3.9751 -2.0480 -1.0196
 5114SOL    HW226976   1.734   0.774   7.641  0.7453  0.1605  1.0727
 5115SOL     OW26977   1.328   1.600   8.893  0.1028 -0.2756  0.4766
 5115SOL    HW126978   1.403   1.634   8.845  0.3460  0.3963  1.3127
 5115SOL    HW226979   1.342   1.644   8.977 -0.3073  0.5064  0.1344
 5116SOL     OW26980   4.042   3.166   7.258 -0.0803 -0.2285 -0.0782
 5116SOL    HW126981   4.002   3.080   7.244 -0.0011 -0.3837  0.6739
 5116SOL    HW226982   3.963   3.220   7.258 -0.8249 -1.3265  0.9488
 5117SOL     OW26983   1.731   2.450   0.503 -0.0975  0.2532 -0.2043
 5117SOL    HW126984   1.745   2.542   0.482 -1.2236  0.1935 -1.2051
 5117SOL    HW226985   1.796   2.443   0.573  1.3812 -1.5783 -1.7631
 5118SOL     OW26986   1.941   3.646   9.388 -0.2495  0.1871  0.1870
 5118SOL    HW126987   1.983   3.720   9.344  1.0688 -0.6286  0.0967
 5118SOL    HW226988   2.004   3.576   9.372 -0.9032 -0.4554  0.4248
 5119SOL     OW26989   1.507   1.521   7.532 -0.0811 -0.0044 -0.4237
 5119SOL    HW126990   1.537   1.452   7.473  0.6025 -0.6457  0.6740
 5119SOL    HW226991   1.418   1.488   7.543 -0.5452  1.5499  0.4791
 5120SOL     OW26992   3.569   3.557  16.816 -0.2960  0.0614  0.1222
 5120SOL    HW126993   3.494   3.579  16.871  0.0531  1.3883  0.0591
 5120SOL    HW226994   3.537   3.594  16.733 -0.3788  0.4138  0.3117
 5121SOL     OW26995   4.558   0.205  14.787 -0.1595 -0.2277 -0.1518
 5121SOL    HW126996   4.468   0.235  14.801  0.3463  1.2638 -0.0537
 5121SOL    HW226997   4.553   0.110  14.778 -0.4093  0.0230 -2.6971
 5122SOL     OW26998   0.512   4.131   3.197 -0.2073 -0.0436  0.5038
 5122SOL    HW126999   0.558   4.202   3.152 -1.1894  0.7061  0.6963
 5122SOL    HW227000   0.425   4.136   3.158  0.1688 -0.6698 -0.4292
 5123SOL     OW27001   0.566   0.405   7.167  0.0868  0.6099 -0.3402
 5123SOL    HW127002   0.630   0.422   7.235 -0.1189  1.5105 -0.3687
 5123SOL    HW227003   0.618   0.438   7.093 -1.0878  0.2916 -1.3188
 5124SOL     OW27004   2.576   2.117   8.275 -0.1817 -0.4842 -0.0019
 5124SOL    HW127005   2.605   2.107   8.184 -3.9726 -1.0760 -1.1633
 5124SOL    HW227006   2.487   2.084   8.264 -0.5228 -0.2007  1.8872
 5125SOL     OW27007   3.751   2.305  14.603 -0.1117 -0.6204 -0.2195
 5125SOL    HW127008   3.769   2.258  14.522 -1.5720  0.1919 -1.0260
 5125SOL    HW227009   3.710   2.383  14.565  3.4376  1.0219 -0.6191
 5126SOL     OW27010   2.795   1.973   7.548  0.5496 -0.2272 -0.2272
 5126SOL    HW127011   2.841   1.897   7.513  2.0394  1.2719 -1.5337
 5126SOL    HW227012   2.797   2.030   7.471  0.4246 -0.0054 -0.0656
 5127SOL     OW27013   4.553   0.543   8.535 -0.3622 -0.0406  0.6078
 5127SOL    HW127014   4.551   0.612   8.468 -1.3463  0.2907  0.9698
 5127SOL    HW227015   4.647   0.530   8.547 -0.2468  1.1650  1.0166
 5128SOL     OW27016   1.869   0.092   9.562  0.4026  0.7476 -0.1205
 5128SOL    HW127017   1.835   0.003   9.572 -1.1722  1.4729  1.1805
 5128SOL    HW227018   1.787   0.141   9.555 -0.5134 -1.0740 -1.9318
 5129SOL     OW27019   4.367   2.600   5.046  0.1189  0.3683 -0.2105
 5129SOL    HW127020   4.340   2.594   4.954  0.2512  1.1881 -0.3071
 5129SOL    HW227021   4.435   2.533   5.048 -0.0238  0.1607 -2.2049
 5130SOL     OW27022   4.414   3.201   0.102  0.1662  0.5466  0.2408
 5130SOL    HW127023   4.510   3.202   0.110  0.3070  1.3091 -1.5256
 5130SOL    HW227024   4.397   3.286   0.061 -1.8777 -1.1575 -2.4318
 5131SOL     OW27025   2.952   4.098   5.263  1.0609 -0.6370  0.1694
 5131SOL    HW127026   2.909   4.140   5.189  0.4892 -0.5580  0.5480
 5131SOL    HW227027   3.036   4.065   5.232  0.5154 -2.3343  0.4948
 5132SOL     OW27028   3.408   0.215   5.397 -0.1977  0.4149  0.6309
 5132SOL    HW127029   3.443   0.302   5.380  0.2180 -0.3330 -2.2391
 5132SOL    HW227030   3.487   0.161   5.398 -0.9087 -0.6411 -0.2326
 5133SOL     OW27031   1.945   2.443   2.400 -0.0060 -0.7779  0.2100
 5133SOL    HW127032   1.866   2.498   2.401 -0.9430 -2.0870 -1.0503
 5133SOL    HW227033   1.966   2.443   2.307  0.6622  0.0702  0.3581
 5134SOL     OW27034   3.453   3.675   4.743  0.3154 -0.5321 -0.3837
 5134SOL    HW127035   3.467   3.580   4.738 -3.2543 -1.1608  1.4214
 5134SOL    HW227036   3.440   3.668   4.838 -0.9199 -1.8214 -0.6556
 5135SOL     OW27037   1.883   0.260   2.946 -0.3621 -0.1413  0.2999
 5135SOL    HW127038   1.968   0.263   2.989  1.5942  0.5946 -3.6145
 5135SOL    HW227039   1.840   0.201   3.009 -0.4250 -1.1685 -0.7091
 5136SOL     OW27040   3.272   3.399   8.942  0.0728 -0.3055 -0.2986
 5136SOL    HW127041   3.199   3.447   8.903  0.0005  0.1480  0.4047
 5136SOL    HW227042   3.295   3.465   9.007 -1.4470 -2.2677  2.2557
 5137SOL     OW27043   1.494   0.733  10.295  0.3306  0.1357 -0.2495
 5137SOL    HW127044   1.582   0.731  10.257  0.4442 -2.0377  0.1174
 5137SOL    HW227045   1.438   0.718  10.219 -0.3098  0.2659  0.2025
 5138SOL     OW27046   4.336   3.163  10.112  0.4180 -0.2073 -0.3659
 5138SOL    HW127047   4.262   3.124  10.159  0.9095 -0.3240  0.3127
 5138SOL    HW227048   4.279   3.222  10.064  0.1801  0.7666  1.0891
 5139SOL     OW27049   2.900   3.517   7.079  0.0127  0.1436  0.1189
 5139SOL    HW127050   2.922   3.503   6.987 -0.6106  0.8438 -0.1373
 5139SOL    HW227051   2.823   3.572   7.090  1.0521  1.2360  2.0664
 5140SOL     OW27052   2.249   1.446  12.656 -0.0107  0.1968  0.0361
 5140SOL    HW127053   2.213   1.362  12.686 -0.1009 -0.3754 -1.6748
 5140SOL    HW227054   2.313   1.415  12.592 -0.7575 -0.8951 -0.1979
 5141SOL     OW27055   4.004   1.432  17.711 -0.1070  0.4462  0.2839
 5141SOL    HW127056   4.062   1.363  17.741 -0.5833 -0.3671 -0.6502
 5141SOL    HW227057   3.924   1.402  17.754 -1.4459 -0.4764 -2.8392
 5142SOL     OW27058   3.102   4.712   9.612  0.2115  0.5781 -0.0707
 5142SOL    HW127059   3.153   0.040   9.655 -0.5754  1.7972 -1.0914
 5142SOL    HW227060   3.179   4.680   9.564  0.0284 -0.1287  0.0991
 5143SOL     OW27061   1.036   1.318   7.678  0.2642  0.1310  0.0218
 5143SOL    HW127062   1.036   1.299   7.772 -1.0176  1.8799  0.3649
 5143SOL    HW227063   0.960   1.375   7.671  0.4927  0.3564 -0.5924
 5144SOL     OW27064   0.500   2.087   8.628 -0.5019  0.8888  0.2229
 5144SOL    HW127065   0.407   2.078   8.646 -0.0910  0.9253  2.3095
 5144SOL    HW227066   0.535   2.041   8.705 -1.5547 -1.2214 -0.5733
 5145SOL     OW27067   3.791   4.236   9.627 -0.1401  0.3093 -0.1452
 5145SOL    HW127068   3.868   4.244   9.570  0.5331  2.5782  1.0547
 5145SOL    HW227069   3.824   4.188   9.703  2.7258  0.1731 -1.4763
 5146SOL     OW27070   0.574   0.630   8.871 -0.4524 -0.3997 -0.0065
 5146SOL    HW127071   0.560   0.660   8.781  1.4632 -0.8729 -0.4542
 5146SOL    HW227072   0.485   0.627   8.908 -0.7683 -0.2293 -0.7478
 5147SOL     OW27073   4.486   4.065   7.792 -0.0158 -0.2222  0.9108
 5147SOL    HW127074   4.477   4.097   7.703 -0.1580 -0.5707  0.7994
 5147SOL    HW227075   4.526   4.142   7.831 -1.9564  0.5926  1.3006
 5148SOL     OW27076   0.590   2.500   4.723 -0.3597  0.0732 -0.4832
 5148SOL    HW127077   0.500   2.500   4.690 -1.1730  0.0831  1.7415
 5148SOL    HW227078   0.609   2.592   4.704 -0.4991  0.4052  1.0207
 5149SOL     OW27079   2.162   2.362   5.104  0.1873  0.4127  0.3253
 5149SOL    HW127080   2.076   2.337   5.069  1.0512 -0.5052 -1.1256
 5149SOL    HW227081   2.202   2.276   5.119 -0.7020 -0.1241 -0.3910
 5150SOL     OW27082   0.921   4.735   4.383  0.3076 -0.2291 -0.6419
 5150SOL    HW127083   0.828   0.011   4.372  0.6870  2.0529 -0.4451
 5150SOL    HW227084   0.922   4.647   4.346  3.2235 -0.0703 -0.9623
 5151SOL     OW27085   3.123   3.996   7.009 -0.1319  0.5788 -0.1172
 5151SOL    HW127086   3.101   3.997   7.102 -1.0045 -2.4157 -0.2729
 5151SOL    HW227087   3.065   3.933   6.966 -0.6573  0.5279  0.6700
 5152SOL     OW27088   4.127   1.214   8.897 -0.0986  0.2668 -0.0211
 5152SOL    HW127089   4.191   1.207   8.968 -1.2307 -1.5420  0.8232
 5152SOL    HW227090   4.052   1.173   8.941  1.3535 -0.3024  1.8913
 5153SOL     OW27091   2.670   2.725   2.150 -0.5758  0.3446  0.1142
 5153SOL    HW127092   2.686   2.641   2.108 -1.7479 -1.1344  2.6403
 5153SOL    HW227093   2.731   2.714   2.223  0.8431 -0.7703 -1.2360
 5154SOL     OW27094   4.070   0.305  13.405 -0.3360 -0.3813  0.0015
 5154SOL    HW127095   4.121   0.336  13.480 -1.6381 -1.3171  1.2851
 5154SOL    HW227096   4.015   0.238  13.445 -0.3652  0.7988  1.9563
 5155SOL     OW27097   3.946   0.631  14.313  0.1106 -0.0094  0.3233
 5155SOL    HW127098   3.910   0.549  14.279  1.0109  0.6459 -2.2269
 5155SOL    HW227099   3.866   0.651  14.361  0.9705  3.3668  0.2835
 5156SOL     OW27100   3.129   1.451   0.993 -0.5221 -0.2513  0.0586
 5156SOL    HW127101   3.157   1.542   1.008  0.2245 -0.3970 -0.4424
 5156SOL    HW227102   3.036   1.466   1.010 -0.3244 -2.0194  2.5683
 5157SOL     OW27103   0.437   2.789  13.397  0.1853 -0.0212 -0.8758
 5157SOL    HW127104   0.469   2.835  13.319  0.6921  0.5641 -0.3180
 5157SOL    HW227105   0.506   2.724  13.406  0.7386  1.0157  2.0573
 5158SOL     OW27106   1.819   2.000  14.991  0.3368 -0.3150 -0.0861
 5158SOL    HW127107   1.808   1.906  15.006  1.4115 -0.3612  0.4139
 5158SOL    HW227108   1.833   2.033  15.080  0.4553 -1.5539  0.3640
 5159SOL     OW27109   3.108   1.814   1.772 -0.5228 -0.5634 -0.1666
 5159SOL    HW127110   3.125   1.861   1.689 -1.8442  0.2851  0.0390
 5159SOL    HW227111   3.121   1.876   1.844 -0.9824 -0.9799  0.2690
 5160SOL     OW27112   4.122   0.961   5.298 -0.4802  0.0358 -0.7940
 5160SOL    HW127113   4.056   1.030   5.299 -0.1703  0.3103  1.2579
 5160SOL    HW227114   4.064   0.889   5.321 -1.3785  2.0015  3.1152
 5161SOL     OW27115   1.767   0.566   7.608 -0.2172  0.0509  0.3610
 5161SOL    HW127116   1.740   0.510   7.536 -2.4379 -0.5056  1.6029
 5161SOL    HW227117   1.853   0.597   7.578 -0.0294 -0.3660  0.4713
 5162SOL     OW27118   1.376   0.333   7.792 -0.2156  0.3319  0.1203
 5162SOL    HW127119   1.430   0.410   7.808 -0.7475  0.3286  1.9036
 5162SOL    HW227120   1.324   0.332   7.872 -0.3901 -3.8693 -0.0291
 5163SOL     OW27121   0.883   1.259   6.733  0.4579 -0.7090  0.3684
 5163SOL    HW127122   0.838   1.199   6.792 -1.0740  1.5014  1.4916
 5163SOL    HW227123   0.959   1.212   6.701 -0.0460 -0.7346 -0.7817
 5164SOL     OW27124   0.465   0.435   9.332 -0.0576  0.4968 -0.2556
 5164SOL    HW127125   0.497   0.514   9.290 -0.8879  1.2581  0.5351
 5164SOL    HW227126   0.436   0.477   9.413  0.4543 -0.1903  0.2882
 5165SOL     OW27127   3.324   4.553  16.247 -0.5141  0.8401  0.3491
 5165SOL    HW127128   3.264   4.533  16.175 -0.9196 -2.2839  1.5696
 5165SOL    HW227129   3.271   4.537  16.325 -0.8733  0.9452  0.1294
 5166SOL     OW27130   0.422   2.550   3.541 -0.0364 -0.5965 -0.1139
 5166SOL    HW127131   0.465   2.634   3.525 -0.5244 -0.5981 -1.4659
 5166SOL    HW227132   0.489   2.487   3.566  0.7341  0.9998  1.8397
 5167SOL     OW27133   4.161   1.699   6.973 -0.3200  0.1855  0.8503
 5167SOL    HW127134   4.130   1.781   7.011 -0.8815 -0.1200  1.0481
 5167SOL    HW227135   4.243   1.719   6.928 -0.5289  0.5763  0.6442
 5168SOL     OW27136   3.336   4.720   9.463 -0.3834 -0.5768  0.2544
 5168SOL    HW127137   3.375   0.064   9.440 -0.2237 -0.8891 -0.6238
 5168SOL    HW227138   3.389   4.663   9.408 -0.5799 -2.2681  1.8282
 5169SOL     OW27139   4.573   2.744   6.308  0.2480 -0.0602 -0.3067
 5169SOL    HW127140   4.479   2.762   6.303  0.1115 -0.9327 -0.9602
 5169SOL    HW227141   4.597   2.783   6.223 -0.2017 -0.0257 -0.4212
 5170SOL     OW27142   1.642   0.585   5.972  0.1677 -0.6657 -0.3671
 5170SOL    HW127143   1.574   0.640   5.933  1.1857 -0.1828 -1.4575
 5170SOL    HW227144   1.723   0.628   5.943  0.1987 -0.7241 -0.3659
 5171SOL     OW27145   3.654   3.603  10.673  0.0222 -0.5025 -0.1107
 5171SOL    HW127146   3.663   3.665  10.600  0.1654  0.8265  1.0310
 5171SOL    HW227147   3.724   3.632  10.731 -0.4347 -1.6026  0.9987
 5172SOL     OW27148   1.514   2.429   8.869 -0.0607  0.0791  0.2832
 5172SOL    HW127149   1.504   2.348   8.820 -1.3629 -1.6636  3.4826
 5172SOL    HW227150   1.443   2.477   8.827 -0.1422 -1.0110 -0.8291
 5173SOL     OW27151   3.681   3.765   6.947  0.3646 -0.6913  0.3738
 5173SOL    HW127152   3.625   3.742   7.021  0.0979  3.4109  1.4377
 5173SOL    HW227153   3.643   3.707   6.880 -0.0060  0.2281 -0.2202
 5174SOL     OW27154   1.591   2.242   0.405 -0.0529  0.5342 -0.2328
 5174SOL    HW127155   1.651   2.184   0.453 -0.6751  1.9831  2.3015
 5174SOL    HW227156   1.627   2.322   0.444  2.8135 -1.4039  1.1100
 5175SOL     OW27157   1.572   0.345  13.841  0.0275  0.2715  0.1461
 5175SOL    HW127158   1.645   0.327  13.781  1.2983  1.2980  1.3752
 5175SOL    HW227159   1.615   0.352  13.926 -0.1298  0.2674  0.2259
 5176SOL     OW27160   0.591   2.706   6.104 -0.0130 -0.1367 -0.3138
 5176SOL    HW127161   0.543   2.754   6.171 -0.7211 -0.2323 -0.7538
 5176SOL    HW227162   0.613   2.782   6.051 -2.0407  0.9888  0.4513
 5177SOL     OW27163   1.517   1.774   6.731  0.6029  0.7942  0.0788
 5177SOL    HW127164   1.465   1.705   6.773 -0.5818  1.1353 -0.8152
 5177SOL    HW227165   1.556   1.815   6.807 -1.2392  1.4453  0.6773
 5178SOL     OW27166   2.223   2.429  12.118 -0.1473  0.2587  0.4020
 5178SOL    HW127167   2.263   2.411  12.203  2.3930  2.8914 -0.2391
 5178SOL    HW227168   2.216   2.524  12.121  0.9109  0.2991  1.6898
 5179SOL     OW27169   0.971   1.023   3.222  0.2124  0.1426  0.1747
 5179SOL    HW127170   0.955   0.933   3.195  1.8755 -0.1393  0.1569
 5179SOL    HW227171   1.027   1.009   3.299  1.4838 -1.5884 -1.0871
 5180SOL     OW27172   4.114   3.320   3.177  0.0597 -0.5839  0.6494
 5180SOL    HW127173   4.049   3.365   3.231 -1.4365  0.7853 -2.2548
 5180SOL    HW227174   4.059   3.296   3.102 -0.7393  3.1145  0.0323
 5181SOL     OW27175   4.401   0.971  15.201  0.2476 -0.1092 -0.6761
 5181SOL    HW127176   4.461   0.966  15.276 -2.4139  1.3911  1.5389
 5181SOL    HW227177   4.465   0.994  15.133  0.8884 -0.3757 -0.1715
 5182SOL     OW27178   3.785   3.642   4.247  0.1246  0.1348 -0.3157
 5182SOL    HW127179   3.814   3.642   4.156  0.8456  0.2901 -0.0841
 5182SOL    HW227180   3.754   3.552   4.253 -2.6832  1.0899 -0.3126
 5183SOL     OW27181   2.425   3.900   4.256  0.4402  0.2414  0.4586
 5183SOL    HW127182   2.446   3.866   4.343  2.0101  1.0598  0.3831
 5183SOL    HW227183   2.429   3.824   4.197  0.5328  0.1967  0.5235
 5184SOL     OW27184   0.799   2.147  12.260  0.2121  0.1552 -0.4222
 5184SOL    HW127185   0.769   2.219  12.205  0.0034  0.5082  0.1547
 5184SOL    HW227186   0.872   2.197  12.296 -0.0709  1.5557 -1.8291
 5185SOL     OW27187   4.232   3.957  14.705 -0.0458 -0.4926 -0.2207
 5185SOL    HW127188   4.283   3.876  14.697 -1.4462 -1.4136  0.2358
 5185SOL    HW227189   4.147   3.919  14.726 -2.0920  2.8479 -2.5116
 5186SOL     OW27190   3.290   0.518  13.510 -0.5500  0.4176  0.1062
 5186SOL    HW127191   3.282   0.610  13.532 -2.6157  0.1667  0.3657
 5186SOL    HW227192   3.271   0.525  13.416 -1.3484  2.4498  0.4233
 5187SOL     OW27193   4.353   2.803   7.222 -0.3563 -0.2495 -0.0429
 5187SOL    HW127194   4.296   2.843   7.157  0.5244  2.2064  0.7106
 5187SOL    HW227195   4.349   2.866   7.294  0.0849  2.0126 -2.0230
 5188SOL     OW27196   4.285   1.605   6.053  1.3158 -0.0091 -0.1323
 5188SOL    HW127197   4.348   1.533   6.042  0.0207 -0.9006 -1.8720
 5188SOL    HW227198   4.215   1.564   6.002 -0.6360  1.5583  1.3177
 5189SOL     OW27199   4.197   3.242   8.187  0.5090  0.5043 -0.0489
 5189SOL    HW127200   4.254   3.200   8.122  1.7022  0.4058  1.0764
 5189SOL    HW227201   4.119   3.187   8.183  2.0097 -1.9008  4.1107
 5190SOL     OW27202   2.656   4.158   0.028 -0.7358 -0.3837  0.0150
 5190SOL    HW127203   2.602   4.179  17.712  0.2739  0.2645 -0.5145
 5190SOL    HW227204   2.611   4.085   0.071 -2.0816  1.4762  1.7637
 5191SOL     OW27205   2.184   1.369   8.349  0.9224  0.1692  0.3848
 5191SOL    HW127206   2.152   1.385   8.437  1.9421  0.6919  0.6499
 5191SOL    HW227207   2.120   1.416   8.296  1.4690  0.0904 -0.3569
 5192SOL     OW27208   3.407   4.368   2.116 -0.0064 -0.3907  0.2188
 5192SOL    HW127209   3.458   4.349   2.037  1.1432 -1.6303  1.2632
 5192SOL    HW227210   3.480   4.382   2.175 -1.3370  3.8468  0.9047
 5193SOL     OW27211   1.657   1.496  11.941 -0.3796  0.1615 -0.3483
 5193SOL    HW127212   1.711   1.524  12.015  0.2909 -0.4940 -0.5996
 5193SOL    HW227213   1.725   1.484  11.876 -0.8816 -3.8950 -0.1359
 5194SOL     OW27214   2.785   1.915  15.711 -0.4612  0.0190  0.0735
 5194SOL    HW127215   2.816   2.003  15.689 -0.4970  0.1102  0.3941
 5194SOL    HW227216   2.739   1.928  15.794 -0.3803 -0.5906  0.2083
 5195SOL     OW27217   1.569   2.566  11.547 -0.6445 -0.1470 -0.3064
 5195SOL    HW127218   1.563   2.501  11.477  2.5115 -0.9404  0.1382
 5195SOL    HW227219   1.663   2.581  11.533 -1.0062  1.1788 -1.3248
 5196SOL     OW27220   0.542   1.414   1.151  0.3504  0.1895 -0.8335
 5196SOL    HW127221   0.593   1.472   1.208 -2.5960  1.3617  0.6462
 5196SOL    HW227222   0.493   1.369   1.220 -0.5431  1.1841 -0.8239
 5197SOL     OW27223   2.876   2.691   6.269  0.7840 -0.2186 -0.1425
 5197SOL    HW127224   2.886   2.606   6.225  0.6770 -0.3084  0.0065
 5197SOL    HW227225   2.790   2.716   6.237  0.5700  0.2356  0.7815
 5198SOL     OW27226   0.291   1.279   0.182 -0.0828 -0.6559 -0.6474
 5198SOL    HW127227   0.260   1.206   0.234 -1.3081  0.3054 -0.0254
 5198SOL    HW227228   0.201   1.311   0.169  0.5944  1.8161  0.7967
 5199SOL     OW27229   2.664   3.064   3.059  0.4426  0.0763  0.5643
 5199SOL    HW127230   2.665   2.969   3.057  0.7047  0.1403 -1.6913
 5199SOL    HW227231   2.607   3.074   3.136 -0.2409  2.7549 -0.2683
 5200SOL     OW27232   4.059   0.198   6.665 -0.2500  0.2931 -0.3198
 5200SOL    HW127233   4.051   0.243   6.582  0.5501  2.0691  0.5759
 5200SOL    HW227234   4.047   0.106   6.640 -2.1993  0.8805 -1.4782
 5201SOL     OW27235   2.621   1.143  13.540 -0.1255 -0.5398  0.6423
 5201SOL    HW127236   2.632   1.132  13.446  1.0169 -1.0221  0.8365
 5201SOL    HW227237   2.687   1.207  13.564  0.3371 -0.0161 -2.0055
 5202SOL     OW27238   1.094   4.419   5.779 -0.3057  0.0598 -0.5588
 5202SOL    HW127239   1.028   4.482   5.809 -1.0074 -0.5620 -0.8056
 5202SOL    HW227240   1.173   4.472   5.793 -0.6646  0.7667 -1.1984
 5203SOL     OW27241   1.778   2.105   3.278 -0.0407  0.2924 -0.1077
 5203SOL    HW127242   1.833   2.152   3.341  1.3436 -0.0244 -1.0819
 5203SOL    HW227243   1.830   2.025   3.273 -1.0493 -0.1941 -2.6397
 5204SOL     OW27244   3.286   0.466   9.238 -0.7947  0.1850 -0.2400
 5204SOL    HW127245   3.318   0.403   9.302  0.1850  0.5702 -0.3496
 5204SOL    HW227246   3.259   0.534   9.300 -0.1399  0.4696 -0.2638
 5205SOL     OW27247   2.334   4.457  16.604 -0.0118  0.0553  0.6667
 5205SOL    HW127248   2.244   4.487  16.618  0.6083  2.7339 -1.1523
 5205SOL    HW227249   2.350   4.483  16.514 -3.7892 -0.4355 -0.1289
 5206SOL     OW27250   1.252   4.319  15.179  0.2862 -0.6955  0.2303
 5206SOL    HW127251   1.273   4.329  15.272  0.9098  2.0637 -0.2169
 5206SOL    HW227252   1.187   4.249  15.181 -0.2779 -0.2709 -2.2918
 5207SOL     OW27253   0.029   1.347   2.982  0.3734  0.2589  0.2926
 5207SOL    HW127254   4.718   1.339   3.063  0.2865 -1.4400  0.0665
 5207SOL    HW227255   0.077   1.265   2.992  0.8078  0.2588 -1.7595
 5208SOL     OW27256   4.627   0.895   5.026 -0.1192 -0.4830 -0.0208
 5208SOL    HW127257   4.540   0.936   5.026  1.0587  1.9762  1.1895
 5208SOL    HW227258   4.606   0.813   4.981 -3.4441  1.0243 -1.2451
 5209SOL     OW27259   0.518   1.859  15.602  0.6721  0.3851  0.3472
 5209SOL    HW127260   0.550   1.831  15.688  0.1477  1.2925  0.8388
 5209SOL    HW227261   0.445   1.797  15.599  0.4943  0.6444 -0.5234
 5210SOL     OW27262   3.206   2.681   4.655  0.4829  0.1943 -0.0562
 5210SOL    HW127263   3.136   2.705   4.594 -0.5073 -2.1243  0.1601
 5210SOL    HW227264   3.177   2.594   4.682 -0.5753  0.3987 -0.5270
 5211SOL     OW27265   3.149   0.315   3.119 -0.1111  0.0413  0.6560
 5211SOL    HW127266   3.074   0.353   3.166  0.7580  1.2846  1.0512
 5211SOL    HW227267   3.099   0.252   3.067 -0.2696 -1.3646  2.5342
 5212SOL     OW27268   4.574   2.405  17.412 -0.0953  0.1818 -0.1697
 5212SOL    HW127269   4.548   2.404  17.505  0.0912  1.3201 -0.1047
 5212SOL    HW227270   4.662   2.370  17.403 -0.9837 -1.8336 -0.9762
 5213SOL     OW27271   3.478   0.759   8.747  0.2231  0.2181  0.0576
 5213SOL    HW127272   3.387   0.776   8.721  0.9036  1.6471 -1.3400
 5213SOL    HW227273   3.526   0.834   8.714 -0.5853 -0.2584 -2.1779
 5214SOL     OW27274   0.927   0.567   8.000 -0.4915 -0.6276 -0.0261
 5214SOL    HW127275   0.924   0.653   8.042  3.3724 -0.4594 -0.0957
 5214SOL    HW227276   0.842   0.557   7.959  0.3104  2.3117 -2.3313
 5215SOL     OW27277   0.298   4.345   2.087  0.1690  0.5830  0.5446
 5215SOL    HW127278   0.348   4.409   2.036  0.7267 -1.2359 -1.1912
 5215SOL    HW227279   0.328   4.360   2.177  2.5606 -0.3606 -0.0732
 5216SOL     OW27280   4.344   3.915   9.171 -0.8747  0.5161 -0.6233
 5216SOL    HW127281   4.325   3.858   9.096 -0.0472 -0.8459  0.2043
 5216SOL    HW227282   4.428   3.886   9.205 -1.0248 -0.1839 -0.8428
 5217SOL     OW27283   2.375   2.096  17.009 -0.7022 -0.1891  0.0706
 5217SOL    HW127284   2.331   2.137  17.083 -1.2630 -0.2503 -0.2298
 5217SOL    HW227285   2.426   2.025  17.049 -1.1091 -0.9224 -0.7301
 5218SOL     OW27286   1.027   1.597   9.535  0.1420 -0.2024  0.0911
 5218SOL    HW127287   1.002   1.670   9.592 -0.8609 -0.0867 -0.4957
 5218SOL    HW227288   0.999   1.524   9.590  1.9896  0.0162  1.3353
 5219SOL     OW27289   0.772   3.325   6.303 -0.3830  0.2449 -0.0259
 5219SOL    HW127290   0.783   3.231   6.298 -0.0526  0.1894  1.7206
 5219SOL    HW227291   0.718   3.337   6.381  1.3190  1.1043  1.0381
 5220SOL     OW27292   1.924   3.899   1.759  0.5213 -0.4746  0.6394
 5220SOL    HW127293   1.841   3.941   1.736  0.2784 -0.9514  0.6662
 5220SOL    HW227294   1.984   3.925   1.689 -0.2922  0.9228  0.4531
 5221SOL     OW27295   0.438   3.214  11.396  0.2686 -0.5449 -0.1103
 5221SOL    HW127296   0.528   3.189  11.417  0.3206 -2.0080 -2.1076
 5221SOL    HW227297   0.463   3.248  11.310 -1.2096  0.9403  0.0420
 5222SOL     OW27298   2.389   0.241   2.965  0.1532 -0.2981 -0.8105
 5222SOL    HW127299   2.384   0.321   3.018 -0.0652 -0.6793 -0.2526
 5222SOL    HW227300   2.483   0.224   2.963  0.6678  2.4826 -0.8543
 5223SOL     OW27301   4.130   3.637   1.735 -0.0726 -0.3685  0.4334
 5223SOL    HW127302   4.189   3.712   1.745 -0.0213 -0.3511 -0.0035
 5223SOL    HW227303   4.062   3.667   1.795  2.2414  2.0179  1.8755
 5224SOL     OW27304   3.950   4.665  16.151 -0.1179 -0.2692 -0.0526
 5224SOL    HW127305   3.970   4.704  16.066 -0.8756 -1.1591 -0.6403
 5224SOL    HW227306   3.916   4.740  16.199 -1.1440 -0.8692  0.1728
 5225SOL     OW27307   4.091   4.673   3.961 -0.1407  0.9651 -0.1506
 5225SOL    HW127308   4.093   4.614   3.886  2.1250 -0.6908  1.1974
 5225SOL    HW227309   4.069   0.010   3.910  1.1319  1.1267 -0.4437
 5226SOL     OW27310   4.636   2.824  10.176  0.0399 -0.2472 -0.3021
 5226SOL    HW127311   4.624   2.894  10.239 -2.0347  1.4173 -2.5405
 5226SOL    HW227312   4.633   2.871  10.092  0.5328  0.8724  0.3120
 5227SOL     OW27313   0.379   1.290  10.426 -0.3947  0.2218 -0.2968
 5227SOL    HW127314   0.421   1.244  10.498 -1.4195 -0.1864  0.0460
 5227SOL    HW227315   0.436   1.366  10.421 -0.2390 -0.0163 -2.0249
 5228SOL     OW27316   2.642   2.616   8.639 -0.2185  0.1080  0.3970
 5228SOL    HW127317   2.551   2.645   8.627 -0.1851 -1.6215 -3.9891
 5228SOL    HW227318   2.653   2.565   8.559  1.8928  1.3658 -0.0975
 5229SOL     OW27319   2.656   4.353   4.942 -0.1359  0.7163 -0.2197
 5229SOL    HW127320   2.587   4.342   4.876  1.0387  0.2597 -1.3770
 5229SOL    HW227321   2.612   4.332   5.024 -0.7156  4.3393  0.3975
 5230SOL     OW27322   2.863   1.645  17.222 -0.5303 -0.2601  0.2892
 5230SOL    HW127323   2.928   1.600  17.169 -0.2478 -0.1626  0.5581
 5230SOL    HW227324   2.884   1.738  17.209 -0.6207 -0.3566 -0.5259
 5231SOL     OW27325   1.372   2.091   0.342  0.0023  0.4624 -0.2220
 5231SOL    HW127326   1.441   2.156   0.358  0.4920  0.1207 -0.9501
 5231SOL    HW227327   1.418   2.016   0.380  0.1892  0.2653 -0.8423
 5232SOL     OW27328   0.036   4.566   2.855  1.0560  0.1614  0.3164
 5232SOL    HW127329   0.061   4.477   2.829 -2.8026 -0.4302 -1.4014
 5232SOL    HW227330   0.111   4.607   2.812  0.8726 -1.3815 -1.4928
 5233SOL     OW27331   1.037   4.566   3.160 -0.0733  0.6814 -0.4427
 5233SOL    HW127332   1.068   4.596   3.246  0.6288 -0.5278 -0.2714
 5233SOL    HW227333   0.942   4.557   3.167 -0.0487 -1.0918 -2.2730
 5234SOL     OW27334   4.528   3.756  11.130  0.1448 -0.0903 -0.1681
 5234SOL    HW127335   4.556   3.751  11.038  0.9134  0.5373  0.0269
 5234SOL    HW227336   4.555   3.846  11.149  0.4076 -0.2863  0.3867
 5235SOL     OW27337   0.271   1.601   2.380  0.3289 -0.3984  0.2331
 5235SOL    HW127338   0.291   1.512   2.409 -0.4715 -0.3656  0.9061
 5235SOL    HW227339   0.185   1.613   2.420  0.4610 -2.9733  1.3110
 5236SOL     OW27340   1.316   0.188  15.731  0.1561 -0.3181 -0.3197
 5236SOL    HW127341   1.258   0.118  15.702 -0.4328 -0.2015  0.5809
 5236SOL    HW227342   1.253   0.258  15.746  1.2561  0.6960 -0.4443
 5237SOL     OW27343   1.618   1.675   8.777  0.6261 -0.1027 -0.9120
 5237SOL    HW127344   1.605   1.751   8.833  0.4208  1.2155 -2.7299
 5237SOL    HW227345   1.566   1.693   8.698 -1.1281 -1.7296 -0.1219
 5238SOL     OW27346   1.425   1.871   2.122 -0.1302 -0.0623 -0.2394
 5238SOL    HW127347   1.515   1.863   2.089 -0.0955  2.3615 -0.7323
 5238SOL    HW227348   1.418   1.966   2.124  1.2774  0.0141  0.9198
 5239SOL     OW27349   1.125   4.335   2.356  0.3441  0.2477 -0.6124
 5239SOL    HW127350   1.074   4.390   2.415 -0.3243 -0.2181 -0.7583
 5239SOL    HW227351   1.074   4.320   2.276  0.9611 -0.0383 -0.9548
 5240SOL     OW27352   1.589   2.615   6.366  0.0068  0.7211 -0.0480
 5240SOL    HW127353   1.508   2.618   6.417 -1.5761 -1.2291 -2.4939
 5240SOL    HW227354   1.610   2.522   6.352  0.1759  0.9209 -1.0894
 5241SOL     OW27355   3.671   2.920  16.625 -0.1967  0.6621  0.1841
 5241SOL    HW127356   3.766   2.912  16.619 -0.5724 -0.5494 -3.7968
 5241SOL    HW227357   3.659   2.958  16.713 -1.3191 -0.0763  0.3449
 5242SOL     OW27358   0.410   0.330   1.522 -0.3571 -0.5741 -0.4360
 5242SOL    HW127359   0.364   0.367   1.597 -0.1567  0.5971 -0.8939
 5242SOL    HW227360   0.360   0.363   1.447  0.4473  0.8590 -0.3331
 5243SOL     OW27361   2.995   2.548   4.280  0.0404 -0.4427 -0.1059
 5243SOL    HW127362   3.064   2.613   4.265 -0.8125  1.0786  2.5954
 5243SOL    HW227363   3.048   2.469   4.295  1.2922  0.6820  1.3948
 5244SOL     OW27364   3.437   1.886  13.574 -0.3440  0.0416 -0.0488
 5244SOL    HW127365   3.415   1.913  13.484 -2.5047 -0.4597  0.3231
 5244SOL    HW227366   3.415   1.793  13.576 -0.7219  0.1670  1.1898
 5245SOL     OW27367   4.586   1.512  11.217 -0.1679  0.0222  0.5647
 5245SOL    HW127368   4.651   1.509  11.148  0.1787 -0.1259  0.8985
 5245SOL    HW227369   4.502   1.496  11.174  1.1123 -2.8148 -0.8706
 5246SOL     OW27370   0.120   3.506  13.899  0.0261  0.5272 -0.0360
 5246SOL    HW127371   0.137   3.486  13.807  0.8771  0.4992  0.1267
 5246SOL    HW227372   0.025   3.515  13.900  0.1094  1.1900  2.0808
 5247SOL     OW27373   1.633   2.273   1.453 -0.4103  0.2867 -0.6737
 5247SOL    HW127374   1.554   2.280   1.507 -0.1019 -0.1669 -0.1608
 5247SOL    HW227375   1.611   2.207   1.387  0.4019 -0.0609 -0.5971
 5248SOL     OW27376   0.779   4.409   4.561 -0.4159 -0.1832  0.4835
 5248SOL    HW127377   0.794   4.413   4.655 -1.0324 -0.2447  0.5833
 5248SOL    HW227378   0.742   4.323   4.543  2.1030 -0.8875 -1.4656
 5249SOL     OW27379   2.828   2.155   8.734  0.6830 -0.3663 -0.2775
 5249SOL    HW127380   2.847   2.066   8.704 -0.8997  0.3833 -3.4331
 5249SOL    HW227381   2.787   2.197   8.658  0.1309  2.5941  1.6450
 5250SOL     OW27382   0.641   0.278  16.952  0.0915 -0.1280  0.2918
 5250SOL    HW127383   0.581   0.347  16.925 -0.2030  0.7998  3.3308
 5250SOL    HW227384   0.606   0.205  16.900  0.9072  0.9174 -1.7190
 5251SOL     OW27385   1.557   2.091   9.116  0.2109  0.3632  0.1659
 5251SOL    HW127386   1.549   2.009   9.165  1.7700  1.0312  1.5238
 5251SOL    HW227387   1.465   2.105   9.092  0.4394 -0.3797 -1.1798
 5252SOL     OW27388   0.537   2.655   4.091 -0.3080 -0.6126 -0.0429
 5252SOL    HW127389   0.617   2.700   4.119 -0.7835  0.3510 -0.2169
 5252SOL    HW227390   0.477   2.691   4.157  0.1989  0.0705  0.0486
 5253SOL     OW27391   2.579   0.522   5.271  0.2893 -0.7770  0.1497
 5253SOL    HW127392   2.506   0.584   5.282  0.8294 -0.4866  2.1110
 5253SOL    HW227393   2.602   0.521   5.178 -0.3249  2.2092 -0.0320
 5254SOL     OW27394   0.326   0.076  16.551 -0.0940 -0.4301  0.0941
 5254SOL    HW127395   0.390   0.135  16.510 -1.6616 -0.0161 -1.7304
 5254SOL    HW227396   0.280   0.140  16.605 -0.0151 -1.3112  1.1905
 5255SOL     OW27397   2.734   1.789   9.006  0.4144 -0.0695 -0.4801
 5255SOL    HW127398   2.652   1.833   8.981 -1.4539 -2.8439  0.7455
 5255SOL    HW227399   2.707   1.730   9.076 -1.6512  2.0062  0.4704
 5256SOL     OW27400   2.451   2.723   2.952 -0.1785 -0.1681  0.2116
 5256SOL    HW127401   2.451   2.642   2.902 -0.0688 -0.2846  0.4018
 5256SOL    HW227402   2.413   2.788   2.892 -1.0889  0.2150  1.1951
 5257SOL     OW27403   1.296   1.548   3.664 -0.0322 -0.2508  0.0777
 5257SOL    HW127404   1.242   1.472   3.640 -1.8459  1.0979 -0.1378
 5257SOL    HW227405   1.280   1.552   3.758  1.1290 -2.1337  0.3582
 5258SOL     OW27406   0.183   0.425   3.969  0.2778 -0.4412 -0.4092
 5258SOL    HW127407   0.200   0.451   3.878 -2.2602  0.3787 -0.6615
 5258SOL    HW227408   0.151   0.336   3.960 -1.4821  0.3251 -1.7344
 5259SOL     OW27409   4.179   0.849   9.243 -0.3766  0.1671 -0.4526
 5259SOL    HW127410   4.252   0.805   9.286  0.3369  1.4525 -0.3542
 5259SOL    HW227411   4.107   0.815   9.297  1.6936 -0.9172  1.6417
 5260SOL     OW27412   0.806   4.205  13.434 -0.4084  0.3980  0.1676
 5260SOL    HW127413   0.725   4.197  13.483  0.2755 -1.7079  0.9677
 5260SOL    HW227414   0.868   4.161  13.493 -0.7860  0.7452  0.8185
 5261SOL     OW27415   2.192   3.409   7.199 -0.3952  0.3150  0.2092
 5261SOL    HW127416   2.210   3.478   7.135  1.3478 -0.9881 -0.6788
 5261SOL    HW227417   2.155   3.470   7.264  1.9386  0.7281  1.1593
 5262SOL     OW27418   1.315   3.999  16.156  0.0436 -0.6747 -0.4131
 5262SOL    HW127419   1.242   4.060  16.163  0.8300  0.4929 -2.6719
 5262SOL    HW227420   1.306   3.961  16.069  1.4781 -0.9200 -0.4673
 5263SOL     OW27421   2.324   4.355   8.456  0.7633  0.5192 -0.4141
 5263SOL    HW127422   2.367   4.393   8.379  1.7143 -0.2193 -0.2404
 5263SOL    HW227423   2.240   4.320   8.425  0.4138 -0.7367  1.9177
 5264SOL     OW27424   1.746   2.619   2.441 -0.1431 -0.4501 -0.0436
 5264SOL    HW127425   1.737   2.710   2.467  0.2479 -0.0231 -1.3843
 5264SOL    HW227426   1.654   2.595   2.432 -0.0594 -0.0774 -1.8818
 5265SOL     OW27427   3.057   2.531   2.380  0.1547  0.4182 -0.7937
 5265SOL    HW127428   3.133   2.588   2.387  0.1158  0.3451  0.2295
 5265SOL    HW227429   3.066   2.478   2.459 -0.5783 -0.5149 -1.3370
 5266SOL     OW27430   2.630   3.127   4.582  0.2401  0.0076 -0.0277
 5266SOL    HW127431   2.709   3.147   4.531 -0.1206 -0.7610 -0.8720
 5266SOL    HW227432   2.594   3.061   4.524 -1.8731  0.6777  0.5186
 5267SOL     OW27433   0.795   4.688  14.241 -0.7421  0.3828  0.5486
 5267SOL    HW127434   0.782   4.664  14.333 -0.4908  0.3604  0.5763
 5267SOL    HW227435   0.756   4.603  14.217 -1.1475  0.1189  2.1111
 5268SOL     OW27436   4.178   1.613  13.775 -0.8058  0.2940  0.3663
 5268SOL    HW127437   4.180   1.548  13.846  0.4537 -1.0807 -0.9120
 5268SOL    HW227438   4.253   1.661  13.809 -3.0766  4.9906 -1.2263
 5269SOL     OW27439   4.089   3.920  11.081  0.0242  0.0571  0.1073
 5269SOL    HW127440   4.016   3.967  11.042 -0.4087 -0.2223  0.5845
 5269SOL    HW227441   4.048   3.845  11.123 -0.9217  0.4819 -0.0734
 5270SOL     OW27442   2.376   0.037   9.621 -0.0249  0.4587 -0.3284
 5270SOL    HW127443   2.380   4.706   9.685  0.8907  2.6118  2.0387
 5270SOL    HW227444   2.469   0.048   9.601  0.4595 -0.1323  1.5197
 5271SOL     OW27445   0.691   1.713   1.177 -0.2567 -0.7745 -0.6308
 5271SOL    HW127446   0.748   1.689   1.250  0.6857  0.7908 -0.8538
 5271SOL    HW227447   0.751   1.757   1.117 -0.0368  0.2913  0.3487
 5272SOL     OW27448   0.143   1.084  10.677 -0.0252  0.1329 -0.1005
 5272SOL    HW127449   0.055   1.067  10.710 -0.0545  0.7471  0.1346
 5272SOL    HW227450   0.176   1.155  10.733  0.4008 -0.3846  0.3031
 5273SOL     OW27451   1.693   0.086   5.864  0.1511  0.5711  0.0753
 5273SOL    HW127452   1.762   0.111   5.802  0.6634 -0.8168  0.0837
 5273SOL    HW227453   1.639   0.165   5.867 -1.0620 -0.2382 -0.9038
 5274SOL     OW27454   0.313   4.430   8.388 -0.0064  0.1288  0.3702
 5274SOL    HW127455   0.266   4.486   8.450  0.9329 -1.4985  2.5554
 5274SOL    HW227456   0.348   4.504   8.338  0.5908 -1.4700 -1.5514
 5275SOL     OW27457   1.125   3.799  10.894 -0.2439  0.2579 -0.0018
 5275SOL    HW127458   1.143   3.882  10.850  1.6154  0.6951  1.6195
 5275SOL    HW227459   1.078   3.817  10.975 -0.5619  0.5012 -0.2396
 5276SOL     OW27460   0.456   1.902   2.310 -0.4507 -0.3458  0.0270
 5276SOL    HW127461   0.467   1.807   2.322  0.3307 -0.0254  1.8573
 5276SOL    HW227462   0.416   1.911   2.223  1.5488  0.3569 -0.8458
 5277SOL     OW27463   1.409   4.370   1.900  0.1731  0.5707 -0.1737
 5277SOL    HW127464   1.336   4.418   1.939  1.0442  0.9753  0.9863
 5277SOL    HW227465   1.376   4.357   1.811 -0.4789 -1.0117  0.2998
 5278SOL     OW27466   3.957   3.550   7.378 -0.0046 -0.5516 -0.3300
 5278SOL    HW127467   3.936   3.639   7.403 -0.1093 -0.3736 -1.0597
 5278SOL    HW227468   4.025   3.520   7.438  0.2728 -0.8147 -0.7708
 5279SOL     OW27469   0.424   1.759   0.395  0.5834  0.4619  0.0561
 5279SOL    HW127470   0.391   1.832   0.342 -0.1983 -0.0013 -0.0911
 5279SOL    HW227471   0.449   1.697   0.327 -0.7061 -0.8208  0.7530
 5280SOL     OW27472   4.154   4.711   2.361 -1.0378 -0.0779 -0.4361
 5280SOL    HW127473   4.094   4.637   2.362 -0.3493 -0.6124  0.7923
 5280SOL    HW227474   4.224   4.660   2.320 -0.5446  0.3627 -0.1401
 5281SOL     OW27475   0.901   2.516   6.907  0.0440  0.0452  0.0867
 5281SOL    HW127476   0.827   2.482   6.957  0.3256  0.3404  0.7126
 5281SOL    HW227477   0.923   2.600   6.947 -0.9350 -0.0868  0.9039
 5282SOL     OW27478   1.421   1.445  11.804 -0.3294  0.5926 -0.4476
 5282SOL    HW127479   1.466   1.395  11.735 -1.4592  1.2835 -1.6849
 5282SOL    HW227480   1.495   1.468  11.861  0.6733  0.0527 -1.5175
 5283SOL     OW27481   1.051   1.818   1.284 -0.4460  0.2063 -0.3632
 5283SOL    HW127482   1.019   1.817   1.194 -1.4275 -0.0830 -0.0132
 5283SOL    HW227483   0.973   1.806   1.339 -0.2657  1.9102  0.2684
 5284SOL     OW27484   1.704   1.626  11.288 -0.5073 -0.3968 -0.1266
 5284SOL    HW127485   1.688   1.609  11.381  0.8249  0.7185  0.3166
 5284SOL    HW227486   1.800   1.634  11.287 -0.5783  0.5202 -0.0321
 5285SOL     OW27487   3.497   0.610  13.909 -0.3442 -0.2733 -0.4302
 5285SOL    HW127488   3.418   0.654  13.941 -0.4754 -1.1284  0.4346
 5285SOL    HW227489   3.561   0.655  13.965 -1.9430  1.3242  0.1456
 5286SOL     OW27490   1.096   2.682   0.111 -0.3089  0.3180  0.0148
 5286SOL    HW127491   1.005   2.709   0.102 -0.9280 -2.0625 -0.8677
 5286SOL    HW227492   1.118   2.759   0.163  1.7695  0.4928 -1.1143
 5287SOL     OW27493   3.004   3.559   6.794 -0.3490 -0.2124  0.6968
 5287SOL    HW127494   3.010   3.630   6.731 -1.4513 -1.4003 -0.7272
 5287SOL    HW227495   3.096   3.536   6.786 -1.0678 -1.8234 -2.6573
 5288SOL     OW27496   0.720   1.734   2.405 -0.5352 -0.2977  0.2013
 5288SOL    HW127497   0.725   1.650   2.451 -3.3752  0.1767  1.3801
 5288SOL    HW227498   0.656   1.713   2.337 -0.9259  1.0211  0.1641
 5289SOL     OW27499   1.660   0.328   4.300 -0.4931  0.1059 -0.2259
 5289SOL    HW127500   1.595   0.399   4.304  0.7848  1.3227 -0.9461
 5289SOL    HW227501   1.609   0.264   4.350  1.8482 -1.3186  0.3061
 5290SOL     OW27502   4.719   3.435  15.750 -0.5013  0.1123  0.1441
 5290SOL    HW127503   0.056   3.424  15.805 -0.8616 -1.1420  0.4280
 5290SOL    HW227504   0.014   3.491  15.681  1.3320  0.4050  1.3144
 5291SOL     OW27505   3.880   0.688   2.356  0.1186  0.0446  0.1514
 5291SOL    HW127506   3.931   0.638   2.420  1.0284 -1.8679 -2.0331
 5291SOL    HW227507   3.914   0.651   2.274 -0.0257  0.3398 -0.0410
 5292SOL     OW27508   0.482   0.333   7.848 -0.9146 -0.5174 -0.0478
 5292SOL    HW127509   0.464   0.359   7.758 -0.5979 -0.6212 -0.1384
 5292SOL    HW227510   0.416   0.265   7.856 -0.3090 -1.5286 -3.7496
 5293SOL     OW27511   2.259   3.911   5.900 -0.2771  0.4250  0.3746
 5293SOL    HW127512   2.270   3.919   5.805 -0.9238 -0.3688  0.2292
 5293SOL    HW227513   2.245   4.004   5.914 -2.9700  0.0325  0.2627
 5294SOL     OW27514   3.953   2.466   5.546  0.4984  0.0345  0.3773
 5294SOL    HW127515   3.989   2.517   5.618  2.2498  1.8790 -1.7974
 5294SOL    HW227516   4.033   2.472   5.493 -0.2411 -4.5703 -1.2951
 5295SOL     OW27517   4.336   0.139   2.954  0.4584 -0.9288  0.1705
 5295SOL    HW127518   4.252   0.101   2.927  0.2871  0.1413 -0.7915
 5295SOL    HW227519   4.386   0.061   2.933  0.3737 -0.2715 -2.5021
 5296SOL     OW27520   1.621   4.281   1.293 -0.3642  0.3208  0.2187
 5296SOL    HW127521   1.542   4.244   1.254  1.1306 -2.3574 -0.2513
 5296SOL    HW227522   1.614   4.239   1.379  0.4334 -1.7311 -0.7243
 5297SOL     OW27523   1.000   4.353   5.253 -0.4067  0.1825  0.2803
 5297SOL    HW127524   0.907   4.333   5.246  0.2009 -2.0389 -1.3751
 5297SOL    HW227525   1.022   4.306   5.334  2.5139 -1.3729 -1.4139
 5298SOL     OW27526   0.002   2.841   6.719 -0.2153  0.0145 -0.0374
 5298SOL    HW127527   0.062   2.909   6.689  0.2935  0.6564  2.4605
 5298SOL    HW227528   4.666   2.882   6.679  1.0241  0.8083 -1.6230
 5299SOL     OW27529   2.992   1.126   4.148 -0.4499  0.4552  0.1370
 5299SOL    HW127530   3.072   1.081   4.120  0.1706  0.5093  1.8053
 5299SOL    HW227531   2.947   1.055   4.192 -0.1567 -0.8922 -1.7385
 5300SOL     OW27532   1.279   0.033   6.615 -0.2230 -0.0380  0.1846
 5300SOL    HW127533   1.352   4.718   6.589 -1.5386 -2.3263  1.4266
 5300SOL    HW227534   1.214   4.737   6.555  1.8877  1.4485 -2.9823
 5301SOL     OW27535   0.235   3.753   3.763  0.6877 -0.3058 -0.5118
 5301SOL    HW127536   0.279   3.821   3.713 -1.2099  1.6683  0.5179
 5301SOL    HW227537   0.147   3.789   3.773  1.6871  2.4173 -1.5149
 5302SOL     OW27538   3.923   4.676   8.376  0.2276  0.4920  0.1004
 5302SOL    HW127539   3.982   0.010   8.371  0.6995  0.1265  0.2258
 5302SOL    HW227540   3.864   4.715   8.440 -0.4012 -0.5310  0.1500
 5303SOL     OW27541   1.733   4.187   6.832  0.5023  0.1643  0.1815
 5303SOL    HW127542   1.719   4.153   6.920 -1.8419 -2.7854 -1.3552
 5303SOL    HW227543   1.682   4.268   6.837  2.5164  1.4258  0.2552
 5304SOL     OW27544   1.203   4.308  13.479 -0.5148 -0.7188  0.4114
 5304SOL    HW127545   1.262   4.354  13.420 -0.0263  0.8105  2.1122
 5304SOL    HW227546   1.213   4.348  13.565 -1.6403  1.0782 -0.3003
 5305SOL     OW27547   3.013   2.090   3.807  0.0902 -0.0156  0.0952
 5305SOL    HW127548   2.997   2.140   3.727 -1.0201 -0.4601  0.0353
 5305SOL    HW227549   2.934   2.106   3.859 -0.4505 -2.0179 -0.1216
 5306SOL     OW27550   1.098   0.535  10.116  0.1795  0.0043 -0.4680
 5306SOL    HW127551   1.126   0.626  10.110 -2.3197  0.8442  0.7194
 5306SOL    HW227552   1.004   0.546  10.121  0.0767  0.2357 -2.8812
 5307SOL     OW27553   0.439   4.396   5.144  0.2891 -0.1307 -0.6374
 5307SOL    HW127554   0.408   4.457   5.211  1.3541 -0.4871  0.1852
 5307SOL    HW227555   0.440   4.316   5.197  1.7039 -0.0454 -0.5457
 5308SOL     OW27556   1.684   1.661   7.319  0.4787 -0.3786 -0.3974
 5308SOL    HW127557   1.618   1.614   7.368  1.0213 -3.0407 -2.1921
 5308SOL    HW227558   1.742   1.589   7.292 -0.2243 -0.2125 -2.3862
 5309SOL     OW27559   0.678   0.591  15.152  0.0618  0.0739 -0.3979
 5309SOL    HW127560   0.595   0.593  15.200  0.2880  1.9432 -0.0632
 5309SOL    HW227561   0.733   0.654  15.200 -0.9476  0.0953  0.7494
 5310SOL     OW27562   2.337   0.325   6.778  0.1975  0.7889 -0.2021
 5310SOL    HW127563   2.406   0.341   6.714  0.6421  0.7029  0.2596
 5310SOL    HW227564   2.260   0.308   6.722 -1.1685 -0.0111  1.9244
 5311SOL     OW27565   2.914   0.618   8.576 -0.1139 -0.6103 -0.0326
 5311SOL    HW127566   2.826   0.633   8.539 -0.9856 -2.7684  1.2010
 5311SOL    HW227567   2.895   0.550   8.640 -0.5514 -1.5134 -1.1131
 5312SOL     OW27568   2.573   2.315   1.494  0.1953 -0.1151 -0.4018
 5312SOL    HW127569   2.484   2.346   1.476  0.5776  1.5802  0.6055
 5312SOL    HW227570   2.613   2.399   1.473  0.2137 -0.8761 -3.3194
 5313SOL     OW27571   1.091   2.812   1.620 -0.1693  0.6453 -0.1043
 5313SOL    HW127572   1.128   2.801   1.707 -0.8387 -2.8873 -0.2559
 5313SOL    HW227573   1.004   2.776   1.637  0.4456 -0.7293  0.1558
 5314SOL     OW27574   4.468   4.053  13.822  0.2102 -0.4114  0.3307
 5314SOL    HW127575   4.497   4.079  13.735  0.4178  2.3281  1.2243
 5314SOL    HW227576   4.396   4.115  13.835 -0.9308 -2.6233  4.5108
 5315SOL     OW27577   2.152   0.743   4.490 -0.0739 -0.9201 -0.0377
 5315SOL    HW127578   2.175   0.653   4.516  0.8512 -0.6956 -0.0732
 5315SOL    HW227579   2.172   0.785   4.574 -2.8272  1.4844 -0.5871
 5316SOL     OW27580   3.296   2.718   7.382 -0.3888 -0.7251 -0.2791
 5316SOL    HW127581   3.258   2.677   7.460  2.7726  0.2950  1.7890
 5316SOL    HW227582   3.284   2.653   7.313 -0.2755 -0.9942 -0.0489
 5317SOL     OW27583   3.435   3.989   3.659  0.3545  0.2530 -0.6883
 5317SOL    HW127584   3.416   4.082   3.654  1.2610  0.4391 -0.6922
 5317SOL    HW227585   3.394   3.968   3.575 -0.9113 -0.0495  0.0074
 5318SOL     OW27586   4.041   4.401  16.244  0.0828  0.0885  0.1996
 5318SOL    HW127587   4.109   4.432  16.303 -1.7364  2.3745  1.0896
 5318SOL    HW227588   4.030   4.480  16.191  0.4169  0.3588  0.5359
 5319SOL     OW27589   1.400   4.267   5.078  0.6537  0.4489  0.6101
 5319SOL    HW127590   1.433   4.178   5.067 -0.3227  0.2319 -0.3993
 5319SOL    HW227591   1.384   4.272   5.173  0.9594  0.4402  0.6626
 5320SOL     OW27592   0.886   1.753   3.809  0.6791 -0.4237 -0.0583
 5320SOL    HW127593   0.862   1.843   3.787 -0.0286 -0.1237  1.9879
 5320SOL    HW227594   0.797   1.722   3.824  0.0671  0.8807 -0.9304
 5321SOL     OW27595   1.492   1.272   2.005  0.1536  0.0050 -0.6910
 5321SOL    HW127596   1.489   1.362   1.971  1.5208 -0.0258 -0.8714
 5321SOL    HW227597   1.522   1.291   2.094 -0.0137  0.2761 -0.6896
 5322SOL     OW27598   3.425   0.104   8.687  0.6913 -0.1000  0.1249
 5322SOL    HW127599   3.375   0.181   8.716 -0.8055 -0.9640 -0.1652
 5322SOL    HW227600   3.477   0.084   8.765  0.6621 -2.6199 -0.5295
 5323SOL     OW27601   0.248   2.340   4.406  0.2608  0.0437  0.0460
 5323SOL    HW127602   0.156   2.320   4.389  0.8074 -1.2140 -1.3359
 5323SOL    HW227603   0.275   2.306   4.321  0.9599 -0.8241  0.6244
 5324SOL     OW27604   1.080   2.874  10.763  0.0250 -0.2513 -0.4144
 5324SOL    HW127605   1.094   2.807  10.696  0.1874 -1.9986  1.3651
 5324SOL    HW227606   1.094   2.829  10.847  0.4465 -0.2340 -0.4767
 5325SOL     OW27607   4.422   4.250   2.692 -0.3315 -0.0316  0.1325
 5325SOL    HW127608   4.413   4.248   2.787 -3.5320  2.0953 -0.1305
 5325SOL    HW227609   4.509   4.211   2.687  0.8595  2.6777 -0.6157
 5326SOL     OW27610   2.186   1.688   7.256  0.1780 -0.5869  0.2134
 5326SOL    HW127611   2.254   1.621   7.259  0.2007 -0.6374 -1.3215
 5326SOL    HW227612   2.138   1.670   7.337  1.9576 -2.7541  0.7792
 5327SOL     OW27613   3.781   2.092   5.780  0.2514  0.5335  0.1635
 5327SOL    HW127614   3.829   2.090   5.698 -1.0741  1.7219 -0.6246
 5327SOL    HW227615   3.844   2.036   5.825 -2.1940 -1.1564  1.4987
 5328SOL     OW27616   3.242   0.744   6.968  0.2024  0.3493 -0.0664
 5328SOL    HW127617   3.219   0.655   6.942 -0.2132  1.3814 -3.1610
 5328SOL    HW227618   3.332   0.748   6.935 -0.2791 -1.1789 -1.5510
 5329SOL     OW27619   1.253   1.929  10.019 -0.7485  0.1585  0.7094
 5329SOL    HW127620   1.208   1.884  10.090  0.1807 -1.1087  0.4856
 5329SOL    HW227621   1.283   1.857   9.964 -0.4091  0.9162 -0.1120
 5330SOL     OW27622   1.273   1.541   5.541  0.2799  0.1116 -0.3072
 5330SOL    HW127623   1.272   1.551   5.446  3.4504  2.3248 -0.0979
 5330SOL    HW227624   1.320   1.616   5.577  1.3459  0.0706 -1.6202
 5331SOL     OW27625   2.382   2.790   7.459 -0.3176  0.0817 -0.0809
 5331SOL    HW127626   2.436   2.866   7.485  2.1615 -1.7072  0.0128
 5331SOL    HW227627   2.295   2.827   7.447 -0.1679  0.3440 -0.3580
 5332SOL     OW27628   2.768   2.061   7.824  0.4115  0.3629  0.1555
 5332SOL    HW127629   2.752   2.039   7.732  1.3515 -0.1328  0.1034
 5332SOL    HW227630   2.863   2.046   7.822  0.0949 -1.8556  1.5872
 5333SOL     OW27631   4.659   1.516  15.766 -0.2662  0.0979  0.2632
 5333SOL    HW127632   4.604   1.486  15.695  0.1638 -3.3777  1.4262
 5333SOL    HW227633   4.626   1.606  15.760  0.2111  0.2022 -0.7302
 5334SOL     OW27634   1.303   3.438   5.620 -0.4460 -0.1556  0.2701
 5334SOL    HW127635   1.385   3.398   5.648 -1.1789  1.0228  4.2063
 5334SOL    HW227636   1.342   3.490   5.550 -0.7302 -0.2719  0.0254
 5335SOL     OW27637   0.924   4.387   3.877  0.1851  0.5271 -0.2705
 5335SOL    HW127638   0.867   4.373   3.953 -2.1597  0.4934 -2.0237
 5335SOL    HW227639   1.011   4.389   3.915  0.2625 -1.9841 -0.3710
 5336SOL     OW27640   3.259   2.036   4.836 -0.3289 -0.1064  0.0660
 5336SOL    HW127641   3.289   1.996   4.754 -2.8283 -1.3941 -0.2143
 5336SOL    HW227642   3.260   1.957   4.890 -0.0507 -0.0366  0.1652
 5337SOL     OW27643   3.375   3.799   3.209  0.4323 -0.3329 -0.4436
 5337SOL    HW127644   3.289   3.783   3.170 -0.5341  4.1335 -0.1372
 5337SOL    HW227645   3.431   3.777   3.135  0.3761  1.2596 -0.9612
 5338SOL     OW27646   1.871   1.190  15.632 -0.0612 -0.7453  0.6659
 5338SOL    HW127647   1.955   1.228  15.605 -2.3596  1.5237 -3.3357
 5338SOL    HW227648   1.845   1.162  15.544 -0.4623 -0.4442  0.6876
 5339SOL     OW27649   3.518   0.471   5.346  0.8204 -0.5431 -0.0090
 5339SOL    HW127650   3.490   0.561   5.333  5.1993  0.8582  0.3012
 5339SOL    HW227651   3.569   0.464   5.266  0.7723  0.2377 -0.1051
 5340SOL     OW27652   1.299   1.386   9.368  0.3036 -0.2198 -0.7013
 5340SOL    HW127653   1.353   1.347   9.299 -0.1697 -1.5038 -0.3506
 5340SOL    HW227654   1.224   1.424   9.322  0.2704 -0.2381 -0.6621
 5341SOL     OW27655   1.300   2.184   7.164 -0.1159 -0.0401  0.0708
 5341SOL    HW127656   1.255   2.234   7.096 -1.4649 -2.1131 -0.5682
 5341SOL    HW227657   1.331   2.115   7.104 -0.1676 -0.3634  0.4179
 5342SOL     OW27658   3.659   1.064   2.001  0.6040  0.6568  0.4506
 5342SOL    HW127659   3.622   1.070   1.913 -0.8216 -0.5392  0.9723
 5342SOL    HW227660   3.750   1.093   1.990  1.3279 -1.8587 -0.1241
 5343SOL     OW27661   2.719   2.929   9.131  0.6261 -0.0618  0.2034
 5343SOL    HW127662   2.738   2.962   9.043 -1.1439  0.3840 -0.0265
 5343SOL    HW227663   2.747   2.840   9.113  2.0404  0.1122  1.5299
 5344SOL     OW27664   0.428   0.760  11.593 -0.5434  0.4151  0.4756
 5344SOL    HW127665   0.363   0.723  11.653 -0.2131 -1.3447 -0.2251
 5344SOL    HW227666   0.442   0.684  11.535 -2.7905  0.3023  0.0964
 5345SOL     OW27667   2.708   4.354   8.649  0.8417 -0.1437  0.1279
 5345SOL    HW127668   2.648   4.285   8.621 -2.6930  1.6966  3.2190
 5345SOL    HW227669   2.683   4.433   8.602 -0.9655 -0.8860 -0.1419
 5346SOL     OW27670   0.686   2.315  16.572 -0.6328 -0.4945 -0.8256
 5346SOL    HW127671   0.692   2.406  16.541  2.0558 -0.6956 -0.9151
 5346SOL    HW227672   0.650   2.334  16.659  2.9978 -1.2954  0.8474
 5347SOL     OW27673   0.233   3.197  16.582 -0.1601  0.6969 -0.0400
 5347SOL    HW127674   0.305   3.134  16.592  0.2806  1.0168 -1.1536
 5347SOL    HW227675   0.157   3.156  16.622  0.2144  1.2436  1.2489
 5348SOL     OW27676   2.288   4.448   5.500 -0.2562  0.1124  0.3114
 5348SOL    HW127677   2.258   4.498   5.423 -0.1351  0.6244  0.6001
 5348SOL    HW227678   2.283   4.509   5.573  0.8315  2.0317 -1.2132
 5349SOL     OW27679   0.173   4.580  13.010  0.4789 -0.2493 -0.0119
 5349SOL    HW127680   0.264   4.555  13.026  0.5544 -0.5103 -0.8670
 5349SOL    HW227681   0.190   4.669  13.040 -0.0388  0.3395 -1.4600
 5350SOL     OW27682   1.121   2.695   2.109  0.3307  0.0803 -0.1548
 5350SOL    HW127683   1.149   2.653   2.028 -0.7301 -3.9747  1.6028
 5350SOL    HW227684   1.202   2.741   2.131 -1.0067  2.0946  0.5099
 5351SOL     OW27685   1.288   0.007   1.199 -0.0970  0.9205 -0.0173
 5351SOL    HW127686   1.254   0.050   1.277  0.7833 -1.7780  1.8392
 5351SOL    HW227687   1.224   0.034   1.133  0.6886  1.7908 -0.4223
 5352SOL     OW27688   0.161   4.644   3.294  0.5547 -0.2713  0.0309
 5352SOL    HW127689   0.161   4.723   3.348  1.4661  0.5318 -1.1400
 5352SOL    HW227690   0.203   4.680   3.216  1.7000 -2.8601 -0.5552
 5353SOL     OW27691   4.184   0.876   4.828 -0.5459 -0.0170 -0.7029
 5353SOL    HW127692   4.146   0.959   4.800  1.2553  1.0418 -0.0165
 5353SOL    HW227693   4.099   0.832   4.827 -0.4710 -0.2049  0.7916
 5354SOL     OW27694   2.542   0.515  16.911 -0.5699  0.8685  0.2091
 5354SOL    HW127695   2.603   0.455  16.956 -1.6874  0.5339  1.2805
 5354SOL    HW227696   2.601   0.560  16.851  1.3371 -0.0757  1.3528
 5355SOL     OW27697   0.450   1.083  16.296  0.1174 -0.2366  0.4962
 5355SOL    HW127698   0.440   1.102  16.202  1.8663 -0.3816  0.2837
 5355SOL    HW227699   0.374   1.026  16.308  0.2635 -0.1838  1.6572
 5356SOL     OW27700   3.192   2.068   6.663 -0.8050  0.3563 -0.6039
 5356SOL    HW127701   3.182   2.164   6.660 -3.2685  0.1460  0.3998
 5356SOL    HW227702   3.281   2.062   6.630 -0.5823  0.0685  0.0354
 5357SOL     OW27703   4.645   3.078   7.037  0.8355  0.0032  0.2256
 5357SOL    HW127704   4.656   3.173   7.030  1.1925 -0.2384 -2.4493
 5357SOL    HW227705   4.569   3.067   6.979 -0.5764 -0.7527  2.2088
 5358SOL     OW27706   4.368   1.005   3.313 -0.5276  0.4371  0.2634
 5358SOL    HW127707   4.294   0.992   3.254  0.1896  2.1708 -1.0493
 5358SOL    HW227708   4.439   1.031   3.254 -0.3428 -2.3711 -0.7573
 5359SOL     OW27709   3.088   3.455   6.115 -0.5608  0.6002  0.1606
 5359SOL    HW127710   3.005   3.457   6.069 -1.1547  0.2091  1.2263
 5359SOL    HW227711   3.109   3.364   6.093 -2.1710 -0.2979  2.4175
 5360SOL     OW27712   1.603   1.055  11.977  0.3935  0.4914 -0.1497
 5360SOL    HW127713   1.599   1.138  12.024 -0.2127  0.3952 -0.0413
 5360SOL    HW227714   1.580   0.994  12.048 -1.6120 -1.8668 -2.8100
 5361SOL     OW27715   4.169   2.378   1.256  0.5342 -0.5158 -0.3162
 5361SOL    HW127716   4.241   2.420   1.209  0.1585 -1.3695 -1.6621
 5361SOL    HW227717   4.215   2.315   1.311 -0.4714  0.0927  1.2075
 5362SOL     OW27718   0.602   2.806  13.707  0.2353  0.2427 -0.7569
 5362SOL    HW127719   0.521   2.847  13.738  0.0727  1.0072 -2.1783
 5362SOL    HW227720   0.672   2.850  13.754  0.3782 -0.2172 -0.5391
 5363SOL     OW27721   4.387   3.411  10.883  0.5125 -0.3880  0.5667
 5363SOL    HW127722   4.369   3.505  10.884  2.9202  0.0882 -1.7053
 5363SOL    HW227723   4.383   3.386  10.976 -2.7180  1.2012  0.8732
 5364SOL     OW27724   1.052   3.699  14.525 -0.4330  0.2700 -0.4436
 5364SOL    HW127725   1.049   3.782  14.477 -1.4926 -0.2217 -1.2290
 5364SOL    HW227726   1.043   3.634  14.455  2.6648 -0.7619  0.1004
 5365SOL     OW27727   2.815   3.408   9.763  0.1520  0.1925 -0.0936
 5365SOL    HW127728   2.728   3.442   9.785  0.8441  1.1201  1.1950
 5365SOL    HW227729   2.835   3.440   9.675 -0.3591 -0.2480 -0.3741
 5366SOL     OW27730   2.416   0.601  13.950  0.3176 -0.0552 -0.5542
 5366SOL    HW127731   2.420   0.588  14.045 -0.3680  1.9427 -0.2652
 5366SOL    HW227732   2.448   0.690  13.937 -0.3076 -0.3189 -3.9081
 5367SOL     OW27733   3.297   0.993   1.731  0.1464  0.3344 -0.5205
 5367SOL    HW127734   3.233   1.064   1.727 -0.0868  0.2315  1.1508
 5367SOL    HW227735   3.250   0.921   1.691  0.9077 -1.4625  1.8093
 5368SOL     OW27736   0.785   1.399   5.351 -0.8100  0.0302 -0.4596
 5368SOL    HW127737   0.843   1.458   5.400  0.5560 -2.3519  0.7548
 5368SOL    HW227738   0.825   1.313   5.359  0.8311  0.8272 -0.0343
 5369SOL     OW27739   2.179   2.780  12.020  0.0509  0.5226  0.1046
 5369SOL    HW127740   2.184   2.818  11.933  1.9214  1.3929  0.5842
 5369SOL    HW227741   2.119   2.707  12.003 -0.4016  1.2677 -1.4290
 5370SOL     OW27742   4.073   1.956   5.091  0.2282  0.3080  0.4035
 5370SOL    HW127743   4.011   2.028   5.102 -0.5055 -0.6839  2.8165
 5370SOL    HW227744   4.139   1.985   5.155  0.2673  2.1031 -0.4601
 5371SOL     OW27745   4.705   2.069   7.154  0.5259  0.0603  0.0022
 5371SOL    HW127746   4.648   2.131   7.108  1.3786  1.2147  0.5085
 5371SOL    HW227747   4.739   2.114   7.231  0.1965  0.3703 -0.0374
 5372SOL     OW27748   1.311   2.099   3.016  0.2483  0.3094  0.0237
 5372SOL    HW127749   1.401   2.129   3.000  0.9625  0.0855  3.7173
 5372SOL    HW227750   1.315   2.011   2.977  1.7228 -0.0375  0.9595
 5373SOL     OW27751   2.048   1.429   4.312 -0.6411  0.2751 -0.4002
 5373SOL    HW127752   2.031   1.491   4.241  0.3330  0.4347 -0.4901
 5373SOL    HW227753   2.110   1.363   4.281 -0.0986  0.6799 -0.1679
 5374SOL     OW27754   1.202   3.476   1.944 -0.6529 -0.7592  0.2665
 5374SOL    HW127755   1.282   3.511   1.982  0.3186 -1.9540 -0.7128
 5374SOL    HW227756   1.159   3.551   1.902  0.2518 -0.6740 -0.4996
 5375SOL     OW27757   2.198   0.443   8.336  0.1483 -0.4255  0.7990
 5375SOL    HW127758   2.107   0.461   8.310  0.1443 -0.3276  0.8814
 5375SOL    HW227759   2.239   0.514   8.288  0.7934 -0.4054  1.3796
 5376SOL     OW27760   2.230   2.518   3.377 -0.4154  0.4107 -0.5496
 5376SOL    HW127761   2.299   2.465   3.417 -0.6728  0.1370 -0.4664
 5376SOL    HW227762   2.238   2.493   3.285 -1.3886  2.2965 -1.1370
 5377SOL     OW27763   1.480   4.471   7.968  0.2466 -0.4002 -0.1847
 5377SOL    HW127764   1.469   4.550   7.916 -1.7061  0.9067  2.2426
 5377SOL    HW227765   1.404   4.474   8.025  0.2855  1.5524 -0.2458
 5378SOL     OW27766   2.748   0.440   8.687 -0.0441 -0.0401  0.4376
 5378SOL    HW127767   2.740   0.345   8.677 -1.6319 -0.0048  1.3318
 5378SOL    HW227768   2.683   0.470   8.623  0.7543  0.3005 -0.2083
 5379SOL     OW27769   4.002   0.119  17.297 -0.1799  0.1764 -0.4183
 5379SOL    HW127770   4.086   0.165  17.307  0.0338 -0.2955 -0.0358
 5379SOL    HW227771   4.037   0.032  17.317 -0.6976 -0.1691 -1.0452
 5380SOL     OW27772   3.004   3.204   4.210 -0.1041 -0.3901  0.7670
 5380SOL    HW127773   2.967   3.191   4.123  0.2700  0.6905  0.4471
 5380SOL    HW227774   3.033   3.294   4.198  0.2376 -0.8802 -2.0428
 5381SOL     OW27775   0.391   2.634  14.683  0.3769 -0.2649  0.2729
 5381SOL    HW127776   0.443   2.712  14.664  0.3470 -0.9408 -2.4841
 5381SOL    HW227777   0.300   2.661  14.693  0.3016 -0.6311  0.5966
 5382SOL     OW27778   1.431   2.291  16.717  0.1076  0.0600  0.1716
 5382SOL    HW127779   1.480   2.263  16.794 -1.9741 -3.7249  0.1170
 5382SOL    HW227780   1.392   2.374  16.743  1.6694  0.6317  0.6536
 5383SOL     OW27781   1.656   2.438  10.861  0.4217  0.1795  0.0845
 5383SOL    HW127782   1.591   2.405  10.923  1.2253  0.1768  0.9290
 5383SOL    HW227783   1.672   2.528  10.891  1.3246 -0.2674  0.9186
 5384SOL     OW27784   4.567   1.005   0.584 -1.0681 -0.7315  0.4069
 5384SOL    HW127785   4.646   0.955   0.563 -0.9645 -0.2137 -0.4234
 5384SOL    HW227786   4.516   0.985   0.505  0.1950  0.4238 -0.7017
 5385SOL     OW27787   4.322   0.925   8.416  0.2183  0.0702 -0.2542
 5385SOL    HW127788   4.285   0.958   8.333 -0.8272 -0.0878  0.1472
 5385SOL    HW227789   4.260   0.961   8.479 -1.4563 -0.2855 -1.6840
 5386SOL     OW27790   1.570   0.303   3.993 -0.0659  0.0699  0.0720
 5386SOL    HW127791   1.640   0.239   4.005 -2.1056 -2.0212  1.0059
 5386SOL    HW227792   1.604   0.382   4.034 -2.9385  1.2514  0.1746
 5387SOL     OW27793   1.448   1.710   4.760 -0.3475 -0.0176 -0.2319
 5387SOL    HW127794   1.410   1.662   4.833 -0.1862  0.3922  0.1290
 5387SOL    HW227795   1.393   1.674   4.691 -0.9140  0.6282 -0.1241
 5388SOL     OW27796   2.453   1.630  16.313  0.3339 -0.2547 -0.0152
 5388SOL    HW127797   2.526   1.588  16.359 -1.1258 -0.0592  2.4888
 5388SOL    HW227798   2.409   1.546  16.305  0.8656 -0.4370 -1.0208
 5389SOL     OW27799   2.304   3.406   3.563 -0.3450 -0.5926 -0.6430
 5389SOL    HW127800   2.359   3.484   3.564  0.1146 -0.9263 -0.0240
 5389SOL    HW227801   2.223   3.449   3.536  0.7612 -1.2286 -4.9390
 5390SOL     OW27802   4.294   3.900   3.825  0.2485  0.2592  0.0049
 5390SOL    HW127803   4.322   3.818   3.784  1.8624  1.2012 -0.7725
 5390SOL    HW227804   4.274   3.948   3.745 -0.2064 -0.5410 -0.3632
 5391SOL     OW27805   3.222   1.637   6.669  0.2523 -0.0398  0.5094
 5391SOL    HW127806   3.140   1.683   6.656  0.9377  1.1614  0.3816
 5391SOL    HW227807   3.288   1.666   6.606 -0.6098  1.0019  0.0953
 5392SOL     OW27808   3.328   2.563   5.468  0.1930  0.1734  0.1685
 5392SOL    HW127809   3.342   2.487   5.413  0.9973 -0.3364  1.0709
 5392SOL    HW227810   3.336   2.637   5.407 -1.2805 -1.5019 -2.0382
 5393SOL     OW27811   2.520   4.321   5.178 -0.2090  0.3711 -0.3183
 5393SOL    HW127812   2.474   4.240   5.203 -0.4586  0.5011 -0.3623
 5393SOL    HW227813   2.537   4.365   5.261  1.4732 -0.6281 -0.1413
 5394SOL     OW27814   2.054   3.091   0.481 -0.3855  0.0124 -0.1297
 5394SOL    HW127815   2.126   3.038   0.515  0.6396  1.2518 -0.3861
 5394SOL    HW227816   2.030   3.039   0.405 -0.1828  0.0282 -0.2034
 5395SOL     OW27817   2.880   4.425  16.187  0.1464 -0.0683 -0.0322
 5395SOL    HW127818   2.960   4.463  16.150 -0.3711  1.6099  0.5833
 5395SOL    HW227819   2.883   4.451  16.279 -1.2578 -2.7350  0.7496
 5396SOL     OW27820   3.944   1.697   5.248  0.0765 -0.4811 -0.1369
 5396SOL    HW127821   4.010   1.634   5.278 -0.0619 -0.5044  0.1151
 5396SOL    HW227822   3.992   1.746   5.181  3.7079 -2.2907  1.1087
 5397SOL     OW27823   3.483   3.207  10.496 -0.0986 -0.2755  0.1506
 5397SOL    HW127824   3.500   3.257  10.577 -0.0978  0.0698 -0.0631
 5397SOL    HW227825   3.456   3.281  10.442  3.2915 -0.4991 -1.8142
 5398SOL     OW27826   4.525   2.579   2.574  0.0311  0.1088  0.3659
 5398SOL    HW127827   4.481   2.658   2.544  0.2434  0.0098 -0.1933
 5398SOL    HW227828   4.496   2.513   2.511 -0.1415  0.2745  0.2740
 5399SOL     OW27829   2.606   0.016   9.233  0.1997  0.3139  0.0166
 5399SOL    HW127830   2.598   0.011   9.328  0.0738  1.2220  0.0500
 5399SOL    HW227831   2.634   0.107   9.222 -1.2848  0.6320 -1.2644
 5400SOL     OW27832   4.062   3.775   6.109  0.2226  0.2146  0.7573
 5400SOL    HW127833   4.094   3.859   6.078  0.1174 -0.6310 -1.5919
 5400SOL    HW227834   3.978   3.788   6.152 -1.0098 -2.4964 -0.8331
 5401SOL     OW27835   4.115   3.697  14.475  0.3863 -0.0503  0.4080
 5401SOL    HW127836   4.136   3.622  14.531  1.8620  1.1470  1.4592
 5401SOL    HW227837   4.023   3.680  14.495 -0.0982  0.9179 -0.9845
 5402SOL     OW27838   0.474   4.712   4.725 -0.0727 -0.1474 -0.4091
 5402SOL    HW127839   0.438   4.624   4.712  2.3015 -1.2075  0.2340
 5402SOL    HW227840   0.566   4.689   4.715 -0.0922  0.0332 -1.0404
 5403SOL     OW27841   3.991   2.908  17.154  0.7123  0.6865 -0.0942
 5403SOL    HW127842   4.007   2.814  17.166 -2.6398 -0.0296 -1.3047
 5403SOL    HW227843   3.958   2.903  17.064 -1.7246  2.2818  0.7195
 5404SOL     OW27844   3.348   2.569   3.074  0.2672  0.0182  0.1377
 5404SOL    HW127845   3.427   2.545   3.025 -0.2777 -0.2188 -0.6249
 5404SOL    HW227846   3.288   2.510   3.028  0.4391  0.2081 -0.3272
 5405SOL     OW27847   4.014   0.223   2.375  0.2609 -0.4005 -0.8087
 5405SOL    HW127848   4.075   0.149   2.373  0.6734 -0.0674 -0.7737
 5405SOL    HW227849   3.939   0.178   2.413 -0.7128  0.6081 -1.5363
 5406SOL     OW27850   0.326   1.497  16.277 -0.1374 -0.2317  0.0399
 5406SOL    HW127851   0.354   1.455  16.196  2.0119 -0.4473  0.9208
 5406SOL    HW227852   0.325   1.591  16.258 -0.2335 -0.4433 -1.0159
 5407SOL     OW27853   2.744   0.803   3.023  0.1835 -0.3011 -0.3611
 5407SOL    HW127854   2.735   0.890   2.984 -0.2096 -1.4504 -2.8335
 5407SOL    HW227855   2.655   0.777   2.998 -0.3197  1.1116 -0.0688
 5408SOL     OW27856   4.558   0.944  15.435 -0.0137 -0.2708  0.0275
 5408SOL    HW127857   4.499   0.883  15.479 -0.7335  1.5318  1.5875
 5408SOL    HW227858   4.573   0.997  15.514 -5.2391  0.6090  0.3999
 5409SOL     OW27859   4.346   4.480   3.414 -0.2106 -0.9822 -0.1181
 5409SOL    HW127860   4.277   4.469   3.349 -0.7556 -1.5696  0.5536
 5409SOL    HW227861   4.350   4.392   3.452  1.8203  0.3668  2.8564
 5410SOL     OW27862   3.842   1.162   3.068 -0.2835  0.1356  0.9682
 5410SOL    HW127863   3.863   1.240   3.119 -2.5078 -0.8131  3.3088
 5410SOL    HW227864   3.759   1.184   3.025  0.1950 -0.6489 -0.3944
 5411SOL     OW27865   4.146   4.096  10.085  0.1492 -0.1619 -0.3313
 5411SOL    HW127866   4.105   4.152  10.020  0.7517 -1.9032 -2.2141
 5411SOL    HW227867   4.239   4.094  10.061 -0.3266 -0.7624 -2.0964
 5412SOL     OW27868   2.754   1.558   1.610  1.1978  0.1340  0.1563
 5412SOL    HW127869   2.674   1.532   1.656  1.8940  1.7288  2.2289
 5412SOL    HW227870   2.722   1.648   1.602  1.3078 -0.0753 -2.6591
 5413SOL     OW27871   3.181   2.962  17.512 -0.0717  0.2398  0.3026
 5413SOL    HW127872   3.249   3.009  17.464  0.5971  0.5974  1.6117
 5413SOL    HW227873   3.212   2.872  17.511 -1.9108 -0.4001  0.7028
 5414SOL     OW27874   1.184   4.515  14.978  0.1751  0.7075  0.1888
 5414SOL    HW127875   1.112   4.475  14.929  1.2015  1.6555 -2.0765
 5414SOL    HW227876   1.218   4.446  15.035  0.9773  0.6114 -0.4096
 5415SOL     OW27877   4.600   2.790  10.556  0.2400 -0.3996  0.1216
 5415SOL    HW127878   4.592   2.864  10.495 -0.4383 -0.0005  0.6974
 5415SOL    HW227879   4.687   2.806  10.594  0.1973  0.1809 -0.0153
 5416SOL     OW27880   0.449   0.078   6.786  0.2784 -0.1324 -0.2225
 5416SOL    HW127881   0.432   0.156   6.839 -2.2573 -0.8877  0.0920
 5416SOL    HW227882   0.508   0.034   6.847  0.3509 -0.5642 -0.6102
 5417SOL     OW27883   2.767   0.476   0.044  0.5204 -0.2110 -0.0532
 5417SOL    HW127884   2.673   0.472   0.026  0.5274 -2.6513  0.3933
 5417SOL    HW227885   2.772   0.564   0.079  0.0438  0.0658 -0.6761
 5418SOL     OW27886   4.418   0.130   9.770 -0.1071  0.1697  0.3912
 5418SOL    HW127887   4.499   0.128   9.719 -0.3049 -3.1986  0.2468
 5418SOL    HW227888   4.446   0.178   9.848  0.7100  0.3794 -0.0296
 5419SOL     OW27889   2.657   1.261   8.803 -0.5061 -0.0899 -0.1348
 5419SOL    HW127890   2.650   1.335   8.863 -0.6593  0.5049 -0.8711
 5419SOL    HW227891   2.719   1.290   8.736 -1.6470  1.7941 -0.3727
 5420SOL     OW27892   0.311   2.591  12.784 -0.2301 -0.5971  0.9079
 5420SOL    HW127893   0.335   2.505  12.820  0.1357 -0.5936  0.6700
 5420SOL    HW227894   0.228   2.615  12.826 -0.8427  1.8917 -1.7295
 5421SOL     OW27895   1.778   4.397  17.630 -0.4117 -0.1467 -0.4952
 5421SOL    HW127896   1.831   4.326  17.593 -0.4464 -0.4617  0.0620
 5421SOL    HW227897   1.799   4.471  17.573 -1.2172  0.0898 -0.4809
 5422SOL     OW27898   3.167   1.899   2.285  0.2063 -0.5353  0.4112
 5422SOL    HW127899   3.214   1.982   2.290 -0.7072  0.0114 -0.0083
 5422SOL    HW227900   3.203   1.853   2.361  0.1266 -1.7633 -0.2888
 5423SOL     OW27901   2.193   2.967  16.338  0.1400  1.1622  0.4602
 5423SOL    HW127902   2.175   3.044  16.283 -0.0625 -0.0057 -1.1157
 5423SOL    HW227903   2.210   2.909  16.264  3.4334 -0.3000  2.3899
 5424SOL     OW27904   2.505   1.874  11.296  0.4446  0.1603  0.4719
 5424SOL    HW127905   2.475   1.912  11.213  0.0434  0.0193  0.5513
 5424SOL    HW227906   2.424   1.858  11.344  0.5620 -1.9467 -0.0299
 5425SOL     OW27907   0.355   1.005  15.153  0.0292  0.2430 -0.5000
 5425SOL    HW127908   0.321   1.042  15.234 -1.6612 -2.1146 -0.1234
 5425SOL    HW227909   0.320   1.066  15.088 -0.3052  0.1766 -0.3791
 5426SOL     OW27910   3.885   3.432   3.608  0.2316  0.0531 -0.1459
 5426SOL    HW127911   3.804   3.429   3.659  0.8001 -2.4302  0.6474
 5426SOL    HW227912   3.880   3.524   3.582  1.0496  0.3153  0.6284
 5427SOL     OW27913   3.604   1.570   7.396  0.3350  0.1911  0.0403
 5427SOL    HW127914   3.576   1.659   7.377  1.2616  0.9315  2.2512
 5427SOL    HW227915   3.604   1.565   7.492  0.8512 -1.2188 -0.0245
 5428SOL     OW27916   3.902   3.756  13.864  0.8640  0.4288  0.3610
 5428SOL    HW127917   3.979   3.813  13.870  0.4650  0.7282  2.5824
 5428SOL    HW227918   3.936   3.668  13.876 -0.1184  0.1718  1.1433
 5429SOL     OW27919   3.602   3.472   3.212  0.8434  0.0428  0.5189
 5429SOL    HW127920   3.562   3.509   3.291  1.6723  3.3249 -0.6052
 5429SOL    HW227921   3.529   3.479   3.151  2.3481 -0.0452 -1.2644
 5430SOL     OW27922   0.766   1.190   3.332 -0.2123 -0.5162  0.4848
 5430SOL    HW127923   0.822   1.268   3.320 -1.2935  0.2464  0.4201
 5430SOL    HW227924   0.831   1.120   3.321  0.0242 -0.1063 -0.7370
 5431SOL     OW27925   2.243   2.610   5.200 -0.2034 -0.0280  0.1643
 5431SOL    HW127926   2.158   2.650   5.183  0.2522  1.3564  1.0938
 5431SOL    HW227927   2.226   2.516   5.191 -1.1958  0.1938 -0.3383
 5432SOL     OW27928   2.680   0.397  11.126 -0.3144  0.3946 -0.9779
 5432SOL    HW127929   2.645   0.311  11.104  1.3356 -0.0555 -1.8441
 5432SOL    HW227930   2.739   0.420  11.054 -0.6419 -2.2447 -2.0939
 5433SOL     OW27931   2.459   0.244   3.902  0.0579  0.3690 -0.1879
 5433SOL    HW127932   2.524   0.186   3.864 -1.4051 -0.7631 -0.9729
 5433SOL    HW227933   2.380   0.208   3.862  1.5924 -2.7392 -0.3832
 5434SOL     OW27934   0.071   4.234   3.378 -0.1583  0.1768 -0.2195
 5434SOL    HW127935   0.105   4.244   3.289 -1.2912 -0.7938 -0.7647
 5434SOL    HW227936   0.120   4.302   3.425 -0.8852 -0.0800  0.8960
 5435SOL     OW27937   4.317   1.928   6.110  0.1054 -0.3860 -0.5891
 5435SOL    HW127938   4.282   1.845   6.077  0.6776 -1.1541  0.7372
 5435SOL    HW227939   4.296   1.983   6.035 -0.3400 -1.1345 -1.0228
 5436SOL     OW27940   1.639   0.488   7.348  0.0166  0.0184  0.0243
 5436SOL    HW127941   1.629   0.431   7.271 -1.0530 -0.6359  0.6441
 5436SOL    HW227942   1.599   0.428   7.411 -0.9980 -0.8917 -1.4518
 5437SOL     OW27943   3.083   1.375  17.313 -0.2197 -0.1228  0.0509
 5437SOL    HW127944   3.102   1.405  17.224  2.0139  2.1325  1.2865
 5437SOL    HW227945   3.007   1.425  17.342 -0.0322  2.0075 -3.0708
 5438SOL     OW27946   2.250   0.081   3.837 -0.1465  0.0427 -0.3258
 5438SOL    HW127947   2.188   0.044   3.775 -0.0808 -0.9247  0.1776
 5438SOL    HW227948   2.188   0.119   3.900  1.8975  1.7765  0.6402
 5439SOL     OW27949   0.240   1.978   2.492  0.3860 -0.0188 -0.0369
 5439SOL    HW127950   0.307   1.935   2.544 -0.7629 -2.3963 -0.5326
 5439SOL    HW227951   0.261   1.963   2.399 -1.7713  2.0890 -0.8648
 5440SOL     OW27952   0.857   2.075   2.033  0.4548 -0.2003 -0.4858
 5440SOL    HW127953   0.762   2.065   2.039  0.4967 -1.2214 -1.5282
 5440SOL    HW227954   0.889   1.997   2.078  0.4729  0.4995  0.7193
 5441SOL     OW27955   3.400   1.141  16.082  0.5429  0.4397  0.0332
 5441SOL    HW127956   3.398   1.215  16.143  1.9156  0.1934  0.3889
 5441SOL    HW227957   3.353   1.181  16.009  1.2341  2.2250  0.5554
 5442SOL     OW27958   2.808   4.460   6.415  0.3307  0.1633  0.0673
 5442SOL    HW127959   2.852   4.428   6.336 -1.5300 -1.6231 -0.2675
 5442SOL    HW227960   2.797   4.369   6.445 -0.0119 -0.5980 -2.3612
 5443SOL     OW27961   1.137   0.524   3.243 -0.1598  0.4530 -0.0974
 5443SOL    HW127962   1.214   0.566   3.281 -0.1745  1.8438 -1.6382
 5443SOL    HW227963   1.108   0.473   3.319  0.2880 -2.0288 -1.5842
 5444SOL     OW27964   4.263   2.689   5.621 -0.5795 -0.0029 -0.1735
 5444SOL    HW127965   4.304   2.640   5.692  0.3268  1.3733  0.2482
 5444SOL    HW227966   4.290   2.636   5.546  0.8105  1.5886 -0.7994
 5445SOL     OW27967   2.533   3.746   4.882 -0.2156 -0.2650  0.2121
 5445SOL    HW127968   2.556   3.768   4.792 -2.8199 -1.6173 -0.7903
 5445SOL    HW227969   2.449   3.791   4.880  0.1899  0.3636 -2.6807
 5446SOL     OW27970   3.119   2.379   6.982 -0.4161  0.7288 -0.2991
 5446SOL    HW127971   3.211   2.382   6.958 -0.6262 -1.8048 -1.4367
 5446SOL    HW227972   3.079   2.405   6.898 -1.1994  2.1825  0.5143
 5447SOL     OW27973   2.397   2.459   3.137  0.0890 -0.3055  0.0895
 5447SOL    HW127974   2.376   2.551   3.122  1.4698  0.4686  2.9497
 5447SOL    HW227975   2.399   2.423   3.048 -1.1024  0.2796 -0.1709
 5448SOL     OW27976   2.103   3.790   4.132  0.5278 -0.4553  0.0231
 5448SOL    HW127977   2.065   3.846   4.064  0.0747 -0.0524  0.6060
 5448SOL    HW227978   2.189   3.775   4.092  0.2382  1.8900 -1.4672
 5449SOL     OW27979   0.891   3.036   5.515  0.2085  0.4691 -0.1588
 5449SOL    HW127980   0.960   2.977   5.483 -1.0039  0.2232 -2.3506
 5449SOL    HW227981   0.809   3.014   5.471  1.2699 -0.3736 -1.7124
 5450SOL     OW27982   3.914   3.250   9.451 -0.3239  0.0606 -0.0566
 5450SOL    HW127983   3.993   3.276   9.404  0.0956 -1.0685  0.0232
 5450SOL    HW227984   3.944   3.175   9.502  2.0631 -0.6351 -2.5021
 5451SOL     OW27985   3.012   3.828   8.584 -0.4060  0.1849  0.0275
 5451SOL    HW127986   3.106   3.807   8.579 -0.2970  0.0006  2.4171
 5451SOL    HW227987   2.974   3.743   8.606  0.5896 -0.3297 -0.2302
 5452SOL     OW27988   3.476   1.678   8.287  0.0859 -0.2631 -0.5297
 5452SOL    HW127989   3.496   1.741   8.356  1.5724 -0.3923 -0.8601
 5452SOL    HW227990   3.416   1.615   8.326 -0.1680  0.9629  1.0747
 5453SOL     OW27991   0.266   1.628  14.185  0.6186  0.0769 -0.4565
 5453SOL    HW127992   0.188   1.655  14.233  0.0865 -0.1221 -1.2017
 5453SOL    HW227993   0.224   1.558  14.136 -0.4127 -1.2804  2.3868
 5454SOL     OW27994   4.729   4.443   5.926  0.1588 -0.0233  0.1569
 5454SOL    HW127995   0.076   4.472   5.901 -0.4326 -0.1628 -2.0102
 5454SOL    HW227996   4.691   4.531   5.934 -0.7794 -0.5335  1.3396
 5455SOL     OW27997   1.010   0.592   7.703 -0.4490  0.4022 -0.1528
 5455SOL    HW127998   1.036   0.668   7.651  0.9016  0.7382  1.0181
 5455SOL    HW227999   1.093   0.564   7.743 -0.7464  1.1555  0.9847
 5456SOL     OW28000   4.308   2.997  17.705  0.2765  0.0151 -0.6452
 5456SOL    HW128001   4.217   2.994  17.737  1.6640 -1.4444  3.2053
 5456SOL    HW228002   4.346   3.060   0.006  2.8715 -1.4387 -0.7932
 5457SOL     OW28003   4.452   0.605   5.326 -0.1848 -0.1039 -0.6275
 5457SOL    HW128004   4.428   0.688   5.284 -1.4984  0.1398  0.6021
 5457SOL    HW228005   4.533   0.631   5.371 -0.6852  1.0214 -0.3799
 5458SOL     OW28006   2.184   3.826   2.770  0.0733  0.0545  0.6023
 5458SOL    HW128007   2.277   3.819   2.794 -0.2129  1.5785  2.1668
 5458SOL    HW228008   2.163   3.901   2.826  1.6720  0.4113  0.7212
 5459SOL     OW28009   3.296   1.787  17.632  0.3089  0.8594 -0.5962
 5459SOL    HW128010   3.242   1.791  17.553 -0.3199  0.7469 -0.1718
 5459SOL    HW228011   3.359   1.858  17.621 -0.4112  1.8049  1.4703
 5460SOL     OW28012   1.224   1.581   4.140  0.1644  0.2046 -0.4793
 5460SOL    HW128013   1.165   1.593   4.065 -0.7305 -0.8042  0.0447
 5460SOL    HW228014   1.256   1.669   4.156 -2.3824  1.1618 -0.6898
 5461SOL     OW28015   0.413   1.064  10.703  0.1031 -0.4357  0.1735
 5461SOL    HW128016   0.335   1.009  10.698  0.4675 -0.9687  0.2677
 5461SOL    HW228017   0.404   1.098  10.792  1.4009 -0.8304  0.4546
 5462SOL     OW28018   1.081   2.086   7.408 -0.3595  0.0447  0.3804
 5462SOL    HW128019   1.045   2.007   7.447  1.9601 -0.8581  0.7161
 5462SOL    HW228020   1.045   2.086   7.320 -0.9729  1.0199  0.6278
 5463SOL     OW28021   2.831   1.130   8.077  0.0714 -0.0586 -0.1376
 5463SOL    HW128022   2.905   1.072   8.094  0.9068  0.3879 -2.2300
 5463SOL    HW228023   2.848   1.152   7.985  0.2366 -0.4153 -0.1913
 5464SOL     OW28024   1.441   3.961   5.086 -0.0905  0.0669  0.5154
 5464SOL    HW128025   1.402   3.970   4.999  2.1143  1.5575 -0.2897
 5464SOL    HW228026   1.503   3.891   5.067 -0.3847  0.6653 -2.6492
 5465SOL     OW28027   4.416   2.147   3.321 -0.0896 -0.3532 -0.2318
 5465SOL    HW128028   4.340   2.100   3.287 -0.7588 -0.8663  1.9782
 5465SOL    HW228029   4.396   2.229   3.275 -0.8584  0.1475  0.9955
 5466SOL     OW28030   3.029   1.122   1.208 -0.0991 -0.7438  0.1050
 5466SOL    HW128031   3.029   1.115   1.304  1.1250  0.8029  0.2198
 5466SOL    HW228032   3.122   1.145   1.198 -0.7344  0.6952 -2.3872
 5467SOL     OW28033   0.741   3.430   0.446 -0.3858 -0.2884  0.2461
 5467SOL    HW128034   0.736   3.525   0.447  1.1108 -0.1844 -1.5891
 5467SOL    HW228035   0.824   3.409   0.489  0.4486 -0.1499 -1.3030
 5468SOL     OW28036   2.460   3.077  16.172 -0.2197 -0.3330 -0.0399
 5468SOL    HW128037   2.374   3.035  16.183 -0.4752  0.2458  0.1678
 5468SOL    HW228038   2.499   3.014  16.111  0.3394  0.8759 -0.9264
 5469SOL     OW28039   1.159   0.726   2.469 -0.7084  0.0866 -0.2938
 5469SOL    HW128040   1.096   0.733   2.397 -1.7954 -3.3852  0.3303
 5469SOL    HW228041   1.152   0.815   2.505 -1.0272  0.4694 -1.2905
 5470SOL     OW28042   2.938   3.642   4.312  0.2917 -0.6582  1.4265
 5470SOL    HW128043   2.972   3.677   4.394  0.2813  2.1653  0.2135
 5470SOL    HW228044   2.919   3.720   4.260  1.9373 -0.9379  0.3915
 5471SOL     OW28045   1.666   1.501   9.036  0.2545 -0.0510 -0.5852
 5471SOL    HW128046   1.615   1.542   8.965 -3.1975 -4.2818 -0.5598
 5471SOL    HW228047   1.701   1.583   9.072 -1.8304  0.2549  0.7538
 5472SOL     OW28048   4.058   2.737  15.328  0.1773  0.7943 -0.0776
 5472SOL    HW128049   4.049   2.812  15.269 -0.5384 -0.1794 -1.2071
 5472SOL    HW228050   4.077   2.782  15.410 -2.4817  0.4023  0.7490
 5473SOL     OW28051   0.666   1.736   3.508  0.0476 -0.0346  0.3550
 5473SOL    HW128052   0.658   1.647   3.543  1.0452  0.0819  0.8660
 5473SOL    HW228053   0.756   1.764   3.524  1.2275 -4.6881  1.6972
 5474SOL     OW28054   3.579   4.139   9.305  0.2518  0.0998 -0.3838
 5474SOL    HW128055   3.519   4.066   9.322  0.8573 -0.6773 -1.5291
 5474SOL    HW228056   3.553   4.205   9.369  0.1100 -0.3535  0.0245
 5475SOL     OW28057   3.562   4.613   1.996 -0.0114  0.0917 -0.2634
 5475SOL    HW128058   3.467   4.608   1.981  0.0039  0.8322 -0.6134
 5475SOL    HW228059   3.568   4.676   2.067  2.2339 -0.2725 -0.1497
 5476SOL     OW28060   1.042   1.989   5.694 -0.4932 -0.2648 -0.0721
 5476SOL    HW128061   0.970   2.050   5.711  1.6803  2.3130  0.1004
 5476SOL    HW228062   1.058   1.962   5.784 -0.4164  1.7525  0.5349
 5477SOL     OW28063   2.509   1.503   1.750 -0.4220 -0.2754  0.3268
 5477SOL    HW128064   2.501   1.425   1.805  0.6103  0.2940  1.2757
 5477SOL    HW228065   2.422   1.542   1.765 -0.2786  0.0018  0.4267
 5478SOL     OW28066   2.500   0.742   8.195  0.4311  0.4448  0.5345
 5478SOL    HW128067   2.479   0.735   8.288 -3.1139  1.7873 -0.1584
 5478SOL    HW228068   2.510   0.837   8.191 -0.3687  0.5370  0.7282
 5479SOL     OW28069   1.189   3.542   3.648  0.7442 -0.3845 -0.6833
 5479SOL    HW128070   1.258   3.522   3.711 -0.4287 -1.4441  0.2739
 5479SOL    HW228071   1.226   3.526   3.561  2.0239  0.3979 -0.2843
 5480SOL     OW28072   3.581   1.646   5.478 -0.9091  0.0589  0.8637
 5480SOL    HW128073   3.538   1.687   5.553 -2.1162 -0.5541  0.5106
 5480SOL    HW228074   3.661   1.617   5.521 -1.3589  1.3442  2.5580
 5481SOL     OW28075   0.359   2.873   5.424 -0.4145 -0.1348  0.0551
 5481SOL    HW128076   0.347   2.925   5.345 -1.9760 -0.1816  0.2491
 5481SOL    HW228077   0.317   2.790   5.402 -2.2567  0.6825  0.4483
 5482SOL     OW28078   4.644   0.259  10.414 -0.2272  0.1353 -0.1279
 5482SOL    HW128079   4.738   0.276  10.411 -0.1992  0.2184  1.1407
 5482SOL    HW228080   4.631   0.168  10.443  1.0201 -0.1112 -0.3149
 5483SOL     OW28081   2.029   3.764   3.595 -0.6521  1.0399 -0.2272
 5483SOL    HW128082   2.081   3.835   3.633  0.8798  0.3513 -1.0233
 5483SOL    HW228083   1.987   3.732   3.675 -0.7064  0.6135 -0.4287
 5484SOL     OW28084   4.487   0.493   3.873  0.6051 -0.1004  0.2066
 5484SOL    HW128085   4.473   0.551   3.948  0.7261  0.7726 -0.4453
 5484SOL    HW228086   4.456   0.544   3.798  1.1423  0.2130  0.1898
 5485SOL     OW28087   3.689   2.354   5.204 -0.1544  0.2415  0.0385
 5485SOL    HW128088   3.638   2.432   5.226 -1.7531 -0.6593 -0.4262
 5485SOL    HW228089   3.777   2.387   5.222 -0.4412 -0.5631  2.8077
 5486SOL     OW28090   1.217   4.321   0.634  0.0738 -0.1458 -0.1363
 5486SOL    HW128091   1.251   4.355   0.551 -1.4368  4.1010  0.9859
 5486SOL    HW228092   1.282   4.258   0.665  0.7518  1.6103  2.1081
 5487SOL     OW28093   1.277   3.928  13.076 -0.1078 -0.1482 -0.4803
 5487SOL    HW128094   1.370   3.944  13.060  0.1015  2.8769  3.6547
 5487SOL    HW228095   1.272   3.898  13.167 -0.0797  2.3676  0.3715
 5488SOL     OW28096   2.414   1.278   5.793  0.4346  0.2121 -0.2808
 5488SOL    HW128097   2.470   1.201   5.802  0.4706  0.1833 -0.7572
 5488SOL    HW228098   2.459   1.320   5.719 -2.4515  1.8736 -1.0893
 5489SOL     OW28099   4.352   1.644   7.301 -0.3387 -0.2028  0.3668
 5489SOL    HW128100   4.414   1.714   7.323 -0.4732  0.1536 -0.3762
 5489SOL    HW228101   4.270   1.692   7.293 -0.5268 -0.6503 -0.3614
 5490SOL     OW28102   1.695   2.669   5.659 -0.1655  0.0715  0.1015
 5490SOL    HW128103   1.750   2.741   5.690 -2.3032  1.9694 -0.4726
 5490SOL    HW228104   1.659   2.700   5.576  0.9525  1.1225  0.0021
 5491SOL     OW28105   0.050   0.931  11.763 -0.1479  0.3776 -0.2140
 5491SOL    HW128106   0.097   0.971  11.836 -0.2167  1.0932 -0.5675
 5491SOL    HW228107   4.712   0.983  11.752  0.3548  1.1187 -0.2565
 5492SOL     OW28108   3.769   3.098   8.882  0.4228 -0.6207  0.6803
 5492SOL    HW128109   3.817   3.165   8.833 -0.1830 -0.1568  0.7369
 5492SOL    HW228110   3.711   3.147   8.940 -1.2405  0.1955 -1.6903
 5493SOL     OW28111   2.639   1.661   4.001  0.0522  0.5025  0.3952
 5493SOL    HW128112   2.598   1.633   3.919  1.5125 -1.1989  0.2546
 5493SOL    HW228113   2.602   1.749   4.014  0.2574  0.7830 -0.9361
 5494SOL     OW28114   1.378   4.513   6.170 -0.3702 -0.3337 -0.0420
 5494SOL    HW128115   1.468   4.495   6.143  1.0649  2.7217  2.7874
 5494SOL    HW228116   1.365   4.453   6.244  1.1840  2.5176  2.5270
 5495SOL     OW28117   2.087   1.199   2.264 -0.7170 -0.1885  0.5342
 5495SOL    HW128118   2.163   1.142   2.275 -0.2165 -0.2158 -3.0066
 5495SOL    HW228119   2.102   1.259   2.337  2.0692 -0.9359  0.5716
 5496SOL     OW28120   0.639   1.498   3.704 -0.2565 -0.5760 -0.0912
 5496SOL    HW128121   0.595   1.414   3.716 -0.9915 -0.3243 -1.0668
 5496SOL    HW228122   0.637   1.545   3.788 -2.2210  1.6351 -1.3904
 5497SOL     OW28123   2.990   1.575   8.961 -0.1242  0.1585  0.0088
 5497SOL    HW128124   3.067   1.534   8.922  0.3418  1.5244 -0.5249
 5497SOL    HW228125   3.039   1.622   9.029 -0.2611 -1.3056  1.1121
 5498SOL     OW28126   4.406   3.428   2.067  0.1024  0.1151  0.3097
 5498SOL    HW128127   4.349   3.503   2.083  0.8413  0.8834 -0.6712
 5498SOL    HW228128   4.350   3.379   2.007  1.5287 -1.3516  0.1953
 5499SOL     OW28129   2.022   4.682   2.944  0.4454 -0.3736 -0.1514
 5499SOL    HW128130   2.050   0.004   2.877  1.2497  0.1325  0.6493
 5499SOL    HW228131   1.985   4.740   3.011 -1.6989 -0.9936 -0.7986
 5500SOL     OW28132   3.147   1.029   8.914 -0.0649  0.0215  0.2894
 5500SOL    HW128133   3.109   0.951   8.873  2.0209 -1.9647  2.1163
 5500SOL    HW228134   3.117   1.098   8.854 -0.0533  0.1616  0.4464
 5501SOL     OW28135   2.363   2.854   8.981 -0.2723  0.1350  0.2231
 5501SOL    HW128136   2.297   2.807   8.929 -0.2746 -0.2228  0.5484
 5501SOL    HW228137   2.442   2.841   8.927  1.1359 -0.6346  2.4660
 5502SOL     OW28138   1.301   3.101   5.979  0.4340  0.0398 -0.2611
 5502SOL    HW128139   1.273   3.186   6.012 -2.0389 -1.0593  0.4831
 5502SOL    HW228140   1.259   3.111   5.894 -1.2565 -0.8226  0.4725
 5503SOL     OW28141   2.962   0.636  11.859  0.0889  0.1870  0.4777
 5503SOL    HW128142   2.967   0.603  11.769  0.4122 -0.2377  0.6478
 5503SOL    HW228143   2.912   0.575  11.913  2.2007 -2.0914 -0.1494
 5504SOL     OW28144   1.763   0.603  14.978  0.0851  0.0519  0.3808
 5504SOL    HW128145   1.757   0.697  14.961  0.8959  0.1455  0.6393
 5504SOL    HW228146   1.740   0.601  15.071  0.9045 -0.9465  0.5626
 5505SOL     OW28147   1.970   0.382   5.494 -0.1343 -0.0511  0.3600
 5505SOL    HW128148   1.988   0.403   5.585  0.4940  1.8496 -0.1978
 5505SOL    HW228149   2.024   0.307   5.472  0.8663  1.0774 -1.0864
 5506SOL     OW28150   1.237   2.626   2.794 -0.4912 -0.8276 -0.5577
 5506SOL    HW128151   1.158   2.678   2.806  1.2628  1.6199  0.2843
 5506SOL    HW228152   1.211   2.539   2.825  1.7704 -1.8119 -1.3988
 5507SOL     OW28153   2.496   2.929   7.914  0.6721  0.4842 -0.5596
 5507SOL    HW128154   2.427   2.872   7.946  1.5944 -0.3865 -0.1268
 5507SOL    HW228155   2.444   3.005   7.889  2.1664  2.2212  1.6526
 5508SOL     OW28156   1.616   1.283   5.336 -0.4118  0.1308 -0.3154
 5508SOL    HW128157   1.613   1.360   5.393 -2.9101  0.1490 -0.4588
 5508SOL    HW228158   1.684   1.231   5.379  0.3094 -0.1169 -1.7519
 5509SOL     OW28159   1.162   4.058  12.858 -0.1460  0.6656 -0.5330
 5509SOL    HW128160   1.202   4.033  12.941  0.7997 -1.1657 -1.5514
 5509SOL    HW228161   1.203   3.996  12.798  0.2290 -0.5858  1.0294
 5510SOL     OW28162   4.732   1.326  15.456  0.1041  0.3998  0.2256
 5510SOL    HW128163   0.016   1.333  15.549 -2.7202  0.5944  0.9621
 5510SOL    HW228164   0.078   1.299  15.426 -0.5505 -1.5467  0.0600
 5511SOL     OW28165   1.047   0.691  12.836  0.0552  0.8311 -0.4060
 5511SOL    HW128166   1.120   0.718  12.780  2.0385 -0.8503  1.3453
 5511SOL    HW228167   0.975   0.670  12.778 -0.0359 -0.2188  0.0917
 5512SOL     OW28168   3.408   3.755  11.143 -0.3098  0.4912  0.4900
 5512SOL    HW128169   3.369   3.681  11.096  1.9625 -0.8663  0.7406
 5512SOL    HW228170   3.498   3.760  11.110  0.2659  2.1542  2.3381
 5513SOL     OW28171   2.448   0.548   7.555  0.4023  0.0812 -0.0836
 5513SOL    HW128172   2.529   0.595   7.574 -0.2096  1.2815 -0.4415
 5513SOL    HW228173   2.457   0.464   7.601 -2.8087 -1.1723 -1.7058
 5514SOL     OW28174   1.294   3.669   6.109  0.0551 -0.1095  0.6890
 5514SOL    HW128175   1.220   3.727   6.091  1.4615  1.0474 -1.3103
 5514SOL    HW228176   1.372   3.715   6.078  0.1110 -0.1370  0.7901
 5515SOL     OW28177   2.951   1.277   0.592 -0.0624 -0.0655 -0.0074
 5515SOL    HW128178   2.909   1.297   0.676 -0.9789 -2.1172  0.0086
 5515SOL    HW228179   2.909   1.350   0.546 -0.7772  0.0427  0.8284
 5516SOL     OW28180   1.963   4.230   8.782  0.0506 -0.1811 -0.2796
 5516SOL    HW128181   1.885   4.254   8.832  0.8505 -1.5129  1.6147
 5516SOL    HW228182   1.954   4.284   8.703  0.7366  0.1829 -0.1055
 5517SOL     OW28183   1.854   2.600  16.694  0.0966  0.2727  0.2576
 5517SOL    HW128184   1.788   2.629  16.758 -1.0634 -0.5179 -0.5750
 5517SOL    HW228185   1.842   2.506  16.682  0.1447  0.4571 -1.1958
 5518SOL     OW28186   3.114   3.190   7.427 -0.0935 -0.1917  0.4290
 5518SOL    HW128187   3.129   3.284   7.433 -0.1067 -0.1221 -0.7783
 5518SOL    HW228188   3.078   3.194   7.339 -1.6244 -0.7761  1.0209
 5519SOL     OW28189   4.196   3.316   6.006  0.0919  0.2417 -0.8105
 5519SOL    HW128190   4.158   3.320   6.094  1.0656 -1.5380 -0.3155
 5519SOL    HW228191   4.205   3.408   5.983  2.6067  0.4675  1.0719
 5520SOL     OW28192   2.229   0.355   7.502  0.6110  0.4340  0.0246
 5520SOL    HW128193   2.307   0.309   7.535 -0.1160  0.1972  1.4058
 5520SOL    HW228194   2.175   0.277   7.496 -2.1136  2.3671 -0.5957
 5521SOL     OW28195   4.312   1.906   5.294  0.0892  0.3267  0.4670
 5521SOL    HW128196   4.320   1.831   5.235 -0.6408  0.9931 -0.4837
 5521SOL    HW228197   4.397   1.949   5.291 -1.0745  2.6063  0.0383
 5522SOL     OW28198   0.923   4.654   5.756 -0.1985 -0.4899  0.5753
 5522SOL    HW128199   0.935   0.008   5.755 -0.4477 -0.4507  0.9385
 5522SOL    HW228200   0.911   4.634   5.664  0.9525  0.5929  0.1857
 5523SOL     OW28201   4.056   2.178  14.049  0.3322 -0.1625 -0.0525
 5523SOL    HW128202   3.984   2.242  14.050 -0.4735 -1.0670 -0.1176
 5523SOL    HW228203   4.122   2.243  14.025  0.9641 -0.7840  0.0055
 5524SOL     OW28204   4.009   2.990   8.418  0.3813 -0.5681  0.2711
 5524SOL    HW128205   4.092   2.988   8.466  0.5746  0.0021 -0.0370
 5524SOL    HW228206   3.952   2.943   8.478  0.7222  1.4621  2.1882
 5525SOL     OW28207   1.215   0.096   1.456 -0.4141  0.1025 -0.0699
 5525SOL    HW128208   1.189   0.157   1.525 -1.3241 -0.8407  0.4304
 5525SOL    HW228209   1.262   0.031   1.508 -1.3546  1.0507  1.9413
 5526SOL     OW28210   2.440   0.138   6.951  0.6266 -0.5339 -0.4679
 5526SOL    HW128211   2.402   0.197   6.885 -0.6413 -1.0673 -0.2068
 5526SOL    HW228212   2.525   0.114   6.913  0.0261 -3.5526  0.1205
 5527SOL     OW28213   2.319   3.183  10.308 -0.5048  0.6437  0.2833
 5527SOL    HW128214   2.395   3.148  10.355 -0.6258  0.6418  0.4797
 5527SOL    HW228215   2.346   3.274  10.300  2.5201 -0.2021  0.8901
 5528SOL     OW28216   1.713   2.182  15.235 -0.0007 -0.2968  0.6268
 5528SOL    HW128217   1.734   2.097  15.274 -1.9172 -0.9905  0.1455
 5528SOL    HW228218   1.618   2.183  15.224 -0.1009 -2.3319  1.3517
 5529SOL     OW28219   4.472   0.040   5.329  0.4867 -0.1275  0.3926
 5529SOL    HW128220   4.385   0.059   5.295  1.1801 -2.1141 -2.4980
 5529SOL    HW228221   4.507   0.128   5.344 -0.5983  0.5016 -0.8309
 5530SOL     OW28222   2.428   3.394   3.250  1.0626  0.0263 -0.3761
 5530SOL    HW128223   2.413   3.479   3.291  0.5391  0.3627 -1.2880
 5530SOL    HW228224   2.347   3.394   3.199 -0.5006 -0.7119  2.0793
 5531SOL     OW28225   0.646   4.386   2.010  0.8943 -0.0556 -0.0593
 5531SOL    HW128226   0.680   4.469   2.042 -0.9916  0.8346 -0.4237
 5531SOL    HW228227   0.567   4.418   1.966  0.1182  1.6937  2.6448
 5532SOL     OW28228   3.851   0.225  17.077 -0.1011  1.0212 -0.3540
 5532SOL    HW128229   3.931   0.182  17.046 -1.4590 -2.0596  0.5003
 5532SOL    HW228230   3.859   0.183  17.162  0.1207  0.2250 -0.7690
 5533SOL     OW28231   4.211   1.686  11.877 -0.0347 -0.1622 -0.4934
 5533SOL    HW128232   4.271   1.618  11.906 -1.0620 -1.0544 -0.4763
 5533SOL    HW228233   4.125   1.662  11.912 -0.9086  2.0385 -1.1050
 5534SOL     OW28234   3.875   2.737   9.441 -0.0247  0.0601  0.6117
 5534SOL    HW128235   3.855   2.679   9.367  0.7255 -0.4339  0.7930
 5534SOL    HW228236   3.840   2.691   9.517  1.7645  0.6413  1.7712
 5535SOL     OW28237   1.093   3.848   5.979 -0.0811  0.2280  0.5953
 5535SOL    HW128238   1.060   3.771   5.933  0.0025 -0.0895  1.0565
 5535SOL    HW228239   1.029   3.865   6.048 -0.7001 -1.7359  0.5182
 5536SOL     OW28240   4.470   0.157   3.323  0.1374  0.0390 -0.4385
 5536SOL    HW128241   4.494   0.226   3.261 -1.1253  0.4050 -0.5127
 5536SOL    HW228242   4.476   0.079   3.267  0.6445  0.6588 -1.2511
 5537SOL     OW28243   2.968   3.419  11.284 -0.4888 -0.1713  0.0780
 5537SOL    HW128244   3.054   3.453  11.310 -1.1561  1.7173 -0.2080
 5537SOL    HW228245   2.937   3.377  11.365 -1.7066  0.1340 -0.2364
 5538SOL     OW28246   2.307   3.929   3.927  0.2428 -0.1522  0.1741
 5538SOL    HW128247   2.232   3.962   3.976 -0.2371  1.1221 -1.4363
 5538SOL    HW228248   2.362   4.006   3.915 -0.0650 -0.2496 -1.8806
 5539SOL     OW28249   0.178   3.152   7.339  0.4494 -0.8464 -0.6006
 5539SOL    HW128250   0.261   3.138   7.384  0.2592  0.6321  0.2117
 5539SOL    HW228251   0.206   3.096   7.267  3.1795 -0.3547  0.0792
 5540SOL     OW28252   4.380   4.070  16.707  0.7443 -0.0774 -0.1871
 5540SOL    HW128253   4.458   4.099  16.661  0.1114 -0.4049 -1.4844
 5540SOL    HW228254   4.372   3.974  16.701  0.0979 -0.1077  1.1294
 5541SOL     OW28255   1.352   1.528   1.681  0.5869 -0.0356 -0.2347
 5541SOL    HW128256   1.290   1.534   1.754 -0.5006 -0.8714 -1.0940
 5541SOL    HW228257   1.338   1.607   1.630  1.5626 -0.8266 -1.7382
 5542SOL     OW28258   2.891   2.692   7.455 -0.1502 -0.8142  0.3650
 5542SOL    HW128259   2.883   2.746   7.377 -0.4528 -1.1242  0.1835
 5542SOL    HW228260   2.834   2.752   7.503  0.6153 -0.1531  0.4373
 5543SOL     OW28261   2.987   2.586  10.640 -0.0472 -0.2993  0.4385
 5543SOL    HW128262   3.028   2.637  10.571  1.5191  1.2810  2.5520
 5543SOL    HW228263   3.045   2.587  10.716  0.6050  0.5666 -0.0762
 5544SOL     OW28264   2.727   0.255   7.056  0.0730 -0.0625 -0.0341
 5544SOL    HW128265   2.680   0.181   7.017 -0.9520  0.9829 -0.7919
 5544SOL    HW228266   2.751   0.314   6.985  0.4482  0.9468  0.9398
 5545SOL     OW28267   3.806   2.297   2.167 -0.5458 -0.4323  0.2177
 5545SOL    HW128268   3.774   2.211   2.139 -1.4871  0.0063 -0.0438
 5545SOL    HW228269   3.876   2.266   2.225  0.9509 -1.3282 -2.0560
 5546SOL     OW28270   4.583   1.588  16.318  0.6290 -0.7338 -1.1269
 5546SOL    HW128271   4.661   1.551  16.359  1.1812 -0.4041 -1.8919
 5546SOL    HW228272   4.548   1.511  16.274  0.5486 -0.4546 -1.5524
 5547SOL     OW28273   1.528   1.400   3.243  0.2551  0.0940 -0.0180
 5547SOL    HW128274   1.533   1.377   3.336 -0.2131 -0.3604 -0.1077
 5547SOL    HW228275   1.572   1.484   3.234  1.5285 -0.5386  0.3218
 5548SOL     OW28276   1.927   2.586   1.971  0.2644 -0.2344  0.1173
 5548SOL    HW128277   1.851   2.575   2.028 -0.0143  0.8049 -0.0537
 5548SOL    HW228278   1.978   2.644   2.029 -1.4129  2.3019 -0.9311
 5549SOL     OW28279   1.628   0.149   7.185 -0.7166  0.0726  0.3182
 5549SOL    HW128280   1.550   0.100   7.158 -1.3161  1.5826 -0.6782
 5549SOL    HW228281   1.650   0.094   7.260 -0.7753 -1.9348 -1.1271
 5550SOL     OW28282   4.024   3.590   7.122  0.4193 -0.2817  0.3720
 5550SOL    HW128283   3.994   3.568   7.210 -0.4514  1.1830  0.4392
 5550SOL    HW228284   4.007   3.682   7.102  1.5367  0.3672  2.4914
 5551SOL     OW28285   1.211   0.722   8.070 -0.3873 -0.0322 -0.1386
 5551SOL    HW128286   1.183   0.741   8.159 -0.3374 -1.7604  0.2430
 5551SOL    HW228287   1.306   0.716   8.071 -0.4892 -1.6894 -1.2525
 5552SOL     OW28288   2.654   1.271  16.833  0.0252 -0.1665  0.3505
 5552SOL    HW128289   2.577   1.265  16.890  0.3668 -2.3900  0.5652
 5552SOL    HW228290   2.637   1.221  16.754  2.0948 -0.1441 -0.1051
 5553SOL     OW28291   4.105   1.440   2.385  0.2344  0.5478 -0.3328
 5553SOL    HW128292   4.134   1.379   2.453  1.5027 -0.3281 -1.6545
 5553SOL    HW228293   4.016   1.463   2.410  0.3070  0.0727  0.3757
 5554SOL     OW28294   1.607   0.410  11.205  0.5313 -0.2572  0.1818
 5554SOL    HW128295   1.591   0.481  11.142  2.0347  1.3524  1.6493
 5554SOL    HW228296   1.639   0.449  11.286 -0.0134  1.0534 -0.2298
 5555SOL     OW28297   0.554   1.283   7.429  0.6665  0.3779  0.8262
 5555SOL    HW128298   0.557   1.211   7.366 -1.2283  0.4805  0.6202
 5555SOL    HW228299   0.642   1.321   7.426  0.7292  0.2208  0.6564
 5556SOL     OW28300   2.491   3.842   2.585 -0.4131 -0.4873 -0.6452
 5556SOL    HW128301   2.465   3.935   2.582  0.4353 -0.1917  1.6411
 5556SOL    HW228302   2.492   3.822   2.491 -3.2644 -1.6339 -0.4118
 5557SOL     OW28303   3.765   1.859   8.871 -0.1883 -0.5257  0.3197
 5557SOL    HW128304   3.849   1.825   8.841 -0.0439  0.1316 -0.0197
 5557SOL    HW228305   3.799   1.937   8.915 -2.9786  0.9528 -0.1492
 5558SOL     OW28306   2.675   0.278   2.170  0.5206 -0.4822 -0.3719
 5558SOL    HW128307   2.749   0.329   2.203 -0.1098  1.5623 -2.1257
 5558SOL    HW228308   2.666   0.218   2.244 -0.0964 -0.9570 -0.8252
 5559SOL     OW28309   1.555   2.030   4.231 -0.3571 -0.3999 -0.2503
 5559SOL    HW128310   1.594   2.016   4.145 -0.0770  0.4164 -0.2580
 5559SOL    HW228311   1.610   1.980   4.292  0.4717  0.0820 -0.6088
 5560SOL     OW28312   1.941   0.891  14.625  0.3757 -0.2221  0.2594
 5560SOL    HW128313   2.019   0.936  14.592  0.5784  0.4715  1.6829
 5560SOL    HW228314   1.915   0.838  14.549  3.7080  0.4639 -1.3501
 5561SOL     OW28315   0.358   0.638   9.530  0.1272 -0.7127  0.4228
 5561SOL    HW128316   0.371   0.721   9.575  0.4917 -0.3645 -0.3065
 5561SOL    HW228317   0.263   0.632   9.528  0.0166  1.8171 -1.6215
 5562SOL     OW28318   1.009   0.914  13.552  0.1185  0.2174 -0.1643
 5562SOL    HW128319   1.040   0.878  13.469  1.0442  0.2043  0.1898
 5562SOL    HW228320   0.957   0.990  13.524 -0.0272  0.5987  1.1370
 5563SOL     OW28321   4.420   2.445   2.015  0.1419  0.4974 -0.1961
 5563SOL    HW128322   4.463   2.410   1.938  0.2413 -1.0172  0.5526
 5563SOL    HW228323   4.365   2.373   2.044  0.2148  1.1430  1.5550
 5564SOL     OW28324   0.245   4.386   0.049  0.0101 -0.4361  0.0941
 5564SOL    HW128325   0.211   4.340   0.125  0.8138 -0.1613  0.6131
 5564SOL    HW228326   0.294   4.322  17.757  0.7397  0.8342 -0.7823
 5565SOL     OW28327   0.769   3.685   0.408 -0.3067  0.1712  0.2625
 5565SOL    HW128328   0.778   3.779   0.426 -0.4092  0.2599 -0.1333
 5565SOL    HW228329   0.841   3.673   0.345 -0.9807  3.5230 -1.1853
 5566SOL     OW28330   2.100   0.694   1.581  0.0715 -0.4179 -0.2971
 5566SOL    HW128331   2.035   0.682   1.512 -0.2373  1.3978 -0.3204
 5566SOL    HW228332   2.183   0.677   1.536 -0.2796 -1.9043 -0.4032
 5567SOL     OW28333   2.435   0.954   1.958  0.1856 -0.3775 -0.2301
 5567SOL    HW128334   2.442   0.879   1.899 -1.0649 -1.5582  1.1377
 5567SOL    HW228335   2.527   0.972   1.978 -0.0242  0.2481  0.1742
 5568SOL     OW28336   4.208   2.877   4.779 -0.2675  0.0006 -0.4943
 5568SOL    HW128337   4.257   2.958   4.793 -0.3203 -0.2430  1.1221
 5568SOL    HW228338   4.157   2.893   4.700  0.1351  1.7011 -0.4108
 5569SOL     OW28339   0.245   3.895   7.553 -0.3306 -0.4843  0.2766
 5569SOL    HW128340   0.223   3.824   7.492 -0.3673 -0.1811 -0.0666
 5569SOL    HW228341   0.159   3.931   7.575 -0.9003 -1.4856 -0.2836
 5570SOL     OW28342   4.232   1.185   6.595  0.0145 -0.1972  0.3014
 5570SOL    HW128343   4.271   1.178   6.507  2.2666  0.9753  1.2067
 5570SOL    HW228344   4.195   1.273   6.598  0.8479  0.3003 -3.0056
 5571SOL     OW28345   2.608   0.567   1.403 -0.3802  0.1122 -0.6332
 5571SOL    HW128346   2.611   0.600   1.313  1.4331 -0.2930 -0.7397
 5571SOL    HW228347   2.668   0.625   1.451 -1.1029 -0.7197  1.2536
 5572SOL     OW28348   3.625   3.451   8.355 -0.2580 -0.3354  0.5138
 5572SOL    HW128349   3.604   3.430   8.446 -3.2962  0.0523 -0.0843
 5572SOL    HW228350   3.672   3.533   8.371 -0.7957  0.3692 -1.4657
 5573SOL     OW28351   2.054   0.943   2.908  0.3974 -0.0353 -0.1348
 5573SOL    HW128352   2.086   0.944   2.998  1.8018 -0.7093 -0.6247
 5573SOL    HW228353   2.133   0.934   2.855  1.4759  2.3028  1.1288
 5574SOL     OW28354   2.726   1.346  12.708 -0.1419  0.5664 -0.6267
 5574SOL    HW128355   2.723   1.442  12.717  1.2730  0.4781  0.7997
 5574SOL    HW228356   2.745   1.328  12.800  0.7596  1.5437 -0.6228
 5575SOL     OW28357   1.853   2.990   5.297  0.1443 -0.5704 -0.3438
 5575SOL    HW128358   1.851   2.897   5.316  0.8942 -0.5197 -0.0061
 5575SOL    HW228359   1.778   3.001   5.239  0.4281  0.4174 -0.5357
 5576SOL     OW28360   1.250   1.459   7.536 -0.0963  0.1517 -0.1966
 5576SOL    HW128361   1.188   1.396   7.573  0.2834 -0.2053 -0.1630
 5576SOL    HW228362   1.200   1.511   7.474 -0.8566  0.1239  0.3905
 5577SOL     OW28363   3.369   2.457   3.976 -0.0013 -0.2961  0.4827
 5577SOL    HW128364   3.439   2.493   3.922  0.9831 -1.2578  1.1327
 5577SOL    HW228365   3.340   2.392   3.911  2.2218  0.4046 -1.1963
 5578SOL     OW28366   3.395   1.074   2.114 -0.1633 -0.5877 -0.2592
 5578SOL    HW128367   3.483   1.073   2.077  0.1689 -2.8833  0.5912
 5578SOL    HW228368   3.374   0.981   2.114 -0.7865 -0.4518  0.7215
 5579SOL     OW28369   0.768   1.513   6.649 -0.7869 -0.2953  0.0446
 5579SOL    HW128370   0.821   1.443   6.686  1.2967  0.6879 -1.0836
 5579SOL    HW228371   0.697   1.524   6.712 -1.3740 -0.9196 -0.4904
 5580SOL     OW28372   2.128   3.111  12.862  0.5310  0.2561  0.3558
 5580SOL    HW128373   2.052   3.094  12.918  0.2199  0.4851  0.0004
 5580SOL    HW228374   2.146   3.204  12.875  2.1049 -0.3157  2.3188
 5581SOL     OW28375   0.805   2.432  12.551 -0.2408 -0.3584  0.2917
 5581SOL    HW128376   0.791   2.526  12.540  0.2137 -0.2412  0.7139
 5581SOL    HW228377   0.884   2.433  12.497 -1.7643  0.0233 -1.9102
 5582SOL     OW28378   3.260   0.606   1.465  0.4878  0.4000 -0.2810
 5582SOL    HW128379   3.304   0.688   1.441 -0.7321  1.1389 -0.0202
 5582SOL    HW228380   3.303   0.586   1.548  0.6545 -0.5783 -0.6073
 5583SOL     OW28381   3.773   3.094   7.645 -0.1399 -0.3392 -0.5033
 5583SOL    HW128382   3.770   3.024   7.709  0.8271 -0.2962 -0.4071
 5583SOL    HW228383   3.751   3.042   7.568  1.9306 -1.8511 -0.0432
 5584SOL     OW28384   0.580   2.213   3.095  0.3904  0.5717 -0.3379
 5584SOL    HW128385   0.630   2.290   3.069 -1.5453  3.0562  3.1930
 5584SOL    HW228386   0.642   2.141   3.080 -1.1522 -1.2019  1.7378
 5585SOL     OW28387   2.386   1.973  11.069  0.0490  0.9894  0.3512
 5585SOL    HW128388   2.444   1.966  10.993 -1.3111  1.3062 -0.7289
 5585SOL    HW228389   2.322   2.037  11.037 -3.0594 -1.5545  1.5083
 5586SOL     OW28390   0.193   2.886  11.769 -0.6635  0.0147 -0.1773
 5586SOL    HW128391   0.279   2.927  11.771 -0.0474 -1.2740  0.1919
 5586SOL    HW228392   0.216   2.795  11.791  0.6551  0.7253  1.3736
 5587SOL     OW28393   3.309   3.890   4.625 -0.3341 -0.5673  0.1556
 5587SOL    HW128394   3.318   3.965   4.684 -4.1026  0.2884 -0.3310
 5587SOL    HW228395   3.376   3.828   4.653 -0.8192 -0.9120  0.5515
 5588SOL     OW28396   3.385   0.864  16.136 -0.4228  0.1368  0.2140
 5588SOL    HW128397   3.387   0.952  16.096  0.7581 -0.8195 -1.8418
 5588SOL    HW228398   3.300   0.863  16.179 -0.5065  0.5008  0.0585
 5589SOL     OW28399   3.977   1.338   1.496 -0.0183  0.5831  0.0702
 5589SOL    HW128400   3.930   1.417   1.468  0.5901  1.1877  0.7233
 5589SOL    HW228401   4.061   1.376   1.524  0.8585 -0.3716 -1.2996
 5590SOL     OW28402   2.301   4.332   7.230  0.4302 -0.1777 -0.3445
 5590SOL    HW128403   2.234   4.336   7.162  0.2912 -1.3926 -0.2742
 5590SOL    HW228404   2.382   4.305   7.187  1.1647  0.3109  0.7378
 5591SOL     OW28405   4.082   3.134   9.870  0.2823  0.8385  0.4030
 5591SOL    HW128406   4.088   3.165   9.960 -2.2060  0.1147  0.8218
 5591SOL    HW228407   4.007   3.075   9.873  2.9675 -2.6662 -0.3731
 5592SOL     OW28408   4.401   4.705   3.833 -0.1330 -0.2226  0.6541
 5592SOL    HW128409   4.327   4.661   3.792  0.2237 -0.7905  0.6181
 5592SOL    HW228410   4.435   0.021   3.763  2.4229  1.6108  3.3909
 5593SOL     OW28411   0.185   3.421   8.299  0.3145  0.8366  0.5719
 5593SOL    HW128412   0.201   3.481   8.372  3.8397 -1.1020  1.4536
 5593SOL    HW228413   0.109   3.380   8.341 -0.3987  0.9589 -0.6236
 5594SOL     OW28414   1.231   4.650  12.136 -0.4221 -0.4306 -0.1987
 5594SOL    HW128415   1.299   4.696  12.088 -0.2217  0.2430  0.7335
 5594SOL    HW228416   1.284   4.599  12.197  1.9217  0.2973 -1.6136
 5595SOL     OW28417   0.027   2.671  14.965 -0.1671 -0.5231  0.8168
 5595SOL    HW128418   0.097   2.721  14.923 -2.5323  0.7732 -1.6147
 5595SOL    HW228419   4.730   2.647  14.880  1.0402  0.4941 -0.0021
 5596SOL     OW28420   1.284   2.408  12.700 -0.5691 -0.1785 -0.3057
 5596SOL    HW128421   1.204   2.460  12.700  0.6028  1.6246 -1.6187
 5596SOL    HW228422   1.271   2.349  12.774  1.7186 -0.6827 -0.3171
 5597SOL     OW28423   2.878   4.203   7.135 -0.0866  0.5587 -0.5134
 5597SOL    HW128424   2.837   4.180   7.052 -0.6337  2.6244 -0.8193
 5597SOL    HW228425   2.885   4.298   7.123 -2.6501  0.5415 -2.1221
 5598SOL     OW28426   2.800   4.724   7.944  0.0229  0.0499 -0.1643
 5598SOL    HW128427   2.800   0.033   7.863  0.2985 -0.3069 -0.3793
 5598SOL    HW228428   2.740   4.652   7.923 -0.3188  0.1072  0.5875
 5599SOL     OW28429   3.109   0.085   6.396  0.0651 -0.2589 -0.1176
 5599SOL    HW128430   3.180   0.107   6.336  0.8575 -0.4364  0.7603
 5599SOL    HW228431   3.152   0.107   6.479  0.1250  0.6943 -0.3943
 5600SOL     OW28432   0.483   1.457   2.857 -0.3110 -0.2116  0.1762
 5600SOL    HW128433   0.543   1.423   2.923 -0.3151 -0.4163  0.0739
 5600SOL    HW228434   0.419   1.386   2.857  0.4812 -0.9157  1.7093
 5601SOL     OW28435   1.691   4.452   7.763 -0.1013 -0.2340  0.0687
 5601SOL    HW128436   1.640   4.442   7.683 -0.4932  0.8070  0.1877
 5601SOL    HW228437   1.628   4.445   7.834  0.5115  1.6993  0.7931
 5602SOL     OW28438   1.759   3.766   7.774 -0.4632  0.2873  0.1439
 5602SOL    HW128439   1.849   3.745   7.799  0.0447  1.5754 -0.6219
 5602SOL    HW228440   1.754   3.861   7.761 -1.4655  0.7000  3.4804
 5603SOL     OW28441   2.165   2.906   4.496  0.4713  0.9419  0.0671
 5603SOL    HW128442   2.090   2.922   4.440  1.2231 -1.8435 -1.6857
 5603SOL    HW228443   2.164   2.811   4.505  4.0218  0.4904 -4.2374
 5604SOL     OW28444   2.297   4.728   6.492 -0.1977  0.0598 -0.2340
 5604SOL    HW128445   2.375   0.040   6.477  1.2481 -1.7227  1.1282
 5604SOL    HW228446   2.238   0.050   6.449 -2.1108 -2.0005 -0.6037
 5605SOL     OW28447   4.202   2.866   5.070 -0.3529  0.0892 -0.1570
 5605SOL    HW128448   4.194   2.907   4.984  0.3333  1.8783  0.6367
 5605SOL    HW228449   4.268   2.804   5.040  0.2582  0.3001  0.7474
 5606SOL     OW28450   1.151   0.654   1.926 -0.4272  0.1875  0.0033
 5606SOL    HW128451   1.192   0.706   1.856 -0.9305 -0.9084 -1.1060
 5606SOL    HW228452   1.161   0.564   1.895  0.7332  0.2013  0.3368
 5607SOL     OW28453   0.978   0.540   3.850  0.4406 -0.2239 -0.2935
 5607SOL    HW128454   0.976   0.507   3.940  0.6944 -1.1684 -0.6332
 5607SOL    HW228455   1.066   0.576   3.846  1.1934 -2.0004  0.5766
 5608SOL     OW28456   3.661   3.123   6.334 -0.0513  0.0882  0.1198
 5608SOL    HW128457   3.577   3.080   6.349 -0.0658 -0.7353 -2.3714
 5608SOL    HW228458   3.643   3.215   6.316  0.8809  0.0722 -0.9026
 5609SOL     OW28459   3.481   4.711   7.582  0.3740 -0.4710  0.1411
 5609SOL    HW128460   3.404   4.727   7.637  1.4938  0.2464  1.4746
 5609SOL    HW228461   3.442   4.699   7.495  0.2985  2.2241 -0.1853
 5610SOL     OW28462   2.457   0.587   5.887  0.1946 -0.2300 -0.5616
 5610SOL    HW128463   2.396   0.535   5.939  2.1523 -0.2729  1.6994
 5610SOL    HW228464   2.397   0.624   5.822 -1.0598  1.1403  1.3972
 5611SOL     OW28465   1.064   1.205   7.408 -0.0439 -0.5333  0.1148
 5611SOL    HW128466   1.066   1.212   7.504  0.2717 -1.0150  0.1467
 5611SOL    HW228467   0.972   1.179   7.403 -0.4662  0.9616  0.1876
 5612SOL     OW28468   2.522   1.032   7.605 -0.0837  0.0608  0.0393
 5612SOL    HW128469   2.477   0.952   7.579  0.0050  0.3023 -0.8826
 5612SOL    HW228470   2.604   1.012   7.560  0.3823  1.1205  0.4075
 5613SOL     OW28471   1.231   4.057   2.444 -0.2602  0.1919  0.0480
 5613SOL    HW128472   1.195   4.145   2.429 -0.9141  0.0455  0.8220
 5613SOL    HW228473   1.324   4.077   2.431  0.1040 -1.6565 -0.2301
 5614SOL     OW28474   1.461   2.847  12.837 -0.2137 -0.5498  0.4725
 5614SOL    HW128475   1.386   2.899  12.867 -1.0731 -2.7961  2.1629
 5614SOL    HW228476   1.426   2.764  12.867  0.9485 -1.8551 -1.7755
 5615SOL     OW28477   1.294   2.522   4.426 -0.3360 -0.1581 -0.4343
 5615SOL    HW128478   1.354   2.453   4.398 -0.0717 -0.7189  1.4791
 5615SOL    HW228479   1.217   2.504   4.373 -2.2976  3.1345  1.3182
 5616SOL     OW28480   3.054   3.837   4.508 -0.4561  0.5570  0.1160
 5616SOL    HW128481   3.147   3.848   4.527 -0.6308  0.7576  0.8634
 5616SOL    HW228482   3.016   3.845   4.596 -1.3361 -0.5804 -0.1510
 5617SOL     OW28483   4.461   1.829   1.479  0.0880  0.1273  0.2311
 5617SOL    HW128484   4.395   1.763   1.455 -0.5039  0.7430  0.1625
 5617SOL    HW228485   4.512   1.853   1.402 -0.3822 -0.5565 -0.2919
 5618SOL     OW28486   0.104   2.004   0.457  0.7779  0.1871  0.1559
 5618SOL    HW128487   0.024   1.953   0.469  1.5168 -1.1051 -0.4642
 5618SOL    HW228488   0.068   2.092   0.451  2.2828  0.7471 -0.7508
 5619SOL     OW28489   2.115   3.158  14.351 -0.2671 -0.2015 -0.8859
 5619SOL    HW128490   2.097   3.139  14.443 -1.4136  2.2344 -0.6147
 5619SOL    HW228491   2.187   3.097  14.338  0.7180  0.5816  0.8896
 5620SOL     OW28492   1.081   0.948   9.024 -0.1990  0.1725 -0.2290
 5620SOL    HW128493   1.063   0.861   8.988  0.2441 -0.1818  0.4229
 5620SOL    HW228494   1.087   0.934   9.118  0.4426  1.5688 -0.0664
 5621SOL     OW28495   0.195   3.198   6.282  0.6566 -0.3562 -0.2741
 5621SOL    HW128496   0.183   3.150   6.200 -0.4068 -0.4714 -0.0498
 5621SOL    HW228497   0.286   3.227   6.278  0.8632 -0.8258  0.9469
 5622SOL     OW28498   2.369   1.143   8.341  0.1929 -0.5032 -0.6545
 5622SOL    HW128499   2.301   1.209   8.353  0.0877 -0.7776  0.2552
 5622SOL    HW228500   2.429   1.204   8.297 -1.2888  2.8647  1.9967
 5623SOL     OW28501   2.645   0.217   2.701 -0.1372 -0.1498 -0.1768
 5623SOL    HW128502   2.665   0.281   2.769  0.1338  0.1278 -0.5239
 5623SOL    HW228503   2.700   0.142   2.724  0.4476  0.2165 -0.3926
 5624SOL     OW28504   1.255   2.353   4.035 -0.0759  0.5914 -0.2470
 5624SOL    HW128505   1.168   2.319   4.014  0.2932  0.3349 -1.3508
 5624SOL    HW228506   1.258   2.435   3.986 -1.7022  1.2680  0.7760
 5625SOL     OW28507   0.551   0.658  10.482 -0.4168 -0.7313  0.6411
 5625SOL    HW128508   0.588   0.745  10.492 -0.8351 -0.3643 -1.0858
 5625SOL    HW228509   0.487   0.666  10.552  0.1313 -0.5419  1.1216
 5626SOL     OW28510   4.533   1.148   7.263  0.1694  1.1426  0.2488
 5626SOL    HW128511   4.499   1.170   7.349 -0.2275  1.1655  0.0885
 5626SOL    HW228512   4.517   1.222   7.204 -2.1373  1.4079  1.2138
 5627SOL     OW28513   3.318   1.886   9.258  0.4426 -0.6591 -0.4558
 5627SOL    HW128514   3.300   1.979   9.270 -1.5867 -1.2457  1.1316
 5627SOL    HW228515   3.323   1.867   9.351  1.0789  1.0871 -0.1280
 5628SOL     OW28516   3.870   2.120  13.413 -0.0359  0.0591  0.1772
 5628SOL    HW128517   3.848   2.057  13.482  1.1895 -1.2083 -0.5960
 5628SOL    HW228518   3.786   2.164  13.401  0.5015  0.3791 -2.3735
 5629SOL     OW28519   3.025   3.501   2.930  0.9255  0.1455  0.7974
 5629SOL    HW128520   2.969   3.530   2.858  0.7209  0.1402  0.9541
 5629SOL    HW228521   2.983   3.425   2.970  1.2596  0.3863  1.6026
 5630SOL     OW28522   0.995   3.680   8.096 -0.6455  0.4249  0.2724
 5630SOL    HW128523   1.029   3.769   8.085 -1.7098  0.8475  0.4547
 5630SOL    HW228524   0.949   3.693   8.179  0.3863 -0.7016  1.0290
 5631SOL     OW28525   2.883   1.676   4.858 -0.2416 -0.0733 -0.2831
 5631SOL    HW128526   2.860   1.769   4.857 -2.8195 -0.7034  1.3973
 5631SOL    HW228527   2.863   1.651   4.767 -0.2722 -1.3152  0.0732
 5632SOL     OW28528   4.580   1.362   3.423  0.1328 -0.7228 -0.2153
 5632SOL    HW128529   4.582   1.443   3.474  2.0988 -1.3909  0.8017
 5632SOL    HW228530   4.611   1.309   3.497  3.6107 -0.0974 -1.1993
 5633SOL     OW28531   2.918   3.123   9.657 -0.2609 -0.7243  0.5113
 5633SOL    HW128532   2.903   3.196   9.716  0.2722 -0.0861 -0.1545
 5633SOL    HW228533   2.832   3.120   9.615 -1.3933 -0.4433  2.7900
 5634SOL     OW28534   1.930   4.049   2.006 -0.7648 -0.0588  0.2483
 5634SOL    HW128535   2.013   4.028   2.049 -1.5402 -0.6637  1.4516
 5634SOL    HW228536   1.949   4.023   1.916 -0.1382  1.2201  0.0082
 5635SOL     OW28537   3.740   4.707   1.033 -0.4163 -0.2788  0.7930
 5635SOL    HW128538   3.699   4.622   1.050  0.8491 -0.4252  3.0719
 5635SOL    HW228539   3.680   0.031   1.071 -1.6203 -1.3451  0.7234
 5636SOL     OW28540   3.250   0.173  11.667  0.0659  0.2102 -0.3011
 5636SOL    HW128541   3.325   0.113  11.669  0.1674  0.2932 -1.5545
 5636SOL    HW228542   3.188   0.116  11.713  1.2461 -1.0246 -0.2230
 5637SOL     OW28543   0.349   1.137  16.034 -0.0443  0.7615 -0.1942
 5637SOL    HW128544   0.365   1.230  16.015  0.1398  0.3192 -2.2835
 5637SOL    HW228545   0.299   1.121  15.954  2.6985  1.7450 -2.1161
 5638SOL     OW28546   2.572   1.243   1.221  0.3585 -0.6379 -0.3737
 5638SOL    HW128547   2.512   1.219   1.292  1.6053 -0.5889  0.7052
 5638SOL    HW228548   2.546   1.332   1.200 -2.0250 -0.7575  2.0811
 5639SOL     OW28549   0.129   3.862   9.163 -0.3168 -0.7659  0.7875
 5639SOL    HW128550   0.201   3.906   9.208  0.7317 -2.4698  0.7401
 5639SOL    HW228551   0.159   3.773   9.149 -2.0892 -1.1527 -0.5334
 5640SOL     OW28552   0.030   2.197   5.117 -0.1235 -0.3208  0.7536
 5640SOL    HW128553   0.037   2.119   5.062  1.2248  1.3384 -1.3858
 5640SOL    HW228554   4.704   2.157   5.173 -2.0410  1.3009 -0.4268
 5641SOL     OW28555   1.000   4.110   2.647  0.2639  0.2427 -0.1038
 5641SOL    HW128556   1.076   4.139   2.698  0.7345 -2.8528  0.9345
 5641SOL    HW228557   1.004   4.015   2.660  0.7491  0.3502  0.5081
 5642SOL     OW28558   4.126   2.134   4.717 -0.0361 -0.0869  0.4596
 5642SOL    HW128559   4.175   2.206   4.677  1.1038 -0.1668  1.7369
 5642SOL    HW228560   4.035   2.164   4.709  0.3688  1.3077  1.0951
 5643SOL     OW28561   0.514   0.136   0.597 -0.2108  0.4004  0.4812
 5643SOL    HW128562   0.473   0.054   0.626 -1.8472  1.7307  1.9211
 5643SOL    HW228563   0.602   0.117   0.629  0.7506  1.8872 -1.2909
 5644SOL     OW28564   1.875   4.126  13.291 -1.1662 -0.0064 -0.0259
 5644SOL    HW128565   1.780   4.117  13.277 -1.4706  0.9638  1.4793
 5644SOL    HW228566   1.890   4.171  13.374  1.7237 -0.8767 -0.0944
 5645SOL     OW28567   0.014   0.558  13.198  0.6328  0.1752 -0.0987
 5645SOL    HW128568   0.066   0.505  13.258 -0.5373  2.2325  2.6968
 5645SOL    HW228569   0.069   0.636  13.194  1.6421 -0.4979  0.4993
 5646SOL     OW28570   0.895   1.585   7.599  0.0964 -0.6977 -0.2085
 5646SOL    HW128571   0.802   1.568   7.581 -1.0093  2.5034  2.6859
 5646SOL    HW228572   0.885   1.608   7.691  2.2415  1.3974 -0.5066
 5647SOL     OW28573   2.860   4.732   7.137  0.2629  0.0994  0.0996
 5647SOL    HW128574   2.784   4.681   7.112 -0.4932  0.1136  2.3460
 5647SOL    HW228575   2.866   0.059   7.070  0.5012 -1.2439 -1.2074
 5648SOL     OW28576   0.836   1.129   0.905  0.2067  0.3431 -0.2816
 5648SOL    HW128577   0.919   1.163   0.938 -0.9334  2.2877  0.5820
 5648SOL    HW228578   0.766   1.191   0.925  0.3300  0.8984 -1.6057
 5649SOL     OW28579   4.569   0.092   2.510  0.6404  0.1784 -0.1966
 5649SOL    HW128580   4.521   0.045   2.442 -0.1529  0.7239 -0.0229
 5649SOL    HW228581   4.619   0.019   2.545 -0.8112 -0.4377  0.5982
 5650SOL     OW28582   1.391   4.002   8.710 -0.0291  0.0846 -0.1597
 5650SOL    HW128583   1.445   4.003   8.789 -2.0624  1.7364  1.2111
 5650SOL    HW228584   1.320   4.063   8.731 -1.5492 -0.4084 -3.9697
 5651SOL     OW28585   4.720   3.541   2.835  0.1729  0.6062  1.0565
 5651SOL    HW128586   4.719   3.633   2.806 -0.4072  0.5200  0.8124
 5651SOL    HW228587   4.695   3.494   2.756  1.0435 -0.3162  1.3365
 5652SOL     OW28588   0.631   1.781   0.661  0.1687 -0.4103 -0.5198
 5652SOL    HW128589   0.643   1.745   0.573 -2.4444  0.1091 -1.0819
 5652SOL    HW228590   0.588   1.700   0.690  0.0372 -1.0839 -2.6141
 5653SOL     OW28591   4.211   1.351   7.999  0.1973 -0.2008  0.4817
 5653SOL    HW128592   4.121   1.350   7.965  0.6402  0.8128 -0.7001
 5653SOL    HW228593   4.247   1.416   7.939 -2.2555  1.3450  0.6896
 5654SOL     OW28594   3.161   1.533   4.886  0.0796 -0.4492 -0.1452
 5654SOL    HW128595   3.097   1.562   4.951  0.3069 -0.5052  0.1029
 5654SOL    HW228596   3.122   1.572   4.809 -0.4526  0.5305  0.6208
 5655SOL     OW28597   0.891   1.811   2.168  0.0496  0.5261 -0.2967
 5655SOL    HW128598   0.835   1.766   2.105 -1.8910 -1.4026  2.8310
 5655SOL    HW228599   0.857   1.777   2.250  0.1121  1.2905  0.0504
 5656SOL     OW28600   3.607   0.931   9.268  0.6756 -0.1280 -0.4469
 5656SOL    HW128601   3.543   0.917   9.198  2.3563  2.5191 -2.4804
 5656SOL    HW228602   3.666   0.859   9.247  0.0599 -0.7293 -0.1310
 5657SOL     OW28603   0.384   1.048  15.514  0.2011  0.2960  0.0915
 5657SOL    HW128604   0.374   1.106  15.590  2.9419  0.1515  0.5770
 5657SOL    HW228605   0.477   1.023  15.512  0.0615 -0.4003  2.0471
 5658SOL     OW28606   2.469   1.306  10.239 -0.2103  0.6597  0.0792
 5658SOL    HW128607   2.437   1.273  10.322 -1.9723 -0.2093 -0.9564
 5658SOL    HW228608   2.396   1.283  10.182  1.1891 -0.3874 -1.2935
 5659SOL     OW28609   2.594   3.035   3.835 -0.0486  0.4471  0.0535
 5659SOL    HW128610   2.517   3.010   3.784 -0.7005  0.3921  1.0678
 5659SOL    HW228611   2.598   3.130   3.827 -0.5524  0.3866 -0.9130
 5660SOL     OW28612   0.198   1.366   7.940 -0.2791 -0.5374  0.5775
 5660SOL    HW128613   0.120   1.312   7.933 -0.9652  0.6733 -1.0247
 5660SOL    HW228614   0.263   1.298   7.961  3.4360  2.3396 -1.6596
 5661SOL     OW28615   3.290   1.316   9.205 -0.2142 -0.1798 -0.3064
 5661SOL    HW128616   3.382   1.339   9.214 -0.8023  3.1206 -2.6426
 5661SOL    HW228617   3.302   1.223   9.186 -0.0814  0.1539 -1.8714
 5662SOL     OW28618   3.851   1.417   5.260  0.1360 -0.4315 -0.0745
 5662SOL    HW128619   3.844   1.500   5.212 -0.1474 -0.9557 -0.9508
 5662SOL    HW228620   3.878   1.439   5.349 -3.8086  0.3565  0.9529
 5663SOL     OW28621   3.616   0.656   1.166 -0.4806 -0.6446  0.8231
 5663SOL    HW128622   3.649   0.688   1.082 -3.8914 -2.2568 -1.1374
 5663SOL    HW228623   3.687   0.597   1.193  0.0837 -0.5025 -0.3422
 5664SOL     OW28624   4.174   3.461   5.326 -0.3514 -0.4344 -0.6045
 5664SOL    HW128625   4.237   3.399   5.361 -1.7564  0.0103  2.7515
 5664SOL    HW228626   4.158   3.521   5.399  0.1265 -0.3174 -0.5980
 5665SOL     OW28627   1.013   2.964  16.814  0.3644  0.0029 -0.4002
 5665SOL    HW128628   1.003   3.058  16.834 -1.9992  0.0401 -1.6725
 5665SOL    HW228629   1.107   2.958  16.827  0.4751  1.9979 -0.2666
 5666SOL     OW28630   0.461   3.599   5.737  0.8139 -0.1502 -0.2906
 5666SOL    HW128631   0.376   3.559   5.755  0.2933  1.1993  0.2620
 5666SOL    HW228632   0.438   3.685   5.702 -0.1640 -0.4861 -0.4743
 5667SOL     OW28633   1.159   4.455   1.993  0.0241 -0.0877  0.0206
 5667SOL    HW128634   1.226   4.482   2.056  1.6933  0.2172 -1.8968
 5667SOL    HW228635   1.118   4.385   2.044 -0.2293 -0.0485 -0.1291
 5668SOL     OW28636   1.467   4.585   9.153 -0.1782  0.1273  0.0507
 5668SOL    HW128637   1.478   4.492   9.134 -0.3198 -0.0195  0.6803
 5668SOL    HW228638   1.442   4.625   9.070  1.3603  0.2328 -0.3675
 5669SOL     OW28639   3.641   2.893   5.479  0.6129 -0.3445  0.5684
 5669SOL    HW128640   3.625   2.961   5.413 -0.2701 -0.9859  0.1203
 5669SOL    HW228641   3.713   2.840   5.444  1.5580  1.8610 -0.8736
 5670SOL     OW28642   0.063   1.861   2.782  0.5505 -0.5322  0.1321
 5670SOL    HW128643   0.101   1.943   2.815 -0.8243  0.9963 -2.1215
 5670SOL    HW228644   0.120   1.799   2.827  0.8932  1.2284  2.1578
 5671SOL     OW28645   3.347   1.609   2.502 -0.9206 -0.0375 -0.1060
 5671SOL    HW128646   3.300   1.676   2.552  1.2914  1.1450  0.3763
 5671SOL    HW228647   3.426   1.660   2.483  1.3504 -4.2507 -1.9509
 5672SOL     OW28648   0.985   3.400   3.934  0.2618  0.5374  0.1326
 5672SOL    HW128649   0.948   3.366   4.016 -0.9836  0.7067 -0.3674
 5672SOL    HW228650   1.066   3.440   3.967  0.8092 -0.5469  0.1090
 5673SOL     OW28651   3.752   0.405   4.769  0.3137 -0.8486  0.0221
 5673SOL    HW128652   3.807   0.333   4.800 -0.8347 -1.5737  0.3993
 5673SOL    HW228653   3.802   0.481   4.797  0.2010  0.3564 -2.9747
 5674SOL     OW28654   3.804   1.584   9.127 -0.1022  0.2552 -0.8130
 5674SOL    HW128655   3.887   1.632   9.128  0.0356 -0.0133 -0.0210
 5674SOL    HW228656   3.823   1.509   9.070  0.9065 -2.0922  2.6138
 5675SOL     OW28657   3.530   2.796   9.085  0.0896 -0.0336  0.6483
 5675SOL    HW128658   3.496   2.833   9.003  2.0385  0.5666  0.1053
 5675SOL    HW228659   3.624   2.816   9.079  0.0528  0.0421  0.2904
 5676SOL     OW28660   0.978   3.973   4.973  0.0873  0.3189 -0.1456
 5676SOL    HW128661   0.884   3.995   4.974  0.3550  1.4153  0.8380
 5676SOL    HW228662   0.985   3.912   5.046  0.4400 -1.4549 -1.6501
 5677SOL     OW28663   3.364   2.578  10.851  0.3178 -0.1631 -0.3434
 5677SOL    HW128664   3.410   2.651  10.809 -1.9258  1.4376 -0.0194
 5677SOL    HW228665   3.303   2.551  10.781  0.7011  1.1835 -1.2019
 5678SOL     OW28666   2.372   1.319   3.359 -0.2192  0.1708 -0.5006
 5678SOL    HW128667   2.320   1.332   3.280 -1.1354 -0.0039  0.0735
 5678SOL    HW228668   2.440   1.378   3.326  1.5394 -0.4450  1.9700
 5679SOL     OW28669   0.205   2.574   6.791  0.2438  0.0024 -0.0095
 5679SOL    HW128670   0.242   2.538   6.871 -1.2280 -0.8463  0.2701
 5679SOL    HW228671   0.273   2.554   6.726  0.9093  0.3665  0.5833
 5680SOL     OW28672   0.374   0.602   9.077  0.0538  0.1553 -0.2573
 5680SOL    HW128673   0.448   0.651   9.113  1.0185 -2.3228  1.1216
 5680SOL    HW228674   0.337   0.670   9.021 -0.8807 -1.4747 -1.5872
 5681SOL     OW28675   0.735   2.205   5.226 -0.0505 -0.5877 -0.4160
 5681SOL    HW128676   0.776   2.230   5.309  0.9823  0.9496 -1.3766
 5681SOL    HW228677   0.762   2.280   5.173  3.9489 -0.7211  1.3872
 5682SOL     OW28678   0.400   1.067   2.802  0.1331 -0.2977  0.0817
 5682SOL    HW128679   0.343   1.099   2.732  0.6189  1.0642  0.3176
 5682SOL    HW228680   0.469   1.027   2.750 -1.8942 -0.6198 -2.3474
 5683SOL     OW28681   4.409   0.964   9.764 -0.2544 -0.3003  0.4846
 5683SOL    HW128682   4.474   0.914   9.814 -0.3975 -1.1630 -0.2094
 5683SOL    HW228683   4.468   1.027   9.723  0.7234 -2.5383 -1.4797
 5684SOL     OW28684   0.300   3.601   0.261 -0.2631 -0.2470  0.2626
 5684SOL    HW128685   0.236   3.570   0.198 -0.1736  0.0960  0.0061
 5684SOL    HW228686   0.369   3.535   0.264  0.7396  0.7264 -2.0929
 5685SOL     OW28687   2.748   2.484  11.530 -0.3563  0.2770  0.8030
 5685SOL    HW128688   2.833   2.483  11.487 -1.3544 -1.3061 -1.1540
 5685SOL    HW228689   2.700   2.508  11.451  0.8276  1.8393  0.5566
 5686SOL     OW28690   4.617   3.302   2.425  0.0393  0.2850  0.2602
 5686SOL    HW128691   4.711   3.301   2.442  0.1365  1.5881 -0.2102
 5686SOL    HW228692   4.591   3.393   2.439 -0.3803  0.4354 -1.4983
 5687SOL     OW28693   3.878   2.743   7.578  0.2655 -0.3152 -0.4486
 5687SOL    HW128694   3.893   2.806   7.649 -0.7719 -1.2283  0.5740
 5687SOL    HW228695   3.789   2.711   7.590  0.3023 -1.2174 -2.6542
 5688SOL     OW28696   3.754   3.591   4.656  0.0663 -0.3180 -0.1250
 5688SOL    HW128697   3.710   3.670   4.686  0.1215  1.0219 -3.5067
 5688SOL    HW228698   3.770   3.545   4.738 -0.5646 -1.4678 -0.6460
 5689SOL     OW28699   4.041   2.080   0.029  0.0934 -0.2263 -0.1278
 5689SOL    HW128700   4.091   2.009  17.750  1.2195  0.7335 -0.4510
 5689SOL    HW228701   3.969   2.085  17.725 -1.2962  1.5448  1.5572
 5690SOL     OW28702   0.622   1.669  15.883 -0.2808 -0.1107 -0.8998
 5690SOL    HW128703   0.629   1.589  15.831  0.1234  0.3708 -1.5932
 5690SOL    HW228704   0.706   1.706  15.855 -0.8896  2.3770  0.5511
 5691SOL     OW28705   1.696   3.045   6.100 -0.5908  0.3572 -0.1185
 5691SOL    HW128706   1.714   2.990   6.176 -0.0662 -0.6888 -0.9966
 5691SOL    HW228707   1.666   2.984   6.033  0.4126 -0.3575  0.0890
 5692SOL     OW28708   1.476   4.487  16.602  0.0250  0.2442  0.0762
 5692SOL    HW128709   1.448   4.429  16.531 -0.3477  0.6250 -0.0869
 5692SOL    HW228710   1.397   4.540  16.610  0.8577  1.2065  2.0103
 5693SOL     OW28711   3.001   1.861   6.711  0.1361 -0.6738  0.7980
 5693SOL    HW128712   2.909   1.883   6.693  0.2439  1.0316  2.3229
 5693SOL    HW228713   3.042   1.935   6.667  0.0651 -1.4655 -0.5841
 5694SOL     OW28714   3.513   1.805   7.770 -0.0765 -0.2045 -0.2082
 5694SOL    HW128715   3.502   1.782   7.863  1.1521 -0.8335 -0.2219
 5694SOL    HW228716   3.433   1.763   7.737 -0.6896 -0.3948  1.4880
 5695SOL     OW28717   3.783   2.503  10.054 -0.4873 -0.0483  0.1213
 5695SOL    HW128718   3.838   2.441  10.101 -0.0667  1.4164  1.5617
 5695SOL    HW228719   3.705   2.452  10.034  0.5291 -2.2029  1.6116
 5696SOL     OW28720   0.807   2.163   6.013  0.2216  0.0682 -0.4377
 5696SOL    HW128721   0.878   2.160   6.077  1.0320  1.3474 -1.2667
 5696SOL    HW228722   0.755   2.092   6.050  1.6415 -0.7708 -0.0726
 5697SOL     OW28723   0.085   0.054   5.706 -0.0159  0.0843  0.7803
 5697SOL    HW128724   0.107   0.138   5.748 -0.5959  0.5694  0.1002
 5697SOL    HW228725   4.731   0.070   5.704 -0.2800 -1.3737  1.4035
 5698SOL     OW28726   3.816   2.904   7.818 -0.2147  0.1205 -0.0115
 5698SOL    HW128727   3.884   2.858   7.867  1.1328  2.1222 -0.0373
 5698SOL    HW228728   3.732   2.872   7.850 -0.7734 -0.3343 -1.9323
 5699SOL     OW28729   0.129   4.474   6.622 -0.1585 -0.3661 -0.2730
 5699SOL    HW128730   0.081   4.530   6.561  0.5093  1.5979  0.9973
 5699SOL    HW228731   0.122   4.516   6.708  3.1497  1.4524 -0.8709
 5700SOL     OW28732   2.950   0.108   5.044 -0.0912 -0.4296  0.4015
 5700SOL    HW128733   2.917   0.026   5.008 -1.3136  0.9063 -1.4944
 5700SOL    HW228734   2.950   0.081   5.136  1.4593  1.5239  0.9985
 5701SOL     OW28735   2.105   1.363   1.836 -0.5112  0.2401  0.1107
 5701SOL    HW128736   2.096   1.383   1.929  1.7466 -1.3000  0.6457
 5701SOL    HW228737   2.172   1.296   1.848  1.0006  1.3243 -2.1896
 5702SOL     OW28738   4.380   0.565   6.702 -0.2195 -0.5286 -0.5836
 5702SOL    HW128739   4.317   0.622   6.746  1.2790 -0.1776  1.1316
 5702SOL    HW228740   4.460   0.618   6.701 -1.0319  0.6690 -1.9424
 5703SOL     OW28741   2.507   1.337   4.694 -0.1270 -0.1987  0.0123
 5703SOL    HW128742   2.514   1.290   4.777  0.1133 -1.4283 -0.7077
 5703SOL    HW228743   2.415   1.327   4.669 -0.6781  1.1120  1.5561
 5704SOL     OW28744   0.144   1.591   6.194 -0.1410  0.5809  0.1155
 5704SOL    HW128745   0.223   1.643   6.207  0.1035  0.2513 -0.0698
 5704SOL    HW228746   0.127   1.567   6.285  0.9569  2.2774  0.7803
 5705SOL     OW28747   0.775   3.704   5.023 -0.2336  0.2842 -0.0634
 5705SOL    HW128748   0.759   3.662   4.939  0.7336  0.0646 -0.1382
 5705SOL    HW228749   0.862   3.674   5.049  0.3566  0.2575 -2.0335
 5706SOL     OW28750   0.276   1.707   6.532  0.2731 -0.0643 -0.1201
 5706SOL    HW128751   0.227   1.628   6.509  0.4127 -0.8964  2.3482
 5706SOL    HW228752   0.209   1.772   6.510 -1.0098 -1.9391 -1.7356
 5707SOL     OW28753   3.432   0.065   4.897 -0.6157  0.0026  0.0503
 5707SOL    HW128754   3.508   0.027   4.940 -1.3018  1.4815  2.6383
 5707SOL    HW228755   3.472   0.150   4.879 -0.4163 -0.0674  0.1597
 5708SOL     OW28756   2.119   4.336   8.147 -0.2299  0.2788  0.0717
 5708SOL    HW128757   2.036   4.376   8.122 -0.3234  0.5693  0.8557
 5708SOL    HW228758   2.116   4.333   8.243  1.5771 -0.2916  0.1021
 5709SOL     OW28759   0.344   2.509   5.590 -0.0185 -0.1052 -0.0966
 5709SOL    HW128760   0.302   2.535   5.508 -0.8720  1.1723  0.7400
 5709SOL    HW228761   0.432   2.483   5.563 -0.8201 -1.9716 -0.9323
 5710SOL     OW28762   0.864   1.128  16.841  0.3134 -0.1046 -0.0693
 5710SOL    HW128763   0.846   1.217  16.810  2.6399  0.7832  1.0900
 5710SOL    HW228764   0.951   1.115  16.803  0.2818 -2.1960  0.5454
 5711SOL     OW28765   1.320   2.630  12.970  0.2689  0.2010 -1.0878
 5711SOL    HW128766   1.316   2.667  13.058 -1.5718 -1.3295 -0.5321
 5711SOL    HW228767   1.347   2.540  12.989  1.1033  0.8961  1.0435
 5712SOL     OW28768   4.282   3.443  16.783 -0.7422 -0.5840  0.3675
 5712SOL    HW128769   4.190   3.437  16.759 -1.0796  0.6183  1.4245
 5712SOL    HW228770   4.291   3.538  16.782 -1.1417 -0.5271  2.6519
 5713SOL     OW28771   0.737   0.556  12.898 -0.4092 -0.8528  0.2194
 5713SOL    HW128772   0.795   0.534  12.825 -3.5036 -0.0387 -2.4880
 5713SOL    HW228773   0.743   0.651  12.902  0.0455 -0.9433  1.8661
 5714SOL     OW28774   1.626   0.201   0.591  0.1473 -0.0887 -0.1203
 5714SOL    HW128775   1.643   0.107   0.588  0.3416 -0.1367  2.2434
 5714SOL    HW228776   1.583   0.228   0.509 -0.2757 -1.5115 -0.3702
 5715SOL     OW28777   2.323   4.657   0.128  0.2869  0.7923  0.1240
 5715SOL    HW128778   2.397   4.603   0.102 -0.7389  0.2494 -1.7322
 5715SOL    HW228779   2.245   4.611   0.097  0.9466 -0.3213  0.1468
 5716SOL     OW28780   0.800   0.508   4.785  0.0249 -0.6028 -0.0707
 5716SOL    HW128781   0.882   0.469   4.756  0.5411 -0.6494  1.4490
 5716SOL    HW228782   0.745   0.432   4.803 -2.5387  0.6789 -2.4882
 5717SOL     OW28783   1.250   2.679   6.165  0.3524  0.0629  0.0991
 5717SOL    HW128784   1.165   2.717   6.187 -0.2432 -1.3133  0.1219
 5717SOL    HW228785   1.307   2.756   6.166 -1.6112  1.5094  0.4817
 5718SOL     OW28786   2.474   0.538   3.943  0.2825  0.2532  0.7035
 5718SOL    HW128787   2.568   0.530   3.932  0.3471 -0.7435  1.9187
 5718SOL    HW228788   2.445   0.447   3.933 -0.9832  0.7259  0.0882
 5719SOL     OW28789   0.901   2.435   8.597  0.4409  0.0279  0.5415
 5719SOL    HW128790   0.900   2.369   8.528 -0.4308  3.3935 -2.7291
 5719SOL    HW228791   0.881   2.385   8.676  0.0081 -1.9875 -0.8469
 5720SOL     OW28792   2.083   2.148   2.813 -0.0453 -0.1123 -0.4369
 5720SOL    HW128793   2.079   2.183   2.723 -0.4621 -0.5433 -0.5843
 5720SOL    HW228794   2.002   2.181   2.851 -0.3244 -0.2955 -0.8731
 5721SOL     OW28795   4.154   2.214   0.683 -0.4599  0.0667 -0.4315
 5721SOL    HW128796   4.082   2.164   0.646 -1.8011  2.0559 -0.4798
 5721SOL    HW228797   4.182   2.270   0.610  0.6449  0.1732  0.0757
 5722SOL     OW28798   3.885   0.165   8.026  0.2810  0.9391 -0.7597
 5722SOL    HW128799   3.885   0.166   7.930  1.1245  0.9636 -0.7601
 5722SOL    HW228800   3.966   0.117   8.043 -0.0279  1.3246  1.9005
 5723SOL     OW28801   3.388   0.261   9.403 -1.0577 -0.5335 -0.2151
 5723SOL    HW128802   3.466   0.310   9.431 -1.2271 -0.2158 -0.3080
 5723SOL    HW228803   3.322   0.268   9.472 -0.1201  1.6293  0.4715
 5724SOL     OW28804   4.053   3.351   2.280 -0.0976 -0.2833  0.0921
 5724SOL    HW128805   3.980   3.297   2.250  1.2056 -3.2245  2.2502
 5724SOL    HW228806   4.044   3.424   2.218  0.0826 -0.1116  0.2690
 5725SOL     OW28807   4.639   0.802   7.202  0.2268 -0.0523  0.0003
 5725SOL    HW128808   4.725   0.834   7.228 -0.6630  1.8044  0.6837
 5725SOL    HW228809   4.594   0.799   7.286 -0.6692  0.3956 -0.4547
 5726SOL     OW28810   4.287   0.546   8.797 -0.3097 -0.2713  0.8451
 5726SOL    HW128811   4.296   0.599   8.717 -0.0756 -0.9602  0.4184
 5726SOL    HW228812   4.198   0.511   8.790 -0.1835 -0.1998 -1.1688
 5727SOL     OW28813   3.214   3.669   8.432 -0.3308  0.1055 -0.0380
 5727SOL    HW128814   3.124   3.645   8.407  0.0748 -0.8165 -0.5888
 5727SOL    HW228815   3.263   3.669   8.350 -2.0486  1.0779 -1.0620
 5728SOL     OW28816   0.206   4.525   8.028 -0.0180  0.2890  0.3788
 5728SOL    HW128817   0.258   4.530   7.948  0.6893  1.2542  0.8833
 5728SOL    HW228818   0.118   4.533   7.993 -0.3259 -3.5288  0.3464
 5729SOL     OW28819   3.255   2.202   5.823 -0.0405 -0.2523  0.3468
 5729SOL    HW128820   3.286   2.192   5.913 -0.1293 -1.5174  0.2347
 5729SOL    HW228821   3.330   2.248   5.786 -1.5037  0.4539 -1.7761
 5730SOL     OW28822   2.796   4.178   6.438 -0.2392 -0.6937 -0.0212
 5730SOL    HW128823   2.820   4.127   6.360  2.7515 -1.0598  1.1493
 5730SOL    HW228824   2.846   4.134   6.506 -1.2921 -0.3262  0.9941
 5731SOL     OW28825   4.225   0.118  16.740 -0.2841  0.3000  0.4053
 5731SOL    HW128826   4.271   0.062  16.677  0.9995  2.1936 -0.3178
 5731SOL    HW228827   4.159   0.159  16.684 -1.5012  1.4276  2.6631
 5732SOL     OW28828   3.175   2.856   2.917  0.0095  0.1736  0.7764
 5732SOL    HW128829   3.168   2.783   2.978 -0.1884 -0.5794 -0.1478
 5732SOL    HW228830   3.217   2.910   2.984  1.6312 -1.2609  0.8864
 5733SOL     OW28831   1.411   1.974   0.635 -0.6550 -0.3664  0.2581
 5733SOL    HW128832   1.488   1.919   0.652 -0.8075 -0.3324  1.0550
 5733SOL    HW228833   1.336   1.924   0.668  0.4176 -2.2300 -0.0959
 5734SOL     OW28834   4.196   4.539  11.516 -1.2187  0.3203 -0.0500
 5734SOL    HW128835   4.182   4.450  11.548  2.2727 -0.9360 -1.9887
 5734SOL    HW228836   4.223   4.582  11.596 -1.0560 -1.2347  0.7266
 5735SOL     OW28837   3.082   0.005   8.002 -0.6597  0.1125  0.0936
 5735SOL    HW128838   2.997   0.047   7.996  0.7805  2.6931 -2.0173
 5735SOL    HW228839   3.138   0.072   8.040 -1.4524  2.4135 -2.8016
 5736SOL     OW28840   3.067   3.236   9.107  0.8953  0.8169 -0.3376
 5736SOL    HW128841   3.133   3.182   9.062 -1.7754 -3.1856  0.5259
 5736SOL    HW228842   3.034   3.163   9.159  1.6219  0.1827 -0.7472
 5737SOL     OW28843   4.315   1.429   4.426  0.1598 -0.0379  0.0466
 5737SOL    HW128844   4.287   1.520   4.419 -1.1180 -0.5782 -1.8355
 5737SOL    HW228845   4.262   1.377   4.365  1.7012 -1.5677  0.0117
 5738SOL     OW28846   2.629   2.314   6.281 -0.1778  0.0296 -0.2720
 5738SOL    HW128847   2.668   2.239   6.236 -1.1644  0.2713 -1.5444
 5738SOL    HW228848   2.585   2.257   6.344  2.1700  1.3229  2.5253
 5739SOL     OW28849   1.482   0.287   0.808  0.0761  0.7765  0.5088
 5739SOL    HW128850   1.404   0.310   0.758 -0.8714 -2.1993  0.5863
 5739SOL    HW228851   1.525   0.242   0.736 -1.6018 -0.9811  0.5883
 5740SOL     OW28852   0.633   4.187   7.382  0.1120  0.1991  0.4453
 5740SOL    HW128853   0.544   4.168   7.414 -0.3928 -0.9685 -1.6751
 5740SOL    HW228854   0.697   4.185   7.453 -2.0270  1.6055  2.4256
 5741SOL     OW28855   0.217   2.036   8.799 -0.0299 -0.0811  0.1129
 5741SOL    HW128856   0.127   2.028   8.765  0.0982  0.2475 -0.2936
 5741SOL    HW228857   0.213   2.125   8.833 -0.4002 -0.1926  0.3688
 5742SOL     OW28858   2.117   2.327   6.353 -0.0734  0.0366  0.4472
 5742SOL    HW128859   2.113   2.244   6.306 -0.6726 -0.1154  0.7698
 5742SOL    HW228860   2.070   2.384   6.292  2.6485 -0.7255 -2.3428
 5743SOL     OW28861   1.973   0.142  13.064 -0.3611  0.5911  0.3607
 5743SOL    HW128862   1.934   0.229  13.075 -0.7640  0.6683 -1.6069
 5743SOL    HW228863   2.066   0.158  13.082 -0.0816 -0.4426 -0.1774
 5744SOL     OW28864   1.849   2.223  11.784 -0.2737  0.1714 -0.3469
 5744SOL    HW128865   1.884   2.306  11.753 -0.0960  1.4388  3.1945
 5744SOL    HW228866   1.832   2.241  11.877 -0.2685  1.5272 -0.6124
 5745SOL     OW28867   1.983   1.926  11.860  0.3389 -0.0134  0.0502
 5745SOL    HW128868   2.069   1.962  11.840  2.2410 -3.4275  2.1057
 5745SOL    HW228869   1.975   1.956  11.951  2.5014  0.2947  0.1343
 5746SOL     OW28870   1.722   4.610   2.384  0.3053  0.0849  0.1546
 5746SOL    HW128871   1.812   4.595   2.410  0.8446  1.7169 -0.7670
 5746SOL    HW228872   1.712   4.547   2.313  0.1416 -1.0779  1.2062
 5747SOL     OW28873   1.668   2.095  13.480 -0.1407  0.0128  0.1261
 5747SOL    HW128874   1.589   2.048  13.506 -0.9789  0.2853 -1.9046
 5747SOL    HW228875   1.667   2.175  13.533 -0.9443  1.2484 -1.7351
 5748SOL     OW28876   1.676   3.893   3.426 -0.3134  0.0348 -0.3839
 5748SOL    HW128877   1.672   3.797   3.426  1.5767 -0.0318 -1.1620
 5748SOL    HW228878   1.586   3.905   3.457 -0.5646 -0.6557 -0.8423
 5749SOL     OW28879   2.090   2.805   5.870 -0.5335 -0.9350 -0.0097
 5749SOL    HW128880   2.146   2.880   5.853 -1.7829  0.8652  3.8772
 5749SOL    HW228881   2.082   2.808   5.965  1.1889 -0.7702  0.1286
 5750SOL     OW28882   2.064   3.894   9.292  0.2644 -0.1500  0.1360
 5750SOL    HW128883   2.035   3.936   9.373 -0.3743  1.1659 -0.7800
 5750SOL    HW228884   2.138   3.943   9.256 -0.4544  0.5340 -0.4052
 5751SOL     OW28885   2.187   0.186   0.761 -0.0969 -0.3447 -0.5841
 5751SOL    HW128886   2.190   0.090   0.769  0.5951 -0.4169 -1.5728
 5751SOL    HW228887   2.106   0.203   0.713 -0.5542  1.0136  0.6818
 5752SOL     OW28888   4.424   4.170   1.596  0.4988 -0.1271  0.4563
 5752SOL    HW128889   4.442   4.260   1.566  0.4751 -0.1148  0.4793
 5752SOL    HW228890   4.434   4.125   1.512  0.9556 -1.0467  0.9976
 5753SOL     OW28891   0.598   0.124  16.717  0.6252 -0.5992  0.0240
 5753SOL    HW128892   0.666   0.178  16.678  0.6067 -0.4684  0.1739
 5753SOL    HW228893   0.630   0.044  16.674 -0.4041 -0.2942 -1.3356
 5754SOL     OW28894   0.239   3.686   9.693  0.1859  0.1181 -0.1721
 5754SOL    HW128895   0.258   3.775   9.721  0.8065 -1.1799  3.5562
 5754SOL    HW228896   0.148   3.677   9.721 -0.2578  0.5773 -1.4727
 5755SOL     OW28897   3.979   1.699   8.723 -0.5747  0.1724 -0.7229
 5755SOL    HW128898   3.962   1.680   8.631  1.5813 -0.2414 -1.0526
 5755SOL    HW228899   4.007   1.611   8.748  2.4033  0.7988 -1.8159
 5756SOL     OW28900   0.713   0.950   6.100 -0.0233 -0.0882 -0.4234
 5756SOL    HW128901   0.778   0.913   6.040  0.9066  1.5267 -0.4118
 5756SOL    HW228902   0.732   0.915   6.187 -2.1773  0.3119  0.2136
 5757SOL     OW28903   1.001   2.137   6.202  0.5577  0.1692  0.0783
 5757SOL    HW128904   0.976   2.046   6.188 -0.6037  0.2456  1.6142
 5757SOL    HW228905   1.053   2.122   6.282 -0.3151  0.0446  0.6230
 5758SOL     OW28906   3.538   3.360  10.714  0.3662 -0.3970 -0.2612
 5758SOL    HW128907   3.457   3.396  10.751  2.1994  1.3935  1.9918
 5758SOL    HW228908   3.587   3.437  10.685  1.5614 -1.7736 -1.9088
 5759SOL     OW28909   1.377   1.294   4.596  0.2422  0.2050 -0.2844
 5759SOL    HW128910   1.442   1.232   4.628  1.1921  2.6323  2.4222
 5759SOL    HW228911   1.325   1.299   4.676 -0.2850 -0.4953 -0.5815
 5760SOL     OW28912   2.800   1.982   5.697  0.0855  0.0582 -0.5354
 5760SOL    HW128913   2.822   1.913   5.635  2.1535  1.6167 -1.5242
 5760SOL    HW228914   2.881   2.032   5.702  0.5128 -0.6930 -0.1247
 5761SOL     OW28915   2.068   3.807   2.344  0.7489 -0.3909 -0.7477
 5761SOL    HW128916   2.061   3.819   2.439  2.7873  1.2879 -0.8168
 5761SOL    HW228917   2.021   3.886   2.317  0.0608 -0.1641  1.0792
 5762SOL     OW28918   1.835   3.686   8.319 -0.5164 -0.2187 -1.0886
 5762SOL    HW128919   1.795   3.743   8.385  2.2853 -1.1147  1.3747
 5762SOL    HW228920   1.840   3.602   8.364 -1.6773  1.7928  2.7892
 5763SOL     OW28921   3.512   1.020   6.345  0.2624  0.2765 -0.0223
 5763SOL    HW128922   3.486   1.063   6.264 -1.3486 -0.5785  0.0509
 5763SOL    HW228923   3.603   0.999   6.325 -0.4321 -0.9276 -1.8655
 5764SOL     OW28924   2.555   3.229  15.370 -0.0613  0.1698  0.3517
 5764SOL    HW128925   2.497   3.305  15.377  0.6354  1.0063 -2.7850
 5764SOL    HW228926   2.609   3.264  15.299 -0.4128 -1.6753 -0.8171
 5765SOL     OW28927   0.817   2.189  12.690 -0.4364 -0.3320 -0.1328
 5765SOL    HW128928   0.725   2.194  12.717 -0.7278 -0.3416 -1.1269
 5765SOL    HW228929   0.817   2.244  12.612 -0.4862 -1.0444 -0.6296
 5766SOL     OW28930   3.601   4.460   5.129 -0.5148 -0.2843 -0.1446
 5766SOL    HW128931   3.598   4.444   5.034 -1.8292 -0.7332 -0.0306
 5766SOL    HW228932   3.521   4.513   5.135 -0.5804 -0.2093 -1.6108
 5767SOL     OW28933   4.623   4.700   5.943 -0.0762  0.4703 -0.2545
 5767SOL    HW128934   4.545   4.697   5.999  0.3325  1.6605  0.3892
 5767SOL    HW228935   4.680   0.002   6.007  1.9528  1.0291 -2.4189
 5768SOL     OW28936   1.364   3.496   4.786 -0.0589  0.4943 -0.4386
 5768SOL    HW128937   1.297   3.460   4.727 -2.3336  1.5935  1.4443
 5768SOL    HW228938   1.314   3.505   4.867  0.4031 -0.6246 -0.0423
 5769SOL     OW28939   4.350   3.611  11.282  0.4127 -0.2807  0.3358
 5769SOL    HW128940   4.371   3.534  11.229  0.3105 -0.4070  0.4798
 5769SOL    HW228941   4.394   3.687  11.245 -1.4844  0.3019 -0.7191
 5770SOL     OW28942   1.901   1.811   7.415 -0.7110  0.5130 -0.0453
 5770SOL    HW128943   1.935   1.752   7.482 -0.8238  0.3304 -0.1487
 5770SOL    HW228944   1.826   1.760   7.385  1.6126 -1.8983 -1.8003
 5771SOL     OW28945   0.236   2.819   3.970  0.1765 -0.3549  0.0113
 5771SOL    HW128946   0.144   2.821   3.996  0.6210  2.1407  1.3782
 5771SOL    HW228947   0.278   2.779   4.046 -2.0306  0.3311  1.5619
 5772SOL     OW28948   1.018   3.015   6.620 -0.1217  0.4940 -0.7027
 5772SOL    HW128949   1.044   2.966   6.698 -0.3519  2.2451  0.4676
 5772SOL    HW228950   1.098   3.063   6.601  0.4746 -0.5979 -0.9679
 5773SOL     OW28951   0.448   3.891  12.604 -0.2262  0.2964  0.6260
 5773SOL    HW128952   0.455   3.973  12.654 -0.2519  0.1028  0.9471
 5773SOL    HW228953   0.390   3.921  12.533  1.3764  0.6749 -0.5252
 5774SOL     OW28954   1.388   1.145   5.382 -0.2134 -0.6263  0.8534
 5774SOL    HW128955   1.449   1.083   5.422  0.5382  0.0871  0.8194
 5774SOL    HW228956   1.449   1.215   5.358  0.4386 -0.6269  2.5201
 5775SOL     OW28957   0.161   0.929   6.090 -0.5313 -0.0237 -0.0204
 5775SOL    HW128958   0.157   0.976   6.174 -0.8353 -0.1408  0.0300
 5775SOL    HW228959   0.094   0.863   6.105 -1.8839  1.7957  1.8679
 5776SOL     OW28960   0.619   0.568   9.614  0.5296 -0.6865 -0.1171
 5776SOL    HW128961   0.536   0.614   9.627 -0.4903 -2.5043 -0.2518
 5776SOL    HW228962   0.588   0.483   9.646 -2.7399  1.2153  1.7984
 5777SOL     OW28963   4.191   4.534   9.415  0.1050  0.5096  0.5580
 5777SOL    HW128964   4.260   4.572   9.361 -1.0744  1.3606 -0.3485
 5777SOL    HW228965   4.124   4.523   9.348  0.3859 -0.9509  0.5052
 5778SOL     OW28966   0.600   1.260   0.926 -0.1890  0.3467 -0.3353
 5778SOL    HW128967   0.610   1.337   0.869  1.2490 -0.8413 -1.6824
 5778SOL    HW228968   0.588   1.307   1.009  0.7761  0.4444 -0.2433
 5779SOL     OW28969   1.322   1.531  13.474  0.2703 -0.0825  0.5125
 5779SOL    HW128970   1.367   1.615  13.469  0.4346 -0.1941  0.1202
 5779SOL    HW228971   1.383   1.465  13.442 -1.0176  0.4210 -2.9205
 5780SOL     OW28972   1.547   3.556  13.233 -0.0257 -0.0427  0.0260
 5780SOL    HW128973   1.575   3.558  13.324  2.4720 -0.8064 -0.7321
 5780SOL    HW228974   1.486   3.482  13.242 -0.0830  0.0736  0.5990
 5781SOL     OW28975   1.591   4.306  15.008 -0.0426 -0.1735 -0.2963
 5781SOL    HW128976   1.662   4.350  14.962 -2.5497  2.0586 -2.0287
 5781SOL    HW228977   1.554   4.269  14.927 -1.0437  1.0922 -0.4121
 5782SOL     OW28978   1.148   3.514  13.142 -0.0661 -0.1248 -0.2842
 5782SOL    HW128979   1.117   3.425  13.129  0.5290 -0.6432  1.7776
 5782SOL    HW228980   1.195   3.510  13.226  1.1064  0.8655 -0.8891
 5783SOL     OW28981   3.909   1.643   3.008  0.0715  0.0023 -0.6425
 5783SOL    HW128982   3.971   1.585   3.052 -0.4391 -1.0411 -1.3171
 5783SOL    HW228983   3.903   1.614   2.917 -0.9271 -1.2549 -0.1799
 5784SOL     OW28984   2.528   0.952  12.762  0.2433  0.3606 -0.2535
 5784SOL    HW128985   2.492   1.041  12.767 -1.2614 -0.2492 -0.1474
 5784SOL    HW228986   2.582   0.944  12.841 -1.0489 -1.3637  0.4648
 5785SOL     OW28987   3.241   3.086   6.953  0.7095 -0.1876  0.2947
 5785SOL    HW128988   3.190   3.084   7.034 -0.9024 -0.3412 -0.7392
 5785SOL    HW228989   3.237   3.181   6.940  0.4315 -0.5338 -2.1210
 5786SOL     OW28990   0.941   0.249   2.773  0.6164 -0.2724  0.0587
 5786SOL    HW128991   0.978   0.307   2.840  2.3409 -0.7161 -0.5117
 5786SOL    HW228992   1.008   0.184   2.753  0.4683  0.2854 -2.2022
 5787SOL     OW28993   1.274   4.509   8.144 -0.2972 -0.0373  0.0802
 5787SOL    HW128994   1.222   4.584   8.117  0.9926  0.9699  0.4284
 5787SOL    HW228995   1.223   4.462   8.209 -2.9422  2.4644 -0.1929
 5788SOL     OW28996   2.104   2.329   7.818  0.0955  0.2751  0.2039
 5788SOL    HW128997   2.157   2.406   7.837  1.3076 -0.8284  1.3216
 5788SOL    HW228998   2.084   2.338   7.725 -0.6376 -1.1316  0.2078
 5789SOL     OW28999   0.488   0.121   2.923 -0.3734  0.1354  0.8057
 5789SOL    HW129000   0.557   0.156   2.866 -3.1075  3.0472 -0.6958
 5789SOL    HW229001   0.425   0.192   2.920 -0.8403 -0.2981  0.4182
 5790SOL     OW29002   4.031   3.685   8.912 -0.0655  0.3707  0.4390
 5790SOL    HW129003   4.037   3.676   9.008 -0.4511  0.7488  0.4958
 5790SOL    HW229004   3.969   3.757   8.906 -0.3996  0.3706  3.5151
 5791SOL     OW29005   3.421   0.775  14.262  0.4599  0.6048  0.2441
 5791SOL    HW129006   3.397   0.823  14.341 -1.9136  0.3344 -0.3101
 5791SOL    HW229007   3.457   0.692  14.293 -0.6848 -0.5838 -1.5730
 5792SOL     OW29008   2.249   3.141   2.328  0.0082  0.0665  0.3174
 5792SOL    HW129009   2.256   3.224   2.282 -1.9561  0.1765  0.2259
 5792SOL    HW229010   2.335   3.136   2.370 -0.3437  2.5490  1.3544
 5793SOL     OW29011   0.277   2.167   4.013 -0.2123  0.0497 -0.0778
 5793SOL    HW129012   0.200   2.110   4.017 -1.6713  1.8511 -2.4488
 5793SOL    HW229013   0.236   2.252   4.031 -1.6254 -0.0727 -2.7065
 5794SOL     OW29014   0.092   3.595  15.562  0.1583 -0.0519  0.6366
 5794SOL    HW129015   0.168   3.650  15.583  0.4685  0.3981 -1.6388
 5794SOL    HW229016   0.122   3.547  15.485 -3.1420 -0.3297 -0.4859
 5795SOL     OW29017   1.371   0.567   2.456  0.3287  0.3900 -0.6229
 5795SOL    HW129018   1.297   0.628   2.458 -0.3945 -0.4877 -0.4782
 5795SOL    HW229019   1.397   0.575   2.364 -0.4458  0.5902 -0.8229
 5796SOL     OW29020   4.220   3.995   2.472  0.7476  0.6429  0.4447
 5796SOL    HW129021   4.173   3.922   2.433  0.6440  0.7840  0.3070
 5796SOL    HW229022   4.307   3.984   2.434  0.5578 -2.0851  0.8062
 5797SOL     OW29023   3.286   1.715   5.231 -0.3244  0.6342 -0.6474
 5797SOL    HW129024   3.326   1.628   5.240  1.0967  1.3660  0.0224
 5797SOL    HW229025   3.255   1.733   5.320 -0.9546 -0.9046 -0.5499
 5798SOL     OW29026   2.375   4.524   3.666  0.1128 -0.1501 -0.1682
 5798SOL    HW129027   2.388   4.554   3.756 -2.4564 -0.6890  0.3957
 5798SOL    HW229028   2.439   4.454   3.656  0.5011  0.0102  1.1120
 5799SOL     OW29029   3.711   4.240  12.483 -0.5161  0.1803 -0.1690
 5799SOL    HW129030   3.660   4.165  12.514  0.9206 -0.7309 -0.0217
 5799SOL    HW229031   3.682   4.234  12.392  0.7628  0.3504 -0.5815
 5800SOL     OW29032   2.412   3.550   5.014 -0.5472 -0.6511 -0.4782
 5800SOL    HW129033   2.471   3.517   4.946 -0.2977  0.8522 -0.9997
 5800SOL    HW229034   2.449   3.639   5.020  3.8420 -2.6167  1.5383
 5801SOL     OW29035   1.013   2.835   2.318  0.0937  0.6677  0.5183
 5801SOL    HW129036   1.052   2.806   2.235  0.6570 -0.1807  1.0901
 5801SOL    HW229037   0.948   2.767   2.335  0.5116 -0.4378 -2.1653
 5802SOL     OW29038   0.656   1.432   9.033 -0.6139 -0.2773  0.2853
 5802SOL    HW129039   0.629   1.467   9.118 -0.2435 -0.7354  0.5984
 5802SOL    HW229040   0.749   1.413   9.050 -1.3465 -2.2748  2.0480
 5803SOL     OW29041   0.431   3.599  11.087 -0.4330 -0.0505  0.3162
 5803SOL    HW129042   0.511   3.645  11.112 -1.0988  0.6392  1.1857
 5803SOL    HW229043   0.387   3.678  11.055 -1.0028 -1.1947 -1.7528
 5804SOL     OW29044   0.306   3.395   7.779 -0.4921 -0.3347  0.4560
 5804SOL    HW129045   0.240   3.332   7.808  1.1455 -3.3684 -2.3537
 5804SOL    HW229046   0.363   3.404   7.856  1.4017 -0.6293 -0.9089
 5805SOL     OW29047   3.662   0.209  14.752  0.0821  0.0844  0.0561
 5805SOL    HW129048   3.716   0.138  14.717 -0.9896 -0.2119 -1.0051
 5805SOL    HW229049   3.715   0.232  14.828  1.5108  3.0184 -1.8320
 5806SOL     OW29050   1.941   3.838   2.612 -0.5964 -0.5645  0.2928
 5806SOL    HW129051   1.868   3.783   2.641 -2.8822  0.3733 -3.6589
 5806SOL    HW229052   2.014   3.807   2.666 -0.8772 -0.5823  0.6672
 5807SOL     OW29053   4.106   3.859  11.744 -0.2519 -0.2381 -0.2238
 5807SOL    HW129054   4.069   3.940  11.708  1.7321 -0.1750 -2.0786
 5807SOL    HW229055   4.112   3.876  11.839 -0.2740 -0.6533 -0.1500
 5808SOL     OW29056   3.176   3.816   9.299 -0.0116 -0.0850  0.3642
 5808SOL    HW129057   3.185   3.792   9.391 -1.8670  0.6187  0.7326
 5808SOL    HW229058   3.206   3.735   9.257 -0.7314 -0.3584  0.3784
 5809SOL     OW29059   0.604   1.735  15.337  0.0014  0.2919  0.4876
 5809SOL    HW129060   0.651   1.714  15.257 -2.0902 -0.2401 -0.5997
 5809SOL    HW229061   0.577   1.824  15.315 -0.8197 -0.1566 -0.3164
 5810SOL     OW29062   1.826   1.827  16.923 -0.0846  0.1785 -0.6621
 5810SOL    HW129063   1.857   1.739  16.944 -2.7264 -0.7538 -0.6907
 5810SOL    HW229064   1.776   1.837  17.004  0.8550  0.4243 -0.1027
 5811SOL     OW29065   2.949   3.871   4.736 -0.0669 -0.3016  0.8633
 5811SOL    HW129066   2.894   3.931   4.787 -1.0375 -0.1700 -0.3383
 5811SOL    HW229067   3.025   3.882   4.793 -0.1951 -0.0200  0.9812
 5812SOL     OW29068   2.309   3.899   4.938 -0.1619 -0.7454  0.5396
 5812SOL    HW129069   2.263   3.966   4.888 -0.4988 -1.9509 -0.7737
 5812SOL    HW229070   2.236   3.862   4.987 -0.2794 -0.2903  0.7007
 5813SOL     OW29071   2.622   0.872   7.860  0.5442  0.2291  0.0718
 5813SOL    HW129072   2.603   0.871   7.766  1.7214  2.0727 -0.1902
 5813SOL    HW229073   2.690   0.939   7.858  0.2714  0.5114  0.3220
 5814SOL     OW29074   0.111   3.335   6.777  0.1774 -0.3160 -0.2915
 5814SOL    HW129075   0.095   3.375   6.691  2.0250 -0.4984 -0.7166
 5814SOL    HW229076   0.034   3.362   6.827  1.3022  1.5283  0.4193
 5815SOL     OW29077   1.211   2.208   9.444 -0.0577  0.0152 -0.2000
 5815SOL    HW129078   1.257   2.182   9.523  0.0841  3.5712  0.8929
 5815SOL    HW229079   1.194   2.302   9.457 -0.2991  0.0602 -0.8150
 5816SOL     OW29080   2.664   2.360   2.875  0.2231 -0.0410 -0.0296
 5816SOL    HW129081   2.702   2.316   2.799  0.2612  3.8060 -2.2441
 5816SOL    HW229082   2.584   2.396   2.836 -0.1769  1.3015  1.9466
 5817SOL     OW29083   0.567   2.483   7.721 -0.4802 -0.2648 -0.1187
 5817SOL    HW129084   0.565   2.426   7.797 -2.9358 -1.5139 -1.1132
 5817SOL    HW229085   0.549   2.429   7.644 -1.6222 -0.4802  0.2945
 5818SOL     OW29086   2.055   2.676  13.551  0.4234  0.0996  0.1272
 5818SOL    HW129087   2.080   2.768  13.541 -2.7354  1.2581  2.6077
 5818SOL    HW229088   1.998   2.664  13.476 -0.3056  1.5295  0.4383
 5819SOL     OW29089   0.890   4.712   2.228  0.0304 -0.2136  0.7949
 5819SOL    HW129090   0.917   4.710   2.136 -1.6486 -0.4662  0.3165
 5819SOL    HW229091   0.971   4.698   2.278  1.3541  1.3898 -0.9164
 5820SOL     OW29092   2.754   3.741  10.720  0.0523  0.1775  0.2179
 5820SOL    HW129093   2.841   3.703  10.730 -0.2076 -0.5417 -0.2825
 5820SOL    HW229094   2.739   3.714  10.630  3.0347 -0.8211  0.0269
 5821SOL     OW29095   3.857   2.930   7.239 -0.5158  0.0540 -0.1972
 5821SOL    HW129096   3.853   2.834   7.232 -0.2780  0.0059  0.3244
 5821SOL    HW229097   3.801   2.936   7.317 -1.4309  1.2419 -0.9638
 5822SOL     OW29098   0.052   3.509   4.854 -0.2815  0.5516 -0.2058
 5822SOL    HW129099   0.041   3.575   4.922  0.6806  0.2268  0.2520
 5822SOL    HW229100   4.738   3.541   4.782  0.7138  0.3817 -1.0380
 5823SOL     OW29101   2.045   0.893   1.801 -0.1430  0.4212 -0.1797
 5823SOL    HW129102   2.031   0.863   1.891  0.3049  1.4701  0.2387
 5823SOL    HW229103   2.066   0.813   1.752 -0.0416  0.7341 -0.6386
 5824SOL     OW29104   3.649   2.256   2.956  0.1370  0.8116 -0.5001
 5824SOL    HW129105   3.671   2.166   2.980  0.0324  0.5323 -1.4369
 5824SOL    HW229106   3.712   2.263   2.884  0.5678  2.2961  0.0159
 5825SOL     OW29107   3.683   3.669   1.786  0.5966 -0.0710  0.3765
 5825SOL    HW129108   3.641   3.753   1.803 -1.5401 -0.4856 -2.7595
 5825SOL    HW229109   3.749   3.658   1.854 -1.1539 -1.0750  1.9138
 5826SOL     OW29110   4.585   0.703  16.656  0.1143 -0.3345 -0.0244
 5826SOL    HW129111   4.643   0.778  16.642 -0.1410 -0.4078 -1.4881
 5826SOL    HW229112   4.588   0.702  16.752  1.5940  1.1162 -0.0495
 5827SOL     OW29113   0.512   3.278   2.979  0.5545 -0.0326  0.5957
 5827SOL    HW129114   0.515   3.221   3.056  0.6486 -0.6087  0.1666
 5827SOL    HW229115   0.605   3.281   2.957  0.5504  1.4610  0.7637
 5828SOL     OW29116   3.012   0.863  14.112  0.1999 -0.0898  0.0658
 5828SOL    HW129117   2.962   0.945  14.112  0.8104  0.2763  0.0520
 5828SOL    HW229118   3.014   0.847  14.017 -0.0124 -2.2791  0.4307
 5829SOL     OW29119   4.418   0.722   0.029  0.2048  0.0755 -0.3462
 5829SOL    HW129120   4.513   0.725   0.040  0.4598 -4.1054 -1.2870
 5829SOL    HW229121   4.415   0.713  17.694  1.1930 -0.1753 -0.3585
 5830SOL     OW29122   1.465   4.419   6.661  0.1210  0.2507 -0.3561
 5830SOL    HW129123   1.550   4.401   6.622  0.8088 -2.0985  2.2409
 5830SOL    HW229124   1.478   4.440   6.753 -0.5211  3.8246 -1.0515
 5831SOL     OW29125   0.459   2.448   8.958 -0.7587 -0.0348  0.2239
 5831SOL    HW129126   0.476   2.369   8.906 -0.0155  0.2119  0.0964
 5831SOL    HW229127   0.531   2.501   8.925 -1.1582  0.0632 -0.4835
 5832SOL     OW29128   1.624   0.507   6.916 -0.0479 -0.0150  0.0082
 5832SOL    HW129129   1.711   0.540   6.892 -0.2510 -0.0744 -0.8039
 5832SOL    HW229130   1.571   0.561   6.858  0.4062  0.7046  0.2593
 5833SOL     OW29131   4.350   1.006   7.693 -0.3513  0.4004 -0.9324
 5833SOL    HW129132   4.306   0.924   7.671 -3.0763  1.7333 -0.4787
 5833SOL    HW229133   4.432   0.982   7.735 -0.0290  0.3411 -1.5993
 5834SOL     OW29134   1.396   3.590   3.820  0.1627 -0.0243 -1.1239
 5834SOL    HW129135   1.486   3.557   3.812  0.9946  1.7407  1.1883
 5834SOL    HW229136   1.418   3.682   3.829 -0.5159 -0.1957  2.1691
 5835SOL     OW29137   1.715   2.881   2.546  0.1062  0.2721  0.6692
 5835SOL    HW129138   1.632   2.886   2.498  0.6278  0.4372 -0.2063
 5835SOL    HW229139   1.692   2.930   2.625 -1.6950  0.5565 -0.0186
 5836SOL     OW29140   1.677   4.078   2.125 -0.3391 -0.1315 -0.0227
 5836SOL    HW129141   1.662   4.157   2.075 -0.4151  0.0340  0.2599
 5836SOL    HW229142   1.754   4.047   2.078 -2.6317 -3.4810 -1.5509
 5837SOL     OW29143   0.111   4.212   6.487 -0.0092 -0.5289  0.0039
 5837SOL    HW129144   0.152   4.245   6.406  0.5041  0.4725  0.6663
 5837SOL    HW229145   0.093   4.297   6.528  1.2228  0.2371 -1.0062
 5838SOL     OW29146   0.624   0.055   7.852  0.0422 -0.1734  0.0231
 5838SOL    HW129147   0.629   4.710   7.809  0.6640 -0.1280  0.0047
 5838SOL    HW229148   0.543   0.093   7.816 -0.8799 -0.0439  2.2574
 5839SOL     OW29149   0.018   4.155  15.019 -0.3756  0.1707 -0.3700
 5839SOL    HW129150   4.673   4.155  14.977 -0.3533 -0.0586 -0.4152
 5839SOL    HW229151   0.028   4.246  15.049  2.4279  0.6844 -2.8592
 5840SOL     OW29152   4.122   2.465   5.088 -0.3293 -0.7881  0.1433
 5840SOL    HW129153   4.194   2.528   5.084 -0.9326 -0.1781 -1.0023
 5840SOL    HW229154   4.105   2.450   4.995 -1.5533  1.1185  0.0614
 5841SOL     OW29155   1.500   1.106  11.358 -0.6706  0.3376  0.0959
 5841SOL    HW129156   1.592   1.087  11.374  0.2360  2.8588 -1.9537
 5841SOL    HW229157   1.500   1.187  11.307  0.3680 -0.8221 -1.7544
 5842SOL     OW29158   3.257   3.198   8.053 -0.2722 -0.5072  0.6557
 5842SOL    HW129159   3.320   3.247   8.106 -0.7419 -0.0806  0.8136
 5842SOL    HW229160   3.227   3.260   7.987  0.9454  2.5769  3.0398
 5843SOL     OW29161   4.082   4.607   9.161 -0.0469  0.8307 -0.2425
 5843SOL    HW129162   4.057   4.698   9.180 -0.5802  1.4537 -4.0056
 5843SOL    HW229163   4.015   4.565   9.107 -0.7212  0.8493  0.5795
 5844SOL     OW29164   1.496   3.488   3.074 -0.3909  0.1124 -0.5696
 5844SOL    HW129165   1.493   3.415   3.137 -0.6731 -0.4052 -1.1852
 5844SOL    HW229166   1.487   3.571   3.121 -0.3437  0.6119 -1.4376
 5845SOL     OW29167   4.708   0.457   1.694 -0.2018  0.4368 -0.2899
 5845SOL    HW129168   4.660   0.374   1.692  0.0117  0.2367  2.0233
 5845SOL    HW229169   4.705   0.480   1.787  0.8009 -2.9376  0.5658
 5846SOL     OW29170   2.711   1.403   4.175  0.2478 -0.1955 -0.2359
 5846SOL    HW129171   2.722   1.440   4.262  0.8118 -0.3785 -0.2322
 5846SOL    HW229172   2.696   1.489   4.137 -0.4431  0.6731  2.0153
 5847SOL     OW29173   2.303   1.303   6.227  0.1527 -0.4595 -1.1204
 5847SOL    HW129174   2.221   1.328   6.270 -0.3712 -1.2214 -1.6754
 5847SOL    HW229175   2.282   1.329   6.137 -0.7495  0.9064 -0.5270
 5848SOL     OW29176   4.030   0.185  13.067  0.1747 -0.1200  0.3042
 5848SOL    HW129177   4.018   0.094  13.038 -1.3163 -0.6455  2.5695
 5848SOL    HW229178   4.121   0.165  13.088 -0.5317 -1.6153  1.9345
 5849SOL     OW29179   4.044   2.524  13.746 -0.5221  0.2964  0.1661
 5849SOL    HW129180   4.065   2.597  13.686 -0.2523 -0.8083 -1.0817
 5849SOL    HW229181   4.000   2.466  13.684  0.5307 -1.0743  0.7233
 5850SOL     OW29182   1.596   0.790   7.832  0.1194  0.2019 -0.8743
 5850SOL    HW129183   1.654   0.817   7.904 -0.5076  1.6199 -0.8841
 5850SOL    HW229184   1.584   0.874   7.787 -1.3159  0.6217  0.2798
 5851SOL     OW29185   2.692   0.250   9.903  0.2082 -0.6008  0.0873
 5851SOL    HW129186   2.699   0.156   9.920  1.2592 -0.7246 -1.0128
 5851SOL    HW229187   2.761   0.272   9.840 -0.1778  1.3993  0.3710
 5852SOL     OW29188   0.186   3.805  11.971 -0.3673 -0.2335 -0.0311
 5852SOL    HW129189   0.223   3.745  11.906 -2.4929 -0.6289 -0.8758
 5852SOL    HW229190   0.215   3.776  12.058  1.8215  2.7520  0.2102
 5853SOL     OW29191   0.247   2.219   0.760  0.2966  0.1659 -0.2713
 5853SOL    HW129192   0.260   2.237   0.667 -0.0025  0.6286 -0.2248
 5853SOL    HW229193   0.258   2.124   0.768 -3.1939 -0.0832  1.4281
 5854SOL     OW29194   2.436   2.720  11.333  0.0068 -1.0270  0.0646
 5854SOL    HW129195   2.361   2.778  11.321 -1.3445 -2.8653 -0.4320
 5854SOL    HW229196   2.505   2.772  11.374 -0.2894 -1.1994  0.7815
 5855SOL     OW29197   2.537   1.375  15.424  0.0427 -0.4384  0.1299
 5855SOL    HW129198   2.582   1.306  15.375 -3.1198 -1.1968 -1.6509
 5855SOL    HW229199   2.597   1.450  15.420 -1.9075  1.0774 -0.5032
 5856SOL     OW29200   3.157   3.358  10.567  0.2500  0.0731 -0.3094
 5856SOL    HW129201   3.177   3.275  10.612  1.7036 -0.3701 -1.7605
 5856SOL    HW229202   3.083   3.384  10.621 -0.2495 -1.5403 -0.2042
 5857SOL     OW29203   2.782   3.697  10.031  0.1174  0.3062  0.0876
 5857SOL    HW129204   2.864   3.741  10.011  0.7761 -1.4403 -1.0670
 5857SOL    HW229205   2.807   3.610  10.061 -0.9312  0.1542  0.5434
 5858SOL     OW29206   4.446   0.318   6.588 -0.0829  0.4473 -0.2554
 5858SOL    HW129207   4.428   0.389   6.649 -0.6945  1.0521 -1.1344
 5858SOL    HW229208   4.519   0.357   6.539 -1.3358  0.4076 -2.1610
 5859SOL     OW29209   4.060   0.528   1.746  0.3459 -0.0377  0.1946
 5859SOL    HW129210   4.083   0.584   1.821  0.0507  1.1770 -0.6306
 5859SOL    HW229211   3.992   0.582   1.706  0.4940 -0.2384 -0.3300
 5860SOL     OW29212   0.025   1.164   7.928  0.8831 -0.0322  0.3592
 5860SOL    HW129213   4.689   1.152   7.985  1.1154  2.0424  1.0906
 5860SOL    HW229214   0.080   1.088   7.951 -0.2694 -1.0537 -0.2598
 5861SOL     OW29215   2.761   1.494   7.132 -0.3601 -0.2484 -0.1975
 5861SOL    HW129216   2.785   1.545   7.055 -0.2554 -1.5116 -0.9872
 5861SOL    HW229217   2.695   1.544   7.181 -0.8172 -0.7826 -0.2678
 5862SOL     OW29218   0.113   2.374  15.453 -0.3974  0.2270  0.2304
 5862SOL    HW129219   0.154   2.456  15.427  2.7479 -0.7296  2.2835
 5862SOL    HW229220   0.049   2.363  15.383 -0.6017  0.4832  0.3770
 5863SOL     OW29221   1.497   4.501   0.922 -0.0139 -0.5472 -0.0886
 5863SOL    HW129222   1.558   4.563   0.884 -0.5932  0.4403  0.5758
 5863SOL    HW229223   1.560   4.434   0.948 -0.1313 -0.5422  0.2183
 5864SOL     OW29224   3.016   4.459   3.321 -0.2602 -0.1612  0.2160
 5864SOL    HW129225   3.053   4.374   3.297 -2.7198 -0.8899 -1.0088
 5864SOL    HW229226   3.095   4.512   3.314 -1.3964  1.5025 -0.0128
 5865SOL     OW29227   2.211   3.563   2.020  0.2759  0.2541 -0.7263
 5865SOL    HW129228   2.196   3.600   2.106  0.4386 -2.2257  0.3826
 5865SOL    HW229229   2.133   3.597   1.975  0.6879 -0.2999 -1.8736
 5866SOL     OW29230   3.363   3.823   2.349  0.2030 -0.1049  0.0483
 5866SOL    HW129231   3.386   3.905   2.306  2.6929 -1.2717 -0.8564
 5866SOL    HW229232   3.305   3.785   2.283  0.7509 -1.0428  0.1025
 5867SOL     OW29233   3.001   3.041  17.017  0.1879 -0.3914 -0.3718
 5867SOL    HW129234   3.080   3.032  16.963  0.9837 -1.1492  0.9300
 5867SOL    HW229235   2.932   3.015  16.955 -0.2472  3.2513 -1.4119
 5868SOL     OW29236   2.071   0.245   4.579 -0.2031 -0.4448  0.0634
 5868SOL    HW129237   2.086   0.162   4.623  0.4908  0.0799  0.8119
 5868SOL    HW229238   2.052   0.302   4.653  1.8602 -0.7004  0.7932
 5869SOL     OW29239   0.467   1.054   8.802 -0.6833  0.0474 -0.0441
 5869SOL    HW129240   0.536   1.070   8.866 -0.9716 -0.6695  0.4401
 5869SOL    HW229241   0.415   1.134   8.791  0.9337  0.6294 -3.4348
 5870SOL     OW29242   2.962   2.946   3.630 -0.1552  0.4121 -0.0138
 5870SOL    HW129243   2.972   3.042   3.632  0.9076  0.3837 -3.2261
 5870SOL    HW229244   2.896   2.935   3.561 -2.0941 -1.3830  2.1297
 5871SOL     OW29245   1.308   3.957   4.543 -0.3383 -0.4020  0.3422
 5871SOL    HW129246   1.233   3.919   4.589 -0.2524  1.0740  1.7072
 5871SOL    HW229247   1.328   3.885   4.484 -2.3904 -1.5348  1.0315
 5872SOL     OW29248   0.756   2.446   3.036  0.3419 -0.1760  0.8952
 5872SOL    HW129249   0.751   2.538   3.008  1.0493 -0.8102 -1.2918
 5872SOL    HW229250   0.782   2.411   2.951 -2.7134  0.1091 -0.1506
 5873SOL     OW29251   2.785   1.060   2.866  0.1656 -0.1227 -0.4153
 5873SOL    HW129252   2.692   1.076   2.851  0.2793 -0.4790 -1.5528
 5873SOL    HW229253   2.827   1.128   2.813  0.7935 -0.7133 -0.6670
 5874SOL     OW29254   3.761   3.160  17.316 -0.5681 -0.2602 -0.1052
 5874SOL    HW129255   3.742   3.250  17.289  2.7896  0.3031 -0.6150
 5874SOL    HW229256   3.856   3.155  17.301 -0.6411 -0.0444 -0.6599
 5875SOL     OW29257   2.481   1.942   6.671 -0.5818 -0.5573  0.0040
 5875SOL    HW129258   2.419   1.870   6.689  1.5977 -2.7116 -1.2047
 5875SOL    HW229259   2.463   2.000   6.745  2.0987  1.0546 -0.6128
 5876SOL     OW29260   0.488   0.921   9.488  0.2125 -0.9213 -0.4454
 5876SOL    HW129261   0.478   1.003   9.535 -1.9690 -0.5560 -1.5614
 5876SOL    HW229262   0.473   0.949   9.398  0.4110 -0.6955 -0.4078
 5877SOL     OW29263   1.909   1.556   1.727  0.2577  0.3594  0.9901
 5877SOL    HW129264   1.943   1.467   1.739  0.0169  0.5642  3.1314
 5877SOL    HW229265   1.831   1.547   1.782 -1.1576 -4.8851 -1.8838
 5878SOL     OW29266   4.581   0.080  11.548  0.0835  0.1258 -0.1308
 5878SOL    HW129267   4.502   0.121  11.581 -0.0718 -0.7193  0.5369
 5878SOL    HW229268   4.581   0.112  11.458 -3.4102  0.6339  0.0499
 5879SOL     OW29269   1.342   3.783   2.581  0.1150  0.5511  0.0197
 5879SOL    HW129270   1.392   3.774   2.662  0.1053  0.1141 -0.0229
 5879SOL    HW229271   1.280   3.850   2.609 -2.6834 -0.8585 -2.7358
 5880SOL     OW29272   1.161   3.669   5.458 -0.3002  0.0016  0.0756
 5880SOL    HW129273   1.105   3.603   5.497 -0.4943  0.2142  0.1595
 5880SOL    HW229274   1.154   3.732   5.530  0.2137  0.6559 -0.4492
 5881SOL     OW29275   3.723   3.619   5.007 -0.2070 -0.2319  0.3635
 5881SOL    HW129276   3.729   3.700   4.957 -0.9094 -0.5277 -0.1955
 5881SOL    HW229277   3.806   3.572   4.995 -1.8722 -2.5810 -1.9048
 5882SOL     OW29278   0.323   4.083   4.677  0.0424  0.2768 -0.0238
 5882SOL    HW129279   0.249   4.141   4.695  1.7393  2.4953 -0.2832
 5882SOL    HW229280   0.298   4.041   4.594 -0.7993  1.0512 -0.1623
 5883SOL     OW29281   1.339   2.322   3.651 -0.1169 -0.3891  0.1281
 5883SOL    HW129282   1.336   2.392   3.716  1.1550 -0.3824  0.1798
 5883SOL    HW229283   1.345   2.375   3.571 -0.0396  0.8751  0.9759
 5884SOL     OW29284   1.967   2.471   5.363 -0.3916 -0.2983  0.1161
 5884SOL    HW129285   1.907   2.397   5.358 -1.5369  0.5626  0.9085
 5884SOL    HW229286   2.034   2.434   5.420  0.4624 -1.2526 -1.5130
 5885SOL     OW29287   0.627   0.984   5.775  0.1653  0.1318 -0.7032
 5885SOL    HW129288   0.627   0.925   5.699 -1.2316 -0.5601 -0.1726
 5885SOL    HW229289   0.663   0.926   5.842 -0.0840  0.4633 -0.2862
 5886SOL     OW29290   3.814   3.771  12.879 -0.0304 -0.0914  0.3869
 5886SOL    HW129291   3.882   3.710  12.907  0.8884  0.7916  0.0908
 5886SOL    HW229292   3.761   3.704  12.835  0.3053 -0.9933  1.3597
 5887SOL     OW29293   4.363   3.924  11.888 -0.2973 -0.3202  0.1212
 5887SOL    HW129294   4.430   3.870  11.929 -3.0389 -3.0152  1.0987
 5887SOL    HW229295   4.287   3.909  11.945 -0.8409 -2.2683 -1.0800
 5888SOL     OW29296   1.176   1.417   4.443 -0.1920  0.1745  0.0593
 5888SOL    HW129297   1.173   1.372   4.358  0.2720  0.2247  0.0160
 5888SOL    HW229298   1.254   1.374   4.477 -0.5186 -0.6947 -0.2997
 5889SOL     OW29299   4.397   0.441   0.075 -0.0778 -0.2013  0.0235
 5889SOL    HW129300   4.371   0.533   0.081 -1.3547 -0.5576 -0.1187
 5889SOL    HW229301   4.485   0.454   0.110 -0.1220 -0.7792  0.3526
 5890SOL     OW29302   0.387   0.357  13.415 -0.0005 -0.3710 -0.4626
 5890SOL    HW129303   0.382   0.375  13.321 -0.5453  1.1022 -0.1554
 5890SOL    HW229304   0.413   0.440  13.456 -0.4095 -1.2105  1.4961
 5891SOL     OW29305   0.434   2.375  11.315  0.1433 -0.3358  0.0533
 5891SOL    HW129306   0.530   2.375  11.322  0.0942  0.1616  0.6354
 5891SOL    HW229307   0.407   2.324  11.391 -2.5139 -0.5568 -1.0278
 5892SOL     OW29308   0.167   3.802   0.399  0.2804 -0.5252 -0.2920
 5892SOL    HW129309   0.235   3.741   0.371  2.0935  1.5739 -0.3804
 5892SOL    HW229310   0.089   3.772   0.352 -1.9355 -0.8207  3.5709
 5893SOL     OW29311   4.560   2.326  10.716 -0.1496  0.2358 -0.1026
 5893SOL    HW129312   4.627   2.298  10.778 -1.3939 -1.7298  0.3466
 5893SOL    HW229313   4.551   2.418  10.738  0.1409 -0.0788  1.3168
 5894SOL     OW29314   2.498   2.977   4.116 -0.7375  0.2475 -0.4117
 5894SOL    HW129315   2.533   2.960   4.029  1.3576  1.3031  0.2014
 5894SOL    HW229316   2.405   2.992   4.104 -0.9181  1.9246  2.9997
 5895SOL     OW29317   0.608   0.735   5.184  0.0284 -0.0924  0.7541
 5895SOL    HW129318   0.665   0.674   5.136 -0.5616  0.9096 -1.2161
 5895SOL    HW229319   0.536   0.682   5.220  0.6677 -1.2642  0.3145
 5896SOL     OW29320   0.956   3.736  17.686 -0.0938  0.1964 -0.5784
 5896SOL    HW129321   0.985   3.691  17.607  0.1461 -0.6736  0.0038
 5896SOL    HW229322   0.891   3.801  17.658 -1.4756 -0.2838  1.5045
 5897SOL     OW29323   3.442   2.924   7.348 -0.2489  0.2047 -0.3447
 5897SOL    HW129324   3.421   2.933   7.256 -2.6765 -0.6897  0.1049
 5897SOL    HW229325   3.381   2.851   7.362  0.7444 -0.9405 -2.0897
 5898SOL     OW29326   4.066   2.122  13.699  0.0998  0.7223 -0.2929
 5898SOL    HW129327   4.155   2.155  13.689  0.1138  0.6660 -0.3533
 5898SOL    HW229328   4.019   2.187  13.647 -0.9088  2.0159  2.2124
 5899SOL     OW29329   0.352   4.150   2.698  0.3707  0.0146  1.1262
 5899SOL    HW129330   0.382   4.194   2.619  0.4875 -0.1466  1.0811
 5899SOL    HW229331   0.297   4.078   2.666 -1.4736  2.8874 -2.1074
 5900SOL     OW29332   0.354   0.359   2.909 -0.0153  0.5575 -0.4346
 5900SOL    HW129333   0.293   0.363   2.835 -1.6269 -0.6693  0.8063
 5900SOL    HW229334   0.380   0.449   2.926  1.4797  0.1897 -0.8054
 5901SOL     OW29335   2.742   1.848   2.298 -0.0914  0.0587 -0.0712
 5901SOL    HW129336   2.705   1.765   2.267  2.9666 -0.8617 -1.2695
 5901SOL    HW229337   2.655   1.887   2.309 -0.1430 -0.6192  1.7333
 5902SOL     OW29338   2.880   2.146   6.264  0.2337  0.2049  0.3490
 5902SOL    HW129339   2.954   2.129   6.321  0.3769 -1.5369 -0.3775
 5902SOL    HW229340   2.922   2.120   6.182  0.7740  0.3676  0.5767
 5903SOL     OW29341   3.360   2.904   0.031  0.7720 -0.1445 -0.1242
 5903SOL    HW129342   3.378   2.835   0.095 -0.3080 -0.4142 -0.1113
 5903SOL    HW229343   3.303   2.857  17.730  2.5300 -0.4145 -1.5696
 5904SOL     OW29344   1.152   3.212   5.729  0.5450  0.3482  0.2657
 5904SOL    HW129345   1.199   3.275   5.674 -0.7733  0.1056 -1.1224
 5904SOL    HW229346   1.161   3.127   5.686 -3.0370  1.2223 -2.1910
 5905SOL     OW29347   2.737   2.346   3.141 -0.0554  0.4898  0.1122
 5905SOL    HW129348   2.704   2.353   3.051 -0.3180 -0.5919  0.1201
 5905SOL    HW229349   2.829   2.320   3.133  0.1148  1.3257 -0.6212
 5906SOL     OW29350   0.185   0.742   9.278  0.5552 -1.2827  0.0246
 5906SOL    HW129351   0.164   0.677   9.344 -1.2323 -1.8882 -1.1509
 5906SOL    HW229352   0.242   0.693   9.219 -0.6001  0.4793 -2.5711
 5907SOL     OW29353   3.782   3.493  16.987  0.0820  0.0571 -0.3907
 5907SOL    HW129354   3.819   3.563  16.933 -0.2831  1.5467  1.2728
 5907SOL    HW229355   3.700   3.486  16.939 -0.5938 -0.9105  0.8963
 5908SOL     OW29356   2.557   4.217   4.674 -0.6605 -0.8009  0.2616
 5908SOL    HW129357   2.578   4.124   4.665 -0.4929 -0.7816  0.4736
 5908SOL    HW229358   2.648   4.245   4.676 -0.7640 -0.4217 -0.2544
 5909SOL     OW29359   0.712   2.847   5.218 -0.0837 -0.4567 -0.1456
 5909SOL    HW129360   0.781   2.898   5.177  2.1643 -0.6963  3.3038
 5909SOL    HW229361   0.662   2.917   5.262 -1.1332 -1.6230  0.5256
 5910SOL     OW29362   2.812   1.092   3.521  0.1446 -0.2123 -0.2385
 5910SOL    HW129363   2.727   1.061   3.552  0.9776  0.5506  2.8452
 5910SOL    HW229364   2.860   1.107   3.603  1.4897 -2.3604 -0.6300
 5911SOL     OW29365   4.170   3.795  10.471 -0.5280 -0.0559  0.6837
 5911SOL    HW129366   4.208   3.866  10.419 -1.9222  0.9029  0.9933
 5911SOL    HW229367   4.213   3.713  10.443 -2.0255 -0.6637  0.1712
 5912SOL     OW29368   3.809   3.096  15.653  0.1020  0.7939  0.2362
 5912SOL    HW129369   3.794   3.046  15.572  1.6168  0.6716  0.0281
 5912SOL    HW229370   3.901   3.113  15.634  0.6824 -0.4227  1.9064
 5913SOL     OW29371   1.768   1.266   3.501  0.6010  0.4924 -0.2229
 5913SOL    HW129372   1.851   1.266   3.454 -0.1521 -0.1117 -1.5340
 5913SOL    HW229373   1.736   1.356   3.509 -0.6809  0.1484 -1.3847
 5914SOL     OW29374   3.790   1.842  14.399 -0.0376  0.2300 -0.3152
 5914SOL    HW129375   3.853   1.832  14.471  0.4455  0.7113 -0.6677
 5914SOL    HW229376   3.834   1.788  14.334 -0.5913 -0.8883  0.2279
 5915SOL     OW29377   3.636   1.533  12.252 -0.3831  0.6951 -0.0233
 5915SOL    HW129378   3.636   1.540  12.347 -0.3353 -0.2467  0.0457
 5915SOL    HW229379   3.712   1.477  12.239  0.3162  1.7393 -0.4623
 5916SOL     OW29380   2.431   3.725   1.968 -0.1697 -0.1704 -0.0056
 5916SOL    HW129381   2.372   3.653   1.992  0.7099 -0.4367  1.3670
 5916SOL    HW229382   2.406   3.791   2.033  0.4909 -0.8597  0.9335
 5917SOL     OW29383   2.066   3.317   9.020  0.8353 -0.1812 -0.3124
 5917SOL    HW129384   2.103   3.377   9.085 -0.0974  0.6458 -0.5438
 5917SOL    HW229385   2.047   3.244   9.079  4.4803 -0.9133 -0.0592
 5918SOL     OW29386   1.909   2.810   7.661 -0.0167 -0.3882  0.1175
 5918SOL    HW129387   1.836   2.868   7.684 -0.1959 -1.2098  1.6311
 5918SOL    HW229388   1.927   2.834   7.570  2.2703  1.5181  1.0782
 5919SOL     OW29389   3.772   4.714   5.171 -0.3087  0.7180 -0.1439
 5919SOL    HW129390   3.700   4.689   5.229 -1.6084 -0.5454 -2.3099
 5919SOL    HW229391   3.787   4.634   5.122  0.5742  0.6267  0.2807
 5920SOL     OW29392   1.505   2.098   2.412 -0.1758  0.1748 -0.4253
 5920SOL    HW129393   1.513   2.045   2.492  0.8398  1.4552  0.3234
 5920SOL    HW229394   1.587   2.074   2.370  1.7076  0.7727  2.8785
 5921SOL     OW29395   2.344   0.429   0.744  0.0931  0.5118 -0.0743
 5921SOL    HW129396   2.269   0.371   0.736 -0.3355  1.2328 -1.3150
 5921SOL    HW229397   2.411   0.362   0.754 -0.0231  0.5924  1.2467
 5922SOL     OW29398   0.989   3.455   4.263  0.2455 -0.2739 -0.5476
 5922SOL    HW129399   0.931   3.503   4.203 -0.3931  0.3206  0.5582
 5922SOL    HW229400   1.041   3.529   4.294  1.1364 -1.6808  1.2644
 5923SOL     OW29401   2.902   3.114  11.011 -0.7661  0.3269  0.0259
 5923SOL    HW129402   2.997   3.098  11.005 -0.1959  1.9006  4.4883
 5923SOL    HW229403   2.884   3.092  10.920 -0.3117 -0.4301  0.1165
 5924SOL     OW29404   0.885   2.748  13.161 -0.3472 -0.5694 -0.6313
 5924SOL    HW129405   0.801   2.744  13.115 -0.7351 -1.3926  0.1624
 5924SOL    HW229406   0.892   2.657  13.190 -3.1993 -0.7968 -0.7133
 5925SOL     OW29407   3.829   0.420  14.188  1.1124 -0.0298  0.0206
 5925SOL    HW129408   3.755   0.370  14.221  0.4058  1.4263  0.6186
 5925SOL    HW229409   3.873   0.347  14.145  0.7721 -0.3343  0.1929
 5926SOL     OW29410   1.572   4.727   6.729  0.2339 -0.0976  0.0691
 5926SOL    HW129411   1.555   4.709   6.636  0.0277  0.8617 -0.0736
 5926SOL    HW229412   1.550   0.079   6.726  0.8147 -0.0131 -1.9505
 5927SOL     OW29413   2.756   3.546   3.759 -0.3763 -0.0757  0.2689
 5927SOL    HW129414   2.799   3.543   3.844  0.1077 -0.0087  0.0249
 5927SOL    HW229415   2.834   3.528   3.705  0.0494 -0.2825  0.9589
 5928SOL     OW29416   4.573   0.130   3.588 -0.0214 -0.1335  0.1111
 5928SOL    HW129417   4.558   0.129   3.493  0.0132 -0.1494  0.1057
 5928SOL    HW229418   4.642   0.196   3.592 -0.9916  0.9906 -1.5912
 5929SOL     OW29419   3.617   3.630   2.095  0.5597  0.4491  0.2130
 5929SOL    HW129420   3.536   3.579   2.095  0.5608  0.4356  1.2398
 5929SOL    HW229421   3.678   3.567   2.133 -1.5440 -1.5879  0.1735
 5930SOL     OW29422   1.339   1.036   8.955  0.3418  0.1378  0.2259
 5930SOL    HW129423   1.249   1.010   8.974  0.1729  0.5980  0.0726
 5930SOL    HW229424   1.364   0.989   8.876  1.9749  1.6009 -0.1382
 5931SOL     OW29425   3.766   3.764   7.380 -0.0363 -0.2125 -0.4003
 5931SOL    HW129426   3.714   3.824   7.326  2.3048  1.7358 -0.5209
 5931SOL    HW229427   3.780   3.815   7.460  0.9821  2.2675 -2.1418
 5932SOL     OW29428   4.077   1.611   9.036  0.0308  0.1155 -0.3744
 5932SOL    HW129429   4.063   1.558   8.957 -0.4743  0.4342 -0.5011
 5932SOL    HW229430   4.103   1.695   8.998 -1.2259 -0.3104 -2.1812
 5933SOL     OW29431   0.610   1.937   6.083  0.1269 -0.0559 -0.1095
 5933SOL    HW129432   0.539   1.992   6.116 -0.3692 -1.7013  1.5190
 5933SOL    HW229433   0.556   1.872   6.037  2.0156 -2.4177  0.9942
 5934SOL     OW29434   4.023   3.618   4.588  0.3998  0.5540 -0.0024
 5934SOL    HW129435   3.973   3.611   4.670 -0.5417 -0.0100 -0.6251
 5934SOL    HW229436   3.965   3.662   4.527 -0.3439 -1.1516 -0.5242
 5935SOL     OW29437   3.881   3.449   3.301 -0.1447 -0.3123  0.3515
 5935SOL    HW129438   3.867   3.391   3.375  0.1551 -1.5821 -0.5843
 5935SOL    HW229439   3.792   3.462   3.267  0.7889  2.0144 -1.2988
 5936SOL     OW29440   3.999   4.159   3.216 -0.6171 -0.3979  0.2127
 5936SOL    HW129441   4.036   4.079   3.253 -2.4583 -0.4808  1.8655
 5936SOL    HW229442   4.021   4.147   3.124  0.8794 -1.3370  0.6940
 5937SOL     OW29443   1.348   3.864   8.001  0.8454  0.6953 -0.5865
 5937SOL    HW129444   1.384   3.952   8.006  1.2232  0.3294  3.2537
 5937SOL    HW229445   1.411   3.801   8.036 -2.0689 -1.6645  0.4424
 5938SOL     OW29446   3.715   3.763   9.280  0.0751 -0.5393 -0.0135
 5938SOL    HW129447   3.652   3.765   9.352 -1.4401 -0.2371 -1.3416
 5938SOL    HW229448   3.768   3.840   9.303  1.1532 -1.2099 -0.2467
 5939SOL     OW29449   0.918   1.291   9.220  0.3512 -0.1858  0.1382
 5939SOL    HW129450   0.978   1.359   9.188  1.3999 -0.4772  1.4595
 5939SOL    HW229451   0.944   1.294   9.312  1.5269  0.2129 -0.2050
 5940SOL     OW29452   3.113   3.147   2.790  0.0010  0.3236  0.5311
 5940SOL    HW129453   3.027   3.105   2.782 -0.0600  0.3622  1.0054
 5940SOL    HW229454   3.163   3.072   2.760 -0.3881  0.6175 -0.8669
 5941SOL     OW29455   3.813   3.816  13.618 -0.6638 -0.2280 -0.0984
 5941SOL    HW129456   3.827   3.801  13.712 -1.6413 -0.9761 -0.0821
 5941SOL    HW229457   3.880   3.761  13.577  0.7244 -0.5294  2.5366
 5942SOL     OW29458   3.861   2.555  15.472  0.8240  0.4617 -0.0250
 5942SOL    HW129459   3.925   2.613  15.431 -0.8734  1.2801 -1.5075
 5942SOL    HW229460   3.902   2.470  15.454  0.2592  0.4293 -1.1195
 5943SOL     OW29461   0.912   1.535   3.640  0.0343  0.6315 -0.3163
 5943SOL    HW129462   0.841   1.493   3.688 -1.2442 -0.4966 -3.1720
 5943SOL    HW229463   0.913   1.619   3.687 -0.8907  0.0985  0.6643
 5944SOL     OW29464   3.224   2.990   5.633 -0.3093 -0.4090 -0.2996
 5944SOL    HW129465   3.297   2.935   5.663  0.0971 -0.9081 -2.1796
 5944SOL    HW229466   3.149   2.931   5.642 -0.6425 -0.2592 -1.9616
 5945SOL     OW29467   0.164   1.266   9.832 -0.4430 -0.1952 -0.4683
 5945SOL    HW129468   0.129   1.347   9.793  0.2940  0.3594  0.0243
 5945SOL    HW229469   0.163   1.210   9.754 -0.2897 -0.2472 -0.4321
 5946SOL     OW29470   3.391   1.592   9.423 -0.2131 -0.1934 -0.8060
 5946SOL    HW129471   3.443   1.530   9.475  1.8493  2.9209  0.7825
 5946SOL    HW229472   3.458   1.624   9.363 -0.1813  2.1713  0.4909
 5947SOL     OW29473   1.728   3.369   4.814 -0.3002  0.1720  0.6109
 5947SOL    HW129474   1.744   3.446   4.870 -1.5489 -0.7014  2.1605
 5947SOL    HW229475   1.804   3.317   4.842 -1.2262 -0.6775  1.5397
 5948SOL     OW29476   0.989   0.054   0.718  0.4081 -0.2700 -0.6927
 5948SOL    HW129477   0.994   4.699   0.709  2.7016 -0.3813  2.0133
 5948SOL    HW229478   1.072   0.075   0.674  1.1263  1.5354  1.5308
 5949SOL     OW29479   4.539   2.648   2.894  0.3791 -0.1478  0.2015
 5949SOL    HW129480   4.610   2.690   2.845  1.8658  0.5167  2.9039
 5949SOL    HW229481   4.568   2.560   2.919  1.1039  0.0760  0.1470
 5950SOL     OW29482   3.413   3.599  13.435 -0.0685  0.6558 -0.2583
 5950SOL    HW129483   3.407   3.510  13.401 -0.2661 -0.3472  2.3407
 5950SOL    HW229484   3.483   3.592  13.499 -1.4939 -0.0562  1.2397
 5951SOL     OW29485   2.549   0.539   2.675  0.5477  0.0792 -0.3347
 5951SOL    HW129486   2.596   0.622   2.678  0.0112  0.4218 -1.2754
 5951SOL    HW229487   2.575   0.500   2.758 -0.2412 -0.2927 -0.2575
 5952SOL     OW29488   2.900   1.746  15.268  0.4609 -0.0612  0.3302
 5952SOL    HW129489   2.933   1.792  15.345  1.4552  1.9048 -1.2574
 5952SOL    HW229490   2.982   1.760  15.219  0.3186  1.1295  0.4355
 5953SOL     OW29491   1.725   2.371  17.332 -0.1304  0.4327 -0.2260
 5953SOL    HW129492   1.638   2.382  17.370  1.3098  0.1926  3.1860
 5953SOL    HW229493   1.764   2.458  17.321  2.4602 -0.8461 -1.1043
 5954SOL     OW29494   4.015   2.332  15.451 -0.3931 -0.1367 -0.0509
 5954SOL    HW129495   4.013   2.241  15.420 -1.8611 -0.3095  0.5282
 5954SOL    HW229496   4.008   2.331  15.547  0.4140  2.6181  0.0232
 5955SOL     OW29497   3.983   2.234   2.399 -0.4104 -0.0198 -0.1227
 5955SOL    HW129498   3.929   2.294   2.450 -2.2341 -0.6872 -1.2730
 5955SOL    HW229499   3.955   2.152   2.439 -0.2195  0.1249  0.3002
 5956SOL     OW29500   2.773   3.847  11.118 -0.1268 -0.1438 -0.0557
 5956SOL    HW129501   2.767   3.766  11.068 -1.9026  0.3634 -0.6561
 5956SOL    HW229502   2.806   3.832  11.207 -1.5130 -0.4637  0.4106
 5957SOL     OW29503   4.016   0.025   5.394 -0.4384  0.1535 -0.3375
 5957SOL    HW129504   3.984   0.094   5.452 -3.4224 -0.9095 -0.7440
 5957SOL    HW229505   3.930   4.724   5.389 -0.2477 -0.1833 -0.8709
 5958SOL     OW29506   0.444   0.626   2.902 -0.0723  0.2497  0.5287
 5958SOL    HW129507   0.507   0.603   2.971  1.5989  1.4952 -0.5926
 5958SOL    HW229508   0.492   0.596   2.825 -1.6708 -0.0441 -0.3557
 5959SOL     OW29509   0.761   0.751  13.225  0.1642 -0.0301  0.0656
 5959SOL    HW129510   0.701   0.825  13.237  2.5550  1.8075  0.7222
 5959SOL    HW229511   0.758   0.748  13.130 -0.5523  0.8297  0.0605
 5960SOL     OW29512   3.205   2.361   2.872  0.9531 -0.4054  0.4295
 5960SOL    HW129513   3.167   2.416   2.803  2.2998  1.0168  0.8171
 5960SOL    HW229514   3.297   2.360   2.848  1.2035  0.1537  1.3946
 5961SOL     OW29515   1.005   1.623   3.155  0.4400 -0.1489  0.0010
 5961SOL    HW129516   1.066   1.643   3.226  0.0547  1.9052 -0.2445
 5961SOL    HW229517   0.988   1.710   3.119 -2.8089 -1.7777 -2.3079
 5962SOL     OW29518   2.507   0.155   5.640  0.1260  0.3932 -0.2893
 5962SOL    HW129519   2.452   0.233   5.632 -0.8967 -0.2110  0.9026
 5962SOL    HW229520   2.576   0.193   5.694 -0.2869  2.0154 -0.8877
 5963SOL     OW29521   1.671   2.267  14.310 -0.7957 -0.3376 -0.0044
 5963SOL    HW129522   1.663   2.333  14.241 -2.5497  0.7215  1.2246
 5963SOL    HW229523   1.759   2.239  14.284 -1.4878 -2.2884 -0.2737
 5964SOL     OW29524   2.163   4.531  12.073 -0.5771  0.2602 -0.3837
 5964SOL    HW129525   2.135   4.441  12.060 -1.8607  0.8046 -1.3661
 5964SOL    HW229526   2.258   4.523  12.084  0.0330  5.2007 -2.1230
 5965SOL     OW29527   3.540   4.388   1.875  0.3368  0.4191  0.2879
 5965SOL    HW129528   3.604   4.360   1.810  0.7071 -1.1152  1.3203
 5965SOL    HW229529   3.579   4.461   1.923  0.4340 -0.6158  1.7761
 5966SOL     OW29530   1.168   1.376   8.573  0.2153 -0.6825 -0.2574
 5966SOL    HW129531   1.111   1.403   8.502  1.4818  1.6322 -0.3768
 5966SOL    HW229532   1.163   1.455   8.627  1.0333 -2.2186  2.1164
 5967SOL     OW29533   2.991   2.512   6.732  0.4651 -0.6267  0.1770
 5967SOL    HW129534   2.896   2.508   6.720  0.5666 -0.5790 -0.6178
 5967SOL    HW229535   3.019   2.553   6.650  1.2674 -0.2758  0.6237
 5968SOL     OW29536   0.834   0.399   2.087 -0.2775  0.2530 -0.2279
 5968SOL    HW129537   0.914   0.346   2.083 -1.6288 -1.9004  1.4952
 5968SOL    HW229538   0.812   0.384   2.179  1.5290  1.0184  0.3220
 5969SOL     OW29539   0.220   4.064   8.802 -0.5262  0.4712  0.5282
 5969SOL    HW129540   0.310   4.063   8.772 -0.3457 -0.2442  1.1106
 5969SOL    HW229541   0.170   4.066   8.721 -0.0140  1.3152  0.2297
 5970SOL     OW29542   2.427   2.771   8.526  0.6372 -0.6205 -0.8918
 5970SOL    HW129543   2.460   2.861   8.529  0.0379 -0.4000 -0.8326
 5970SOL    HW229544   2.467   2.735   8.447  0.5012  1.0654 -1.7272
 5971SOL     OW29545   1.455   2.967  17.222  0.0244  0.0005  0.2757
 5971SOL    HW129546   1.446   2.876  17.194  1.1453  0.3221 -1.0926
 5971SOL    HW229547   1.365   2.998  17.209  0.1237  0.6831  1.1596
 5972SOL     OW29548   1.150   0.736  14.326  0.6892 -0.4335  0.3262
 5972SOL    HW129549   1.133   0.799  14.396 -1.4643 -0.5391 -0.0949
 5972SOL    HW229550   1.070   0.747  14.274  2.0520  0.5337 -1.5641
 5973SOL     OW29551   4.278   2.665   2.789 -0.0994 -0.0262 -0.2580
 5973SOL    HW129552   4.357   2.650   2.842  0.8245 -1.1203 -1.9666
 5973SOL    HW229553   4.308   2.690   2.702  1.3884 -0.0911  0.2308
 5974SOL     OW29554   3.231   2.669   0.729 -0.3551 -0.1342  0.0999
 5974SOL    HW129555   3.213   2.763   0.727 -0.9868 -0.2391  0.7960
 5974SOL    HW229556   3.325   2.678   0.746 -0.1136  0.8868 -1.7039
 5975SOL     OW29557   2.808   4.685   2.735 -0.1203 -0.4408  0.1026
 5975SOL    HW129558   2.749   4.677   2.810 -0.7855  0.7229 -0.3091
 5975SOL    HW229559   2.845   4.597   2.742 -1.7782 -1.2604 -1.5981
 5976SOL     OW29560   2.371   4.481   8.915  0.0868  0.3656 -0.4189
 5976SOL    HW129561   2.399   4.391   8.897  0.1847 -0.0687  1.9835
 5976SOL    HW229562   2.370   4.481   9.010  0.3043 -1.6324 -0.4273
 5977SOL     OW29563   2.955   4.038   6.668 -0.4316  0.2542 -0.5817
 5977SOL    HW129564   3.047   4.048   6.642 -0.9336  0.8311 -2.1695
 5977SOL    HW229565   2.953   3.944   6.683  1.0873  0.1339 -1.1907
 5978SOL     OW29566   0.869   1.705   1.694 -0.1428  0.4692 -0.6446
 5978SOL    HW129567   0.899   1.794   1.713  0.2560  0.1079  0.4314
 5978SOL    HW229568   0.955   1.663   1.703 -0.6177  0.0014  1.6914
 5979SOL     OW29569   4.620   0.036  10.011 -0.3408  0.3233  0.0185
 5979SOL    HW129570   4.666   0.112  10.047  2.2160 -0.7200 -1.0792
 5979SOL    HW229571   4.656   0.027   9.923  0.2875 -0.8514  0.3943
 5980SOL     OW29572   4.038   0.175   0.584  0.4181 -0.3457  0.2665
 5980SOL    HW129573   4.051   0.247   0.645  0.7571  0.2277 -0.4857
 5980SOL    HW229574   4.037   0.104   0.649  0.2415 -1.7773 -1.3054
 5981SOL     OW29575   3.758   2.648  10.911 -0.0494 -0.1466  0.3708
 5981SOL    HW129576   3.697   2.698  10.856 -2.1582  0.3068  3.1504
 5981SOL    HW229577   3.813   2.717  10.949 -1.2655  0.5496  0.8790
 5982SOL     OW29578   2.498   4.285   1.814  0.0403  0.5524  0.2079
 5982SOL    HW129579   2.528   4.376   1.814  0.1884  0.4947  1.4523
 5982SOL    HW229580   2.421   4.289   1.870  1.2847 -1.3438  2.0482
 5983SOL     OW29581   0.418   1.595   1.896  0.2658 -0.0305 -0.9861
 5983SOL    HW129582   0.347   1.573   1.956  2.2983 -1.8320  0.7558
 5983SOL    HW229583   0.451   1.505   1.888  0.8874  0.1702 -0.6951
 5984SOL     OW29584   4.200   4.290   2.561  0.2385  0.0811  0.3040
 5984SOL    HW129585   4.271   4.258   2.616 -1.6626 -0.2171  2.5775
 5984SOL    HW229586   4.247   4.295   2.478 -2.8681  0.3641 -1.4389
 5985SOL     OW29587   3.486   0.374   6.040 -0.6990 -0.0663  0.7612
 5985SOL    HW129588   3.461   0.450   5.988  1.3951  0.7076  0.8603
 5985SOL    HW229589   3.574   0.357   6.004 -0.4371 -2.2251  2.3739
 5986SOL     OW29590   4.248   3.621   5.529 -0.2957  0.2175 -0.4607
 5986SOL    HW129591   4.339   3.650   5.523 -0.0531 -0.4980 -0.2156
 5986SOL    HW229592   4.205   3.698   5.567 -1.2709 -1.1617  1.2868
 5987SOL     OW29593   3.797   0.556   2.953  0.7850 -0.0710 -0.2119
 5987SOL    HW129594   3.842   0.605   3.022 -0.4038 -1.1992  1.3641
 5987SOL    HW229595   3.853   0.582   2.880  2.1473  2.9781  1.9290
 5988SOL     OW29596   1.557   0.574  11.013  0.5552  0.2036  0.3659
 5988SOL    HW129597   1.613   0.651  11.023  0.8906 -0.1406  1.1366
 5988SOL    HW229598   1.471   0.606  11.038 -0.0263 -0.7197 -0.4870
 5989SOL     OW29599   2.213   1.374   5.941  0.7649  0.0293  0.3491
 5989SOL    HW129600   2.288   1.433   5.936 -0.5339  1.6838  0.6119
 5989SOL    HW229601   2.249   1.307   5.882 -2.4615 -0.5071 -0.9869
 5990SOL     OW29602   1.676   4.289   1.948  0.1470  0.7953 -0.1769
 5990SOL    HW129603   1.727   4.348   1.892  0.7516  0.2630 -0.1818
 5990SOL    HW229604   1.588   4.320   1.930 -0.7407 -2.4723 -1.3751
 5991SOL     OW29605   1.111   0.679   5.011 -0.1793  0.1402  0.5069
 5991SOL    HW129606   1.085   0.771   5.014  1.9208  0.7886 -1.0049
 5991SOL    HW229607   1.206   0.685   5.000 -0.5667 -0.2373 -3.0698
 5992SOL     OW29608   2.371   3.693   1.149 -0.8695 -0.2079 -0.1062
 5992SOL    HW129609   2.291   3.707   1.099 -0.7037 -1.1234 -0.6224
 5992SOL    HW229610   2.370   3.598   1.150 -1.1281 -0.1927  1.3008
 5993SOL     OW29611   1.203   1.262   2.537  0.4957 -0.2756  0.0911
 5993SOL    HW129612   1.298   1.272   2.546  0.9064 -1.7986 -2.5065
 5993SOL    HW229613   1.176   1.352   2.555  1.3570 -0.1664  0.8218
 5994SOL     OW29614   3.408   0.919   9.778  0.1366 -0.1664 -0.3522
 5994SOL    HW129615   3.314   0.903   9.773  0.4761 -2.4739  0.6748
 5994SOL    HW229616   3.425   0.919   9.683 -0.8489  0.9808 -0.5243
 5995SOL     OW29617   4.604   1.168  10.742 -0.0315 -0.2155 -0.2955
 5995SOL    HW129618   4.586   1.143  10.832 -2.0896 -0.6417 -0.8358
 5995SOL    HW229619   4.530   1.223  10.718  0.1392  0.1862  0.0934
 5996SOL     OW29620   3.575   4.569   8.606 -0.6307 -0.3773 -0.7161
 5996SOL    HW129621   3.609   4.658   8.599 -0.0876 -0.4634  0.9359
 5996SOL    HW229622   3.504   4.570   8.670 -1.0711  0.8544 -1.2387
 5997SOL     OW29623   4.729   0.545  14.056  0.3453 -0.3226 -0.0363
 5997SOL    HW129624   4.685   0.630  14.065 -0.1254 -0.4686 -0.9491
 5997SOL    HW229625   4.654   0.492  14.029  0.5468 -1.0696  0.8585
 5998SOL     OW29626   0.593   2.732   3.375  0.1851  0.1196 -0.8563
 5998SOL    HW129627   0.684   2.702   3.367 -0.0430 -1.2820  1.4956
 5998SOL    HW229628   0.600   2.827   3.380  0.7776  0.0695 -0.6996
 5999SOL     OW29629   1.120   1.826   4.858  0.1143 -0.0630 -0.1765
 5999SOL    HW129630   1.026   1.816   4.842  0.1756 -1.2702  0.2002
 5999SOL    HW229631   1.147   1.742   4.823 -0.9289 -0.2247 -0.5980
 6000SOL     OW29632   0.315   1.499   1.031  0.2421 -0.1323  0.5754
 6000SOL    HW129633   0.398   1.466   1.066  0.9595 -0.3369 -1.3020
 6000SOL    HW229634   0.319   1.594   1.039 -1.7508 -0.2203  2.8229
 6001SOL     OW29635   4.046   1.515   9.398 -0.1130 -0.3698 -0.1136
 6001SOL    HW129636   4.106   1.441   9.410 -0.3701 -0.5790 -0.1391
 6001SOL    HW229637   3.993   1.481   9.326  0.8378 -0.3443 -0.8339
 6002SOL     OW29638   1.605   1.328   7.370  0.3399  0.2224 -0.1802
 6002SOL    HW129639   1.694   1.358   7.351 -0.0305  1.7575  0.5310
 6002SOL    HW229640   1.614   1.240   7.406  1.0794  0.6832  0.7932
 6003SOL     OW29641   1.816   2.503   3.566 -0.1352  0.0621 -0.0393
 6003SOL    HW129642   1.903   2.465   3.578 -0.8115 -0.9073  1.7048
 6003SOL    HW229643   1.851   2.589   3.545  0.0564 -0.2371 -0.9583
 6004SOL     OW29644   0.634   0.545   5.606 -0.2864 -0.3429  0.2659
 6004SOL    HW129645   0.615   0.639   5.604  0.8685 -0.1079  0.4387
 6004SOL    HW229646   0.721   0.548   5.646  0.6223 -1.4062 -1.5980
 6005SOL     OW29647   1.470   3.536   8.996 -0.4976  0.2308 -0.1935
 6005SOL    HW129648   1.556   3.577   8.993 -1.5419  2.3744 -1.7873
 6005SOL    HW229649   1.454   3.529   9.090 -2.7942 -0.6047 -0.6507
 6006SOL     OW29650   2.587   3.424  11.829 -0.0616 -0.6001  0.7828
 6006SOL    HW129651   2.647   3.358  11.796  0.1309 -0.5588  1.0523
 6006SOL    HW229652   2.605   3.505  11.781 -0.5061 -1.2464 -0.4599
 6007SOL     OW29653   1.889   0.184   6.606  0.1923 -0.1495  0.1717
 6007SOL    HW129654   1.973   0.222   6.580 -0.8985  1.5552 -0.8865
 6007SOL    HW229655   1.827   0.195   6.534  0.2891 -2.1400 -0.2140
 6008SOL     OW29656   3.126   0.792  10.748 -0.2259 -0.0638 -0.1043
 6008SOL    HW129657   3.130   0.871  10.694 -0.7169 -1.1496 -1.7439
 6008SOL    HW229658   3.100   0.722  10.687  1.0125 -2.1734  1.7818
 6009SOL     OW29659   0.844   4.091   6.782 -0.2092  0.4302 -0.0452
 6009SOL    HW129660   0.757   4.087   6.822 -0.1973 -2.9807 -0.4076
 6009SOL    HW229661   0.854   4.001   6.750  1.3703  0.3757  0.6102
 6010SOL     OW29662   3.537   1.004   8.606 -0.1539 -0.6436  0.4416
 6010SOL    HW129663   3.530   1.066   8.679  0.7078  0.3301 -0.3040
 6010SOL    HW229664   3.451   1.012   8.564 -0.9316  0.3095  2.2119
 6011SOL     OW29665   2.862   3.299   6.760 -0.0189 -0.3884 -0.0135
 6011SOL    HW129666   2.767   3.286   6.759  0.0256 -0.8993  1.3886
 6011SOL    HW229667   2.863   3.390   6.731 -0.4980 -0.2595  0.3635
 6012SOL     OW29668   0.838   0.479   3.639  0.6219 -0.2352  0.1060
 6012SOL    HW129669   0.875   0.502   3.724  2.4180  1.3157 -1.1182
 6012SOL    HW229670   0.762   0.431   3.672  0.7613 -0.7265 -0.2913
 6013SOL     OW29671   0.431   4.222  10.775  0.1304  0.6055 -0.5448
 6013SOL    HW129672   0.397   4.165  10.706  1.5543  0.1669 -0.8938
 6013SOL    HW229673   0.343   4.236  10.808  0.4124  1.6953 -0.2572
 6014SOL     OW29674   1.536   4.462   3.536  0.5799  0.4601 -0.8193
 6014SOL    HW129675   1.527   4.546   3.491  0.4794 -0.3317 -2.2712
 6014SOL    HW229676   1.448   4.426   3.546  0.7951  0.4038  0.9885
 6015SOL     OW29677   2.220   4.029  15.888  0.2528 -0.3107  0.1206
 6015SOL    HW129678   2.284   4.005  15.955 -0.1201  1.6402  1.1616
 6015SOL    HW229679   2.138   3.983  15.908  1.1057 -0.0924  4.2039
 6016SOL     OW29680   1.256   1.074  13.315 -0.2270 -0.4676 -0.0337
 6016SOL    HW129681   1.197   0.999  13.305  0.9233 -1.5129  1.1299
 6016SOL    HW229682   1.330   1.038  13.363 -2.0116 -0.6552  2.5937
 6017SOL     OW29683   2.680   0.167   8.406  0.2938 -0.4072  0.4523
 6017SOL    HW129684   2.721   0.111   8.340 -0.3626 -3.3734  2.6257
 6017SOL    HW229685   2.734   0.246   8.391 -2.2432  1.7124  2.6306
 6018SOL     OW29686   2.404   4.042  10.876 -0.1606  0.6234  0.6003
 6018SOL    HW129687   2.360   4.123  10.902  0.2202  1.4789 -1.4550
 6018SOL    HW229688   2.350   4.013  10.802  0.8589 -1.7425  0.7644
 6019SOL     OW29689   4.355   2.735   0.003 -0.4694  0.5516  0.0847
 6019SOL    HW129690   4.306   2.725   0.084 -0.7549  1.5303  0.0353
 6019SOL    HW229691   4.314   2.816  17.730  0.5369  1.6110  1.4540
 6020SOL     OW29692   3.457   2.982   7.078  0.0540 -0.4767  0.8530
 6020SOL    HW129693   3.528   2.942   7.028 -1.4297  0.3562 -1.9063
 6020SOL    HW229694   3.409   3.033   7.013 -0.7963 -2.3119  0.0526
 6021SOL     OW29695   1.057   4.626  10.538  0.3829 -0.2148 -0.0710
 6021SOL    HW129696   0.986   4.689  10.526  0.8192  0.1951 -0.4991
 6021SOL    HW229697   1.050   4.629  10.633 -0.3715  0.7889 -0.1560
 6022SOL     OW29698   4.714   1.130  10.991  0.1636 -0.9825  0.0387
 6022SOL    HW129699   4.650   1.110  11.060 -0.1642  0.0891  0.0338
 6022SOL    HW229700   4.714   1.225  11.003  0.1695 -0.8302 -1.2259
 6023SOL     OW29701   2.706   2.661   3.595  0.5590 -0.1252 -0.1007
 6023SOL    HW129702   2.767   2.656   3.522  0.2221  0.8775 -0.4549
 6023SOL    HW229703   2.640   2.712   3.548 -0.1286 -1.4712 -0.5941
 6024SOL     OW29704   2.014   3.905   4.634  0.9529  0.3361 -0.4541
 6024SOL    HW129705   1.945   3.839   4.628  0.6549  0.3545  2.9661
 6024SOL    HW229706   2.048   3.908   4.544  0.0261 -1.2694 -0.8680
 6025SOL     OW29707   0.479   1.296   3.730 -0.0653  0.2513 -0.0795
 6025SOL    HW129708   0.459   1.250   3.812  1.1679 -1.6707 -0.8601
 6025SOL    HW229709   0.524   1.237   3.671 -0.9554 -1.8929  1.4000
 6026SOL     OW29710   1.637   2.164  11.464 -0.3651 -0.0822  0.3286
 6026SOL    HW129711   1.594   2.080  11.450 -1.6683  0.3938  1.4671
 6026SOL    HW229712   1.728   2.135  11.476 -0.8236 -2.5469 -2.2650
 6027SOL     OW29713   1.516   0.289   6.806  0.0418  0.1384  0.4308
 6027SOL    HW129714   1.584   0.345   6.844  0.4311  0.6160 -0.9929
 6027SOL    HW229715   1.468   0.346   6.746  0.0261  0.5018  0.7915
 6028SOL     OW29716   2.514   0.648  17.551 -0.1134 -0.5490  0.2860
 6028SOL    HW129717   2.564   0.675  17.628 -0.5199 -1.6372  0.9416
 6028SOL    HW229718   2.441   0.710  17.559 -0.3460 -0.6384 -1.1587
 6029SOL     OW29719   0.568   1.293   8.237  0.1084  0.3961  0.0281
 6029SOL    HW129720   0.503   1.224   8.226 -1.0977  1.1851  2.2305
 6029SOL    HW229721   0.614   1.260   8.314 -0.2847 -1.1581 -0.4153
 6030SOL     OW29722   3.795   4.578   7.074  0.6479 -0.1753 -0.3419
 6030SOL    HW129723   3.821   4.641   7.007  1.0799  0.2174  0.1923
 6030SOL    HW229724   3.862   4.511   7.066  2.9306  2.2181 -1.3117
 6031SOL     OW29725   3.881   0.306  14.860 -0.0809 -0.1572  0.2778
 6031SOL    HW129726   3.924   0.360  14.794 -0.6742  0.2408  0.2182
 6031SOL    HW229727   3.945   0.236  14.854 -0.0202 -0.0642 -0.1563
 6032SOL     OW29728   0.707   1.468   2.677  0.0531  0.6197  0.1552
 6032SOL    HW129729   0.760   1.388   2.686 -1.7388 -0.3868  1.8480
 6032SOL    HW229730   0.629   1.460   2.732  0.6366  2.8942  1.3257
 6033SOL     OW29731   2.519   0.440   8.220 -0.2286  0.1749  0.5658
 6033SOL    HW129732   2.537   0.393   8.138  1.2292 -2.0783  2.1875
 6033SOL    HW229733   2.454   0.385   8.263  1.4630 -0.5642  2.1512
 6034SOL     OW29734   1.447   0.114  13.981 -0.1743  0.1341 -0.0589
 6034SOL    HW129735   1.484   0.195  13.947  0.4672  0.7545  2.1266
 6034SOL    HW229736   1.401   0.140  14.061 -0.7400  0.0966 -0.3715
 6035SOL     OW29737   3.934   0.752   7.971 -0.4485 -0.5569  0.1135
 6035SOL    HW129738   3.869   0.697   7.927  1.2457 -1.4486 -1.2892
 6035SOL    HW229739   4.012   0.696   7.970  0.4886  0.7570  0.8797
 6036SOL     OW29740   3.847   0.252   7.753  0.0635  0.0709  0.2108
 6036SOL    HW129741   3.793   0.321   7.715  0.0995 -0.1751 -0.2821
 6036SOL    HW229742   3.800   0.171   7.732 -0.0649  0.1175  0.3178
 6037SOL     OW29743   2.953   3.051   2.313 -1.1615  0.2084  0.1935
 6037SOL    HW129744   2.911   3.053   2.228 -0.6002  1.3492 -0.0500
 6037SOL    HW229745   2.878   3.040   2.370 -0.8762 -0.0940  0.5134
 6038SOL     OW29746   4.478   2.840   1.154 -0.3122 -0.5024  0.3054
 6038SOL    HW129747   4.464   2.836   1.249 -0.2797 -2.1271  0.2435
 6038SOL    HW229748   4.387   2.846   1.125  0.8758  1.4213 -2.9967
 6039SOL     OW29749   0.577   0.876  15.117  0.6966  0.3160 -0.0707
 6039SOL    HW129750   0.513   0.941  15.145 -0.1408 -0.6674  0.3099
 6039SOL    HW229751   0.530   0.828  15.049  1.2040  1.0106 -0.9181
 6040SOL     OW29752   4.672   1.860  15.850  0.6490  0.6513  0.0806
 6040SOL    HW129753   4.711   1.905  15.775  1.8629  0.8150  0.8187
 6040SOL    HW229754   4.590   1.828  15.812  1.5908 -3.6491  1.6454
 6041SOL     OW29755   4.290   1.224   2.271 -0.1037  0.3631 -0.1047
 6041SOL    HW129756   4.213   1.248   2.218 -1.3152  0.1716  1.5752
 6041SOL    HW229757   4.311   1.138   2.232 -1.5563  0.7321 -1.7459
 6042SOL     OW29758   2.643   3.722  17.104  0.0402  0.2861 -0.4922
 6042SOL    HW129759   2.737   3.718  17.121  0.4439  3.3038 -2.1193
 6042SOL    HW229760   2.628   3.627  17.095 -0.5948 -0.0225  3.6460
 6043SOL     OW29761   3.962   0.016  12.301 -0.3454 -0.0319  0.0622
 6043SOL    HW129762   3.920   0.004  12.386 -3.3680  0.4218 -1.3433
 6043SOL    HW229763   4.051   0.034  12.328 -0.2207 -1.5625  0.6530
 6044SOL     OW29764   4.554   4.530   8.191  0.0323  0.5845 -0.1732
 6044SOL    HW129765   4.614   4.485   8.251 -0.0273 -0.8470 -1.2000
 6044SOL    HW229766   4.489   4.461   8.188  1.0596 -0.4006  0.2865
 6045SOL     OW29767   1.536   4.017  12.992 -0.1137 -0.2186 -0.2232
 6045SOL    HW129768   1.611   4.056  13.036  1.6526 -3.9721  0.0655
 6045SOL    HW229769   1.551   4.063  12.909  0.8888  0.0155  0.0834
 6046SOL     OW29770   0.326   4.312   3.569  0.1982  0.1170  0.2139
 6046SOL    HW129771   0.406   4.314   3.517 -1.0538 -0.9191 -1.7195
 6046SOL    HW229772   0.325   4.221   3.599 -0.4758 -0.6539 -2.1777
 6047SOL     OW29773   3.198   3.706   6.418  0.7184  0.7071  0.7451
 6047SOL    HW129774   3.211   3.797   6.391 -0.0991  1.0713  1.5722
 6047SOL    HW229775   3.210   3.677   6.328  0.3613  0.5214  0.7562
 6048SOL     OW29776   1.679   1.952   9.500 -0.1261 -0.0067  0.6814
 6048SOL    HW129777   1.674   2.042   9.531 -0.0020  0.1095  0.3639
 6048SOL    HW229778   1.644   1.901   9.574  1.5125 -4.4230 -1.5480
 6049SOL     OW29779   3.690   1.278  17.046  0.7276  0.1316  0.7577
 6049SOL    HW129780   3.745   1.221  17.101  1.5975 -0.0248 -0.2767
 6049SOL    HW229781   3.605   1.249  17.080 -0.0265  0.5002 -0.8229
 6050SOL     OW29782   1.951   0.904   8.293 -0.4660 -0.3850 -0.4098
 6050SOL    HW129783   2.005   0.903   8.373  0.9106  0.3300 -1.3250
 6050SOL    HW229784   2.015   0.938   8.231  0.4200  0.1679  0.7930
 6051SOL     OW29785   3.215   4.527   5.427  0.0294  0.6555 -0.2355
 6051SOL    HW129786   3.310   4.524   5.439 -0.1759  0.4683  1.4128
 6051SOL    HW229787   3.206   4.611   5.381  0.0858  1.8987  2.0042
 6052SOL     OW29788   1.517   3.523  12.545  0.2755 -0.3332  0.3118
 6052SOL    HW129789   1.601   3.556  12.576 -0.4062  1.0493  0.6524
 6052SOL    HW229790   1.460   3.589  12.583 -1.2542 -0.9372 -0.9444
 6053SOL     OW29791   0.771   1.119   7.746  0.5715  1.0448  0.4613
 6053SOL    HW129792   0.812   1.073   7.819 -0.2962  0.0388  0.3032
 6053SOL    HW229793   0.712   1.175   7.797 -0.8395  0.3036 -0.3524
 6054SOL     OW29794   0.942   1.870   8.348  0.3957  0.1545  0.1590
 6054SOL    HW129795   0.886   1.800   8.382 -1.7386  1.6431 -0.2809
 6054SOL    HW229796   0.925   1.847   8.257  0.8606  0.8692 -0.1021
 6055SOL     OW29797   1.092   2.910  13.077  0.3004 -0.7899  0.0283
 6055SOL    HW129798   1.012   2.864  13.099  0.1004 -1.0211 -1.1614
 6055SOL    HW229799   1.163   2.865  13.123 -1.4571 -0.4905  2.9803
 6056SOL     OW29800   2.844   3.220   4.855 -0.2043 -0.3327  0.0024
 6056SOL    HW129801   2.939   3.228   4.859 -0.3021  1.5528 -1.3004
 6056SOL    HW229802   2.837   3.152   4.788  0.5113 -0.2720 -0.1257
 6057SOL     OW29803   2.667   4.126   7.395  0.0423 -0.6236  0.1026
 6057SOL    HW129804   2.711   4.196   7.345 -1.4611  0.3377  0.1307
 6057SOL    HW229805   2.645   4.183   7.469 -1.6271  0.8721 -1.5339
 6058SOL     OW29806   3.907   2.953  15.989  0.6139  0.4312  0.3364
 6058SOL    HW129807   3.875   2.862  15.989  3.0497 -0.4387  0.8882
 6058SOL    HW229808   3.910   2.954  15.893  1.9435  0.1850  0.3824
 6059SOL     OW29809   0.869   4.510   5.999  0.0543  0.0365 -0.3046
 6059SOL    HW129810   0.963   4.530   5.999  0.1602 -0.4718  1.4600
 6059SOL    HW229811   0.848   4.580   5.937  0.3292 -1.7346 -2.3659
 6060SOL     OW29812   1.882   4.733  13.269 -0.8734  0.4409  0.6074
 6060SOL    HW129813   1.909   0.041  13.192 -1.4003  0.7668  0.6299
 6060SOL    HW229814   1.799   0.036  13.290 -0.0183  1.3691  2.0267
 6061SOL     OW29815   3.169   4.481  10.795  0.2810  0.0935  0.4070
 6061SOL    HW129816   3.212   4.484  10.709 -0.3829  1.3565  0.1148
 6061SOL    HW229817   3.101   4.415  10.791 -0.1965  0.5049  1.7276
 6062SOL     OW29818   4.521   1.165   0.278  0.3907  0.1502  0.7088
 6062SOL    HW129819   4.608   1.138   0.306  0.4294  0.1146  0.5575
 6062SOL    HW229820   4.508   1.259   0.294  0.2820  0.1448  0.6502
 6063SOL     OW29821   0.894   4.384   4.859  0.5210  0.1891 -0.3286
 6063SOL    HW129822   0.817   4.342   4.897 -0.9013  1.9759 -1.2273
 6063SOL    HW229823   0.929   4.426   4.938  0.6275 -0.3169 -0.1090
 6064SOL     OW29824   4.095   3.040   2.005  0.4847 -0.2808  0.6081
 6064SOL    HW129825   4.077   2.952   2.039 -2.9785  0.0010 -0.5424
 6064SOL    HW229826   4.045   3.098   2.062 -0.0555 -0.4925  0.3514
 6065SOL     OW29827   2.812   3.581  11.027 -0.0002  0.2024  0.2110
 6065SOL    HW129828   2.842   3.517  11.092  1.2177 -0.8855 -1.4220
 6065SOL    HW229829   2.869   3.548  10.957 -0.1557  1.3349 -0.4380
 6066SOL     OW29830   1.744   1.848   5.357 -0.0535  0.0225  0.3363
 6066SOL    HW129831   1.705   1.762   5.373 -0.8423  0.0970 -1.1651
 6066SOL    HW229832   1.673   1.911   5.373 -1.3826 -1.2061 -0.6488
 6067SOL     OW29833   2.832   0.119  11.637 -0.3289 -0.0554  0.0006
 6067SOL    HW129834   2.871   0.165  11.712  0.8330 -0.3363 -0.4346
 6067SOL    HW229835   2.871   0.032  11.649  0.5146  0.3804  0.4430
 6068SOL     OW29836   2.975   1.707   2.537  0.4346  0.2638 -0.1525
 6068SOL    HW129837   3.045   1.649   2.568  1.6666  0.5967 -2.3540
 6068SOL    HW229838   2.899   1.649   2.531  2.6159 -2.4244 -1.7796
 6069SOL     OW29839   4.127   1.407   5.982  0.1348  0.1389 -0.3541
 6069SOL    HW129840   4.174   1.333   5.942  1.9219  0.1265  1.7965
 6069SOL    HW229841   4.046   1.358   5.993  0.8390 -1.2227 -1.1013
 6070SOL     OW29842   2.683   2.360   4.276  0.4728  0.6029 -0.0745
 6070SOL    HW129843   2.697   2.442   4.229  3.3963  0.0578 -0.1976
 6070SOL    HW229844   2.589   2.343   4.277  0.8155 -1.1822  1.8091
 6071SOL     OW29845   4.340   0.857   0.728 -0.5688 -0.5150  0.6441
 6071SOL    HW129846   4.433   0.876   0.727 -0.5685 -0.4867  1.0734
 6071SOL    HW229847   4.300   0.929   0.678  2.0835  1.0101  0.7489
 6072SOL     OW29848   3.170   1.600   6.362 -0.1078  0.0700 -0.5408
 6072SOL    HW129849   3.159   1.506   6.350  2.2505  0.0076 -2.2279
 6072SOL    HW229850   3.215   1.616   6.280  1.7198 -0.1016  0.4188
 6073SOL     OW29851   4.198   2.549  17.581  0.3314 -0.2137  0.0115
 6073SOL    HW129852   4.249   2.620  17.621 -0.2498 -0.8194  1.8337
 6073SOL    HW229853   4.254   2.472  17.585  1.2196  0.4194 -0.2443
 6074SOL     OW29854   2.629   4.703  10.282  0.5806 -0.2127  0.2681
 6074SOL    HW129855   2.628   4.608  10.295  0.9211 -0.0703  1.3493
 6074SOL    HW229856   2.567   4.735  10.217  1.8331 -0.1284 -0.8871
 6075SOL     OW29857   1.573   1.513   2.024 -0.0394 -0.3058  0.3048
 6075SOL    HW129858   1.508   1.537   2.090  0.7842  0.8501  0.6786
 6075SOL    HW229859   1.651   1.517   2.080  0.4276  0.6703 -0.4126
 6076SOL     OW29860   2.094   1.932   9.108  0.4371 -0.2441  0.3663
 6076SOL    HW129861   2.054   1.846   9.127 -0.2565 -0.8497 -3.9474
 6076SOL    HW229862   2.084   1.976   9.192 -0.4100 -0.4337  0.3746
 6077SOL     OW29863   1.119   0.625  12.067 -0.6101 -0.2622  0.3985
 6077SOL    HW129864   1.158   0.685  12.131 -0.4270 -3.0535  2.9019
 6077SOL    HW229865   1.025   0.633  12.077 -0.6688 -1.2109  0.5268
 6078SOL     OW29866   1.594   0.033   3.699 -0.2363 -0.7870 -0.0007
 6078SOL    HW129867   1.607   0.074   3.784  2.0346 -0.8899 -0.2889
 6078SOL    HW229868   1.673   0.056   3.650  0.3125 -0.0143  1.2480
 6079SOL     OW29869   3.222   3.999  12.174  0.5857 -0.1824 -0.2531
 6079SOL    HW129870   3.212   3.911  12.137 -0.0854 -1.1729  2.2474
 6079SOL    HW229871   3.317   4.008  12.161  0.5026  2.0233  0.7734
 6080SOL     OW29872   0.206   0.588   6.320  0.8395 -0.3473 -0.4139
 6080SOL    HW129873   0.287   0.638   6.331  0.0473  1.3124 -2.0540
 6080SOL    HW229874   0.229   0.495   6.318 -2.7125 -1.3159  2.4399
 6081SOL     OW29875   2.286   3.006   6.407  0.3973 -0.0461  0.1323
 6081SOL    HW129876   2.198   2.978   6.435  0.6818 -0.8724  0.1933
 6081SOL    HW229877   2.260   3.082   6.355 -0.8073 -0.4237  0.1762
 6082SOL     OW29878   4.460   3.515   4.831  0.8438 -0.4015 -0.0034
 6082SOL    HW129879   4.371   3.501   4.798  0.4064  0.3785  0.8416
 6082SOL    HW229880   4.449   3.461   4.910  1.9010 -0.3051  0.2162
 6083SOL     OW29881   3.364   4.255  16.537  0.2924  0.6863  0.5651
 6083SOL    HW129882   3.366   4.161  16.518 -2.6998  1.1356 -1.9618
 6083SOL    HW229883   3.436   4.289  16.484  0.1074  1.1732  0.6201
 6084SOL     OW29884   3.324   3.411   8.198  0.0832  0.3022  0.0672
 6084SOL    HW129885   3.294   3.499   8.173 -0.0629  0.5520  1.1131
 6084SOL    HW229886   3.418   3.418   8.185 -0.0381  1.1820 -0.3379
 6085SOL     OW29887   1.290   1.931   3.832 -0.2860 -0.2327 -0.9818
 6085SOL    HW129888   1.345   1.951   3.756  1.0266  2.2596  0.6047
 6085SOL    HW229889   1.210   1.968   3.795  0.2206  2.7842  0.9365
 6086SOL     OW29890   0.036   3.518   5.228 -0.1190  0.0308 -0.3599
 6086SOL    HW129891   0.003   3.577   5.161  2.0508 -0.0397 -1.5067
 6086SOL    HW229892   0.128   3.544   5.224 -0.4435  1.2479  0.2235
 6087SOL     OW29893   1.526   0.800   3.385  0.0475 -0.0161 -0.3759
 6087SOL    HW129894   1.514   0.873   3.324 -0.6717  1.7162  1.8476
 6087SOL    HW229895   1.617   0.814   3.408 -0.0971  0.4343 -0.0835
 6088SOL     OW29896   4.553   2.259   7.009 -0.1122  0.4197  0.7400
 6088SOL    HW129897   4.528   2.328   7.070  3.5058  1.5892  0.9400
 6088SOL    HW229898   4.597   2.310   6.940  1.8227 -2.1594  0.0639
 6089SOL     OW29899   1.955   4.378   5.575  0.0520  0.0401 -0.0326
 6089SOL    HW129900   1.995   4.293   5.596 -1.2550 -1.2220 -2.7956
 6089SOL    HW229901   1.867   4.365   5.610 -0.0097  1.1497  0.2260
 6090SOL     OW29902   4.029   0.423   3.492  0.1312  0.0648 -0.1645
 6090SOL    HW129903   4.113   0.406   3.535  0.5050  2.2976 -0.0212
 6090SOL    HW229904   3.965   0.369   3.538  1.0992 -0.7266  0.2634
 6091SOL     OW29905   1.885   3.958   9.518 -0.4336 -0.1787 -0.4779
 6091SOL    HW129906   1.851   3.980   9.605 -0.3914 -0.4343 -0.3968
 6091SOL    HW229907   1.819   3.894   9.491 -0.3243 -0.3908 -0.2441
 6092SOL     OW29908   3.239   0.780   7.711 -0.0984 -0.6844  0.5318
 6092SOL    HW129909   3.296   0.827   7.651 -0.5193  0.9398  1.4167
 6092SOL    HW229910   3.276   0.694   7.690  2.2384  0.5096 -0.1614
 6093SOL     OW29911   2.894   0.335   4.913  0.5688 -0.0366 -0.3403
 6093SOL    HW129912   2.905   0.254   4.963  0.3623 -0.9349 -1.7461
 6093SOL    HW229913   2.975   0.372   4.949  0.2450  1.1899 -0.8776
 6094SOL     OW29914   2.850   2.971   2.822  0.2914  0.3034  0.1813
 6094SOL    HW129915   2.819   3.052   2.782 -1.0776  0.0500  0.7437
 6094SOL    HW229916   2.827   2.992   2.912 -1.7054 -1.2337  0.0146
 6095SOL     OW29917   0.824   3.622   4.143  0.4978 -0.3635  0.6640
 6095SOL    HW129918   0.817   3.714   4.167  0.9929 -0.1080 -0.2016
 6095SOL    HW229919   0.775   3.614   4.062  3.1963  1.2225 -1.0995
 6096SOL     OW29920   0.055   2.697   2.166  0.7600 -0.5782 -0.0627
 6096SOL    HW129921   4.730   2.762   2.189 -0.7044 -2.0833 -0.0222
 6096SOL    HW229922   0.126   2.718   2.227  1.2987  0.5362 -1.0614
 6097SOL     OW29923   2.000   4.578  12.375 -0.2285 -0.1956 -0.0782
 6097SOL    HW129924   2.030   4.608  12.289 -0.2435 -1.1714 -0.4288
 6097SOL    HW229925   1.916   4.622  12.391 -1.0934 -2.4598  1.5876
 6098SOL     OW29926   0.639   1.350   3.082  0.1226  0.4844 -0.5583
 6098SOL    HW129927   0.675   1.439   3.074  1.4703 -0.1341 -1.3536
 6098SOL    HW229928   0.660   1.337   3.174 -0.3099 -1.4554 -0.7346
 6099SOL     OW29929   1.374   2.590  12.240  0.7430  0.2400 -0.0703
 6099SOL    HW129930   1.355   2.549  12.325 -0.8400  1.6521  0.2650
 6099SOL    HW229931   1.460   2.631  12.251  1.3632 -0.2830 -2.9796
 6100SOL     OW29932   0.388   1.638   9.448  0.3537  0.2050  0.5853
 6100SOL    HW129933   0.293   1.651   9.444  0.4490  1.0350  1.1014
 6100SOL    HW229934   0.411   1.638   9.541 -0.4544 -0.3769  0.7933
 6101SOL     OW29935   1.577   0.968   5.519  0.0227  0.0390  0.3955
 6101SOL    HW129936   1.594   0.934   5.431 -1.1499  3.2537 -1.0574
 6101SOL    HW229937   1.661   0.956   5.564  0.5441  2.8146  0.1435
 6102SOL     OW29938   0.407   3.420  15.836 -0.1081  0.0468 -0.5768
 6102SOL    HW129939   0.437   3.493  15.783 -1.8590 -0.1396 -1.8530
 6102SOL    HW229940   0.313   3.435  15.844  0.0845  0.8854  0.1102
 6103SOL     OW29941   4.000   0.463   4.907 -0.2637 -0.1601  0.0510
 6103SOL    HW129942   3.969   0.536   4.960  0.8155 -0.9682  1.7727
 6103SOL    HW229943   4.090   0.459   4.938  0.0249 -1.5610 -0.9693
 6104SOL     OW29944   3.602   2.540   6.877 -0.3145  0.1340  0.0664
 6104SOL    HW129945   3.652   2.501   6.805 -0.6678  2.8357 -1.6460
 6104SOL    HW229946   3.671   2.538   6.943 -0.6329  1.4046  0.4385
 6105SOL     OW29947   2.654   1.255   1.936 -0.2235  0.3370 -0.1151
 6105SOL    HW129948   2.616   1.304   2.009 -1.7787 -0.2207 -0.5604
 6105SOL    HW229949   2.743   1.246   1.969 -0.9814 -1.1781  1.4900
 6106SOL     OW29950   0.202   0.966   8.038 -0.2610 -0.4138  1.0405
 6106SOL    HW129951   0.234   0.945   7.950 -0.1646 -0.3315  1.0558
 6106SOL    HW229952   0.188   0.876   8.068 -0.8377 -0.8884 -0.6647
 6107SOL     OW29953   4.729   1.475   8.474 -0.4108 -0.2050 -0.2114
 6107SOL    HW129954   4.729   1.383   8.447 -0.1131 -0.5532  0.9386
 6107SOL    HW229955   4.635   1.491   8.471 -0.4096  0.1727  1.7350
 6108SOL     OW29956   1.516   0.875   4.938 -0.2750 -0.8025 -0.0513
 6108SOL    HW129957   1.437   0.844   4.982 -1.8973 -0.2409 -2.5904
 6108SOL    HW229958   1.550   0.810   4.877 -0.7415 -0.8409 -0.2666
 6109SOL     OW29959   0.189   2.073  14.401  0.4037  0.5144  0.3930
 6109SOL    HW129960   0.157   2.008  14.339 -1.1074  0.8430  0.8304
 6109SOL    HW229961   0.147   2.051  14.484  2.5591  0.4258  1.4509
 6110SOL     OW29962   2.182   4.686   6.049  0.5595 -0.2410 -0.0009
 6110SOL    HW129963   2.091   4.678   6.020  1.1901 -1.7246 -1.6008
 6110SOL    HW229964   2.208   0.032   6.017  1.0555 -0.1493  0.6478
 6111SOL     OW29965   4.009   3.760   9.364 -0.6218 -0.1183 -0.0697
 6111SOL    HW129966   3.935   3.778   9.423 -0.1435  0.0535  0.4699
 6111SOL    HW229967   4.069   3.834   9.368 -0.5390 -0.1059 -1.5425
 6112SOL     OW29968   2.142   3.765   0.945 -0.0307  0.0681 -0.0447
 6112SOL    HW129969   2.117   3.747   1.036 -0.0989  1.3891  0.1946
 6112SOL    HW229970   2.085   3.700   0.902 -1.3610  2.1486 -1.4092
 6113SOL     OW29971   3.216   3.648  17.228 -0.0413  0.5056 -0.3308
 6113SOL    HW129972   3.256   3.606  17.304  0.1393 -1.7981 -1.7335
 6113SOL    HW229973   3.123   3.629  17.236  0.4740 -1.7108  0.1273
 6114SOL     OW29974   3.777   1.864   7.012 -0.2630  0.5837 -0.0574
 6114SOL    HW129975   3.706   1.878   6.950 -1.5609 -1.8499  0.8842
 6114SOL    HW229976   3.811   1.779   6.982  0.3514  0.7207  0.2437
 6115SOL     OW29977   0.966   0.695   6.933 -0.2399  0.8806  0.0875
 6115SOL    HW129978   1.021   0.660   7.004 -1.1416  0.9454  0.8301
 6115SOL    HW229979   0.985   0.788   6.945  0.2156  0.6595  1.1241
 6116SOL     OW29980   3.397   1.560  13.487  0.6288 -1.0923  0.3974
 6116SOL    HW129981   3.408   1.583  13.395 -1.9790  0.4103  0.4450
 6116SOL    HW229982   3.395   1.465  13.483  2.2911 -1.0398 -1.6151
 6117SOL     OW29983   0.901   1.724   9.294  0.1178  0.0112 -0.7778
 6117SOL    HW129984   0.888   1.806   9.342  0.1216 -0.4059 -0.0635
 6117SOL    HW229985   0.932   1.669   9.366 -1.3382  1.5472  1.0077
 6118SOL     OW29986   0.692   1.087   9.248  0.1813  0.1476  0.3703
 6118SOL    HW129987   0.765   1.024   9.253  0.8040  0.8491  0.0396
 6118SOL    HW229988   0.731   1.165   9.287  2.7766 -0.4001 -1.1266
 6119SOL     OW29989   4.350   3.922   4.431  0.1438 -0.3462  0.8191
 6119SOL    HW129990   4.323   3.999   4.381  2.6775 -1.3811 -2.1326
 6119SOL    HW229991   4.341   3.854   4.364 -0.8213  0.2612  0.3294
 6120SOL     OW29992   3.397   3.160  17.686  0.5687 -0.1624  0.2518
 6120SOL    HW129993   3.382   3.075  17.727 -1.5454  0.2084  0.2111
 6120SOL    HW229994   3.478   3.141  17.638 -0.6694 -0.6214 -1.6420
 6121SOL     OW29995   1.884   2.934   8.400 -0.2136  0.4217  0.3612
 6121SOL    HW129996   1.969   2.919   8.441  0.5367  1.5988 -0.7591
 6121SOL    HW229997   1.894   2.870   8.330 -3.2357  0.3134  0.0177
 6122SOL     OW29998   3.440   1.566   4.749 -0.0300  0.2605 -0.0345
 6122SOL    HW129999   3.505   1.602   4.810  0.0947  0.3451 -0.2206
 6122SOL    HW230000   3.373   1.544   4.813  1.0616  1.6881  1.6193
 6123SOL     OW30001   2.101   4.177   6.705 -0.3814  0.5087  0.0895
 6123SOL    HW130002   2.041   4.249   6.687 -0.0877  0.9064  0.6866
 6123SOL    HW230003   2.178   4.204   6.657 -2.0616  4.0574 -0.5744
 6124SOL     OW30004   3.240   1.701   1.121 -0.1358  0.3283 -0.6259
 6124SOL    HW130005   3.286   1.758   1.183 -0.2756  0.0571 -0.2738
 6124SOL    HW230006   3.273   1.740   1.040 -0.8250  2.6701  0.2017
 6125SOL     OW30007   2.697   2.945  16.968  0.1354 -1.0443  0.3051
 6125SOL    HW130008   2.734   2.911  17.050  0.8873  1.0260  0.8385
 6125SOL    HW230009   2.626   2.994  17.009  0.6792 -0.5387  0.6445
 6126SOL     OW30010   4.397   2.030   1.108  0.2184  0.2288  0.2314
 6126SOL    HW130011   4.365   1.944   1.080 -0.3572  0.5688 -0.1583
 6126SOL    HW230012   4.360   2.089   1.043  1.5473 -0.0111 -0.7387
 6127SOL     OW30013   4.044   0.535  14.690 -0.0209 -0.0098 -0.8694
 6127SOL    HW130014   3.973   0.499  14.637 -1.0691  0.4944  0.1827
 6127SOL    HW230015   4.092   0.458  14.721  1.2496 -0.0452 -2.9456
 6128SOL     OW30016   0.609   3.568   6.714  0.1253  0.3937 -0.3300
 6128SOL    HW130017   0.694   3.612   6.715  0.5475 -0.4004 -1.2554
 6128SOL    HW230018   0.564   3.601   6.792 -1.4972 -0.2781 -0.9901
 6129SOL     OW30019   2.814   1.125   3.914  0.0388  0.1192  0.0540
 6129SOL    HW130020   2.875   1.155   3.982 -0.1480 -1.0369  0.7370
 6129SOL    HW230021   2.866   1.086   3.844 -0.3308 -1.2152  0.5173
 6130SOL     OW30022   2.234   1.237  10.120  0.6495 -0.4685  0.0428
 6130SOL    HW130023   2.181   1.169  10.162  0.4038 -1.8214 -2.4662
 6130SOL    HW230024   2.192   1.239  10.035 -0.4221  1.7123  0.6484
 6131SOL     OW30025   1.839   3.650   3.143  0.2804 -0.5464  0.3347
 6131SOL    HW130026   1.906   3.718   3.138  1.1723 -1.4093  0.7827
 6131SOL    HW230027   1.769   3.681   3.085  0.4690  0.3059  0.5659
 6132SOL     OW30028   3.188   0.791   5.580 -0.1385 -0.4881  0.2403
 6132SOL    HW130029   3.093   0.792   5.594 -0.3415 -0.1637 -1.2063
 6132SOL    HW230030   3.228   0.835   5.655  1.1709 -0.7099 -0.3311
 6133SOL     OW30031   2.505   2.711  15.846  0.0665  0.3685  0.1219
 6133SOL    HW130032   2.477   2.803  15.838 -0.7750  0.1416  0.4362
 6133SOL    HW230033   2.599   2.726  15.847 -0.3134  2.7447  0.0891
 6134SOL     OW30034   0.259   1.258   5.461  0.3327 -0.2018 -0.2190
 6134SOL    HW130035   0.221   1.170   5.468 -0.4595 -0.1535 -4.1441
 6134SOL    HW230036   0.235   1.279   5.371  0.4325  1.0982  0.0518
 6135SOL     OW30037   2.878   1.494  17.436  0.4592 -0.2669  0.1773
 6135SOL    HW130038   2.839   1.524  17.355  1.1017  0.6024  0.1933
 6135SOL    HW230039   2.801   1.512  17.490  0.6178  1.3280 -0.1411
 6136SOL     OW30040   1.869   1.659  11.988 -0.5344  0.1106 -0.0113
 6136SOL    HW130041   1.899   1.678  11.899  2.8894  1.7436  1.4852
 6136SOL    HW230042   1.945   1.665  12.046 -0.1374  1.0439 -0.6296
 6137SOL     OW30043   2.424   2.031   5.976 -0.2257 -0.1949  0.1216
 6137SOL    HW130044   2.444   1.938   5.984  1.8311  0.2014 -0.2798
 6137SOL    HW230045   2.496   2.070   6.026  0.0626 -0.2593 -0.2374
 6138SOL     OW30046   0.775   4.160  17.475  0.2110 -0.5029  0.4532
 6138SOL    HW130047   0.800   4.158  17.382  0.3450  0.8027  0.4657
 6138SOL    HW230048   0.839   4.222  17.512  1.3203  0.6118 -3.2600
 6139SOL     OW30049   1.892   1.677   8.853 -0.1977  0.3658  0.2784
 6139SOL    HW130050   1.798   1.691   8.840 -0.0667  0.3300 -0.7045
 6139SOL    HW230051   1.904   1.592   8.811 -1.3975  0.5728 -0.4968
 6140SOL     OW30052   4.231   4.150   4.320 -0.0062 -0.2012  0.6714
 6140SOL    HW130053   4.227   4.172   4.413  0.2339 -1.4299  0.9706
 6140SOL    HW230054   4.271   4.230   4.284  1.0187 -1.0211 -0.0343
 6141SOL     OW30055   0.135   1.084   9.653  0.0731  0.7678 -0.3339
 6141SOL    HW130056   0.211   1.027   9.642  0.3666  1.0121  0.4003
 6141SOL    HW230057   0.083   1.029   9.713  1.6923  1.1730  1.4439
 6142SOL     OW30058   0.025   1.683   8.299 -0.1419  0.2451 -0.1807
 6142SOL    HW130059   0.085   1.635   8.241  0.0273 -0.7607  0.8265
 6142SOL    HW230060   0.003   1.613   8.361 -1.7437 -0.7596 -1.8864
 6143SOL     OW30061   0.965   0.372   4.539 -0.1992  0.1252 -0.5167
 6143SOL    HW130062   0.889   0.395   4.485 -0.6376  1.7777  0.8029
 6143SOL    HW230063   0.994   0.288   4.503  1.4706  1.0221 -1.3111
 6144SOL     OW30064   2.100   3.040  16.582  0.0819  0.0168 -0.0030
 6144SOL    HW130065   2.143   3.018  16.500  0.1880  2.2528 -0.5198
 6144SOL    HW230066   2.116   2.955  16.625  2.5558 -0.6861 -2.3639
 6145SOL     OW30067   2.765   1.073   7.768  0.8771  0.6343  0.2308
 6145SOL    HW130068   2.738   1.165   7.768 -1.1278  0.0510 -2.0302
 6145SOL    HW230069   2.849   1.080   7.723 -0.0033  0.7190 -1.4105
 6146SOL     OW30070   4.372   1.770   2.215  0.6093  0.1039  0.1297
 6146SOL    HW130071   4.408   1.684   2.237 -0.3791 -0.2554  0.3082
 6146SOL    HW230072   4.320   1.741   2.140  1.9348  0.1585 -0.8290
 6147SOL     OW30073   2.025   2.536  11.949  0.0518 -0.0964  0.2588
 6147SOL    HW130074   1.960   2.543  11.879  0.5709 -2.1359 -0.4188
 6147SOL    HW230075   1.973   2.549  12.029 -0.5311  1.8767 -0.4337
 6148SOL     OW30076   1.114   2.380   1.692  0.4833  0.0616 -0.2179
 6148SOL    HW130077   1.170   2.339   1.627 -0.3970 -0.4489 -0.6457
 6148SOL    HW230078   1.097   2.304   1.748 -1.0148  0.8887  0.4459
 6149SOL     OW30079   2.160   3.143  11.216  0.8991 -0.2695  0.3190
 6149SOL    HW130080   2.086   3.185  11.261  1.4679  0.9926  0.0916
 6149SOL    HW230081   2.199   3.221  11.175 -2.7038  0.5807 -1.5029
 6150SOL     OW30082   1.695   3.140   6.602  0.6902 -0.1344  0.0382
 6150SOL    HW130083   1.668   3.050   6.619 -0.1081 -0.3394 -2.3350
 6150SOL    HW230084   1.777   3.141   6.653  0.5117 -0.0787  0.3238
 6151SOL     OW30085   1.133   0.417   8.325  0.8874 -0.0253  0.3878
 6151SOL    HW130086   1.109   0.507   8.346 -0.3500 -1.0719  3.4441
 6151SOL    HW230087   1.064   0.402   8.260  2.9991 -2.8358 -1.2490
 6152SOL     OW30088   2.161   3.653   5.400 -0.3279  0.2133  0.0254
 6152SOL    HW130089   2.154   3.586   5.333  2.7146  2.9152 -2.9572
 6152SOL    HW230090   2.252   3.655   5.431  0.4293 -0.4222 -2.1660
 6153SOL     OW30091   3.970   0.296   5.473  0.1039 -0.7187  0.0520
 6153SOL    HW130092   3.963   0.326   5.382  1.0055 -2.5042 -0.6236
 6153SOL    HW230093   4.050   0.345   5.490 -1.0188  1.2481 -0.3336
 6154SOL     OW30094   3.239   1.587   7.432 -0.2758  0.3820 -0.3791
 6154SOL    HW130095   3.255   1.531   7.356  0.4659  1.1318 -0.7621
 6154SOL    HW230096   3.224   1.668   7.385 -2.9899  1.0615  1.6696
 6155SOL     OW30097   2.514   2.439   3.398 -0.2013 -0.3459  0.0194
 6155SOL    HW130098   2.598   2.484   3.387 -0.2449  0.0799  1.4509
 6155SOL    HW230099   2.498   2.437   3.304  0.6679  2.6451 -0.1744
 6156SOL     OW30100   1.105   3.032   8.572  0.7266 -0.1994 -0.0118
 6156SOL    HW130101   1.065   3.013   8.487 -2.8626  1.3599  1.3521
 6156SOL    HW230102   1.195   3.053   8.548  1.3117 -0.7472  1.7230
 6157SOL     OW30103   2.323   0.507   3.033  1.1264  0.0427 -0.3393
 6157SOL    HW130104   2.275   0.552   3.102 -0.6988 -1.8491 -0.3735
 6157SOL    HW230105   2.264   0.509   2.958  0.2171 -1.8495  0.3189
 6158SOL     OW30106   1.542   2.263   0.756 -0.3874  0.4055 -0.1511
 6158SOL    HW130107   1.489   2.233   0.682  0.2913  0.4557 -0.6584
 6158SOL    HW230108   1.530   2.358   0.750  2.8165  0.8200 -0.0307
 6159SOL     OW30109   1.138   3.714  12.962  0.4347  0.1254  0.0819
 6159SOL    HW130110   1.179   3.785  13.011 -1.7393  1.8711 -0.6375
 6159SOL    HW230111   1.151   3.631  13.007  2.3627 -0.0728 -0.7956
 6160SOL     OW30112   2.262   1.288   4.007 -0.7837 -0.3258 -0.7370
 6160SOL    HW130113   2.352   1.258   4.015 -0.3779  0.7117 -1.4725
 6160SOL    HW230114   2.225   1.249   4.086  0.5202 -1.2524 -0.5927
 6161SOL     OW30115   2.665   2.394   5.263 -0.6192 -0.0318 -0.4196
 6161SOL    HW130116   2.751   2.432   5.246 -0.2576 -0.9578 -0.6812
 6161SOL    HW230117   2.639   2.386   5.171  1.3785  0.1775 -1.0111
 6162SOL     OW30118   1.859   2.826   6.937 -0.2812 -0.2968 -0.1010
 6162SOL    HW130119   1.941   2.873   6.921  1.0981 -2.6608 -0.0055
 6162SOL    HW230120   1.885   2.775   7.014  1.6114  1.3253  0.3365
 6163SOL     OW30121   4.132   3.207   9.068 -0.7045 -0.3200 -0.0924
 6163SOL    HW130122   4.065   3.139   9.075  1.6169 -2.7153 -1.2161
 6163SOL    HW230123   4.132   3.246   9.155 -0.0332  0.5935 -0.4988
 6164SOL     OW30124   3.954   4.087  11.667  0.0936 -0.4351 -0.0256
 6164SOL    HW130125   3.917   4.068  11.581 -0.7746 -1.4020  0.5625
 6164SOL    HW230126   3.884   4.060  11.726 -0.0661 -0.5643 -0.2774
 6165SOL     OW30127   2.841   4.227   4.269 -1.2227 -0.0779 -0.0862
 6165SOL    HW130128   2.751   4.206   4.245 -2.1710  1.0579  2.4683
 6165SOL    HW230129   2.854   4.145   4.317  1.6172  0.1977 -0.3900
 6166SOL     OW30130   4.065   0.138   8.963  0.0223  0.2398  0.2101
 6166SOL    HW130131   4.084   0.200   8.892  0.3563  0.0157  0.1033
 6166SOL    HW230132   4.155   0.117   8.986  0.5180  3.6322  1.2447
 6167SOL     OW30133   0.329   2.684  12.053 -0.2146  0.0223  0.1150
 6167SOL    HW130134   0.363   2.615  12.110 -0.8784 -0.2590  0.1793
 6167SOL    HW230135   0.257   2.633  12.016 -1.2833 -0.5233  2.9488
 6168SOL     OW30136   3.008   2.651   6.509 -0.5427 -0.1954 -0.4791
 6168SOL    HW130137   2.949   2.682   6.440 -0.7811 -1.8928 -1.0434
 6168SOL    HW230138   3.031   2.732   6.555 -1.9273 -0.5946  0.9162
 6169SOL     OW30139   3.543   3.172  16.045 -0.6236 -0.2628 -0.3683
 6169SOL    HW130140   3.576   3.257  16.014  0.1989 -0.9565 -1.4076
 6169SOL    HW230141   3.562   3.123  15.965 -2.6576 -1.3056 -0.1933
 6170SOL     OW30142   2.803   4.194   6.852  0.4401  0.3180  0.1170
 6170SOL    HW130143   2.873   4.151   6.803 -1.0193 -1.2933 -0.5809
 6170SOL    HW230144   2.749   4.117   6.872  1.1209  0.1157  1.1804
 6171SOL     OW30145   0.594   4.305   3.448  0.1133 -0.1482  0.5860
 6171SOL    HW130146   0.604   4.387   3.399 -0.5437  0.8778  2.1916
 6171SOL    HW230147   0.650   4.323   3.523 -0.3437  1.2461  0.5803
 6172SOL     OW30148   2.015   1.915   3.608 -0.3097  1.0374  0.7834
 6172SOL    HW130149   1.950   1.873   3.663 -0.2826 -0.1668 -0.1204
 6172SOL    HW230150   2.028   2.003   3.645 -0.9723  0.9825  1.1370
 6173SOL     OW30151   3.479   0.167   0.707 -0.3452 -0.1250 -0.0532
 6173SOL    HW130152   3.480   0.083   0.753  2.8034  0.4813  0.9900
 6173SOL    HW230153   3.426   0.219   0.768  0.9110 -0.5002  1.3519
 6174SOL     OW30154   0.318   0.871   3.748 -0.3393 -0.3223 -0.2827
 6174SOL    HW130155   0.348   0.905   3.832 -0.1578  0.5060 -0.6888
 6174SOL    HW230156   0.392   0.825   3.707  2.2875  2.2682  1.5383
 6175SOL     OW30157   1.211   3.503   4.027  0.4812 -0.3532 -1.3231
 6175SOL    HW130158   1.206   3.540   4.115  2.3122 -2.1696 -0.4575
 6175SOL    HW230159   1.284   3.547   3.984  2.8411 -2.2231  0.7638
 6176SOL     OW30160   2.520   2.603  12.029 -0.4965 -0.1404 -0.5177
 6176SOL    HW130161   2.460   2.652  12.086  2.4416  0.6089  1.9670
 6176SOL    HW230162   2.571   2.543  12.084 -1.5076 -0.9487 -0.4718
 6177SOL     OW30163   4.555   2.440   8.643  0.3926 -0.2987  0.2676
 6177SOL    HW130164   4.569   2.436   8.738 -1.1376  1.2804  0.5468
 6177SOL    HW230165   4.529   2.348   8.633 -1.3813  0.4030 -1.5662
 6178SOL     OW30166   3.561   1.747   5.747  0.3091 -0.0168  0.3635
 6178SOL    HW130167   3.518   1.810   5.689  0.4967  0.8909  1.2035
 6178SOL    HW230168   3.557   1.790   5.833  0.5156 -2.8792  1.8110
 6179SOL     OW30169   1.360   0.850   6.064  0.7842  0.0243  0.8590
 6179SOL    HW130170   1.368   0.933   6.111 -2.4156  0.1011  1.2719
 6179SOL    HW230171   1.352   0.787   6.137 -0.5110 -1.7158 -0.8036
 6180SOL     OW30172   4.278   1.360   5.471  0.1269 -0.7575 -0.3986
 6180SOL    HW130173   4.359   1.374   5.422 -1.3331 -1.4336 -2.9823
 6180SOL    HW230174   4.274   1.266   5.489  1.8723 -0.2866  2.5134
 6181SOL     OW30175   0.088   3.376   5.516 -0.3433  0.6599 -0.2602
 6181SOL    HW130176   0.016   3.437   5.502 -0.4579  0.3053 -1.2204
 6181SOL    HW230177   0.138   3.385   5.435 -0.9268  2.6228 -0.4011
 6182SOL     OW30178   2.064   3.471   3.768 -0.9123 -0.1003  0.4703
 6182SOL    HW130179   2.033   3.555   3.803  0.4438 -0.3900  2.3352
 6182SOL    HW230180   2.047   3.421   3.848  0.1714 -1.9218 -0.4428
 6183SOL     OW30181   2.753   1.658   8.558 -0.3770 -0.1952 -0.0873
 6183SOL    HW130182   2.790   1.732   8.606  1.6774 -0.6137 -1.0506
 6183SOL    HW230183   2.664   1.647   8.592  0.7995  0.4961  3.1817
 6184SOL     OW30184   1.087   0.090   5.927 -0.4241  0.5414 -0.7478
 6184SOL    HW130185   1.176   0.121   5.909 -0.2767  0.0229 -0.9293
 6184SOL    HW230186   1.103   4.736   5.934  1.2355  0.9023  0.4163
 6185SOL     OW30187   4.228   1.970   3.214 -0.3402  0.1628  0.5173
 6185SOL    HW130188   4.248   1.876   3.214  0.6395  0.3734 -0.6749
 6185SOL    HW230189   4.191   1.980   3.126  2.5305  2.6502 -0.3597
 6186SOL     OW30190   0.077   3.279   7.843 -0.1513  0.3899 -0.5246
 6186SOL    HW130191   0.050   3.368   7.869  1.1774  1.1518 -1.8082
 6186SOL    HW230192   0.064   3.227   7.922  1.7672  2.1724  0.9730
 6187SOL     OW30193   3.870   4.477  11.392 -1.0841  0.0259 -0.3875
 6187SOL    HW130194   3.784   4.437  11.381 -0.3661 -1.3365 -1.0116
 6187SOL    HW230195   3.928   4.403  11.375  0.1456  0.6199  1.1982
 6188SOL     OW30196   1.864   0.478  15.863 -0.4219 -0.3653 -0.0949
 6188SOL    HW130197   1.811   0.535  15.918 -0.6156  0.7885 -1.4594
 6188SOL    HW230198   1.956   0.492  15.887 -0.0305 -2.0000 -0.6905
 6189SOL     OW30199   4.585   3.595   3.318 -0.0406 -0.1594 -0.3028
 6189SOL    HW130200   4.668   3.620   3.359  0.0736  0.3509 -0.8312
 6189SOL    HW230201   4.517   3.625   3.378  2.5309 -0.3485  2.6992
 6190SOL     OW30202   3.285   2.698  17.576 -0.3091 -0.1332 -0.3853
 6190SOL    HW130203   3.301   2.606  17.597 -0.2682 -0.2523 -0.9600
 6190SOL    HW230204   3.190   2.684  17.574 -0.6327  1.7850  1.1934
 6191SOL     OW30205   3.055   1.736   3.635  0.2956 -0.3153  0.0179
 6191SOL    HW130206   3.030   1.662   3.579 -0.8507 -0.4135  0.6682
 6191SOL    HW230207   3.089   1.675   3.701 -0.9581 -0.3808  0.5909
 6192SOL     OW30208   1.741   0.310   1.948 -0.0617 -0.2351 -0.4498
 6192SOL    HW130209   1.751   0.331   1.855 -0.3211 -0.0976 -0.4476
 6192SOL    HW230210   1.824   0.301   1.995 -0.4465  0.7937  0.4356
 6193SOL     OW30211   0.558   2.253   5.548 -0.2241 -0.4219 -0.1307
 6193SOL    HW130212   0.639   2.208   5.575  0.4865  1.6158  1.0678
 6193SOL    HW230213   0.592   2.325   5.495  3.0134 -0.9450  1.2402
 6194SOL     OW30214   1.071   3.195   3.758 -0.0237 -0.7264 -0.0169
 6194SOL    HW130215   1.123   3.144   3.821 -0.2283  0.2325  0.9244
 6194SOL    HW230216   1.018   3.241   3.824 -0.5675 -0.3354 -0.7318
 6195SOL     OW30217   4.005   3.911  17.585  0.3370 -0.0025  0.2503
 6195SOL    HW130218   4.040   3.995  17.555  0.4910  0.3693  1.4562
 6195SOL    HW230219   3.942   3.941  17.652  1.5464  0.1098  1.3333
 6196SOL     OW30220   1.696   1.167   8.282  0.3775  0.0386 -0.5472
 6196SOL    HW130221   1.660   1.186   8.196 -2.2565 -1.5392  0.1845
 6196SOL    HW230222   1.789   1.157   8.261  0.6016  0.7071  0.1050
 6197SOL     OW30223   0.443   4.603  16.390  0.4369  0.2681 -0.4783
 6197SOL    HW130224   0.360   4.624  16.348 -0.1029 -1.7240 -0.4244
 6197SOL    HW230225   0.441   4.663  16.464 -0.2547  1.0931 -1.1696
 6198SOL     OW30226   3.782   0.545   8.587 -0.0907 -0.1104  0.2318
 6198SOL    HW130227   3.735   0.542   8.671 -0.9900  0.1265 -0.2624
 6198SOL    HW230228   3.745   0.625   8.551 -0.1038 -0.2122  0.0199
 6199SOL     OW30229   2.024   2.830  12.256  0.1182  0.2190  1.0492
 6199SOL    HW130230   1.979   2.772  12.317 -3.5369  1.4905 -0.4291
 6199SOL    HW230231   1.967   2.842  12.181  0.0943 -0.5674  0.9481
 6200SOL     OW30232   0.051   3.991   7.947 -0.8067  0.6643 -0.3397
 6200SOL    HW130233   0.039   4.086   7.944  0.9931  0.9023 -0.4433
 6200SOL    HW230234   0.051   3.963   8.039 -0.2495  1.7861 -0.0006
 6201SOL     OW30235   0.476   1.849   3.344  0.1612  0.0380 -0.2918
 6201SOL    HW130236   0.530   1.816   3.416  1.5898  2.3901 -0.2617
 6201SOL    HW230237   0.386   1.838   3.375  0.0695  1.8538  0.1531
 6202SOL     OW30238   0.115   2.449   6.306  0.3048  0.3629  0.3633
 6202SOL    HW130239   0.020   2.448   6.295  0.4990  1.5553 -1.4459
 6202SOL    HW230240   0.108   2.530   6.356  0.5012 -0.3732  1.5746
 6203SOL     OW30241   0.392   2.120  10.654  0.1494  0.2957 -0.3568
 6203SOL    HW130242   0.454   2.116  10.726 -0.0634  1.5156 -0.1016
 6203SOL    HW230243   0.356   2.209  10.658 -0.3160  0.1409 -1.0633
 6204SOL     OW30244   1.207   1.020   3.412 -0.5532  0.0080 -1.1206
 6204SOL    HW130245   1.289   1.068   3.395 -0.3137 -1.0209 -2.8040
 6204SOL    HW230246   1.183   1.054   3.498  2.2008  1.5382 -0.9360
 6205SOL     OW30247   1.649   3.305   5.136 -0.2535  0.7585 -0.3596
 6205SOL    HW130248   1.684   3.352   5.212  0.8617 -1.0756  0.2748
 6205SOL    HW230249   1.730   3.260   5.111 -1.7513 -0.9017 -2.2099
 6206SOL     OW30250   1.929   4.295   3.048  0.3744  0.4020  0.2024
 6206SOL    HW130251   1.836   4.279   3.064  0.4226 -0.7008 -0.5489
 6206SOL    HW230252   1.930   4.312   2.954  0.0909 -0.8920 -0.0454
 6207SOL     OW30253   0.081   1.009  11.400 -0.3296  0.0392 -0.2647
 6207SOL    HW130254   0.049   0.938  11.455 -0.7455  0.0489 -0.4916
 6207SOL    HW230255   4.739   1.042  11.366 -1.0574 -0.3355  1.1431
 6208SOL     OW30256   0.887   2.093  15.549  0.7866  0.5086 -0.0896
 6208SOL    HW130257   0.900   2.086  15.454  0.3293 -0.2438 -0.0909
 6208SOL    HW230258   0.791   2.096  15.547  0.7526 -0.7682 -0.2036
 6209SOL     OW30259   3.108   4.642   7.248 -0.2131 -0.0426  0.0313
 6209SOL    HW130260   3.092   4.561   7.200 -1.6118 -0.5432  1.3526
 6209SOL    HW230261   3.033   4.688   7.210 -0.5066 -1.3015 -0.8872
 6210SOL     OW30262   2.760   1.304  11.202 -0.8961  0.4041  0.2717
 6210SOL    HW130263   2.686   1.363  11.217  0.5637  2.4455 -0.4953
 6210SOL    HW230264   2.712   1.222  11.196  0.6861 -0.6655  2.2863
 6211SOL     OW30265   3.863   1.628   6.288 -0.2994  0.0699 -0.0198
 6211SOL    HW130266   3.924   1.565   6.326 -1.4188 -0.0621  1.5860
 6211SOL    HW230267   3.808   1.643   6.366 -1.1459  0.0156 -0.5994
 6212SOL     OW30268   2.629   1.618   0.691 -0.2841 -0.1087  0.1828
 6212SOL    HW130269   2.710   1.655   0.725  0.1507 -1.2425  0.3733
 6212SOL    HW230270   2.562   1.642   0.754 -0.6394  3.0278 -1.4210
 6213SOL     OW30271   2.150   4.118  17.694 -0.0556  0.0449 -0.4472
 6213SOL    HW130272   2.202   4.040  17.679 -1.1381 -0.4473 -1.6253
 6213SOL    HW230273   2.215   4.180  17.727 -0.0782 -0.9770  1.4882
 6214SOL     OW30274   0.807   2.578   9.849 -0.4045 -0.4865  0.1943
 6214SOL    HW130275   0.876   2.569   9.784  0.9244 -0.9403  1.6500
 6214SOL    HW230276   0.808   2.672   9.869  1.2911 -1.1715  3.3361
 6215SOL     OW30277   4.296   3.209   0.354 -0.5618 -0.7259  0.7368
 6215SOL    HW130278   4.208   3.223   0.318 -0.0538 -1.0322 -0.6444
 6215SOL    HW230279   4.347   3.199   0.274 -1.9859 -1.3475 -0.1044
 6216SOL     OW30280   1.066   0.314   9.903  0.4203  0.0470 -0.3179
 6216SOL    HW130281   0.997   0.367   9.863  0.2228  0.1758  0.1899
 6216SOL    HW230282   1.078   0.362   9.985  2.9790  2.1608 -1.9532
 6217SOL     OW30283   1.737   4.640   0.738  0.3873  0.4804 -0.3718
 6217SOL    HW130284   1.697   4.707   0.794  0.4900 -0.3574  0.6916
 6217SOL    HW230285   1.796   4.594   0.797 -1.0256 -2.7254 -1.4428
 6218SOL     OW30286   2.779   2.900   3.395  0.0349 -0.1681  0.4655
 6218SOL    HW130287   2.843   2.884   3.325  0.3209  2.0944  0.1943
 6218SOL    HW230288   2.713   2.846   3.352  2.5972 -3.7833  1.1451
 6219SOL     OW30289   0.025   1.957   5.023  0.0510 -0.0153 -0.3852
 6219SOL    HW130290   4.690   1.900   5.009 -0.8223  1.4887 -1.7478
 6219SOL    HW230291   0.089   1.888   5.009 -2.5942 -2.6444  0.3778
 6220SOL     OW30292   4.053   3.595   0.732  0.4491 -0.1414 -0.7944
 6220SOL    HW130293   4.050   3.678   0.685  1.3567  0.2586 -0.1466
 6220SOL    HW230294   4.144   3.601   0.760  0.0290  1.3950  0.2818
 6221SOL     OW30295   3.929   1.653   7.530 -0.4939 -0.1845  0.3211
 6221SOL    HW130296   3.957   1.568   7.563  0.1931 -0.0093  0.1900
 6221SOL    HW230297   3.837   1.643   7.507 -0.3138 -1.1059  0.0209
 6222SOL     OW30298   2.766   4.593  17.246 -0.0589  0.8492 -0.4644
 6222SOL    HW130299   2.741   4.665  17.188 -0.8508 -1.1179 -2.5646
 6222SOL    HW230300   2.782   4.524  17.181  0.1228 -0.1529  0.6374
 6223SOL     OW30301   0.168   3.482  15.938  0.0267 -0.4396  0.1580
 6223SOL    HW130302   0.175   3.430  16.018 -1.1532  0.5737  0.9367
 6223SOL    HW230303   0.140   3.566  15.975 -0.0107 -0.3067 -0.1698
 6224SOL     OW30304   2.912   2.918   8.934 -0.5621  0.0543  0.1958
 6224SOL    HW130305   2.918   2.886   8.844 -0.0639 -1.6515  0.8405
 6224SOL    HW230306   2.998   2.959   8.947 -0.2505 -1.0727  1.6935
 6225SOL     OW30307   4.193   3.534  11.849  0.3562 -0.0740  0.6122
 6225SOL    HW130308   4.274   3.507  11.893 -0.2245 -3.3101 -0.3065
 6225SOL    HW230309   4.142   3.459  11.879  0.2685 -0.6391 -0.9680
 6226SOL     OW30310   4.612   3.885   9.258 -0.7687 -0.2924 -0.0970
 6226SOL    HW130311   4.692   3.862   9.209  0.1071 -0.1253  1.2561
 6226SOL    HW230312   4.617   3.979   9.237  2.3196 -0.8490 -1.9412
 6227SOL     OW30313   0.796   3.521   6.971  0.2825  0.0524  0.3318
 6227SOL    HW130314   0.819   3.586   7.039  3.5003  0.1517 -0.8570
 6227SOL    HW230315   0.705   3.545   6.957  0.5274 -0.1538 -1.5546
 6228SOL     OW30316   2.305   4.684   2.919  0.0831  0.3732 -0.4801
 6228SOL    HW130317   2.231   4.675   2.979 -0.2765 -0.5867 -1.0739
 6228SOL    HW230318   2.324   0.035   2.941  0.0512  0.2522  0.0661
 6229SOL     OW30319   2.793   3.188   8.638  0.3562  0.0762  0.2602
 6229SOL    HW130320   2.885   3.160   8.647  0.7998  1.4765  0.0720
 6229SOL    HW230321   2.770   3.205   8.730 -0.1046 -0.2036  0.1955
 6230SOL     OW30322   2.455   3.377  16.161 -0.7341 -0.4262 -0.3544
 6230SOL    HW130323   2.375   3.338  16.196 -1.4311  0.3921 -1.0495
 6230SOL    HW230324   2.496   3.296  16.130 -0.9962 -0.5911 -0.2733
 6231SOL     OW30325   0.528   2.695   7.044 -0.3832  0.0791 -0.4102
 6231SOL    HW130326   0.458   2.749   7.007 -1.9894 -0.6085  1.6057
 6231SOL    HW230327   0.544   2.744   7.125  1.6038  1.0012 -1.3673
 6232SOL     OW30328   4.178   1.798  17.575 -0.4192 -0.3245 -0.3756
 6232SOL    HW130329   4.105   1.789  17.636 -0.4440  1.0614 -0.1996
 6232SOL    HW230330   4.201   1.707  17.556  0.5976 -0.3030  0.7170
 6233SOL     OW30331   3.807   2.680   8.559 -0.1313 -0.6947 -0.2222
 6233SOL    HW130332   3.805   2.746   8.628 -0.8447 -1.2218  0.2561
 6233SOL    HW230333   3.780   2.744   8.493  0.2617 -0.2132  0.0833
 6234SOL     OW30334   1.066   4.047  16.909 -0.8578  0.3457 -0.0323
 6234SOL    HW130335   1.030   3.969  16.952  1.2497 -1.6328 -1.8366
 6234SOL    HW230336   1.158   4.024  16.894 -1.7634 -2.6240 -1.0464
 6235SOL     OW30337   3.959   3.400  16.735  0.2376 -0.4485  0.0786
 6235SOL    HW130338   3.931   3.491  16.739 -0.1790 -0.6776  2.4761
 6235SOL    HW230339   3.872   3.370  16.708 -0.2677 -0.4388  1.7073
 6236SOL     OW30340   1.384   3.654  11.273 -0.2745 -0.2341 -0.2181
 6236SOL    HW130341   1.392   3.560  11.286 -1.8064 -0.5397 -1.4801
 6236SOL    HW230342   1.477   3.674  11.282 -0.4915 -0.3533  2.1231
 6237SOL     OW30343   4.219   1.172   7.175 -0.0306  0.1909 -0.3234
 6237SOL    HW130344   4.143   1.222   7.144 -0.6904 -1.0243 -0.7016
 6237SOL    HW230345   4.273   1.190   7.098 -0.1594 -0.9954 -0.6936
 6238SOL     OW30346   1.950   4.309   7.146 -0.4778 -0.0152  0.5069
 6238SOL    HW130347   1.968   4.303   7.239 -0.7316  0.2793  0.5747
 6238SOL    HW230348   2.015   4.263   7.092 -0.4025  1.5344 -0.7159
 6239SOL     OW30349   1.100   3.235   5.172  0.2956 -0.1359  0.5045
 6239SOL    HW130350   1.079   3.328   5.174 -0.8951 -0.3774 -0.2976
 6239SOL    HW230351   1.156   3.223   5.249  0.9427 -0.3624 -0.0026
 6240SOL     OW30352   3.120   0.879   9.721 -1.1346 -0.3271  0.2192
 6240SOL    HW130353   3.090   0.860   9.632 -0.5739  0.5517 -0.1526
 6240SOL    HW230354   3.070   0.954   9.752  1.6026  0.4096  2.7495
 6241SOL     OW30355   0.298   3.497   3.797  0.7494 -0.0891 -0.2456
 6241SOL    HW130356   0.354   3.493   3.875 -1.5526 -0.8500  1.3682
 6241SOL    HW230357   0.258   3.583   3.800 -0.2700 -0.4904 -2.1736
 6242SOL     OW30358   4.347   0.171   0.216  0.3051  0.3861 -0.0696
 6242SOL    HW130359   4.293   0.200   0.142 -0.9522 -1.4326  0.1169
 6242SOL    HW230360   4.436   0.201   0.196  0.7331 -2.1020 -1.9031
 6243SOL     OW30361   3.085   1.979   2.826 -0.1166 -0.1166 -0.2507
 6243SOL    HW130362   3.058   1.926   2.901  0.6954 -1.1003 -0.6682
 6243SOL    HW230363   3.000   2.006   2.789 -1.1552 -0.4893  1.8472
 6244SOL     OW30364   3.104   0.894   5.319 -0.1318  0.1750  0.2326
 6244SOL    HW130365   3.154   0.835   5.376  0.4805 -0.5858 -1.0937
 6244SOL    HW230366   3.096   0.973   5.372 -0.0502 -0.4173  1.1312
 6245SOL     OW30367   1.945   1.810   9.343  0.5826  0.1559 -0.0489
 6245SOL    HW130368   1.979   1.730   9.382 -0.9559 -0.1482  0.6905
 6245SOL    HW230369   1.967   1.874   9.410 -0.1907  1.0409 -0.6203
 6246SOL     OW30370   2.135   2.039  14.778 -1.0366  0.2026 -0.6177
 6246SOL    HW130371   2.140   2.005  14.868 -2.2491  0.7464 -0.3425
 6246SOL    HW230372   2.222   2.072  14.757 -0.2905 -1.5770 -0.2935
 6247SOL     OW30373   3.702   3.076   1.945  0.6247  0.7969 -0.2719
 6247SOL    HW130374   3.622   3.123   1.969 -0.3646  0.0539 -2.0924
 6247SOL    HW230375   3.730   3.042   2.029 -2.6978 -1.0952  0.0890
 6248SOL     OW30376   2.583   0.931   6.537  0.2384 -0.3118  0.0769
 6248SOL    HW130377   2.498   0.972   6.550  0.9897  1.9008 -2.0348
 6248SOL    HW230378   2.634   0.988   6.595 -0.8374  0.1039  0.6281
 6249SOL     OW30379   3.876   3.827   4.430  0.5605 -0.6333 -0.3469
 6249SOL    HW130380   3.930   3.863   4.360  0.2619  0.5322  0.0371
 6249SOL    HW230381   3.814   3.775   4.377  0.6640  0.8739 -1.9598
 6250SOL     OW30382   0.043   0.923  16.046  0.1040 -0.3025  0.0050
 6250SOL    HW130383   0.085   0.942  16.130  0.7985 -1.5551 -0.0583
 6250SOL    HW230384   4.702   0.973  16.043 -1.2122 -2.4539 -0.1797
 6251SOL     OW30385   0.392   3.278   9.674  0.7434 -0.8418 -0.5055
 6251SOL    HW130386   0.358   3.356   9.630  2.7525  2.4762  3.8088
 6251SOL    HW230387   0.448   3.307   9.746  0.3838  1.2602 -1.0524
 6252SOL     OW30388   1.095   3.300  13.458  0.7436 -0.3876 -0.3152
 6252SOL    HW130389   1.127   3.239  13.525 -2.0908 -2.2355 -0.6531
 6252SOL    HW230390   1.003   3.274  13.455  1.3017 -2.5844  1.3766
 6253SOL     OW30391   0.876   2.406   5.872 -0.5204  0.2440  0.0524
 6253SOL    HW130392   0.789   2.444   5.867  0.3485  2.2646 -0.0078
 6253SOL    HW230393   0.873   2.343   5.944 -0.3884  1.9408  1.5285
 6254SOL     OW30394   1.755   0.740   8.426 -0.0447 -0.1199 -0.0536
 6254SOL    HW130395   1.805   0.807   8.380 -1.1926  0.2744 -0.7370
 6254SOL    HW230396   1.811   0.734   8.504  0.5082 -0.1480 -0.4531
 6255SOL     OW30397   0.017   3.998  10.801  0.1816 -0.7158 -0.1716
 6255SOL    HW130398   4.723   3.911  10.822 -0.4396  0.1737  2.5152
 6255SOL    HW230399   0.011   4.003  10.706 -0.7329  0.2205 -0.0672
 6256SOL     OW30400   0.324   0.876  16.078  0.3803 -0.1882  0.0673
 6256SOL    HW130401   0.264   0.872  16.152  1.0342 -1.8558  0.5141
 6256SOL    HW230402   0.331   0.971  16.065 -1.3998 -0.2342 -1.2800
 6257SOL     OW30403   3.245   4.209   7.334  0.1974  0.1548  0.1331
 6257SOL    HW130404   3.203   4.291   7.361 -0.1901 -0.8735  2.7283
 6257SOL    HW230405   3.186   4.134   7.327  1.0894 -0.3394 -2.1848
 6258SOL     OW30406   0.153   1.508   4.723  0.5745  0.1209 -0.1810
 6258SOL    HW130407   0.060   1.527   4.711  1.2093  1.0654 -3.5329
 6258SOL    HW230408   0.192   1.524   4.637 -0.9660 -2.3920 -1.3446
 6259SOL     OW30409   4.029   2.658   8.822  0.2035 -0.2195  0.0798
 6259SOL    HW130410   4.086   2.735   8.822  0.3989 -0.3443  2.6196
 6259SOL    HW230411   4.084   2.592   8.780 -1.3758 -1.8793  0.6315
 6260SOL     OW30412   0.001   4.193   7.378  0.0764  0.6188 -0.5633
 6260SOL    HW130413   4.707   4.252   7.445 -0.9410 -1.4266  0.7030
 6260SOL    HW230414   0.004   4.119   7.438  0.3468  1.1926  0.1278
 6261SOL     OW30415   1.122   3.865   2.717 -0.0052  0.0318 -0.1667
 6261SOL    HW130416   1.089   3.775   2.721 -1.1764  0.4149 -1.3497
 6261SOL    HW230417   1.150   3.876   2.807 -0.6649 -2.1457  0.2950
 6262SOL     OW30418   3.600   2.035  16.548  0.0061  0.0638 -0.6388
 6262SOL    HW130419   3.579   2.050  16.640  0.5021  0.9570 -0.6688
 6262SOL    HW230420   3.542   1.960  16.537 -0.2228  0.0171  0.9049
 6263SOL     OW30421   2.317   4.045   6.913  0.3946  0.3573  0.2475
 6263SOL    HW130422   2.373   4.101   6.860  2.2416 -1.1003  0.6363
 6263SOL    HW230423   2.327   3.970   6.853  0.3613 -1.4057  2.4376
 6264SOL     OW30424   3.630   0.380   3.091 -0.2300  0.1879 -0.0750
 6264SOL    HW130425   3.551   0.390   3.038  1.9562 -0.3566 -3.4202
 6264SOL    HW230426   3.690   0.442   3.050 -0.5297 -0.8158 -2.0434
 6265SOL     OW30427   3.293   0.109   6.670 -0.4710 -0.5600 -0.0465
 6265SOL    HW130428   3.321   0.046   6.737  0.6147  0.1098  0.1340
 6265SOL    HW230429   3.208   0.134   6.706  1.1393  3.0442  1.2325
 6266SOL     OW30430   3.166   3.650  17.663  0.0685  0.1605 -0.2583
 6266SOL    HW130431   3.128   3.698  17.589 -1.3612 -0.3427  0.1602
 6266SOL    HW230432   3.093   3.600  17.700 -0.1933 -0.0886 -1.1025
 6267SOL     OW30433   0.642   1.607  17.630 -0.2645 -0.0843  0.0685
 6267SOL    HW130434   0.590   1.661  17.690  2.7857  1.0425  1.6923
 6267SOL    HW230435   0.577   1.544  17.599 -1.7502 -0.1329  3.2411
 6268SOL     OW30436   1.860   0.021   1.260 -0.2450  0.4151  0.1812
 6268SOL    HW130437   1.811   0.095   1.226 -0.8017 -1.1276 -2.3767
 6268SOL    HW230438   1.795   4.691   1.253 -0.3845  0.7749 -2.0321
 6269SOL     OW30439   1.306   4.050  10.856  0.1958 -0.0371 -0.1912
 6269SOL    HW130440   1.346   4.136  10.844 -0.5490  0.7268  2.7853
 6269SOL    HW230441   1.302   4.053  10.952 -0.1889  3.9743 -0.3302
 6270SOL     OW30442   3.005   1.065   8.578  0.2039  0.1692 -0.2146
 6270SOL    HW130443   2.972   1.003   8.644  1.2764  2.0707  2.0744
 6270SOL    HW230444   2.928   1.083   8.525  1.4086  3.8378 -0.7050
 6271SOL     OW30445   4.123   0.400   6.138  0.3481  0.0870 -0.5247
 6271SOL    HW130446   4.185   0.333   6.168  0.3608  1.1258  1.7136
 6271SOL    HW230447   4.066   0.415   6.213  0.2691  0.1778 -0.6035
 6272SOL     OW30448   3.849   0.741  14.679 -0.6514 -0.0030 -0.0265
 6272SOL    HW130449   3.824   0.724  14.770  0.4574 -1.5814 -0.0092
 6272SOL    HW230450   3.930   0.689  14.678 -1.5097 -1.3827  1.8528
 6273SOL     OW30451   0.788   3.955  12.673  0.0715 -0.2942  0.1354
 6273SOL    HW130452   0.841   3.878  12.691 -1.6589 -1.0706  1.8775
 6273SOL    HW230453   0.812   4.020  12.739  1.3422  1.0720 -1.6647
 6274SOL     OW30454   2.077   4.264   8.405  0.3872 -0.2216  0.0456
 6274SOL    HW130455   2.023   4.185   8.404  0.7255 -0.4667  1.5779
 6274SOL    HW230456   2.032   4.321   8.467 -0.8660  0.2456 -1.3096
 6275SOL     OW30457   1.639   0.175   9.483  0.2633  0.1472 -0.2715
 6275SOL    HW130458   1.583   0.215   9.549  0.2860 -0.1885 -0.0498
 6275SOL    HW230459   1.586   0.137   9.412  0.4546 -0.1021 -0.2850
 6276SOL     OW30460   2.632   0.149  13.229  0.0136  0.0364  0.0824
 6276SOL    HW130461   2.635   0.053  13.234 -0.9412  0.0396  0.5426
 6276SOL    HW230462   2.578   0.161  13.307  1.8333 -0.4910  1.4345
 6277SOL     OW30463   2.099   3.392  12.880 -0.0415 -0.0354 -0.0409
 6277SOL    HW130464   2.134   3.447  12.950  0.4036 -1.3447  0.7755
 6277SOL    HW230465   2.014   3.436  12.875 -0.3478 -0.4947  1.1520
 6278SOL     OW30466   2.961   3.243   3.669 -0.0390  0.2335  0.0528
 6278SOL    HW130467   2.975   3.336   3.689 -1.9702  0.2376  1.4141
 6278SOL    HW230468   2.877   3.250   3.624 -0.5769 -2.5650  0.6624
 6279SOL     OW30469   3.272   2.234   3.849  0.0187  0.3173  0.0887
 6279SOL    HW130470   3.184   2.216   3.814  0.2814 -1.4885  0.3739
 6279SOL    HW230471   3.271   2.175   3.924  0.2390  0.9513  0.5846
 6280SOL     OW30472   2.027   3.195   1.923  0.1669  0.1530 -0.1791
 6280SOL    HW130473   1.990   3.264   1.978  1.4367 -0.7153  1.7658
 6280SOL    HW230474   2.114   3.230   1.941  0.1337 -0.6360  1.5013
 6281SOL     OW30475   1.381   0.340  10.204  0.0644  0.1077  0.0740
 6281SOL    HW130476   1.421   0.336  10.291 -0.5968 -3.8370  0.2071
 6281SOL    HW230477   1.432   0.403  10.154 -1.6193  2.4867  1.3798
 6282SOL     OW30478   4.694   2.087  10.002  0.4916 -0.8031 -0.3852
 6282SOL    HW130479   4.698   2.176   9.966 -0.2226 -0.4731  0.3336
 6282SOL    HW230480   4.732   2.098  10.090  0.6933 -1.8210 -0.3517
 6283SOL     OW30481   1.303   4.433  13.685  0.3451 -0.1678  0.2795
 6283SOL    HW130482   1.274   4.503  13.742  2.6559  2.3626 -1.6177
 6283SOL    HW230483   1.348   4.483  13.616  0.5254 -2.0283 -0.9672
 6284SOL     OW30484   1.653   1.604   8.186  0.1845 -0.2459 -0.3172
 6284SOL    HW130485   1.636   1.574   8.275  1.5535 -1.6161 -0.5045
 6284SOL    HW230486   1.593   1.679   8.189  2.5191  1.6326 -0.7197
 6285SOL     OW30487   4.490   2.381   4.559 -0.4009  0.0092  0.1022
 6285SOL    HW130488   4.509   2.336   4.641 -0.3565  0.1810  0.1871
 6285SOL    HW230489   4.567   2.437   4.551  0.1706 -0.7796  0.1626
 6286SOL     OW30490   0.737   0.737   8.226 -0.2554 -0.0767 -0.4909
 6286SOL    HW130491   0.735   0.642   8.236  0.5633 -0.0312  0.1484
 6286SOL    HW230492   0.739   0.751   8.321 -1.2220 -0.2444 -0.4452
 6287SOL     OW30493   1.636   4.438   6.407  0.2090 -0.1438  0.0731
 6287SOL    HW130494   1.720   4.410   6.443  0.0840 -0.3117  0.2368
 6287SOL    HW230495   1.651   4.450   6.313  0.7303 -0.2732  0.1441
 6288SOL     OW30496   1.555   3.905   0.597  0.1899 -0.1865 -0.6550
 6288SOL    HW130497   1.614   3.855   0.654 -1.3977  1.7788  2.6967
 6288SOL    HW230498   1.539   3.844   0.524  2.1668 -0.8373 -0.5450
 6289SOL     OW30499   3.654   4.349   4.152 -0.0632 -0.1592  0.0610
 6289SOL    HW130500   3.594   4.332   4.079 -0.8577  0.4989  0.5431
 6289SOL    HW230501   3.601   4.407   4.208  2.8263  2.8161 -0.3311
 6290SOL     OW30502   0.776   1.682  15.121  0.0597 -0.3556 -0.1002
 6290SOL    HW130503   0.841   1.723  15.064  0.5644 -1.7172 -0.5233
 6290SOL    HW230504   0.748   1.606  15.070  1.3933 -0.0596 -1.2659
 6291SOL     OW30505   2.822   1.753   1.846 -0.3321 -0.1107 -0.3193
 6291SOL    HW130506   2.846   1.682   1.786 -0.5954 -2.5478  2.4505
 6291SOL    HW230507   2.905   1.798   1.864 -0.7753 -0.5837  2.9708
 6292SOL     OW30508   4.201   0.908   2.091 -0.1444 -0.0261 -0.0347
 6292SOL    HW130509   4.288   0.917   2.130  0.9412 -0.4917 -2.3649
 6292SOL    HW230510   4.198   0.976   2.024  1.0631  0.5429  0.4938
 6293SOL     OW30511   2.129   0.647   4.137 -0.0634  0.5704  0.0567
 6293SOL    HW130512   2.131   0.700   4.057  1.3456 -0.3411 -0.5145
 6293SOL    HW230513   2.034   0.640   4.146 -0.3652  1.9007 -2.1850
 6294SOL     OW30514   2.485   4.198   6.718 -0.4411 -0.4329  0.2478
 6294SOL    HW130515   2.575   4.169   6.702 -0.2997 -0.8676  1.7901
 6294SOL    HW230516   2.456   4.207   6.627  1.9109  1.8576 -0.2640
 6295SOL     OW30517   2.229   4.213   7.630 -0.0257 -0.2901  0.7806
 6295SOL    HW130518   2.249   4.147   7.695 -1.5639 -0.2368  1.3105
 6295SOL    HW230519   2.252   4.169   7.548 -0.9509 -0.2655  0.5100
 6296SOL     OW30520   2.793   2.038   6.934  0.5459 -0.2581 -0.4439
 6296SOL    HW130521   2.772   2.052   6.842 -0.1375 -1.8837 -0.5437
 6296SOL    HW230522   2.744   1.957   6.949 -2.6575  1.5804 -0.8903
 6297SOL     OW30523   0.509   2.611   1.968  0.4809 -0.3763 -0.1128
 6297SOL    HW130524   0.438   2.573   2.020  0.1104  0.1674 -0.2207
 6297SOL    HW230525   0.543   2.532   1.926 -0.9055 -1.0911  0.0883
 6298SOL     OW30526   2.437   2.987   9.234 -0.1567 -0.1785 -0.2750
 6298SOL    HW130527   2.392   2.939   9.164 -0.2672  2.7146 -2.1936
 6298SOL    HW230528   2.527   2.955   9.225 -0.0370 -0.0100  0.3164
 6299SOL     OW30529   1.890   0.113   8.328 -0.3201  0.3009  0.2901
 6299SOL    HW130530   1.958   0.146   8.268 -0.9748  0.6811 -0.2412
 6299SOL    HW230531   1.821   0.085   8.269  1.0031  1.0055 -1.5917
 6300SOL     OW30532   3.916   2.356  11.059  0.3185 -0.2514 -0.3259
 6300SOL    HW130533   3.957   2.419  11.000  0.2779  2.6909  2.7667
 6300SOL    HW230534   3.958   2.380  11.142 -0.9023  0.8830 -0.0306
 6301SOL     OW30535   4.437   1.443  10.714  0.6171  0.6257 -0.4252
 6301SOL    HW130536   4.532   1.453  10.718  0.3808  2.0882  1.8088
 6301SOL    HW230537   4.408   1.530  10.690  0.7717  0.4845 -1.1162
 6302SOL     OW30538   2.868   4.015   7.617  0.1712 -0.1971 -0.2187
 6302SOL    HW130539   2.845   3.922   7.614 -0.9066 -0.0264  2.6180
 6302SOL    HW230540   2.796   4.059   7.571  0.6039 -0.0128 -0.7272
 6303SOL     OW30541   4.681   2.757   4.032 -0.5943 -0.3584  0.1517
 6303SOL    HW130542   4.615   2.803   3.981  0.8716  0.9364 -0.5955
 6303SOL    HW230543   4.629   2.685   4.067  1.0935 -1.8551 -0.3812
 6304SOL     OW30544   2.319   1.701   2.556 -0.5704 -0.0757  0.3690
 6304SOL    HW130545   2.363   1.647   2.622 -0.2717  0.4977  0.6480
 6304SOL    HW230546   2.256   1.745   2.613 -1.5877 -0.5472 -0.3999
 6305SOL     OW30547   4.687   2.739   3.629  0.5172  0.5030 -0.1605
 6305SOL    HW130548   4.719   2.669   3.686  2.1952  1.2522 -0.1784
 6305SOL    HW230549   4.656   2.689   3.553 -0.5940  1.1258 -0.1122
 6306SOL     OW30550   0.565   0.374  10.649  0.4666  0.4156 -0.4178
 6306SOL    HW130551   0.510   0.445  10.682 -0.5029 -0.3029 -0.4783
 6306SOL    HW230552   0.539   0.309  10.715  0.0598  2.4055  1.3859
 6307SOL     OW30553   0.869   0.967   6.479  0.7348 -0.5880  0.4986
 6307SOL    HW130554   0.926   0.977   6.403  0.3915 -1.6851  0.0961
 6307SOL    HW230555   0.906   0.892   6.525  0.8805 -0.6417  0.2912
 6308SOL     OW30556   4.502   3.440   8.576  0.4013 -0.4452 -0.0172
 6308SOL    HW130557   4.581   3.385   8.577 -1.1182 -2.6401  0.2383
 6308SOL    HW230558   4.445   3.388   8.519 -0.6735 -0.7955  1.3816
 6309SOL     OW30559   3.360   2.894   9.423 -0.3900  0.4004  0.5046
 6309SOL    HW130560   3.363   2.821   9.361  3.8373  1.0509 -0.0589
 6309SOL    HW230561   3.455   2.897   9.430 -0.4619 -2.4454  2.4300
 6310SOL     OW30562   4.563   3.730  11.912  0.5383  0.4929 -0.1797
 6310SOL    HW130563   4.611   3.730  11.995  0.3940 -1.2346 -0.0778
 6310SOL    HW230564   4.624   3.685  11.853 -0.1931 -1.0798  0.2501
 6311SOL     OW30565   3.207   2.715   4.245 -0.0166  0.4438 -0.1431
 6311SOL    HW130566   3.221   2.802   4.207  0.2108  0.4440 -0.0602
 6311SOL    HW230567   3.300   2.692   4.251 -0.1607 -0.6983 -2.4840
 6312SOL     OW30568   1.561   2.700   5.425  0.0368 -0.4103 -0.8380
 6312SOL    HW130569   1.473   2.734   5.412 -0.0643  0.2901  1.7142
 6312SOL    HW230570   1.544   2.612   5.390  1.0464 -0.9024 -0.0849
 6313SOL     OW30571   1.593   0.985   2.251  0.1825  0.4652  0.1458
 6313SOL    HW130572   1.677   1.031   2.256  0.0050  0.8566 -0.5719
 6313SOL    HW230573   1.635   0.898   2.256 -2.6418 -0.9025  0.0997
 6314SOL     OW30574   1.994   3.021   9.026  0.0676  0.0197 -0.4032
 6314SOL    HW130575   1.902   3.034   9.048 -0.0092 -0.2219 -0.5786
 6314SOL    HW230576   1.984   3.030   8.932 -2.3211  1.6763  0.0134
 6315SOL     OW30577   0.171   2.217   6.813  0.3016  0.7487  0.3357
 6315SOL    HW130578   0.136   2.174   6.891 -2.3273  3.0013  0.3937
 6315SOL    HW230579   0.263   2.192   6.821  0.8202  2.0390 -1.5399
 6316SOL     OW30580   4.569   4.661   8.923 -0.7596  0.1725 -0.2527
 6316SOL    HW130581   4.656   4.645   8.886  0.0406  0.7793  1.3168
 6316SOL    HW230582   4.542   4.569   8.932  2.4905 -0.7242  0.6150
 6317SOL     OW30583   2.363   3.869   0.855 -0.5744 -0.3186  0.1197
 6317SOL    HW130584   2.402   3.781   0.849 -0.7863 -0.2625 -2.2113
 6317SOL    HW230585   2.271   3.858   0.879 -0.6520  2.2900  0.9881
 6318SOL     OW30586   4.299   1.299   3.142  0.2595  0.2030  0.1771
 6318SOL    HW130587   4.345   1.302   3.058 -1.8438  1.2211 -0.9364
 6318SOL    HW230588   4.260   1.212   3.136  0.9375  0.0234 -1.6990
 6319SOL     OW30589   1.570   0.588   4.321 -0.4759 -0.1818  0.0985
 6319SOL    HW130590   1.490   0.542   4.295 -1.1144  1.2254 -0.4623
 6319SOL    HW230591   1.572   0.665   4.264  0.2590 -0.8735 -0.8068
 6320SOL     OW30592   0.575   3.276   6.897 -0.0490 -0.3825 -0.2700
 6320SOL    HW130593   0.500   3.327   6.925  0.0360 -1.3507  1.7786
 6320SOL    HW230594   0.602   3.253   6.987 -1.3840  1.4664  0.5946
 6321SOL     OW30595   0.731   4.262   5.238  0.4273 -0.1077  0.1313
 6321SOL    HW130596   0.705   4.190   5.296  0.3824 -1.3583 -1.4302
 6321SOL    HW230597   0.685   4.338   5.274  1.6401  0.0581  1.3370
 6322SOL     OW30598   3.577   1.152   0.524 -0.1876 -0.1088 -0.1518
 6322SOL    HW130599   3.525   1.075   0.547 -0.0370 -0.1761 -0.0360
 6322SOL    HW230600   3.616   1.178   0.607 -2.7629  0.2815  0.9492
 6323SOL     OW30601   1.193   3.541  12.681  0.7292  0.1993  0.7710
 6323SOL    HW130602   1.273   3.582  12.715  0.4956  1.8371 -0.6532
 6323SOL    HW230603   1.222   3.452  12.703 -0.2042 -0.4957 -0.8247
 6324SOL     OW30604   0.927   1.518  11.749 -0.1632 -0.0896 -0.0140
 6324SOL    HW130605   0.888   1.600  11.717 -0.1307  0.5577  1.6002
 6324SOL    HW230606   1.015   1.550  11.767  0.4855 -1.2618 -1.1568
 6325SOL     OW30607   1.846   2.046  12.290 -0.1041 -0.6293  0.0697
 6325SOL    HW130608   1.796   2.034  12.371 -0.7150  0.7485 -0.1017
 6325SOL    HW230609   1.807   1.976  12.237 -1.3050 -1.3654  1.9265
 6326SOL     OW30610   3.919   2.830  15.728  0.3202 -0.1672 -0.1297
 6326SOL    HW130611   3.878   2.750  15.762 -3.3503  1.0968 -1.5670
 6326SOL    HW230612   3.969   2.794  15.654  1.1632  0.3192  0.2136
 6327SOL     OW30613   2.889   4.643   2.240  0.3796  0.6386  0.0531
 6327SOL    HW130614   2.943   4.583   2.189  0.6364 -0.0689  1.1539
 6327SOL    HW230615   2.819   4.657   2.177  1.3504  1.0802 -0.9453
 6328SOL     OW30616   2.446   2.126   8.834 -0.0832 -0.1497  0.3552
 6328SOL    HW130617   2.352   2.123   8.854 -0.3002  0.1332 -0.6422
 6328SOL    HW230618   2.442   2.149   8.741 -1.8243  0.0651  0.4825
 6329SOL     OW30619   3.015   2.380   8.694  0.0221  0.4993  0.3366
 6329SOL    HW130620   2.946   2.430   8.739 -0.8281  0.6406 -1.1212
 6329SOL    HW230621   2.999   2.291   8.725  1.1094 -0.3900 -1.7078
 6330SOL     OW30622   0.092   3.698   1.917  0.0781 -0.0549 -0.3797
 6330SOL    HW130623   0.113   3.604   1.914  2.3685  0.4714 -0.9344
 6330SOL    HW230624   4.738   3.689   1.911 -0.0822  1.4987 -0.1908
 6331SOL     OW30625   4.066   1.679   6.704  0.2794  0.9279 -0.3457
 6331SOL    HW130626   4.094   1.686   6.795 -0.5293 -1.2084  0.0700
 6331SOL    HW230627   3.975   1.708   6.695 -0.1595 -1.0367 -2.3794
 6332SOL     OW30628   2.547   2.319   9.060 -0.3374 -0.4293  0.0402
 6332SOL    HW130629   2.537   2.362   8.975 -2.0472 -0.5433  0.1895
 6332SOL    HW230630   2.635   2.284   9.044  1.2598  3.1376  1.0564
 6333SOL     OW30631   4.280   2.960   5.599 -0.2643  0.2997 -0.3559
 6333SOL    HW130632   4.255   2.867   5.594 -1.1763  0.6055 -1.4893
 6333SOL    HW230633   4.284   2.968   5.694  0.2149 -1.6530 -0.2064
 6334SOL     OW30634   4.043   2.035  14.278 -0.5036  0.4401  0.3085
 6334SOL    HW130635   4.069   2.082  14.199 -0.0243 -0.5125 -0.1123
 6334SOL    HW230636   4.005   1.959  14.233  0.5428  0.4744 -0.6108
 6335SOL     OW30637   1.977   4.311   7.411  0.0976  0.0741 -0.1941
 6335SOL    HW130638   2.003   4.375   7.478  2.6450  1.3230 -2.3679
 6335SOL    HW230639   1.897   4.277   7.451  0.1665 -0.6624 -0.6941
 6336SOL     OW30640   4.093   1.934   2.967  0.1842 -0.1726  0.3307
 6336SOL    HW130641   4.003   1.951   2.938 -0.6975 -3.0296  1.4039
 6336SOL    HW230642   4.104   1.846   2.931  0.1491 -0.0712  0.0723
 6337SOL     OW30643   4.502   3.285   5.490  0.1821  0.7543 -0.3225
 6337SOL    HW130644   4.414   3.253   5.469 -0.1878  1.6341 -0.1092
 6337SOL    HW230645   4.485   3.367   5.537  0.1788  0.1746  0.6823
 6338SOL     OW30646   0.644   0.351   3.757  0.0549 -0.0916 -0.1207
 6338SOL    HW130647   0.588   0.402   3.814 -0.9932  0.3699 -1.5528
 6338SOL    HW230648   0.659   0.272   3.808  1.5957 -1.0269 -2.0022
 6339SOL     OW30649   3.158   1.771   8.657 -0.7065  1.0497  0.0276
 6339SOL    HW130650   3.091   1.815   8.710 -0.4219  1.4094  0.0909
 6339SOL    HW230651   3.155   1.827   8.579  2.3996 -0.8644 -1.4685
 6340SOL     OW30652   3.592   0.118   3.597  0.1766 -0.4726 -0.7659
 6340SOL    HW130653   3.630   0.206   3.590 -1.2795  0.2223  0.1572
 6340SOL    HW230654   3.498   0.121   3.582  0.3827  0.6520 -1.8650
 6341SOL     OW30655   0.367   1.291  13.654  0.2697  0.4547 -0.0806
 6341SOL    HW130656   0.458   1.289  13.624  0.3494 -0.2330  0.1886
 6341SOL    HW230657   0.352   1.196  13.653  2.7502  0.0736 -1.5952
 6342SOL     OW30658   1.456   2.149  16.258 -0.1723 -0.6069  0.0185
 6342SOL    HW130659   1.417   2.206  16.191 -0.5279 -0.9752 -0.0832
 6342SOL    HW230660   1.389   2.081  16.259 -0.2401 -0.5673 -1.8395
 6343SOL     OW30661   0.520   2.564  11.129 -0.1889 -0.3011  0.1795
 6343SOL    HW130662   0.472   2.499  11.181 -0.2026  1.7821  2.7275
 6343SOL    HW230663   0.463   2.568  11.052  0.6608  1.3385 -0.3538
 6344SOL     OW30664   4.541   2.978   6.638 -0.0491  0.1216  0.3099
 6344SOL    HW130665   4.536   3.011   6.727 -0.6003 -1.5781  0.9074
 6344SOL    HW230666   4.506   3.043   6.577 -0.4951 -0.8908 -0.5164
 6345SOL     OW30667   0.593   2.589   2.412  0.3287 -0.1584 -0.5939
 6345SOL    HW130668   0.535   2.562   2.482  0.1738 -0.4241 -0.8256
 6345SOL    HW230669   0.540   2.647   2.357 -1.0853 -1.7970 -0.9252
 6346SOL     OW30670   3.846   3.339   6.942  0.5581  0.3030  0.4598
 6346SOL    HW130671   3.881   3.428   6.947  0.4071  0.3370  0.8776
 6346SOL    HW230672   3.822   3.338   7.034  1.3805  3.5117  0.7255
 6347SOL     OW30673   4.210   3.294  15.092  0.0850 -0.5142  0.1570
 6347SOL    HW130674   4.281   3.330  15.145  0.0261  1.2974 -0.9969
 6347SOL    HW230675   4.134   3.309  15.150  1.7541 -0.8567  2.4415
 6348SOL     OW30676   0.068   0.943   3.802 -0.1774  0.1321 -0.6339
 6348SOL    HW130677   0.161   0.922   3.801 -0.1302  0.4622 -2.2659
 6348SOL    HW230678   0.050   0.898   3.719 -1.1968  1.5504 -1.1790
 6349SOL     OW30679   0.433   2.809   2.306 -0.2463  0.0284  0.0114
 6349SOL    HW130680   0.369   2.833   2.240 -0.6462  0.1793  0.4475
 6349SOL    HW230681   0.484   2.890   2.296  1.6850 -1.1762  0.1820
 6350SOL     OW30682   4.722   1.356   8.822 -0.6802 -0.2048  0.4142
 6350SOL    HW130683   0.040   1.312   8.883  1.6769  1.9287 -0.2937
 6350SOL    HW230684   0.033   1.431   8.793 -0.2175 -0.6880 -0.0057
 6351SOL     OW30685   0.821   4.449   6.733 -0.1542 -0.2514 -0.3851
 6351SOL    HW130686   0.785   4.478   6.816 -0.0807 -0.4811 -0.2722
 6351SOL    HW230687   0.870   4.524   6.700  0.0809 -1.0912 -1.9516
 6352SOL     OW30688   2.192   1.111   5.374  0.1713 -0.4583 -0.3864
 6352SOL    HW130689   2.170   1.136   5.464 -1.0869 -3.7204  0.2198
 6352SOL    HW230690   2.187   1.192   5.323  0.1415 -0.8678 -1.0235
 6353SOL     OW30691   2.987   2.280   2.478 -0.7413  0.2660  0.3128
 6353SOL    HW130692   2.907   2.331   2.495 -1.7096 -0.8614 -0.7972
 6353SOL    HW230693   2.951   2.223   2.410 -0.2348 -0.9609  1.0876
 6354SOL     OW30694   0.284   0.100   8.900  0.0098  0.1836  0.3402
 6354SOL    HW130695   0.255   0.185   8.866 -1.8152 -0.3115  0.7103
 6354SOL    HW230696   0.375   0.124   8.920 -0.0980 -0.9245  2.1742
 6355SOL     OW30697   2.692   0.483   9.043  0.4641  0.2837  0.0558
 6355SOL    HW130698   2.652   0.401   9.014 -1.2561  1.0456  0.3173
 6355SOL    HW230699   2.776   0.438   9.053 -0.7076 -1.7076  1.0771
 6356SOL     OW30700   4.350   4.244   6.064 -0.0055 -0.8159 -0.4592
 6356SOL    HW130701   4.294   4.318   6.039  0.1359 -0.6063 -0.1608
 6356SOL    HW230702   4.405   4.241   5.985  0.0496  1.4931 -0.5062
 6357SOL     OW30703   3.424   0.539   3.846  0.4416 -0.2486 -0.3756
 6357SOL    HW130704   3.513   0.512   3.822  1.2427  2.8562 -0.8931
 6357SOL    HW230705   3.446   0.580   3.930 -2.5110 -0.5518  0.5307
 6358SOL     OW30706   2.994   3.242  15.521  0.8180  0.9299  0.5851
 6358SOL    HW130707   3.005   3.322  15.470  0.8218 -0.2854 -1.3165
 6358SOL    HW230708   2.977   3.183  15.447  0.9865 -2.0357  2.9182
 6359SOL     OW30709   3.180   4.240   1.962  0.0672 -0.2791 -0.0121
 6359SOL    HW130710   3.170   4.209   2.052 -1.2276 -2.3669 -0.8856
 6359SOL    HW230711   3.251   4.302   1.981 -0.0138 -0.1672 -0.0807
 6360SOL     OW30712   0.448   3.036  13.529 -0.0102 -0.3281  0.2177
 6360SOL    HW130713   0.439   2.946  13.498  1.3691 -1.1609  2.2094
 6360SOL    HW230714   0.460   3.029  13.624 -1.1221  0.8415  0.4572
 6361SOL     OW30715   0.732   4.424   8.388  0.3299  0.4039  0.5142
 6361SOL    HW130716   0.752   4.331   8.398  0.8407  0.3858 -0.7894
 6361SOL    HW230717   0.704   4.431   8.297  1.8934  0.0611  0.0068
 6362SOL     OW30718   1.105   4.472   7.819 -0.4156  0.5017 -0.4366
 6362SOL    HW130719   1.188   4.519   7.819 -0.2252  0.1738  0.5586
 6362SOL    HW230720   1.139   4.383   7.829 -0.6165  0.7487  2.4533
 6363SOL     OW30721   0.311   3.299   2.803  0.6978 -0.4017  0.4265
 6363SOL    HW130722   0.362   3.246   2.742 -0.7191 -0.6705 -0.5203
 6363SOL    HW230723   0.379   3.303   2.871  2.4280 -0.5542 -1.3087
 6364SOL     OW30724   2.232   3.602   4.703 -0.6174 -0.5647  0.6931
 6364SOL    HW130725   2.180   3.637   4.776 -0.3164  1.9725 -0.3147
 6364SOL    HW230726   2.271   3.529   4.752 -0.2723 -0.8524 -0.0132
 6365SOL     OW30727   2.488   1.948   3.994  0.2869 -0.8769 -0.0904
 6365SOL    HW130728   2.428   1.879   4.023 -0.4598  0.1405  0.7838
 6365SOL    HW230729   2.440   1.991   3.924 -2.5589 -2.2723  1.0090
 6366SOL     OW30730   0.846   0.436  12.134  0.0100 -0.7185 -0.4601
 6366SOL    HW130731   0.763   0.472  12.104  0.7887  1.7058  0.2912
 6366SOL    HW230732   0.877   0.503  12.195 -1.6096 -3.1850  3.0199
 6367SOL     OW30733   2.776   2.960   2.484  0.0354  0.2878 -0.2560
 6367SOL    HW130734   2.807   2.875   2.454 -3.8657 -1.1563 -0.2217
 6367SOL    HW230735   2.693   2.934   2.523  1.1575 -2.0181  0.6383
 6368SOL     OW30736   0.451   2.092   8.234 -0.1576 -0.3267 -0.2513
 6368SOL    HW130737   0.383   2.115   8.297 -0.2026 -2.2684  0.3931
 6368SOL    HW230738   0.509   2.046   8.294 -2.1920 -0.1991  1.8207
 6369SOL     OW30739   2.447   4.641  16.791 -0.6604 -0.3332 -0.2698
 6369SOL    HW130740   2.407   4.584  16.725  0.3438 -1.4852  0.0980
 6369SOL    HW230741   2.397   4.722  16.797 -1.0461 -0.6821  1.3875
 6370SOL     OW30742   0.820   2.008   8.758  0.1722 -0.1493  0.1982
 6370SOL    HW130743   0.892   2.008   8.696  0.4923 -0.4443  0.5709
 6370SOL    HW230744   0.814   2.101   8.782 -0.2564  0.4965 -2.4801
 6371SOL     OW30745   1.482   1.303   2.580  0.0211  0.3813  0.0517
 6371SOL    HW130746   1.458   1.346   2.662 -0.1122 -0.5150  0.4863
 6371SOL    HW230747   1.565   1.259   2.598  0.0257  0.8266  1.1459
 6372SOL     OW30748   1.901   2.655  12.475  0.3864  0.0095  0.1400
 6372SOL    HW130749   1.863   2.592  12.537  0.3204 -0.9854 -0.9310
 6372SOL    HW230750   1.878   2.632  12.386  2.8604 -0.7725 -0.2768
 6373SOL     OW30751   4.637   3.284   5.243  0.4742 -0.1525  0.2330
 6373SOL    HW130752   4.691   3.363   5.240 -1.3795  0.9414 -3.1915
 6373SOL    HW230753   4.608   3.297   5.333  0.8698 -0.1162  0.3581
 6374SOL     OW30754   1.989   3.994   7.457  0.5013  0.5780  0.5977
 6374SOL    HW130755   1.968   4.027   7.544  2.0670 -0.1167  1.2395
 6374SOL    HW230756   2.050   4.056   7.417  0.6915  0.5869  0.8971
 6375SOL     OW30757   3.187   4.723   1.688 -0.2896 -0.1522  0.4431
 6375SOL    HW130758   3.102   4.726   1.644 -0.0107  1.9083  0.0309
 6375SOL    HW230759   3.190   4.628   1.684 -3.1016 -0.2875  1.3000
 6376SOL     OW30760   2.227   4.181   9.529  0.3173 -0.1965  0.2933
 6376SOL    HW130761   2.142   4.210   9.497  0.0989 -2.0598 -0.8413
 6376SOL    HW230762   2.278   4.208   9.452  1.4029  2.0947  1.8488
 6377SOL     OW30763   3.192   0.103   4.752  0.5476 -0.4058  0.2330
 6377SOL    HW130764   3.141   0.025   4.773 -0.3156  0.2347  0.5282
 6377SOL    HW230765   3.259   0.095   4.819  0.8375  0.2566  0.0263
 6378SOL     OW30766   2.064   4.273  13.674  0.2127  0.5797  0.0701
 6378SOL    HW130767   1.979   4.261  13.631  1.8547 -2.2660 -2.3932
 6378SOL    HW230768   2.115   4.212  13.620 -3.0136 -2.2317  0.1467
 6379SOL     OW30769   3.070   0.334   6.717  0.5612 -0.0289 -0.2092
 6379SOL    HW130770   2.979   0.307   6.723 -0.0318  1.8613 -0.5573
 6379SOL    HW230771   3.054   0.428   6.727 -0.2573 -0.2678  0.8197
 6380SOL     OW30772   2.804   1.938   5.960  0.1296  0.3498 -0.7075
 6380SOL    HW130773   2.794   1.949   5.866  0.4990 -0.2392 -0.8179
 6380SOL    HW230774   2.878   1.877   5.957 -1.1175 -1.3663  2.3723
 6381SOL     OW30775   4.306   2.252  13.683 -0.7440  0.2472 -0.1391
 6381SOL    HW130776   4.377   2.195  13.657  0.0001  0.4008  1.5501
 6381SOL    HW230777   4.349   2.336  13.701 -0.3234  0.0116 -0.0614
 6382SOL     OW30778   2.103   1.663   4.480 -0.1582 -0.7373  0.5869
 6382SOL    HW130779   2.106   1.573   4.448  0.9402  0.0071 -1.4166
 6382SOL    HW230780   2.017   1.663   4.522 -0.6817  0.6098 -0.4978
 6383SOL     OW30781   1.089   3.233   6.949  0.3812 -0.4542  0.1152
 6383SOL    HW130782   1.182   3.247   6.938  0.2664 -0.1639 -0.4754
 6383SOL    HW230783   1.054   3.267   6.867  0.2452  0.0465  0.3789
 6384SOL     OW30784   3.223   0.664  13.831 -0.4620  0.4839 -0.0996
 6384SOL    HW130785   3.265   0.675  13.746  0.5921  0.5280  0.4175
 6384SOL    HW230786   3.168   0.741  13.842  0.2035  0.7861  1.1264
 6385SOL     OW30787   1.012   3.490   6.409  0.9441  0.6756  0.0254
 6385SOL    HW130788   1.081   3.425   6.397  1.7602  1.4524  0.4060
 6385SOL    HW230789   0.935   3.446   6.376  2.0994 -0.5298 -1.0693
 6386SOL     OW30790   4.368   0.980   5.036 -0.3134  0.2792 -0.2260
 6386SOL    HW130791   4.355   1.073   5.020 -0.7771 -0.0588 -1.8453
 6386SOL    HW230792   4.299   0.942   4.981  0.0101 -0.7185  0.0603
 6387SOL     OW30793   0.812   2.656   7.878  0.0575 -0.1813  0.1916
 6387SOL    HW130794   0.764   2.736   7.858  0.9478  0.3110  0.0562
 6387SOL    HW230795   0.894   2.695   7.906  1.4754 -1.3269 -2.4077
 6388SOL     OW30796   0.388   0.977   5.084  0.7836 -0.0696  0.1559
 6388SOL    HW130797   0.372   1.064   5.049 -0.0174 -0.1357  0.3648
 6388SOL    HW230798   0.399   0.922   5.006  1.2264  1.5699 -0.9264
 6389SOL     OW30799   2.879   1.313   1.740  0.3921 -0.2683 -0.0381
 6389SOL    HW130800   2.859   1.395   1.696 -1.8280  1.5672  4.3784
 6389SOL    HW230801   2.794   1.283   1.771  0.6404  0.4495  1.3746
 6390SOL     OW30802   0.037   0.772  11.528  0.1616 -0.0371  0.2983
 6390SOL    HW130803   0.047   0.808  11.616  1.3205  0.9121 -0.2368
 6390SOL    HW230804   0.022   0.682  11.558  2.7643 -0.4199  0.4594
 6391SOL     OW30805   0.141   1.175  14.126  0.1231 -0.6023  0.5495
 6391SOL    HW130806   0.236   1.164  14.119 -0.0561 -0.7673 -1.6470
 6391SOL    HW230807   0.133   1.260  14.169  3.1601 -0.9385  1.7701
 6392SOL     OW30808   0.832   1.723  10.384 -0.0941  0.2265 -0.0397
 6392SOL    HW130809   0.755   1.772  10.414  0.2214  0.4440  0.4193
 6392SOL    HW230810   0.794   1.636  10.390  0.0199  0.1821  0.0375
 6393SOL     OW30811   3.718   3.408  17.242  0.4986 -0.3496 -0.0565
 6393SOL    HW130812   3.730   3.484  17.300 -0.4930 -0.3470  0.1404
 6393SOL    HW230813   3.739   3.446  17.157  0.6807 -1.9694 -0.7350
 6394SOL     OW30814   3.370   1.917   3.676 -0.5655  0.1944  0.5334
 6394SOL    HW130815   3.360   1.968   3.596 -2.0055 -1.1547 -0.1444
 6394SOL    HW230816   3.366   1.826   3.644 -2.3737  0.6282 -0.4957
 6395SOL     OW30817   4.034   3.510   8.439 -0.2140 -0.5378 -0.5100
 6395SOL    HW130818   4.100   3.575   8.461  1.9493 -3.2745  1.0831
 6395SOL    HW230819   3.977   3.514   8.516  1.6673 -0.1710  0.8468
 6396SOL     OW30820   2.563   4.440   5.450 -0.5582  0.4925  0.6962
 6396SOL    HW130821   2.481   4.430   5.498 -0.5362 -0.0427  0.6249
 6396SOL    HW230822   2.602   4.516   5.493  0.2309 -0.9846  2.5826
 6397SOL     OW30823   2.946   3.361   8.877 -0.1114 -0.7576  0.0022
 6397SOL    HW130824   2.856   3.329   8.884 -0.3372  0.4900  3.0221
 6397SOL    HW230825   2.989   3.327   8.956 -1.7833  1.3250  1.7738
 6398SOL     OW30826   2.542   4.033  11.150 -0.6349 -0.1433  0.0186
 6398SOL    HW130827   2.621   3.981  11.137  0.3318  1.3024  0.1443
 6398SOL    HW230828   2.538   4.062  11.059 -1.6863 -0.1287  0.0632
 6399SOL     OW30829   2.614   0.115   1.483  0.5510 -0.7052  0.0487
 6399SOL    HW130830   2.549   0.087   1.419  3.3019 -0.6723 -2.7476
 6399SOL    HW230831   2.578   0.076   1.562 -1.6677  0.0531 -0.5867
 6400SOL     OW30832   2.932   3.581   7.944 -0.1013 -0.1127  0.2099
 6400SOL    HW130833   2.984   3.500   7.937  1.5785  1.0169 -0.4719
 6400SOL    HW230834   2.991   3.649   7.913 -2.3404  1.0031 -1.5662
 6401SOL     OW30835   4.324   3.817   7.353 -0.3232  0.0526  0.0316
 6401SOL    HW130836   4.299   3.900   7.393  0.2640 -0.6906  1.9523
 6401SOL    HW230837   4.291   3.826   7.263 -0.4410  0.7049  0.1361
 6402SOL     OW30838   4.513   2.169  11.239  0.1029  0.2553  0.3355
 6402SOL    HW130839   4.517   2.073  11.240  0.4820  0.2533 -1.2209
 6402SOL    HW230840   4.468   2.184  11.322 -1.4389 -2.0883 -0.0628
 6403SOL     OW30841   1.094   3.192  16.327 -0.0601  0.1246 -0.0582
 6403SOL    HW130842   1.118   3.265  16.384 -1.4883  1.7007 -1.5075
 6403SOL    HW230843   1.174   3.178  16.276 -0.5171 -0.2999 -0.6592
 6404SOL     OW30844   3.159   4.011   2.928 -0.1385  0.4948 -0.0617
 6404SOL    HW130845   3.248   3.979   2.911 -0.3638  0.3912 -1.0542
 6404SOL    HW230846   3.128   3.933   2.976  0.3829 -0.2632 -0.9536
 6405SOL     OW30847   3.714   2.351   0.128 -0.0707  0.2248  0.1333
 6405SOL    HW130848   3.788   2.411   0.117  0.2850 -0.6220 -2.0108
 6405SOL    HW230849   3.746   2.306   0.206 -1.8717 -1.1669  0.0699
 6406SOL     OW30850   0.623   2.356   4.150 -0.1495  0.0039  0.0701
 6406SOL    HW130851   0.641   2.442   4.189 -1.7807 -0.1579  1.1720
 6406SOL    HW230852   0.609   2.380   4.059 -4.5442  2.6389  1.4460
 6407SOL     OW30853   1.695   3.945  10.335  0.0814 -0.4404  0.0580
 6407SOL    HW130854   1.666   3.854  10.336 -0.1945 -0.3215  2.2381
 6407SOL    HW230855   1.768   3.943  10.273  1.0559 -2.6894  1.2906
 6408SOL     OW30856   1.080   2.357   9.992  0.2808  0.1557  0.5417
 6408SOL    HW130857   1.078   2.350   9.896  0.5300 -0.6678  0.5895
 6408SOL    HW230858   1.145   2.287  10.001 -1.8066 -1.8766 -0.0133
 6409SOL     OW30859   3.213   4.156   1.030 -0.7110 -0.5349 -0.2274
 6409SOL    HW130860   3.193   4.072   0.988  0.6034 -1.5760  1.2546
 6409SOL    HW230861   3.177   4.215   0.964  1.8210 -1.3315 -2.2771
 6410SOL     OW30862   2.415   0.355   1.440  0.2761 -0.3988 -0.0770
 6410SOL    HW130863   2.466   0.436   1.446 -0.3403 -0.1227  1.5219
 6410SOL    HW230864   2.473   0.284   1.467 -1.6560 -1.3547  1.5741
 6411SOL     OW30865   2.884   2.057   2.278 -0.9724  0.2836 -0.0292
 6411SOL    HW130866   2.964   2.026   2.237  0.7265  2.5465  1.5602
 6411SOL    HW230867   2.841   1.975   2.301 -0.8075  0.0736 -0.4627
 6412SOL     OW30868   2.677   3.593   7.855 -0.1648 -0.3222 -0.0483
 6412SOL    HW130869   2.762   3.608   7.897 -0.0119 -2.0405  0.2642
 6412SOL    HW230870   2.660   3.501   7.874 -1.8787 -0.6717 -3.3074
 6413SOL     OW30871   2.048   2.424   3.900  0.7091  0.2598  0.7776
 6413SOL    HW130872   2.111   2.434   3.829 -0.8000  0.5759 -0.5398
 6413SOL    HW230873   2.080   2.474   3.975 -1.5273  0.8950  1.3069
 6414SOL     OW30874   4.018   1.793   2.175  0.3097  0.1375  0.5315
 6414SOL    HW130875   4.057   1.880   2.172 -1.5747  0.9345 -1.2721
 6414SOL    HW230876   4.029   1.769   2.267 -3.4968  1.5571  1.3672
 6415SOL     OW30877   0.036   4.068   1.523 -0.5384  0.4081 -0.7000
 6415SOL    HW130878   0.009   4.049   1.434  2.7329  0.1994 -1.6062
 6415SOL    HW230879   0.104   4.003   1.538  1.2535  1.9785 -2.1099
 6416SOL     OW30880   0.058   2.183   6.584  0.1336 -0.0516  0.1305
 6416SOL    HW130881   0.089   2.190   6.674 -2.0080 -0.2240  0.8767
 6416SOL    HW230882   0.001   2.259   6.580  1.0527  0.6571  0.3941
 6417SOL     OW30883   3.344   2.305   5.341  0.2037  0.2593 -0.5961
 6417SOL    HW130884   3.279   2.246   5.378  0.2622  0.1234 -0.7101
 6417SOL    HW230885   3.293   2.341   5.268 -0.9399  0.4902  0.3188
 6418SOL     OW30886   0.766   1.109   2.511 -0.7281  0.3151 -0.3317
 6418SOL    HW130887   0.754   1.160   2.430 -1.3282  0.1590 -0.3407
 6418SOL    HW230888   0.831   1.045   2.483 -0.7428  0.9381 -1.8161
 6419SOL     OW30889   3.194   0.592   9.557  0.7531 -0.2609 -0.6938
 6419SOL    HW130890   3.182   0.498   9.549  0.3427 -0.0591 -2.4018
 6419SOL    HW230891   3.125   0.620   9.618  2.0579  1.1943  0.1466
 6420SOL     OW30892   3.782   2.577   2.174  0.3634 -0.1465  0.3305
 6420SOL    HW130893   3.854   2.571   2.236  1.1844 -2.2384 -0.8004
 6420SOL    HW230894   3.761   2.484   2.164 -1.0324  0.2753 -0.7425
 6421SOL     OW30895   1.275   1.941  16.270  0.0909  0.9832 -0.2024
 6421SOL    HW130896   1.182   1.946  16.247 -0.2132  0.3060  0.8447
 6421SOL    HW230897   1.282   1.858  16.319  1.7870  1.8437  1.0267
 6422SOL     OW30898   1.854   3.608   4.121  0.2369 -0.4111  0.0651
 6422SOL    HW130899   1.834   3.528   4.171 -1.9421  0.2757  0.2848
 6422SOL    HW230900   1.941   3.627   4.156  1.0840  0.1679 -2.3872
 6423SOL     OW30901   3.545   3.565  15.817 -0.3936 -0.1865 -0.0386
 6423SOL    HW130902   3.505   3.513  15.747  0.1254  1.4041 -1.5134
 6423SOL    HW230903   3.598   3.501  15.865 -1.1420  0.8713  2.1524
 6424SOL     OW30904   3.178   4.204  12.847  0.1729 -0.0490 -0.4462
 6424SOL    HW130905   3.180   4.151  12.927 -2.1040  0.3389 -0.1188
 6424SOL    HW230906   3.260   4.171  12.810 -0.6455 -2.3073 -0.2558
 6425SOL     OW30907   1.996   2.249   3.359 -0.0424  0.2702 -0.0077
 6425SOL    HW130908   2.069   2.215   3.411 -0.1370  1.5285  0.9596
 6425SOL    HW230909   2.031   2.251   3.270  0.5809 -1.1265  0.2137
 6426SOL     OW30910   2.739   1.620  14.045 -0.7926  0.4024 -0.8514
 6426SOL    HW130911   2.752   1.714  14.033  0.0468  0.5333  0.9461
 6426SOL    HW230912   2.828   1.591  14.063 -0.8992  0.7664  0.2800
 6427SOL     OW30913   1.013   1.632   6.852 -0.0204  0.2167  0.5398
 6427SOL    HW130914   0.996   1.625   6.946  0.8478  0.0064  0.6886
 6427SOL    HW230915   0.950   1.700   6.830  3.0229  2.2481 -1.9781
 6428SOL     OW30916   1.856   0.138   8.822 -0.4731 -0.5282  0.1043
 6428SOL    HW130917   1.937   0.159   8.867 -0.7962  1.0240 -0.0264
 6428SOL    HW230918   1.880   0.079   8.751 -0.3091 -0.5109  0.1469
 6429SOL     OW30919   1.904   3.088  13.078  0.0469  0.1354  0.3869
 6429SOL    HW130920   1.818   3.049  13.062 -0.8748  2.2858  0.0674
 6429SOL    HW230921   1.885   3.140  13.156  0.2233  3.4696 -1.7787
 6430SOL     OW30922   1.730   3.117  12.560  0.1087 -0.4467 -0.2692
 6430SOL    HW130923   1.646   3.099  12.602  0.1578 -0.2945 -0.1045
 6430SOL    HW230924   1.776   3.168  12.627 -1.9269 -0.0764  0.8472
 6431SOL     OW30925   2.165   3.071   6.077 -0.0764  0.1482  0.4159
 6431SOL    HW130926   2.124   3.042   6.159  0.6539  0.2928  0.8305
 6431SOL    HW230927   2.113   3.149   6.057 -0.5697 -1.2887 -3.7944
 6432SOL     OW30928   1.625   4.274  16.271  0.1241 -0.1906  0.5988
 6432SOL    HW130929   1.629   4.287  16.176  1.4612  5.7860  1.4625
 6432SOL    HW230930   1.692   4.338  16.295 -0.3148  0.4260  0.1776
 6433SOL     OW30931   4.434   3.987   2.320  0.1992 -0.4986  0.1143
 6433SOL    HW130932   4.524   4.019   2.333 -0.3983  1.3473 -0.3792
 6433SOL    HW230933   4.417   4.003   2.227 -1.4060  0.7225  0.6231
 6434SOL     OW30934   2.265   3.330   4.781 -0.1429  0.6679  0.1500
 6434SOL    HW130935   2.340   3.351   4.725  1.5459  0.7591  2.4488
 6434SOL    HW230936   2.240   3.243   4.751  2.2277 -0.3639  1.1178
 6435SOL     OW30937   1.892   2.757   9.423 -0.5812  0.4829 -0.6883
 6435SOL    HW130938   1.894   2.663   9.442  1.7349  0.6996  0.1046
 6435SOL    HW230939   1.934   2.749   9.337 -0.7782  1.6818 -0.8902
 6436SOL     OW30940   1.863   0.843   5.275  0.2449  0.7438 -0.3766
 6436SOL    HW130941   1.872   0.774   5.341  1.4789 -1.2649 -2.6277
 6436SOL    HW230942   1.956   0.859   5.255  0.0815 -1.0980 -2.6654
 6437SOL     OW30943   4.605   0.800  13.435  0.0196 -0.1942 -0.3408
 6437SOL    HW130944   4.649   0.719  13.462 -0.5352  0.1655  1.6690
 6437SOL    HW230945   4.551   0.777  13.360  0.5345 -2.4522 -0.0245
 6438SOL     OW30946   2.800   1.173  12.125 -0.4578 -0.7068  0.2576
 6438SOL    HW130947   2.894   1.158  12.113 -0.1174  1.1508  0.5016
 6438SOL    HW230948   2.774   1.105  12.187 -0.4965  0.7998  1.8894
 6439SOL     OW30949   0.217   2.883  16.844 -0.4281  0.4885 -0.0906
 6439SOL    HW130950   0.289   2.920  16.794 -0.4025  1.3449  0.5698
 6439SOL    HW230951   0.265   2.806  16.875 -0.4382 -0.1034 -1.5615
 6440SOL     OW30952   4.105   1.440  14.005 -0.1326 -0.3272 -0.0708
 6440SOL    HW130953   4.081   1.504  14.073  0.4419 -1.0471  0.8172
 6440SOL    HW230954   4.121   1.363  14.059  1.5132  0.6970  0.9191
 6441SOL     OW30955   2.758   0.696   2.103 -0.2457 -0.6165  0.5963
 6441SOL    HW130956   2.673   0.662   2.075 -1.0166  0.7382  1.2770
 6441SOL    HW230957   2.799   0.616   2.136 -0.4080 -0.7076  0.5762
 6442SOL     OW30958   2.187   1.738   8.093  0.3654 -0.2498 -0.2431
 6442SOL    HW130959   2.095   1.753   8.114  0.0474 -0.7520 -1.2876
 6442SOL    HW230960   2.180   1.699   8.006  1.3690  1.6817 -1.2115
 6443SOL     OW30961   2.375   0.701   1.497  0.0413  0.4486  0.4219
 6443SOL    HW130962   2.456   0.655   1.476 -1.2695 -1.8214  0.3945
 6443SOL    HW230963   2.382   0.782   1.446  0.3673  0.0045 -0.2382
 6444SOL     OW30964   2.455   1.731   5.576  0.7366  0.0628  0.0607
 6444SOL    HW130965   2.469   1.758   5.485  1.9626  1.9391  0.7868
 6444SOL    HW230966   2.488   1.808   5.623  2.8911  0.0384 -1.4224
 6445SOL     OW30967   1.911   2.906   3.499  0.1166  0.2613 -0.4355
 6445SOL    HW130968   1.959   2.986   3.521  0.3787 -0.1733  0.5726
 6445SOL    HW230969   1.865   2.893   3.582  0.7142 -0.6351 -0.2457
 6446SOL     OW30970   3.560   4.107   3.154  0.8486 -0.3742 -0.4232
 6446SOL    HW130971   3.629   4.134   3.214 -0.4626  1.1486  0.4196
 6446SOL    HW230972   3.604   4.050   3.091  2.6887  0.6187 -0.0261
 6447SOL     OW30973   4.665   4.558   2.525  0.0018  0.4500 -0.0593
 6447SOL    HW130974   4.690   4.466   2.537  0.1678  0.5018 -0.0126
 6447SOL    HW230975   0.003   4.602   2.495 -0.9564  2.3561  0.2079
 6448SOL     OW30976   3.252   1.150   8.544  0.5724 -0.3020  0.0363
 6448SOL    HW130977   3.163   1.116   8.553  0.9856 -1.3137  0.3350
 6448SOL    HW230978   3.240   1.221   8.482 -3.0076  0.5943  1.7605
 6449SOL     OW30979   0.500   3.786   7.927 -0.1079  0.5994 -0.3115
 6449SOL    HW130980   0.527   3.768   7.837  2.0000  0.0299  0.4300
 6449SOL    HW230981   0.417   3.828   7.906 -0.3386  1.8112  3.0101
 6450SOL     OW30982   1.579   0.805   2.991 -0.1608 -0.3939 -0.2866
 6450SOL    HW130983   1.522   0.737   3.027  0.9106 -0.4081  1.4331
 6450SOL    HW230984   1.572   0.874   3.058 -0.3007 -1.9802  1.3289
 6451SOL     OW30985   4.302   3.633   4.554 -0.7917 -0.3085 -0.2733
 6451SOL    HW130986   4.228   3.578   4.578 -1.1609  0.5485  0.5795
 6451SOL    HW230987   4.298   3.615   4.460 -0.3419  1.4252 -0.6181
 6452SOL     OW30988   3.033   0.069  15.698 -0.3255  0.0114 -0.2935
 6452SOL    HW130989   3.121   0.082  15.734  0.1989 -0.9693 -1.2444
 6452SOL    HW230990   2.986   0.082  15.780  0.6316 -0.2436  0.3053
 6453SOL     OW30991   3.958   3.161  12.295 -0.2635 -0.2066  0.3321
 6453SOL    HW130992   3.981   3.106  12.369  0.2602 -1.1348 -0.5147
 6453SOL    HW230993   3.877   3.121  12.261  0.7006 -1.0571 -0.9995
 6454SOL     OW30994   4.193   3.827   0.767 -0.4875 -0.1162  0.2867
 6454SOL    HW130995   4.257   3.799   0.832  0.7643  2.9200  0.3682
 6454SOL    HW230996   4.215   3.920   0.769  0.3242 -0.3055  0.1235
 6455SOL     OW30997   0.068   0.103   9.111 -0.2240 -0.3827  0.1804
 6455SOL    HW130998   0.107   0.176   9.063 -1.6577  0.9483  1.0124
 6455SOL    HW230999   0.049   0.044   9.038  1.3332 -0.2571 -0.3132
 6456SOL     OW31000   3.700   3.718   6.037  0.2363  0.2693 -0.3721
 6456SOL    HW131001   3.693   3.709   5.942 -0.3871 -1.7167 -0.1381
 6456SOL    HW231002   3.689   3.813   6.047 -2.6788 -0.3797  2.7244
 6457SOL     OW31003   4.239   4.666  12.366 -0.9679  0.1294 -0.0163
 6457SOL    HW131004   4.294   4.727  12.318  1.6784 -1.1645  1.3675
 6457SOL    HW231005   4.295   4.641  12.440 -1.3320 -1.0073 -0.1301
 6458SOL     OW31006   3.646   4.626   4.671 -0.3132 -0.2823  0.5759
 6458SOL    HW131007   3.702   4.597   4.599 -1.6353  0.4935 -0.7642
 6458SOL    HW231008   3.591   4.692   4.629  1.6050 -0.2552 -1.9004
 6459SOL     OW31009   2.056   0.476   6.390 -0.4226 -0.4427 -0.2588
 6459SOL    HW131010   1.966   0.504   6.408 -0.8315 -1.3360 -0.8757
 6459SOL    HW231011   2.066   0.525   6.308  0.4431  0.2589  0.2716
 6460SOL     OW31012   4.694   0.194   8.765 -0.0081  0.2361 -0.5523
 6460SOL    HW131013   4.602   0.195   8.790  0.2054  5.6240 -0.0177
 6460SOL    HW231014   4.706   0.100   8.746 -0.2984  0.0289  0.2973
 6461SOL     OW31015   4.162   1.844   4.135 -0.0945  0.0703  0.1947
 6461SOL    HW131016   4.198   1.837   4.047 -2.1167  0.3091 -0.6349
 6461SOL    HW231017   4.078   1.887   4.119  0.4980  0.8071 -0.9363
 6462SOL     OW31018   0.130   4.059   4.173  0.0644 -0.1453  0.2180
 6462SOL    HW131019   0.164   4.146   4.152  0.0833 -0.2784 -0.3199
 6462SOL    HW231020   0.039   4.083   4.154  0.2183 -1.1056 -1.8028
 6463SOL     OW31021   3.122   0.430   2.407  0.3179 -0.3900  0.4913
 6463SOL    HW131022   3.088   0.345   2.438  0.2629  0.5223  2.9451
 6463SOL    HW231023   3.166   0.397   2.329  1.5741  3.7721 -0.5178
 6464SOL     OW31024   0.916   1.824   1.048  0.7774 -0.2995 -0.3523
 6464SOL    HW131025   0.915   1.806   0.954  1.1706  2.2872 -0.8487
 6464SOL    HW231026   0.885   1.915   1.043  0.0988 -0.5437 -0.5883
 6465SOL     OW31027   1.754   0.543  11.410 -0.3514  0.1600  0.2081
 6465SOL    HW131028   1.744   0.507  11.498  1.4945 -0.7088  0.0554
 6465SOL    HW231029   1.850   0.546  11.406 -0.3991 -0.4057 -1.3226
 6466SOL     OW31030   1.004   0.388   3.453  0.6500  0.9038  0.2750
 6466SOL    HW131031   1.063   0.331   3.502 -1.5221 -1.6087  0.0172
 6466SOL    HW231032   0.959   0.441   3.519 -0.8543 -0.1639  0.1161
 6467SOL     OW31033   0.668   0.054   4.276 -0.7563 -0.4382 -0.2580
 6467SOL    HW131034   0.607   0.073   4.347 -0.0555  0.7801  0.0241
 6467SOL    HW231035   0.629   0.091   4.197  2.7710  1.0616 -1.2969
 6468SOL     OW31036   2.669   3.715   8.752  0.1374  0.0527 -0.1443
 6468SOL    HW131037   2.648   3.734   8.660  1.1785  2.5450  0.1239
 6468SOL    HW231038   2.750   3.667   8.734  1.0608  2.1054 -1.5212
 6469SOL     OW31039   2.216   3.575   5.780 -0.4031 -0.1282 -0.0312
 6469SOL    HW131040   2.134   3.606   5.740 -0.4666 -0.5210 -0.2026
 6469SOL    HW231041   2.277   3.608   5.714 -0.1799 -0.2065  0.1379
 6470SOL     OW31042   0.057   2.992   8.349  0.1054  0.3976 -0.3227
 6470SOL    HW131043   0.152   2.991   8.345  0.0729  0.3947 -1.2148
 6470SOL    HW231044   0.036   2.899   8.337 -1.4502  0.6937  0.1317
 6471SOL     OW31045   1.485   2.891   2.387 -0.3342 -0.0064  0.1301
 6471SOL    HW131046   1.434   2.936   2.320  2.2655  0.1349 -1.7432
 6471SOL    HW231047   1.505   2.810   2.340 -0.3095 -0.1654  0.4121
 6472SOL     OW31048   1.607   1.057   0.682  0.4332  0.1906  0.1706
 6472SOL    HW131049   1.617   0.963   0.690 -1.2349  0.1944  2.4465
 6472SOL    HW231050   1.616   1.085   0.773 -2.4990  0.7609  0.2734
 6473SOL     OW31051   2.047   2.608  15.684 -0.0966  0.3545 -0.3596
 6473SOL    HW131052   2.001   2.581  15.605 -0.3202 -1.0681  0.2526
 6473SOL    HW231053   2.048   2.523  15.729 -0.7312  1.1308  1.0956
 6474SOL     OW31054   1.063   3.540   7.875  0.6172 -0.2598 -0.1765
 6474SOL    HW131055   1.159   3.533   7.883  0.6613 -2.5604 -2.9579
 6474SOL    HW231056   1.034   3.599   7.944  2.2438  2.1791 -1.5579
 6475SOL     OW31057   1.960   1.061   7.755  0.1299 -0.0669 -0.1537
 6475SOL    HW131058   1.929   0.970   7.751 -1.0155  0.4218 -2.5670
 6475SOL    HW231059   1.987   1.056   7.847 -4.0130 -0.6067  1.0349
 6476SOL     OW31060   1.667   2.555   7.069  0.1550  0.6917  0.0474
 6476SOL    HW131061   1.605   2.486   7.094  0.7612  0.0724 -0.1679
 6476SOL    HW231062   1.649   2.571   6.977 -1.0237 -0.0064  0.1544
 6477SOL     OW31063   0.466   3.880   5.261  0.4178  0.2765  0.3451
 6477SOL    HW131064   0.464   3.805   5.202  0.3150  1.8632 -1.6626
 6477SOL    HW231065   0.529   3.856   5.329  1.2816  1.7359  0.0464
 6478SOL     OW31066   2.427   0.823   9.081  0.2136 -0.1242  0.1138
 6478SOL    HW131067   2.479   0.760   9.130 -2.7218 -1.4847  1.4625
 6478SOL    HW231068   2.417   0.887   9.151  0.0771 -0.9039  0.8040
 6479SOL     OW31069   3.552   3.177   5.604 -0.6676 -0.1837  0.0919
 6479SOL    HW131070   3.501   3.164   5.684  1.2582  0.5899  1.4547
 6479SOL    HW231071   3.642   3.165   5.634 -0.0817 -0.1833 -1.6810
 6480SOL     OW31072   1.323   2.465  16.904  0.2383  0.1958  0.0134
 6480SOL    HW131073   1.323   2.411  16.983 -0.7100 -0.7103 -0.6095
 6480SOL    HW231074   1.304   2.549  16.944  0.6863 -1.1256  2.9545
 6481SOL     OW31075   1.371   3.808   9.337  0.1098  0.5868  0.2414
 6481SOL    HW131076   1.347   3.892   9.298 -0.4778  0.6128  0.6599
 6481SOL    HW231077   1.324   3.809   9.420 -1.8081  1.9430 -0.8579
 6482SOL     OW31078   0.038   0.068   3.002  0.3772  0.0151 -0.3325
 6482SOL    HW131079   0.130   0.044   2.996  0.1488 -1.7001  3.0856
 6482SOL    HW231080   4.738   4.723   3.015 -2.5287  1.5361  0.6643
 6483SOL     OW31081   3.979   3.922   0.660 -0.1974  0.2343  0.2303
 6483SOL    HW131082   4.047   3.903   0.724 -1.1631 -4.6882 -0.2348
 6483SOL    HW231083   4.030   3.931   0.580 -0.4926  2.7826  0.3197
 6484SOL     OW31084   4.154   4.229   5.731  0.3901 -0.4833  0.1312
 6484SOL    HW131085   4.096   4.214   5.657 -1.6040 -1.3875  1.8764
 6484SOL    HW231086   4.197   4.145   5.740  0.6754 -0.1179  2.3631
 6485SOL     OW31087   3.232   0.352   3.948 -0.4748  0.4759 -0.0617
 6485SOL    HW131088   3.307   0.405   3.922 -0.2818  0.1964 -0.0619
 6485SOL    HW231089   3.266   0.303   4.023 -2.1898  0.3056  0.6223
 6486SOL     OW31090   1.510   4.589   5.631 -0.0550  0.0427  0.8770
 6486SOL    HW131091   1.457   4.595   5.551  3.5975  0.6166 -1.5092
 6486SOL    HW231092   1.546   4.677   5.629 -0.9589  0.4126  0.5843
 6487SOL     OW31093   2.261   4.541   9.453 -0.5037 -0.0917  0.2425
 6487SOL    HW131094   2.353   4.541   9.479  0.3442 -1.6299 -2.7136
 6487SOL    HW231095   2.236   4.631   9.473 -2.1258 -0.0393 -2.0251
 6488SOL     OW31096   1.536   2.872   3.236 -0.0693 -0.4580  0.0806
 6488SOL    HW131097   1.549   2.942   3.172 -0.8976  0.2370  0.6708
 6488SOL    HW231098   1.519   2.801   3.174  0.5862 -0.9469  0.4572
 6489SOL     OW31099   4.457   4.391   2.116  0.5618  0.0943  0.0705
 6489SOL    HW131100   4.457   4.398   2.020  0.8937  3.0996  0.2731
 6489SOL    HW231101   4.550   4.412   2.127  0.7521 -1.3638  1.1188
 6490SOL     OW31102   4.318   4.620  13.765 -0.5500 -0.1059  0.3142
 6490SOL    HW131103   4.385   4.555  13.784 -0.9994 -1.2475 -2.0272
 6490SOL    HW231104   4.246   4.559  13.754 -0.4339 -0.5999  2.1931
 6491SOL     OW31105   1.218   2.581   1.883 -0.0956 -0.4781 -0.4981
 6491SOL    HW131106   1.309   2.553   1.877 -0.3534 -1.8729  1.8793
 6491SOL    HW231107   1.185   2.531   1.808 -3.0738  0.0324  0.4438
 6492SOL     OW31108   2.931   3.622   9.141  0.4673 -0.4669  0.2083
 6492SOL    HW131109   2.974   3.688   9.088  0.2036  0.2124  0.8505
 6492SOL    HW231110   2.891   3.671   9.213 -1.0892  1.9394 -2.3118
 6493SOL     OW31111   0.289   2.216   7.988 -0.0012 -0.0474  0.0823
 6493SOL    HW131112   0.290   2.175   8.075 -1.2256 -3.2604 -1.3883
 6493SOL    HW231113   0.383   2.206   7.978  0.0761 -1.4772  2.2535
 6494SOL     OW31114   2.781   0.175   4.699 -0.0723  0.3860  0.1739
 6494SOL    HW131115   2.686   0.188   4.687  0.0589  0.3009 -0.9628
 6494SOL    HW231116   2.810   0.214   4.782 -0.1211  0.8789 -0.0389
 6495SOL     OW31117   2.967   0.490  17.127 -0.1857 -0.1337 -0.2293
 6495SOL    HW131118   3.004   0.543  17.055 -3.9717  1.5714 -0.9683
 6495SOL    HW231119   2.929   0.555  17.186  2.2430  1.6471 -0.6102
 6496SOL     OW31120   2.942   4.582   8.538  0.9630 -0.6249 -0.0348
 6496SOL    HW131121   2.935   4.499   8.491  2.5406 -0.3130 -0.8060
 6496SOL    HW231122   2.954   4.558   8.630 -0.8313 -0.8240  0.1604
 6497SOL     OW31123   3.109   0.822   1.644  0.4321 -0.2688 -0.3347
 6497SOL    HW131124   3.096   0.762   1.570 -1.9538  1.0144 -0.9493
 6497SOL    HW231125   3.040   0.886   1.631  0.4374 -0.0525  0.6724
 6498SOL     OW31126   3.709   1.766  17.684 -0.7651  0.2810  0.2678
 6498SOL    HW131127   3.656   1.696  17.645  0.0644 -0.3788  0.3222
 6498SOL    HW231128   3.640   1.817  17.728 -1.4651 -1.4723  1.1989
 6499SOL     OW31129   2.833   1.306  17.033 -0.4865 -0.0945  0.3821
 6499SOL    HW131130   2.765   1.267  17.087 -1.3145 -0.0628 -0.6449
 6499SOL    HW231131   2.804   1.293  16.943  0.6821 -1.1987  0.1576
 6500SOL     OW31132   3.985   0.577   3.940 -0.0628 -0.0736  0.6946
 6500SOL    HW131133   3.901   0.621   3.951  0.2676  1.1214 -1.5529
 6500SOL    HW231134   4.013   0.593   3.850 -1.2440  0.4141  0.4143
 6501SOL     OW31135   3.330   4.532   8.766 -0.7226 -0.0854  0.1684
 6501SOL    HW131136   3.248   4.575   8.791 -1.0412  0.2722 -1.4438
 6501SOL    HW231137   3.328   4.456   8.823 -4.1323  0.7642  1.1642
 6502SOL     OW31138   4.283   3.092  15.430  0.3668 -0.0001  0.4710
 6502SOL    HW131139   4.341   3.020  15.407  0.7755  0.6656 -0.5791
 6502SOL    HW231140   4.341   3.118  15.502  3.4790 -1.0531 -1.6468
 6503SOL     OW31141   0.854   1.225   2.734  0.3836 -0.0841  0.0530
 6503SOL    HW131142   0.904   1.164   2.788 -0.6863 -1.2154 -0.2274
 6503SOL    HW231143   0.815   1.169   2.665 -1.4868  0.4072  0.7061
 6504SOL     OW31144   0.733   0.140   5.643  0.1548 -0.2593 -0.1222
 6504SOL    HW131145   0.678   0.196   5.587 -0.9758 -1.4419 -0.2005
 6504SOL    HW231146   0.686   0.151   5.726 -0.4863 -1.8392 -0.2645
 6505SOL     OW31147   2.195   3.704   6.644 -0.9523 -0.3371 -0.8258
 6505SOL    HW131148   2.170   3.638   6.579 -0.8547  0.5938 -1.8097
 6505SOL    HW231149   2.117   3.753   6.668 -0.9735  0.0442 -1.7024
 6506SOL     OW31150   4.578   1.497   4.741 -0.0289  0.0147  0.5617
 6506SOL    HW131151   4.587   1.453   4.657 -1.4236  0.0422  0.3926
 6506SOL    HW231152   4.508   1.556   4.714 -1.6800 -2.8698 -1.5544
 6507SOL     OW31153   0.456   4.390   6.422  0.0340 -0.3281 -0.0462
 6507SOL    HW131154   0.492   4.448   6.489  1.3413 -1.1382 -0.0368
 6507SOL    HW231155   0.532   4.338   6.397  1.5358  1.6087  0.4736
 6508SOL     OW31156   3.749   3.576   2.398  0.3701  0.2099 -0.0326
 6508SOL    HW131157   3.660   3.584   2.432  0.0511  1.4559 -1.1892
 6508SOL    HW231158   3.771   3.483   2.411  1.9898  0.8501  1.9036
 6509SOL     OW31159   0.954   3.805  11.779 -0.2508 -0.0727 -0.4268
 6509SOL    HW131160   1.006   3.828  11.857  0.9577 -1.4158 -0.8423
 6509SOL    HW231161   0.865   3.814  11.813 -0.2206  0.2096 -0.4231
 6510SOL     OW31162   1.037   2.083   2.314  0.4192 -0.5677 -0.5709
 6510SOL    HW131163   1.003   2.171   2.301  2.5114  0.4747  1.0348
 6510SOL    HW231164   1.087   2.068   2.234  0.7858  0.6753 -0.5730
 6511SOL     OW31165   2.348   2.332   0.066 -0.2776 -0.4172 -0.4560
 6511SOL    HW131166   2.368   2.242   0.041 -2.1679 -1.2200  0.8619
 6511SOL    HW231167   2.425   2.387   0.055  0.2574 -0.8000  1.2712
 6512SOL     OW31168   3.144   0.491   0.218 -0.4060  0.5465  0.1746
 6512SOL    HW131169   3.196   0.415   0.244  0.4705  1.9300  2.3713
 6512SOL    HW231170   3.064   0.473   0.267  1.1649 -1.6435  1.9037
 6513SOL     OW31171   0.827   0.073   9.165  0.4775 -0.1442  0.1984
 6513SOL    HW131172   0.912   0.049   9.129 -0.5325 -0.4558 -2.0143
 6513SOL    HW231173   0.767   0.039   9.099 -1.3432  0.0704  1.7365
 6514SOL     OW31174   4.157   3.061   8.627 -0.8463  0.0090 -0.1981
 6514SOL    HW131175   4.175   3.136   8.683 -1.9087 -0.4434  0.7587
 6514SOL    HW231176   4.127   2.998   8.693 -0.6538  0.2196  0.0901
 6515SOL     OW31177   3.092   0.081  16.590  0.2633  0.0018 -0.2603
 6515SOL    HW131178   3.175   0.102  16.633 -0.1480 -0.6265  0.8703
 6515SOL    HW231179   3.075   4.736  16.630 -0.2412 -1.0557 -2.7418
 6516SOL     OW31180   1.661   4.094   9.253 -0.3985  0.4675 -0.0221
 6516SOL    HW131181   1.678   4.166   9.314  2.7925 -2.6365  2.8050
 6516SOL    HW231182   1.752   4.073   9.232 -0.0456  0.6358  1.3202
 6517SOL     OW31183   4.098   4.013   1.327  0.0729  0.0110 -0.5147
 6517SOL    HW131184   4.045   4.092   1.318 -1.7306 -1.0727  0.5397
 6517SOL    HW231185   4.154   4.025   1.250 -0.0446  1.7153 -0.3329
 6518SOL     OW31186   0.372   0.176  11.633 -0.0918  0.5477 -0.5567
 6518SOL    HW131187   0.352   0.150  11.543 -0.5504  1.1007 -0.6148
 6518SOL    HW231188   0.296   0.156  11.688 -1.0803  0.0748 -2.0989
 6519SOL     OW31189   0.028   4.138   1.960  0.3728 -0.0019  0.0091
 6519SOL    HW131190   4.717   4.215   1.983 -1.6069 -1.1437 -0.7033
 6519SOL    HW231191   4.730   4.104   1.880 -1.5174 -0.3946  1.0982
 6520SOL     OW31192   3.094   0.904  13.846  0.3756  0.4214 -0.6140
 6520SOL    HW131193   3.060   0.911  13.757  1.3892  0.9953 -0.9540
 6520SOL    HW231194   3.171   0.961  13.847  1.1573 -0.6549  0.7161
 6521SOL     OW31195   0.270   4.139  14.851  0.5200 -0.4456  0.0758
 6521SOL    HW131196   0.230   4.218  14.815 -0.7287 -1.5335 -0.9132
 6521SOL    HW231197   0.361   4.151  14.825  1.4904 -0.6905  3.3579
 6522SOL     OW31198   4.593   0.002   0.931  0.2329  0.0675 -0.4169
 6522SOL    HW131199   4.537   4.665   0.922 -0.4152  0.7781 -2.6530
 6522SOL    HW231200   4.589   0.032   0.840  0.0542 -0.2064 -0.4972
 6523SOL     OW31201   2.910   0.695   9.598  0.3841  0.8385 -0.2340
 6523SOL    HW131202   2.868   0.736   9.674  1.8245  2.1333 -0.1378
 6523SOL    HW231203   2.907   0.761   9.528  0.4419  0.2747 -0.7597
 6524SOL     OW31204   0.378   0.494  14.425 -0.1291 -0.9159  0.0740
 6524SOL    HW131205   0.446   0.498  14.357 -0.0602 -0.3358  0.1763
 6524SOL    HW231206   0.306   0.502  14.362 -0.4653 -1.6254  0.3756
 6525SOL     OW31207   1.858   1.843   6.314  0.4777 -0.4067  0.1719
 6525SOL    HW131208   1.889   1.854   6.404 -2.4534 -2.6100  1.4566
 6525SOL    HW231209   1.764   1.860   6.305  0.7964  1.4234  0.3046
 6526SOL     OW31210   4.025   2.324  11.334 -0.3655 -0.2175  0.0581
 6526SOL    HW131211   4.067   2.239  11.348  1.1859  0.4833 -0.3367
 6526SOL    HW231212   3.946   2.313  11.386  1.2681 -3.4016  1.8733
 6527SOL     OW31213   2.892   1.242   2.051  0.3478  0.2658  0.2671
 6527SOL    HW131214   2.922   1.333   2.043  2.2350 -0.1809  2.1896
 6527SOL    HW231215   2.944   1.209   2.124  2.2054  0.1220 -1.1219
 6528SOL     OW31216   3.965   2.887   2.741 -0.6232 -0.0499  0.3901
 6528SOL    HW131217   4.047   2.897   2.694  0.4890  1.3407  2.6053
 6528SOL    HW231218   4.003   2.853   2.822  1.3293 -0.5430 -0.7429
 6529SOL     OW31219   0.650   4.284  13.962 -0.4800  0.0922  0.0294
 6529SOL    HW131220   0.621   4.338  14.035 -2.5750 -1.3012  0.2288
 6529SOL    HW231221   0.563   4.247  13.946 -0.8036 -0.1555  2.3516
 6530SOL     OW31222   2.392   0.165   5.064 -0.1019  0.0811 -0.2823
 6530SOL    HW131223   2.450   0.160   5.140 -1.0998  0.4444  0.5070
 6530SOL    HW231224   2.350   0.251   5.075  1.6041  0.6170  1.8569
 6531SOL     OW31225   2.736   4.587  13.039  0.5885 -0.3656 -0.2534
 6531SOL    HW131226   2.814   4.600  13.093  1.3880 -2.1316 -0.9835
 6531SOL    HW231227   2.725   4.494  13.054  3.4339 -0.4222  1.5248
 6532SOL     OW31228   0.017   0.153  13.399  0.5534 -0.5953  0.2134
 6532SOL    HW131229   4.728   0.083  13.341 -0.6275  0.2718 -0.2297
 6532SOL    HW231230   4.702   0.143  13.475  1.6471 -2.9442  0.7093
 6533SOL     OW31231   4.238   2.612  13.425  0.3481 -0.0120  0.0875
 6533SOL    HW131232   4.147   2.633  13.446  0.0784  0.5595 -1.6480
 6533SOL    HW231233   4.226   2.530  13.377 -0.5581  0.5457 -0.6308
 6534SOL     OW31234   3.737   2.978   1.038  0.7651  0.1728  0.2236
 6534SOL    HW131235   3.714   3.046   1.102 -0.5468 -1.6813  1.7544
 6534SOL    HW231236   3.665   2.979   0.975  1.5020  1.0860 -0.5956
 6535SOL     OW31237   2.535   1.239   7.980 -0.2453 -0.4139 -0.0889
 6535SOL    HW131238   2.607   1.212   7.922 -0.2881  2.4585 -1.4404
 6535SOL    HW231239   2.463   1.202   7.929 -0.1551  0.8238 -1.1001
 6536SOL     OW31240   4.577   0.274   1.937 -0.1781  0.5179  0.2568
 6536SOL    HW131241   4.612   0.333   2.004 -1.6587  0.7922  0.7917
 6536SOL    HW231242   4.511   0.336   1.906 -1.7334 -0.8470  0.8586
 6537SOL     OW31243   2.281   3.919   5.626  0.4226 -0.3717  0.5054
 6537SOL    HW131244   2.319   3.984   5.567  0.0250  0.4196  1.1253
 6537SOL    HW231245   2.358   3.861   5.620 -1.3458 -2.9149  2.1541
 6538SOL     OW31246   2.738   1.145   2.428  0.0597  0.3762 -0.1424
 6538SOL    HW131247   2.692   1.151   2.512 -0.6159  1.3951 -0.5900
 6538SOL    HW231248   2.812   1.087   2.445  0.6705  1.7644  1.9584
 6539SOL     OW31249   0.903   2.786   4.422 -0.1078 -0.0024 -0.2274
 6539SOL    HW131250   0.863   2.700   4.433  0.0102 -0.0240  0.0434
 6539SOL    HW231251   0.893   2.816   4.512  0.8161  0.0554 -0.1390
 6540SOL     OW31252   0.358   3.426   7.512  0.6563  0.3213 -0.2708
 6540SOL    HW131253   0.326   3.337   7.503 -0.5479  0.7291  0.0264
 6540SOL    HW231254   0.369   3.429   7.608  1.2064  1.2598 -0.3603
 6541SOL     OW31255   3.253   3.574   2.608 -0.0798  0.3526 -0.1302
 6541SOL    HW131256   3.270   3.482   2.593 -1.4572 -0.4986  3.4441
 6541SOL    HW231257   3.246   3.580   2.704  2.0479  1.2954 -0.0309
 6542SOL     OW31258   1.463   2.026   6.587 -0.0413  0.2072  0.0518
 6542SOL    HW131259   1.505   1.951   6.628  1.8668  2.7431  2.7544
 6542SOL    HW231260   1.386   2.035   6.643 -1.4838 -3.3911 -1.3791
 6543SOL     OW31261   0.443   2.478  17.657  0.3229  0.1391 -0.1778
 6543SOL    HW131262   0.367   2.447  17.607  1.2238 -0.7775 -0.9725
 6543SOL    HW231263   0.417   2.562  17.694 -0.1668  0.4472 -1.2208
 6544SOL     OW31264   2.387   4.557   5.112  0.4022  0.2912  0.7372
 6544SOL    HW131265   2.429   4.471   5.113  1.1508  0.6532 -0.0417
 6544SOL    HW231266   2.299   4.539   5.145 -0.0552  1.3459  0.0794
 6545SOL     OW31267   1.577   2.786  14.015  0.0479 -0.0433  0.4532
 6545SOL    HW131268   1.640   2.745  14.074  0.3835  0.1858  0.2569
 6545SOL    HW231269   1.548   2.858  14.072 -1.9275  0.1104 -0.7664
 6546SOL     OW31270   3.167   2.519   8.454 -0.2023 -0.0009  0.1938
 6546SOL    HW131271   3.261   2.536   8.453 -0.7093  3.0743  4.2263
 6546SOL    HW231272   3.139   2.520   8.545 -3.4156  0.4803 -0.8057
 6547SOL     OW31273   1.693   1.934  14.151 -0.3280 -0.0223  0.4257
 6547SOL    HW131274   1.740   1.995  14.206 -1.5126  0.4725  0.8908
 6547SOL    HW231275   1.633   1.882  14.205 -0.2585  0.1622  0.6788
 6548SOL     OW31276   1.902   3.714   3.830 -0.0519  0.1571 -0.4385
 6548SOL    HW131277   1.820   3.678   3.796  0.0870 -0.6248  0.0471
 6548SOL    HW231278   1.896   3.691   3.923 -0.7305  0.3821 -0.4294
 6549SOL     OW31279   1.521   3.761   0.368 -0.5032  0.1809 -0.6769
 6549SOL    HW131280   1.602   3.722   0.335 -0.0559 -0.1326  0.7930
 6549SOL    HW231281   1.469   3.687   0.400 -0.0042  0.5214  0.9065
 6550SOL     OW31282   3.425   0.973   4.245 -0.1912  0.6000 -0.5073
 6550SOL    HW131283   3.355   0.985   4.181 -0.8437  0.3003  0.1504
 6550SOL    HW231284   3.438   0.879   4.254  0.7005  0.6582 -1.2108
 6551SOL     OW31285   0.101   2.188   7.808  0.4006 -0.2821 -0.4453
 6551SOL    HW131286   0.182   2.196   7.858 -0.1503 -1.5216  0.6420
 6551SOL    HW231287   0.132   2.125   7.742 -1.7130 -1.0814 -0.6618
 6552SOL     OW31288   1.176   4.158   5.715 -0.7259 -0.4936 -0.3666
 6552SOL    HW131289   1.139   4.242   5.744 -1.5131  0.1082 -3.0884
 6552SOL    HW231290   1.266   4.181   5.692 -1.2711  2.4351  0.4512
 6553SOL     OW31291   4.581   3.381   6.888 -0.7109  0.1540  0.6387
 6553SOL    HW131292   4.509   3.372   6.826 -1.7533 -1.3062  2.0830
 6553SOL    HW231293   4.550   3.443   6.954  2.2033  0.0030  2.1344
 6554SOL     OW31294   3.455   3.058   3.226 -0.3350 -0.3653  0.0310
 6554SOL    HW131295   3.546   3.027   3.220 -0.4233 -0.8860  1.4047
 6554SOL    HW231296   3.405   2.979   3.208  1.2724 -1.4993  0.5401
 6555SOL     OW31297   3.780   2.147  16.940 -0.2116  0.0469 -0.0535
 6555SOL    HW131298   3.707   2.142  16.878 -0.0863 -1.0365 -0.1177
 6555SOL    HW231299   3.853   2.162  16.880 -1.6182  1.0711 -1.5086
 6556SOL     OW31300   0.225   1.432   8.574  0.1077  0.7492  0.6504
 6556SOL    HW131301   0.132   1.443   8.553  0.0469 -1.5215 -0.2985
 6556SOL    HW231302   0.264   1.397   8.494  1.0765  0.9470  1.0377
 6557SOL     OW31303   1.569   0.128   7.757  0.0217  0.1089  0.3978
 6557SOL    HW131304   1.534   0.095   7.674  0.5994 -0.5466  0.4157
 6557SOL    HW231305   1.505   0.196   7.776 -0.0060  0.2332 -0.1415
 6558SOL     OW31306   2.234   1.498   7.738  0.1348 -0.2096  0.0176
 6558SOL    HW131307   2.316   1.469   7.777 -0.6099 -0.4602  1.4022
 6558SOL    HW231308   2.274   1.547   7.667  0.6041  0.5257  0.7898
 6559SOL     OW31309   1.399   2.378   7.444  0.5552  0.2111  0.1819
 6559SOL    HW131310   1.457   2.427   7.503  2.2262  0.1640 -1.4375
 6559SOL    HW231311   1.432   2.290   7.466 -0.5947 -0.3666 -0.4033
 6560SOL     OW31312   2.839   0.439  11.999  0.4686  0.0760  0.0555
 6560SOL    HW131313   2.833   0.476  12.087 -0.8369 -0.0658  0.0272
 6560SOL    HW231314   2.751   0.449  11.964  1.1289  2.2718 -0.9769
 6561SOL     OW31315   1.654   0.774   6.302 -0.4515  0.6184  0.2930
 6561SOL    HW131316   1.581   0.716   6.280 -0.1931  1.0585 -1.6660
 6561SOL    HW231317   1.722   0.706   6.303 -0.2863  0.7382 -2.5639
 6562SOL     OW31318   1.816   3.385  12.428 -0.3943 -0.0555  0.5494
 6562SOL    HW131319   1.870   3.402  12.505  0.9575  0.0996 -0.4378
 6562SOL    HW231320   1.809   3.469  12.383  2.0361  0.3201  0.8840
 6563SOL     OW31321   1.149   0.407  15.748  0.3374  0.0797 -0.6759
 6563SOL    HW131322   1.127   0.495  15.776 -1.2981 -0.3907 -0.4760
 6563SOL    HW231323   1.184   0.418  15.660  1.2020  3.3681  0.0832
 6564SOL     OW31324   3.203   2.729   2.072  0.2509 -0.4637  0.1880
 6564SOL    HW131325   3.222   2.764   1.985 -3.0650 -1.2714 -0.8342
 6564SOL    HW231326   3.110   2.748   2.076  0.4447  0.2966  1.1510
 6565SOL     OW31327   1.897   0.857  13.627 -0.1743  0.1788 -0.3102
 6565SOL    HW131328   1.954   0.781  13.642 -0.1832  0.0945 -0.6887
 6565SOL    HW231329   1.952   0.914  13.681 -2.2571  1.6406  0.2548
 6566SOL     OW31330   2.094   0.032   3.516 -0.0619 -0.0845  0.2898
 6566SOL    HW131331   2.184   0.064   3.513  0.2920 -0.9226  1.6227
 6566SOL    HW231332   2.113   4.690   3.472  2.1039  1.0271 -0.8185
 6567SOL     OW31333   1.395   2.614   3.545  0.0022 -0.0288  0.4118
 6567SOL    HW131334   1.476   2.593   3.498 -0.2827  0.1581 -0.1565
 6567SOL    HW231335   1.422   2.662   3.624 -0.1837 -1.6727  1.5008
 6568SOL     OW31336   3.601   3.978   7.284 -0.7134 -0.7939  0.2140
 6568SOL    HW131337   3.551   4.007   7.360 -1.4843  0.1461 -0.6528
 6568SOL    HW231338   3.537   3.991   7.215 -3.0665 -1.1134  2.3428
 6569SOL     OW31339   1.502   2.658  10.631  0.3308 -0.5124  0.3676
 6569SOL    HW131340   1.524   2.750  10.614  1.4667 -1.1057 -1.4397
 6569SOL    HW231341   1.441   2.666  10.704 -1.5586 -0.2295 -1.2472
 6570SOL     OW31342   0.729   2.080   4.112  0.4536  0.2989 -0.0654
 6570SOL    HW131343   0.734   2.175   4.117  4.2633 -0.0050  2.0085
 6570SOL    HW231344   0.761   2.061   4.023 -1.6643  0.6295 -0.8910
 6571SOL     OW31345   1.869   2.332   9.777  0.1528  0.1737  0.1922
 6571SOL    HW131346   1.932   2.401   9.752 -1.0402  1.3246  0.3779
 6571SOL    HW231347   1.791   2.387   9.780 -1.1217 -1.8096  3.0349
 6572SOL     OW31348   4.469   4.724   6.168 -0.0695  0.6600 -0.3812
 6572SOL    HW131349   4.522   0.042   6.222  0.4931  0.2225 -0.4651
 6572SOL    HW231350   4.441   4.668   6.241 -1.0023  3.5606  1.5237
 6573SOL     OW31351   2.962   0.430   0.783  0.2196 -0.2652 -0.1141
 6573SOL    HW131352   2.961   0.437   0.879  0.5538 -0.8008 -0.0683
 6573SOL    HW231353   2.926   0.345   0.755  0.6367 -0.6369  0.4667
 6574SOL     OW31354   0.634   3.520   3.204  0.1142  0.6073 -0.1016
 6574SOL    HW131355   0.604   3.591   3.260 -3.1533 -2.1266  1.5987
 6574SOL    HW231356   0.551   3.484   3.173  0.8736 -1.3625  0.1972
 6575SOL     OW31357   1.649   0.783  11.392 -0.0195 -0.2374 -0.5858
 6575SOL    HW131358   1.623   0.813  11.304 -3.2381 -2.1932 -0.2917
 6575SOL    HW231359   1.684   0.695  11.384 -1.2924 -0.8007  0.1629
 6576SOL     OW31360   4.364   2.459   1.067 -0.1241 -0.0435  0.4255
 6576SOL    HW131361   4.451   2.433   1.037  0.2309 -0.7761  2.1344
 6576SOL    HW231362   4.311   2.458   0.987  0.0257  0.8675  0.3132
 6577SOL     OW31363   4.246   1.778   5.543 -0.0008  0.3687  0.1367
 6577SOL    HW131364   4.244   1.842   5.472  1.8384 -0.0235 -0.2734
 6577SOL    HW231365   4.340   1.757   5.546 -0.5683 -2.5569 -2.0915
 6578SOL     OW31366   1.206   1.163   0.749 -0.8321 -0.7896  1.2752
 6578SOL    HW131367   1.256   1.182   0.828 -0.3659  0.0133  0.7852
 6578SOL    HW231368   1.255   1.214   0.684 -1.7941 -1.8434 -0.2846
 6579SOL     OW31369   1.460   3.000  14.924 -0.6744 -0.0072 -0.5849
 6579SOL    HW131370   1.445   2.913  14.963  0.3540  0.1777  0.2208
 6579SOL    HW231371   1.534   2.976  14.869 -0.1535 -0.3620  0.2684
 6580SOL     OW31372   0.675   4.004   2.836  0.2592  0.1194  0.3347
 6580SOL    HW131373   0.674   3.935   2.770 -0.8946  0.4118  0.0473
 6580SOL    HW231374   0.752   3.978   2.887 -1.0151 -4.1846  0.0327
 6581SOL     OW31375   2.888   3.555   8.649  0.1657  0.0233  0.2620
 6581SOL    HW131376   2.810   3.520   8.606  0.7038  0.0745 -0.7762
 6581SOL    HW231377   2.923   3.487   8.706 -2.0020 -1.3883 -0.0995
 6582SOL     OW31378   4.281   1.016   2.687  0.0739 -0.4127 -0.1827
 6582SOL    HW131379   4.287   0.980   2.775 -0.2450 -0.3875 -0.1501
 6582SOL    HW231380   4.189   1.018   2.660  0.5938 -1.7880 -1.9836
 6583SOL     OW31381   4.694   2.925   3.007 -0.3030  0.0752 -0.1698
 6583SOL    HW131382   0.005   2.846   3.027 -1.3547 -0.6609 -0.3486
 6583SOL    HW231383   4.724   2.991   3.069 -1.2805  0.4593 -0.1204
 6584SOL     OW31384   2.623   4.618   6.693  0.1927 -0.0928  0.1933
 6584SOL    HW131385   2.554   4.551   6.690  0.1384 -0.0736  1.0219
 6584SOL    HW231386   2.675   4.602   6.614  1.0726  0.6487  0.6249
 6585SOL     OW31387   2.133   2.897   6.624  0.1551 -0.0415 -0.0983
 6585SOL    HW131388   2.221   2.860   6.623  0.0440 -0.3091  0.3698
 6585SOL    HW231389   2.079   2.824   6.654 -0.8243  0.6445 -0.1663
 6586SOL     OW31390   3.317   3.994   3.387  0.2551 -0.1013  0.9341
 6586SOL    HW131391   3.331   3.903   3.362  1.1423 -0.3383  2.3077
 6586SOL    HW231392   3.366   4.032   3.315 -1.8054  2.1985  0.7174
 6587SOL     OW31393   2.830   1.226   1.079  0.6843 -0.2599  0.0730
 6587SOL    HW131394   2.904   1.191   1.129  1.1023 -0.5743 -0.7776
 6587SOL    HW231395   2.755   1.215   1.138  1.5175 -0.3763  1.1068
 6588SOL     OW31396   0.628   3.900   5.662 -0.3404  0.0984  0.2343
 6588SOL    HW131397   0.645   3.949   5.742 -1.2848  0.2576  0.3337
 6588SOL    HW231398   0.562   3.847   5.705  0.3292 -0.1457  0.9590
 6589SOL     OW31399   4.214   0.807   3.698  0.0190 -0.6804 -0.1745
 6589SOL    HW131400   4.137   0.753   3.676 -0.6750 -0.2555  1.1742
 6589SOL    HW231401   4.168   0.889   3.713  0.8782 -0.1397 -0.5439
 6590SOL     OW31402   3.749   0.060   8.569 -0.3628 -0.1419 -0.5343
 6590SOL    HW131403   3.767   0.087   8.659 -1.0688 -0.7456 -0.2124
 6590SOL    HW231404   3.741   0.143   8.521 -2.3619 -0.7836 -1.3173
 6591SOL     OW31405   2.892   2.553   5.219 -0.3291  0.2903 -0.2022
 6591SOL    HW131406   2.853   2.640   5.227 -0.8738  0.3209 -3.0990
 6591SOL    HW231407   2.970   2.571   5.167 -0.3589  0.1309 -0.3020
 6592SOL     OW31408   3.948   3.178  11.492  0.3405 -0.0316 -0.2277
 6592SOL    HW131409   3.876   3.239  11.479  0.5857  0.4394  0.5758
 6592SOL    HW231410   4.018   3.237  11.519  1.1126 -1.0949  0.1095
 6593SOL     OW31411   3.567   0.541   1.929  0.0185 -0.4717  0.1675
 6593SOL    HW131412   3.643   0.502   1.886  1.3439  2.6764 -0.3445
 6593SOL    HW231413   3.599   0.623   1.968  1.8000 -1.4382  0.7751
 6594SOL     OW31414   0.529   2.001   9.304  0.1400 -0.3618  0.1258
 6594SOL    HW131415   0.511   1.947   9.380  0.7101 -1.3963 -0.4764
 6594SOL    HW231416   0.596   2.056   9.343 -0.0632 -0.9929  1.3390
 6595SOL     OW31417   3.027   1.806   6.014 -0.1670  0.1025  0.2085
 6595SOL    HW131418   3.042   1.714   6.032  0.3246  0.6586  2.5958
 6595SOL    HW231419   3.114   1.837   6.038 -0.1514  0.2944 -0.0900
 6596SOL     OW31420   3.704   0.782  14.454  0.1561 -0.3498 -0.1537
 6596SOL    HW131421   3.642   0.850  14.483 -1.2986 -0.0217 -3.9760
 6596SOL    HW231422   3.745   0.762  14.538 -0.4765 -1.0923 -0.0169
 6597SOL     OW31423   3.461   3.220  13.610  0.8778 -0.3086 -0.1199
 6597SOL    HW131424   3.439   3.303  13.653  0.0368 -0.8389  0.4681
 6597SOL    HW231425   3.506   3.179  13.683 -0.5831  0.4814  1.2266
 6598SOL     OW31426   2.742   3.039  15.493  0.3175 -0.8818 -0.0362
 6598SOL    HW131427   2.686   3.103  15.448  0.9257 -1.4112 -1.5384
 6598SOL    HW231428   2.826   3.051  15.449 -0.0502  0.6167 -0.3340
 6599SOL     OW31429   0.614   2.530   0.679 -0.0107 -0.4289  0.4947
 6599SOL    HW131430   0.555   2.475   0.731 -0.0843 -1.4096 -0.5994
 6599SOL    HW231431   0.579   2.616   0.700 -2.1315 -1.2374  0.2837
 6600SOL     OW31432   1.760   0.287   1.470  0.1048 -0.4060 -0.2314
 6600SOL    HW131433   1.667   0.268   1.487 -0.2666 -0.8026 -2.7491
 6600SOL    HW231434   1.803   0.209   1.506 -0.4566 -0.1011  1.1279
 6601SOL     OW31435   2.675   3.408   3.413  0.2845  0.2372  0.1928
 6601SOL    HW131436   2.670   3.317   3.441  0.5892  0.5365  1.2215
 6601SOL    HW231437   2.591   3.418   3.369  0.5788 -0.1436 -0.4460
 6602SOL     OW31438   2.296   3.067   8.545  0.1132  0.5014 -0.1158
 6602SOL    HW131439   2.390   3.068   8.559 -0.1720 -0.3948  1.8829
 6602SOL    HW231440   2.272   3.110   8.627 -1.0008 -1.8228  0.7896
 6603SOL     OW31441   0.959   1.170   8.905 -0.2066 -0.3249  0.3218
 6603SOL    HW131442   0.986   1.091   8.952 -1.5830 -1.0855 -0.1410
 6603SOL    HW231443   1.041   1.217   8.891 -1.2583  0.6884 -2.5767
 6604SOL     OW31444   1.455   4.547  14.780 -0.2653 -0.0972  0.7055
 6604SOL    HW131445   1.364   4.577  14.791  0.4491  2.5952 -0.5778
 6604SOL    HW231446   1.492   4.585  14.860 -1.6588  4.0617 -0.6311
 6605SOL     OW31447   1.780   1.393   7.865  0.9489  0.3054 -0.6546
 6605SOL    HW131448   1.873   1.414   7.855  1.4970 -1.7238  0.1564
 6605SOL    HW231449   1.743   1.473   7.828 -0.2998 -1.0995 -2.4438
 6606SOL     OW31450   2.068   0.464  17.639  1.2563 -0.3805 -0.4737
 6606SOL    HW131451   1.993   0.415  17.673  1.1111  0.6107  0.6321
 6606SOL    HW231452   2.012   0.534  17.608  3.7200  0.2766 -3.4927
 6607SOL     OW31453   1.849   2.573  12.215  0.2764 -0.2499 -0.5628
 6607SOL    HW131454   1.781   2.598  12.152  1.3813 -0.8558 -2.0011
 6607SOL    HW231455   1.805   2.498  12.255 -2.7841  1.6492 -0.3175
 6608SOL     OW31456   1.099   1.818   5.129  0.3428 -0.4792 -0.8729
 6608SOL    HW131457   1.088   1.912   5.146 -0.0655 -1.4354  4.2239
 6608SOL    HW231458   1.116   1.833   5.036 -0.9894  1.5882 -0.7962
 6609SOL     OW31459   1.325   4.546   5.827 -0.0118  0.2362  0.1031
 6609SOL    HW131460   1.381   4.586   5.894  2.0636 -1.5482 -0.5537
 6609SOL    HW231461   1.377   4.548   5.747 -1.4810  2.8181 -0.7681
 6610SOL     OW31462   1.809   1.480   6.890 -0.6617  0.3645  0.1508
 6610SOL    HW131463   1.900   1.483   6.920 -0.8972  3.0179  0.6148
 6610SOL    HW231464   1.792   1.574   6.891 -0.8849  0.3339 -0.5774
 6611SOL     OW31465   3.266   4.428   1.701 -0.1194 -0.0874 -0.2954
 6611SOL    HW131466   3.357   4.404   1.720  0.0493  1.2379  0.5892
 6611SOL    HW231467   3.258   4.394   1.612  1.0277 -2.0665  0.3689
 6612SOL     OW31468   0.153   0.741   2.911  1.0801  0.3155  0.1373
 6612SOL    HW131469   0.159   0.742   2.815 -2.7339 -0.2347 -0.1077
 6612SOL    HW231470   0.242   0.718   2.937  1.7751 -0.8215 -3.2230
 6613SOL     OW31471   4.651   1.549   2.844 -0.1385 -0.3486 -0.1518
 6613SOL    HW131472   4.685   1.473   2.891  0.5510  0.8045  1.2444
 6613SOL    HW231473   4.659   1.623   2.904  0.0202  0.8151 -1.6089
 6614SOL     OW31474   0.798   1.282   2.081 -0.3331  0.6652 -0.6334
 6614SOL    HW131475   0.873   1.301   2.138  0.5173 -1.5534 -0.9805
 6614SOL    HW231476   0.841   1.257   1.999 -0.3538 -0.0301 -0.4383
 6615SOL     OW31477   4.593   3.929   4.219  0.4058 -0.5341 -0.1806
 6615SOL    HW131478   4.512   3.965   4.183  0.9287 -0.7250 -1.5659
 6615SOL    HW231479   4.603   3.985   4.297 -0.1894 -1.8381  0.8245
 6616SOL     OW31480   1.095   4.438   8.651  0.3740  0.1546  0.1837
 6616SOL    HW131481   1.005   4.437   8.619  0.9089  0.6337 -1.3452
 6616SOL    HW231482   1.077   4.503   8.719 -2.6795 -0.3540 -0.1772
 6617SOL     OW31483   1.496   3.182   2.513 -0.2523 -0.1600 -0.5704
 6617SOL    HW131484   1.518   3.242   2.584 -0.0377 -2.8513  1.6662
 6617SOL    HW231485   1.464   3.105   2.561 -0.5825 -0.2881 -0.9984
 6618SOL     OW31486   4.451   2.030   4.980  0.5655  0.5428  0.1486
 6618SOL    HW131487   4.387   2.084   5.026 -0.1984 -0.1432 -0.1137
 6618SOL    HW231488   4.521   2.030   5.046  2.1090 -0.3183 -1.4885
 6619SOL     OW31489   1.490   0.759  11.663 -0.2494 -0.3318  0.1855
 6619SOL    HW131490   1.493   0.853  11.682 -0.5891 -0.2563 -0.1373
 6619SOL    HW231491   1.566   0.752  11.606 -0.1574 -1.8119  0.4726
 6620SOL     OW31492   1.228   0.384   7.540  0.3714 -0.5967  0.3669
 6620SOL    HW131493   1.274   0.462   7.568 -1.3875  1.1383 -1.6059
 6620SOL    HW231494   1.262   0.313   7.595  1.3029 -0.1948  0.3037
 6621SOL     OW31495   2.097   1.497   3.547  0.4252  0.0856 -0.0107
 6621SOL    HW131496   2.043   1.445   3.606  0.6290  0.8402  0.8445
 6621SOL    HW231497   2.180   1.505   3.595  0.0958  0.5816  0.4802
 6622SOL     OW31498   0.170   3.375   2.428 -0.5281  0.2678  0.3066
 6622SOL    HW131499   0.259   3.387   2.395 -1.0469 -2.6748 -2.1623
 6622SOL    HW231500   0.124   3.446   2.383 -1.3174 -1.2925 -1.3389
 6623SOL     OW31501   0.448   0.596  14.653  0.2856  0.2314  0.3473
 6623SOL    HW131502   0.431   0.554  14.568 -0.8108  0.6679  0.3612
 6623SOL    HW231503   0.371   0.558  14.695  2.9046 -1.8342  3.3200
 6624SOL     OW31504   2.695   0.789  11.972  0.3938 -0.1839  0.1884
 6624SOL    HW131505   2.728   0.720  12.030 -0.1801 -0.2996  0.3740
 6624SOL    HW231506   2.771   0.817  11.921  0.1061 -1.3858 -0.8723
 6625SOL     OW31507   0.530   1.363   4.373  0.2201 -0.2246 -0.0869
 6625SOL    HW131508   0.559   1.448   4.406 -1.7592  0.7551 -0.8708
 6625SOL    HW231509   0.470   1.339   4.443 -1.1328  2.6035 -0.2538
 6626SOL     OW31510   1.885   1.152   7.124 -0.1808  0.2211 -0.3676
 6626SOL    HW131511   1.845   1.222   7.073  2.1777  2.5381  0.9644
 6626SOL    HW231512   1.884   1.083   7.058  1.2392  0.0116 -0.1716
 6627SOL     OW31513   3.844   4.083   7.247  0.0785  0.1889 -0.4536
 6627SOL    HW131514   3.765   4.029   7.259  1.0263 -1.4777 -1.8172
 6627SOL    HW231515   3.915   4.025   7.276 -0.9931 -1.5034 -1.1848
 6628SOL     OW31516   0.377   1.481   7.749  0.2209 -0.6829  0.1674
 6628SOL    HW131517   0.297   1.530   7.729  0.9060  0.9110  1.2657
 6628SOL    HW231518   0.365   1.434   7.831 -3.0146  0.6078  0.4249
 6629SOL     OW31519   2.646   1.833   6.939  0.0865 -0.2033  0.1557
 6629SOL    HW131520   2.676   1.750   6.903 -1.0659 -0.0685 -1.1420
 6629SOL    HW231521   2.581   1.804   7.002  1.6164 -1.9058  0.9215
 6630SOL     OW31522   2.307   4.717   4.886 -0.0646 -0.2669 -0.1520
 6630SOL    HW131523   2.334   0.055   4.933 -1.6672  0.0379  0.2677
 6630SOL    HW231524   2.354   4.651   4.936 -0.9565 -0.6865  0.1434
 6631SOL     OW31525   0.325   2.831   6.891  0.2806  0.3468 -0.0450
 6631SOL    HW131526   0.292   2.743   6.874 -2.0652  0.8251  2.1001
 6631SOL    HW231527   0.246   2.882   6.911 -0.3850 -0.7629  0.1654
 6632SOL     OW31528   3.716   1.001   6.949  0.1531 -0.2565 -0.0598
 6632SOL    HW131529   3.799   0.984   6.992 -0.5015 -1.8416  0.6101
 6632SOL    HW231530   3.684   0.920   6.909  0.0285  0.3053 -1.1098
 6633SOL     OW31531   2.039   0.666   6.698  0.3616  0.4818 -0.2813
 6633SOL    HW131532   2.113   0.608   6.679  0.6463  0.9357 -0.5748
 6633SOL    HW231533   2.069   0.757   6.687  2.5376 -0.2188 -0.1469
 6634SOL     OW31534   3.687   1.516   8.313 -0.0358  0.3194 -0.3362
 6634SOL    HW131535   3.659   1.602   8.281  0.8314  0.2063 -1.4100
 6634SOL    HW231536   3.622   1.481   8.374 -0.1941  0.0098 -0.6810
 6635SOL     OW31537   1.103   4.607   5.299  0.0043 -0.4662  0.2053
 6635SOL    HW131538   1.051   4.677   5.262  0.9741 -0.1952 -0.6522
 6635SOL    HW231539   1.038   4.537   5.303 -1.1789  0.6941  1.1993
 6636SOL     OW31540   3.869   2.597  13.142  0.0781 -0.4131 -0.5321
 6636SOL    HW131541   3.874   2.691  13.157  1.4817 -0.3027 -1.7016
 6636SOL    HW231542   3.943   2.583  13.083  1.3284  0.0832  0.9361
 6637SOL     OW31543   4.435   3.522   7.906  0.1959  0.0227  0.1743
 6637SOL    HW131544   4.511   3.580   7.903  1.5370 -1.8222 -2.1005
 6637SOL    HW231545   4.474   3.434   7.912 -1.3501 -0.5768  1.6116
 6638SOL     OW31546   2.452   3.199   5.498  0.3991  0.6866 -0.1032
 6638SOL    HW131547   2.477   3.233   5.413 -1.0408  1.2544 -0.3071
 6638SOL    HW231548   2.496   3.256   5.561 -1.5507 -0.5937  2.4821
 6639SOL     OW31549   3.529   2.161  17.426 -0.1832  0.2897  0.0890
 6639SOL    HW131550   3.588   2.168  17.351 -0.9853 -2.4070 -0.7494
 6639SOL    HW231551   3.506   2.254  17.428 -0.4071  0.2031  1.6704
 6640SOL     OW31552   3.691   0.007   5.957  0.4705  0.3630 -0.1849
 6640SOL    HW131553   3.615   0.024   5.902  2.7167  1.3238 -2.9833
 6640SOL    HW231554   3.730   4.676   5.907  0.2169  0.1196 -0.0347
 6641SOL     OW31555   4.119   1.129  16.918 -0.0874  0.2130 -0.0437
 6641SOL    HW131556   4.034   1.142  16.876  0.5565  1.7111 -0.9027
 6641SOL    HW231557   4.158   1.061  16.863 -3.0773 -0.1169 -1.7189
 6642SOL     OW31558   2.734   0.569   3.973  0.3296 -0.6245 -0.2148
 6642SOL    HW131559   2.714   0.630   4.044  0.1480 -0.6222 -0.2667
 6642SOL    HW231560   2.792   0.511   4.021 -0.5157 -1.2508  0.0516
 6643SOL     OW31561   3.976   3.444   2.797 -0.1258 -0.3221 -0.1707
 6643SOL    HW131562   3.991   3.387   2.721  1.2603  1.0332 -0.8933
 6643SOL    HW231563   4.066   3.473   2.808 -0.6855  1.2175  0.3115
 6644SOL     OW31564   1.450   3.951   9.058 -0.3889  0.4974 -0.1620
 6644SOL    HW131565   1.538   3.984   9.077 -1.2473  1.5886  1.8829
 6644SOL    HW231566   1.404   3.991   9.131  2.2557  0.0340  1.7497
 6645SOL     OW31567   3.174   2.924   2.443 -0.3962  0.0262 -0.4459
 6645SOL    HW131568   3.137   2.875   2.516 -1.4598 -0.1066 -1.0740
 6645SOL    HW231569   3.094   2.958   2.404 -0.6602 -0.5304 -0.3964
 6646SOL     OW31570   2.044   4.660  13.951  0.7215  0.0299  0.0218
 6646SOL    HW131571   2.056   4.569  13.979  0.2485  0.4276  1.4976
 6646SOL    HW231572   2.016   4.698  14.033  1.8439  1.6977 -0.3588
 6647SOL     OW31573   0.327   1.928   7.809  0.3064 -0.0274  0.0653
 6647SOL    HW131574   0.404   1.873   7.797  0.9034  0.6149  0.9264
 6647SOL    HW231575   0.319   1.922   7.904  3.2237  0.1309  0.3188
 6648SOL     OW31576   2.271   2.555   7.844  0.2046 -0.1619  0.3692
 6648SOL    HW131577   2.331   2.600   7.904 -0.0098  0.1403  0.3549
 6648SOL    HW231578   2.325   2.551   7.765 -0.7996 -0.9704 -0.2836
 6649SOL     OW31579   4.390   2.976  11.061  0.5242 -0.3543  0.1400
 6649SOL    HW131580   4.398   3.069  11.084 -3.0828  0.6491 -2.6150
 6649SOL    HW231581   4.459   2.980  10.996 -0.5691 -1.0485 -1.0738
 6650SOL     OW31582   3.595   2.190  13.517 -0.2404  0.0646  0.3300
 6650SOL    HW131583   3.515   2.239  13.497 -1.2539 -0.7944  2.2788
 6650SOL    HW231584   3.565   2.111  13.563 -0.6438 -0.1595 -0.3042
 6651SOL     OW31585   0.049   4.300   9.443 -0.0853  0.4260  0.1245
 6651SOL    HW131586   4.715   4.324   9.497 -0.2097 -0.9283  0.5473
 6651SOL    HW231587   0.080   4.389   9.424 -0.9250  0.6666 -0.1426
 6652SOL     OW31588   2.600   3.234   7.397  0.1658  0.2390 -0.1890
 6652SOL    HW131589   2.514   3.275   7.394  0.8752  1.8947  1.5413
 6652SOL    HW231590   2.642   3.279   7.471  0.3655 -1.3641  0.6811
 6653SOL     OW31591   3.615   4.311   2.290  0.1822  0.8070  0.1819
 6653SOL    HW131592   3.667   4.294   2.368  1.4358  1.0202 -0.6073
 6653SOL    HW231593   3.577   4.226   2.268 -1.4010  1.4799  0.3426
 6654SOL     OW31594   3.543   3.401   6.294 -0.0202 -0.1120 -0.3125
 6654SOL    HW131595   3.560   3.489   6.329  1.0944 -0.2753 -0.4504
 6654SOL    HW231596   3.498   3.375   6.374  1.5659 -1.1010  0.2627
 6655SOL     OW31597   4.131   1.523   1.103 -0.2973  0.2408  0.3446
 6655SOL    HW131598   4.038   1.506   1.116 -0.5587  0.6686 -0.9929
 6655SOL    HW231599   4.122   1.555   1.013  1.5442  0.1794  0.1181
 6656SOL     OW31600   3.427   0.927   9.514 -0.1511 -0.0745  0.4533
 6656SOL    HW131601   3.474   0.917   9.432  1.9799  2.0407  1.4360
 6656SOL    HW231602   3.378   1.005   9.489 -1.6934 -0.9398  0.7625
 6657SOL     OW31603   1.143   0.770   5.870  0.1849 -0.0811  0.2986
 6657SOL    HW131604   1.170   0.837   5.933 -2.9735  1.9001 -0.4948
 6657SOL    HW231605   1.184   0.693   5.911 -2.0603 -1.8870 -0.9024
 6658SOL     OW31606   1.916   0.825   7.355  0.2403 -0.2356  0.5251
 6658SOL    HW131607   2.005   0.798   7.333 -1.0950 -4.6288  0.4617
 6658SOL    HW231608   1.875   0.742   7.330  0.4070  0.8869 -3.6183
 6659SOL     OW31609   0.035   1.983  14.597  0.3905  0.4399 -0.0919
 6659SOL    HW131610   4.726   1.908  14.563 -1.0337  1.5012 -0.3761
 6659SOL    HW231611   4.712   2.052  14.579  0.3185  0.4910  0.3595
 6660SOL     OW31612   0.901   4.737   6.235  0.1198  0.2322 -0.0111
 6660SOL    HW131613   0.887   4.646   6.207 -0.0616  0.2662 -0.0296
 6660SOL    HW231614   0.847   0.004   6.313 -1.0471  1.7016 -0.9595
 6661SOL     OW31615   3.540   1.382   9.637  0.6146  0.5680  0.0427
 6661SOL    HW131616   3.608   1.365   9.572  0.8165  1.6212 -0.0296
 6661SOL    HW231617   3.571   1.465   9.676 -0.7183  1.0605  0.0641
 6662SOL     OW31618   2.199   4.081   4.771  0.2875 -0.8764  0.8933
 6662SOL    HW131619   2.127   4.023   4.746  0.6960 -1.0629  0.1469
 6662SOL    HW231620   2.216   4.123   4.687 -2.1187 -0.8985  0.3862
 6663SOL     OW31621   0.904   1.004  12.025  0.0557 -0.5191  0.2229
 6663SOL    HW131622   0.952   1.081  11.996  0.3793  0.0466  2.2222
 6663SOL    HW231623   0.912   0.933  11.962 -1.5146 -1.0559  0.6304
 6664SOL     OW31624   0.670   0.873   2.775  0.6884 -0.3917 -0.3866
 6664SOL    HW131625   0.665   0.931   2.851  0.0339  3.5283 -3.4499
 6664SOL    HW231626   0.758   0.898   2.748  1.4426 -3.1307 -0.4236
 6665SOL     OW31627   4.458   4.384   9.605 -0.2575  0.4531  0.0588
 6665SOL    HW131628   4.449   4.291   9.626 -1.6969  0.5611 -0.0582
 6665SOL    HW231629   4.377   4.419   9.644  0.1110 -0.3275  1.5244
 6666SOL     OW31630   3.020   0.419  14.280 -0.2339  0.6541 -0.3812
 6666SOL    HW131631   3.067   0.336  14.291 -1.2239  0.1684  0.1770
 6666SOL    HW231632   3.058   0.433  14.193 -1.3067  2.9404 -0.4646
 6667SOL     OW31633   1.986   0.540   7.074 -0.5183 -0.0856  0.6022
 6667SOL    HW131634   1.955   0.473   7.135  0.2971 -1.8588 -0.9632
 6667SOL    HW231635   2.055   0.494   7.028 -1.3210  1.4551 -2.1387
 6668SOL     OW31636   3.957   2.939   3.071  0.3202 -0.4223 -0.4066
 6668SOL    HW131637   4.008   2.864   3.100 -0.3273 -0.3777  0.8808
 6668SOL    HW231638   4.023   2.977   3.013 -1.6394 -2.2631 -3.8372
 6669SOL     OW31639   0.491   3.628  15.595 -0.1859 -0.2848 -0.1290
 6669SOL    HW131640   0.500   3.604  15.503  0.8918 -1.1854  0.2073
 6669SOL    HW231641   0.527   3.715  15.610 -0.7429  0.1147 -1.1461
 6670SOL     OW31642   0.277   2.311   0.504  0.1954 -0.1671 -0.5868
 6670SOL    HW131643   0.263   2.275   0.417  3.5032  2.5887 -2.2575
 6670SOL    HW231644   0.251   2.402   0.488 -0.0353  0.1318  1.4503
 6671SOL     OW31645   3.129   3.229   4.920  0.5011 -0.3572 -0.1895
 6671SOL    HW131646   3.118   3.314   4.962 -0.0816 -0.6398  0.2162
 6671SOL    HW231647   3.222   3.210   4.936  0.3022 -1.9587 -0.9544
 6672SOL     OW31648   2.112   3.623   7.701 -0.0210  0.4881  0.7621
 6672SOL    HW131649   2.145   3.695   7.648 -1.7065  0.5281 -0.2388
 6672SOL    HW231650   2.110   3.674   7.782 -2.4626 -0.9181  1.6266
 6673SOL     OW31651   3.045   1.348   6.361  0.7533  0.4855  0.3937
 6673SOL    HW131652   3.029   1.363   6.454  1.9472  0.5374  0.5924
 6673SOL    HW231653   3.088   1.263   6.368 -1.4040 -0.6669 -0.5128
 6674SOL     OW31654   0.109   1.066   8.570 -0.4561 -0.0679 -0.2831
 6674SOL    HW131655   0.113   1.149   8.523 -2.0233 -0.3689 -0.9203
 6674SOL    HW231656   0.134   1.018   8.491 -1.0435 -0.3393 -0.3052
 6675SOL     OW31657   2.941   2.707  16.686  0.4874  0.3601  0.2826
 6675SOL    HW131658   2.956   2.802  16.688  4.1108 -0.1754 -0.3898
 6675SOL    HW231659   2.966   2.687  16.595  0.9343  0.9830  0.2667
 6676SOL     OW31660   0.047   3.151   3.078  0.3029 -0.1114 -0.2040
 6676SOL    HW131661   0.025   3.162   3.170  0.0386  1.9774 -0.4968
 6676SOL    HW231662   0.042   3.240   3.042 -2.2788 -1.7760 -3.9298
 6677SOL     OW31663   1.778   0.559   9.184 -0.1648 -0.0622 -0.6619
 6677SOL    HW131664   1.767   0.618   9.258  1.1596 -1.9173  1.0017
 6677SOL    HW231665   1.768   0.474   9.227  1.1755  0.4672  0.6889
 6678SOL     OW31666   2.489   0.661   4.459 -0.3097 -0.1579  0.1167
 6678SOL    HW131667   2.456   0.688   4.373 -0.1935 -0.6699 -0.0856
 6678SOL    HW231668   2.574   0.622   4.438 -0.2239  0.3403 -0.4686
 6679SOL     OW31669   2.803   0.137  12.843 -0.0170 -0.1242  0.2490
 6679SOL    HW131670   2.773   0.227  12.848  0.3755 -0.0063  0.4735
 6679SOL    HW231671   2.805   0.124  12.748 -1.5724  1.9671 -0.0597
 6680SOL     OW31672   1.593   0.824   7.110 -0.3401  0.1637  0.2460
 6680SOL    HW131673   1.661   0.833   7.176  0.5875 -0.2320 -0.6534
 6680SOL    HW231674   1.605   0.905   7.060  0.0451 -0.1558 -0.1803
 6681SOL     OW31675   3.057   1.535  15.520  0.0330 -0.2486  0.2614
 6681SOL    HW131676   3.126   1.553  15.584  0.0748 -0.8620  0.3861
 6681SOL    HW231677   3.047   1.441  15.533 -4.0798  0.2265  0.4105
 6682SOL     OW31678   3.755   1.159   7.848  0.0244 -0.5573  0.5114
 6682SOL    HW131679   3.697   1.098   7.802 -2.5321  1.5206  0.9701
 6682SOL    HW231680   3.842   1.140   7.814  0.7403  3.7933 -0.0919
 6683SOL     OW31681   3.515   1.215   7.021 -0.0149  0.5342 -0.5368
 6683SOL    HW131682   3.566   1.135   7.015 -2.7604 -1.3881  1.8274
 6683SOL    HW231683   3.519   1.231   6.926 -2.9441  1.0369 -0.5686
 6684SOL     OW31684   0.314   4.407   3.208  0.3861  0.4566  0.0158
 6684SOL    HW131685   0.245   4.473   3.218  2.5758  2.3168  2.8844
 6684SOL    HW231686   0.379   4.427   3.275  0.9153 -1.1140 -0.0501
 6685SOL     OW31687   2.172   0.011   3.217  0.3794  0.5961  0.3518
 6685SOL    HW131688   2.238   4.723   3.281  0.8858 -0.8660 -0.8176
 6685SOL    HW231689   2.104   4.685   3.227  1.8180 -0.8598  0.4810
 6686SOL     OW31690   1.540   0.725   7.395 -0.0149  0.0908 -0.4188
 6686SOL    HW131691   1.600   0.655   7.371  0.9135  0.6270  0.3478
 6686SOL    HW231692   1.499   0.676   7.467  0.3084  3.0244  1.7833
 6687SOL     OW31693   3.584   1.159   2.932  0.0849  0.2367 -0.2259
 6687SOL    HW131694   3.591   1.065   2.914  0.4213  0.2601 -0.2258
 6687SOL    HW231695   3.493   1.169   2.957  0.4029  0.7587  0.7386
 6688SOL     OW31696   3.227   3.075   4.388 -0.9544  0.1711  0.0316
 6688SOL    HW131697   3.239   3.033   4.303 -2.0675 -1.5535  0.7147
 6688SOL    HW231698   3.140   3.113   4.381 -0.1493  1.6989 -1.4881
 6689SOL     OW31699   4.526   3.526   2.543 -0.4859  0.2515  0.3759
 6689SOL    HW131700   4.436   3.529   2.512 -0.0792 -1.5286 -0.9672
 6689SOL    HW231701   4.536   3.603   2.600  1.8537  2.4296 -2.9812
 6690SOL     OW31702   2.799   0.048   3.409  0.3632 -0.0630 -0.6295
 6690SOL    HW131703   2.884   0.060   3.365  0.0082 -0.3758 -1.4002
 6690SOL    HW231704   2.825   0.078   3.496 -2.5600  1.3185 -0.2445
 6691SOL     OW31705   0.128   2.049   5.580  0.2940  0.4243  0.5089
 6691SOL    HW131706   0.189   2.028   5.509  0.3763  0.6246  0.5225
 6691SOL    HW231707   0.175   2.122   5.621  0.5841  0.7156 -0.3509
 6692SOL     OW31708   2.527   2.703  17.145 -0.0526  0.6820 -0.9226
 6692SOL    HW131709   2.461   2.763  17.179  0.9684  1.2153  0.1528
 6692SOL    HW231710   2.603   2.733  17.195 -0.2519  0.4621 -0.4954
 6693SOL     OW31711   4.596   3.302   8.138  0.1952 -0.5449 -0.0560
 6693SOL    HW131712   4.652   3.369   8.102  1.9937 -2.7259 -1.3105
 6693SOL    HW231713   4.520   3.293   8.080 -0.1266 -1.4778  0.5022
 6694SOL     OW31714   2.680   1.782  11.831 -0.3232 -0.0684  0.0978
 6694SOL    HW131715   2.693   1.871  11.864  0.8001 -0.4661  0.7448
 6694SOL    HW231716   2.722   1.738  11.905 -1.1092  2.2565  1.9219
 6695SOL     OW31717   2.279   3.750   2.199  0.9252  0.1100  0.0770
 6695SOL    HW131718   2.229   3.754   2.281 -0.1840 -1.7312 -0.5116
 6695SOL    HW231719   2.366   3.717   2.224 -0.4941 -2.9444  0.9742
 6696SOL     OW31720   3.321   1.565   8.714 -0.8492 -0.0219 -0.6481
 6696SOL    HW131721   3.275   1.648   8.705 -1.9095 -0.4921  0.5190
 6696SOL    HW231722   3.274   1.526   8.787  0.7073 -0.2560  0.2353
 6697SOL     OW31723   0.292   1.263   6.442 -0.6779 -0.2494  0.1977
 6697SOL    HW131724   0.311   1.179   6.399 -1.3353  0.2816 -1.0935
 6697SOL    HW231725   0.369   1.272   6.499  0.8760 -1.2764 -1.7446
 6698SOL     OW31726   0.911   0.344   5.329 -0.2894 -0.4434 -0.5628
 6698SOL    HW131727   0.957   0.363   5.248  3.0643 -1.2087  1.1448
 6698SOL    HW231728   0.818   0.359   5.310 -0.5653 -1.4760 -0.0821
 6699SOL     OW31729   0.197   3.052   6.675 -0.2598  0.2498  0.5614
 6699SOL    HW131730   0.154   3.136   6.657 -0.8781  0.2276  1.9275
 6699SOL    HW231731   0.196   3.059   6.771 -0.6410  2.8163  0.3684
 6700SOL     OW31732   3.100   1.518  17.076  0.3250 -0.4399  0.2177
 6700SOL    HW131733   3.184   1.545  17.038  0.6215 -0.6082  0.7590
 6700SOL    HW231734   3.053   1.490  16.998  0.2979 -0.5425  0.2709
 6701SOL     OW31735   2.440   4.378   0.208 -0.6782  0.0434 -0.2341
 6701SOL    HW131736   2.428   4.349   0.298  1.4671  1.8921  0.6492
 6701SOL    HW231737   2.516   4.434   0.223 -0.8296 -0.8701  4.0606
 6702SOL     OW31738   1.372   2.083   7.442  0.0502 -0.2137  0.7382
 6702SOL    HW131739   1.290   2.089   7.491 -1.1899 -2.0131 -1.1204
 6702SOL    HW231740   1.340   2.110   7.356  1.5312 -0.2077  0.1921
 6703SOL     OW31741   1.520   3.868   2.197 -0.4114 -0.1487 -0.4822
 6703SOL    HW131742   1.569   3.942   2.160 -1.7003  1.8005  1.7173
 6703SOL    HW231743   1.431   3.892   2.169 -0.2063  0.3116 -0.7477
 6704SOL     OW31744   1.679   4.438  15.534  0.3190  0.0261  0.0608
 6704SOL    HW131745   1.597   4.396  15.507  1.3846 -1.3496 -1.0424
 6704SOL    HW231746   1.685   4.497  15.460  0.4259 -1.3088 -0.9967
 6705SOL     OW31747   4.137   2.058  10.389  0.3763 -0.0589 -0.2026
 6705SOL    HW131748   4.061   2.011  10.422  2.7788 -2.6631  1.5861
 6705SOL    HW231749   4.209   2.005  10.422  2.2689  1.6787 -1.4947
 6706SOL     OW31750   0.455   2.882   6.272 -0.0655 -0.1517  0.0673
 6706SOL    HW131751   0.438   2.866   6.365 -0.5994 -0.6751 -0.1239
 6706SOL    HW231752   0.418   2.970   6.262 -0.5059 -0.2884  0.4777
 6707SOL     OW31753   1.796   1.118   6.120 -0.5922 -0.1513  0.1242
 6707SOL    HW131754   1.789   1.169   6.200 -0.2362 -0.3095  0.2589
 6707SOL    HW231755   1.724   1.143   6.062 -0.1797 -0.6387 -0.5948
 6708SOL     OW31756   0.350   3.043   7.845 -0.2020 -0.5945 -0.4959
 6708SOL    HW131757   0.417   3.098   7.804 -0.4752  1.0442  1.2801
 6708SOL    HW231758   0.402   3.000   7.913 -2.1409  0.2047  1.4895
 6709SOL     OW31759   1.520   1.975   5.456  0.3168  0.5921  0.6225
 6709SOL    HW131760   1.548   2.054   5.502 -0.4139  0.2390  1.6625
 6709SOL    HW231761   1.449   2.012   5.404  0.4319 -0.5450 -0.3217
 6710SOL     OW31762   3.298   1.140  16.873 -0.0037 -0.1632 -0.4114
 6710SOL    HW131763   3.338   1.184  16.949  2.1549 -1.4377 -0.8266
 6710SOL    HW231764   3.207   1.128  16.900  0.4509  0.0604  1.2453
 6711SOL     OW31765   2.800   0.336   7.590  0.3115 -0.5423  0.1494
 6711SOL    HW131766   2.715   0.355   7.552  0.5719 -0.0351 -0.1825
 6711SOL    HW231767   2.856   0.384   7.528 -0.0983 -1.9748 -1.3223
 6712SOL     OW31768   3.972   0.263  10.076 -0.2057 -0.6157 -0.1490
 6712SOL    HW131769   4.036   0.287  10.010 -0.5056 -0.1770 -0.2801
 6712SOL    HW231770   3.957   0.169  10.066  1.1208 -0.7153 -1.0999
 6713SOL     OW31771   0.560   1.447  14.567 -0.0357  0.4850  0.0947
 6713SOL    HW131772   0.509   1.504  14.625 -2.0240 -0.3262 -0.8420
 6713SOL    HW231773   0.527   1.470  14.480  0.6490  2.1466  0.2743
 6714SOL     OW31774   3.021   0.463   5.266  0.7472  0.3478  0.2038
 6714SOL    HW131775   3.016   0.514   5.186 -0.2785 -0.5728 -0.3034
 6714SOL    HW231776   3.072   0.523   5.321 -0.1668  0.5662  0.8087
 6715SOL     OW31777   3.670   3.975   2.912 -0.2630 -0.2773 -0.0350
 6715SOL    HW131778   3.576   3.982   2.895 -0.6626 -2.6150  1.1479
 6715SOL    HW231779   3.703   4.013   2.831 -0.0748  3.5732  1.8420
 6716SOL     OW31780   4.701   2.078  15.009 -0.3167 -0.0092  0.1584
 6716SOL    HW131781   0.036   2.035  14.968  0.4952  1.0109  0.5920
 6716SOL    HW231782   0.006   2.101  15.089  0.6438  2.6512 -1.1452
 6717SOL     OW31783   2.971   2.957   5.210 -0.0819 -0.2021 -0.5120
 6717SOL    HW131784   2.912   2.888   5.241 -2.0357  0.6589 -2.3597
 6717SOL    HW231785   2.910   3.030   5.195 -0.5110 -0.2536  0.9555
 6718SOL     OW31786   4.304   3.991   6.939  0.5808 -0.5613 -0.1270
 6718SOL    HW131787   4.340   4.054   7.001  3.4970 -0.8954 -1.5131
 6718SOL    HW231788   4.294   3.916   6.997 -0.6764  1.1486  1.8435
 6719SOL     OW31789   4.427   3.539  14.984 -0.2948  0.0841  0.3942
 6719SOL    HW131790   4.335   3.564  14.975 -0.2802 -0.7242 -1.9149
 6719SOL    HW231791   4.416   3.467  15.046 -2.6270 -0.9199 -1.1896
 6720SOL     OW31792   2.434   1.354   2.436 -0.0722  1.2055  0.3428
 6720SOL    HW131793   2.400   1.329   2.521 -0.3621 -2.8282 -0.9560
 6720SOL    HW231794   2.374   1.421   2.404 -0.6787  1.0518  1.1773
 6721SOL     OW31795   3.219   0.479  17.008  0.7126  0.3351  0.3326
 6721SOL    HW131796   3.177   0.559  16.975 -1.5427 -1.6859 -1.6913
 6721SOL    HW231797   3.288   0.477  16.942 -0.9900 -0.9477 -1.4049
 6722SOL     OW31798   1.826   0.057   3.202 -0.2686 -0.2288 -0.0984
 6722SOL    HW131799   1.860   4.717   3.240 -0.1830  0.3202  0.9764
 6722SOL    HW231800   1.864   0.126   3.256  0.4033  0.3877 -1.3448
 6723SOL     OW31801   3.982   1.251  10.012  0.2055 -0.3384 -0.5979
 6723SOL    HW131802   3.967   1.278  10.102  0.4418 -0.4955 -0.5099
 6723SOL    HW231803   3.913   1.185  10.004 -2.6630  2.3253  2.1110
 6724SOL     OW31804   3.784   1.981  13.643 -0.2537  0.1049 -0.7142
 6724SOL    HW131805   3.836   1.911  13.682 -1.5594 -0.8813 -0.7458
 6724SOL    HW231806   3.703   1.982  13.695 -0.7655 -1.3070 -1.4784
 6725SOL     OW31807   0.735   2.064   9.435  0.2602  0.0642 -0.4515
 6725SOL    HW131808   0.726   1.980   9.480 -1.1740  0.4249 -0.0692
 6725SOL    HW231809   0.828   2.079   9.424  0.4216 -1.1758 -0.8513
 6726SOL     OW31810   3.510   2.322   4.962  0.2192  0.2125  0.2658
 6726SOL    HW131811   3.528   2.388   5.029  0.4059 -1.0858  1.5014
 6726SOL    HW231812   3.574   2.255   4.985  1.0464  0.8535 -0.1531
 6727SOL     OW31813   2.714   0.487   4.769  0.4996  0.1651 -0.1345
 6727SOL    HW131814   2.738   0.576   4.743  0.0671  0.2155 -0.3676
 6727SOL    HW231815   2.799   0.444   4.775  0.8106  0.7238 -0.5472
 6728SOL     OW31816   0.325   2.923   7.262  0.0227 -0.0818  0.3712
 6728SOL    HW131817   0.277   2.842   7.280  0.5203 -0.5671 -0.4594
 6728SOL    HW231818   0.407   2.910   7.310 -1.2967 -1.2936  2.3113
 6729SOL     OW31819   4.003   1.040   5.010 -0.7748 -0.2983 -0.0924
 6729SOL    HW131820   4.045   1.120   4.979 -1.1611  0.0709  0.3547
 6729SOL    HW231821   4.023   1.046   5.103 -0.4085  1.3136 -0.2854
 6730SOL     OW31822   4.554   1.073   2.816  0.2574  0.5645  0.2903
 6730SOL    HW131823   4.468   1.046   2.848 -0.1139  0.1359 -1.0705
 6730SOL    HW231824   4.612   1.040   2.885  0.8627  0.0981 -0.4474
 6731SOL     OW31825   3.887   2.985   6.246  0.1511  0.4761  0.4199
 6731SOL    HW131826   3.804   3.032   6.256 -0.5629 -0.6744 -0.0187
 6731SOL    HW231827   3.902   2.956   6.336 -1.5869  2.4418  1.3431
 6732SOL     OW31828   0.270   1.721   3.837  0.1279  0.0621  0.5245
 6732SOL    HW131829   0.263   1.734   3.742  2.7517  0.7931  0.4455
 6732SOL    HW231830   0.242   1.630   3.850  1.0062 -0.6183 -2.3412
 6733SOL     OW31831   2.246   1.576   1.734 -0.2711  0.7257 -0.0897
 6733SOL    HW131832   2.238   1.622   1.650 -0.8523  0.8258  0.0227
 6733SOL    HW231833   2.161   1.542   1.761 -0.6696  2.1156  0.4132
 6734SOL     OW31834   1.905   1.039   8.757  0.2314  0.0915 -0.0052
 6734SOL    HW131835   1.923   0.961   8.809  0.3284 -0.0593 -0.2657
 6734SOL    HW231836   1.962   1.107   8.792  0.1328 -0.6700  1.6195
 6735SOL     OW31837   1.508   2.513  14.540  0.3213 -0.2300  0.1467
 6735SOL    HW131838   1.490   2.420  14.555 -0.6911 -0.3642 -1.8879
 6735SOL    HW231839   1.603   2.499  14.545  0.2986 -0.0885  1.0492
 6736SOL     OW31840   1.326   2.264   8.423 -0.1320 -0.6649  0.2779
 6736SOL    HW131841   1.410   2.270   8.468 -0.4287  1.7729  0.5381
 6736SOL    HW231842   1.284   2.349   8.437 -0.8147 -1.1260  1.0253
 6737SOL     OW31843   3.443   0.904   5.400 -0.1126  0.3682  0.1884
 6737SOL    HW131844   3.383   0.872   5.467 -1.3756  0.9359 -0.6644
 6737SOL    HW231845   3.434   1.000   5.399  2.0694  0.5813  0.0334
 6738SOL     OW31846   0.798   4.640  14.842  0.2274 -0.5124 -0.2928
 6738SOL    HW131847   0.823   4.732  14.843  0.6041 -0.5986 -1.7344
 6738SOL    HW231848   0.708   4.648  14.872 -0.2587  0.9574 -2.1881
 6739SOL     OW31849   4.683   0.951  17.136 -0.2624  0.0125 -0.4072
 6739SOL    HW131850   4.613   0.955  17.072 -1.1239  0.4522  0.5553
 6739SOL    HW231851   4.740   1.024  17.109 -1.1590  1.1389  0.6991
 6740SOL     OW31852   0.705   3.996   4.445 -0.4514 -0.5754  0.1660
 6740SOL    HW131853   0.625   3.948   4.424 -0.1205 -1.1061  0.0918
 6740SOL    HW231854   0.742   4.016   4.359 -1.8584 -1.3968 -0.6425
 6741SOL     OW31855   1.843   0.924   5.611  0.2717  0.8289 -0.2142
 6741SOL    HW131856   1.876   0.957   5.695  0.5830  1.4406 -0.5768
 6741SOL    HW231857   1.857   0.998   5.553  0.1631  0.3840 -0.8031
 6742SOL     OW31858   4.040   4.574   8.801 -0.3355  0.4132  0.1216
 6742SOL    HW131859   4.073   4.627   8.728 -1.2749 -0.4174 -0.8983
 6742SOL    HW231860   3.981   4.519   8.750  1.8833  0.1730 -2.1454
 6743SOL     OW31861   0.253   2.020   3.636  0.0694 -0.5224  0.5157
 6743SOL    HW131862   0.248   1.954   3.567 -1.4616  0.5750 -0.4088
 6743SOL    HW231863   0.182   2.077   3.609  1.0880 -0.1726 -1.3836
 6744SOL     OW31864   0.691   3.728   3.414 -0.1786 -0.0729  0.3325
 6744SOL    HW131865   0.692   3.808   3.363 -1.4941  0.0059  0.4305
 6744SOL    HW231866   0.785   3.710   3.424 -0.3619 -0.2602  1.6561
 6745SOL     OW31867   1.177   0.449   7.965 -0.0338  0.2462 -0.7304
 6745SOL    HW131868   1.093   0.490   7.984 -0.3435 -0.6575 -0.1596
 6745SOL    HW231869   1.226   0.529   7.984  1.9118 -0.8787 -1.0250
 6746SOL     OW31870   2.952   2.448   6.160  0.2108 -0.3995  0.4645
 6746SOL    HW131871   2.902   2.408   6.089  0.0683  2.3143 -0.9383
 6746SOL    HW231872   2.935   2.393   6.237 -0.3081 -2.3131 -1.0035
 6747SOL     OW31873   0.349   2.437   2.093  0.1414  0.0999  1.1886
 6747SOL    HW131874   0.375   2.411   2.182 -0.0012 -1.1374  0.8742
 6747SOL    HW231875   0.256   2.421   2.106  0.1167 -0.2085  0.6059
 6748SOL     OW31876   3.980   0.632   7.123  0.7944  0.3034  0.1443
 6748SOL    HW131877   3.949   0.634   7.032  1.4085 -0.9930 -0.0907
 6748SOL    HW231878   3.909   0.591   7.173 -0.7615  0.0543 -2.2218
 6749SOL     OW31879   3.157   4.679   2.388  0.9711 -0.1518  0.2237
 6749SOL    HW131880   3.113   4.612   2.335  0.9740 -0.4497  0.6061
 6749SOL    HW231881   3.093   0.004   2.416 -0.0695 -1.3527  0.6393
 6750SOL     OW31882   2.609   4.515   4.071  0.1324 -0.6381 -0.3847
 6750SOL    HW131883   2.696   4.554   4.083 -1.0203  1.0118  2.5164
 6750SOL    HW231884   2.582   4.565   3.994 -0.0746 -0.6136 -0.2945
 6751SOL     OW31885   0.304   0.690  15.879  0.4655 -0.4439 -0.1549
 6751SOL    HW131886   0.210   0.677  15.871  0.2185  2.2523 -1.6278
 6751SOL    HW231887   0.310   0.744  15.957 -0.9886 -1.4569  0.6582
 6752SOL     OW31888   4.737   1.103  16.343  0.2577  0.0852 -0.7256
 6752SOL    HW131889   4.662   1.108  16.283  0.4815 -1.9900 -1.1586
 6752SOL    HW231890   0.022   1.194  16.357  1.0860  0.1169 -2.5075
 6753SOL     OW31891   0.834   3.338   5.667  0.2909  0.3107 -0.4760
 6753SOL    HW131892   0.751   3.291   5.666  0.1935  0.4770 -0.0957
 6753SOL    HW231893   0.888   3.285   5.725 -2.9630 -2.3059  0.2007
 6754SOL     OW31894   3.258   1.364   7.057 -0.0072  0.2950 -0.6037
 6754SOL    HW131895   3.334   1.308   7.071 -0.3825  0.0909  0.6876
 6754SOL    HW231896   3.228   1.348   6.968 -1.0120 -1.2109  0.0055
 6755SOL     OW31897   2.020   2.923   1.929  0.6637 -0.2778  0.4261
 6755SOL    HW131898   2.003   3.017   1.931 -0.7632 -0.5070 -1.1758
 6755SOL    HW231899   2.079   2.918   2.004 -1.8396 -0.9358  2.3407
 6756SOL     OW31900   1.928   0.367  11.221 -0.2739 -0.1100  0.0881
 6756SOL    HW131901   1.997   0.333  11.164 -0.4278 -0.5692  0.1733
 6756SOL    HW231902   1.972   0.441  11.262 -0.4903  0.6487 -1.0460
 6757SOL     OW31903   3.969   3.232   0.002 -0.1162 -0.7500  0.3791
 6757SOL    HW131904   4.017   3.256  17.683  1.1109  1.1502  1.6900
 6757SOL    HW231905   3.906   3.302   0.014 -0.0029 -0.7570  1.0454
 6758SOL     OW31906   4.454   1.202   8.416 -0.1762 -0.5235  0.4267
 6758SOL    HW131907   4.382   1.226   8.357 -2.0145 -0.0866  2.8533
 6758SOL    HW231908   4.405   1.153   8.482 -2.9468  0.0591 -1.1851
 6759SOL     OW31909   2.466   2.672   4.406 -0.1159  0.0561 -0.1923
 6759SOL    HW131910   2.463   2.656   4.312 -0.9077 -0.0449 -0.1521
 6759SOL    HW231911   2.561   2.668   4.420 -0.4135  0.6614  2.1253
 6760SOL     OW31912   4.626   2.879   7.741  0.3262 -0.1584  0.5700
 6760SOL    HW131913   4.670   2.866   7.825 -0.1745 -1.5376  0.6080
 6760SOL    HW231914   4.687   2.943   7.702  0.5421 -0.1240  0.9623
 6761SOL     OW31915   0.166   0.043   1.571  0.0062 -0.5432 -0.3636
 6761SOL    HW131916   0.261   0.031   1.576  0.2630  1.7500  0.7712
 6761SOL    HW231917   0.161   0.094   1.653  0.1399  2.0577 -1.9631
 6762SOL     OW31918   1.210   2.988  13.973 -0.3415 -0.1224 -0.2141
 6762SOL    HW131919   1.151   2.939  14.030 -0.0797  0.0723  0.2188
 6762SOL    HW231920   1.196   2.939  13.892 -3.0264 -0.7060  0.6124
 6763SOL     OW31921   4.233   4.727  12.707  0.0440  0.1639 -0.6300
 6763SOL    HW131922   4.155   4.729  12.763  0.8153 -0.2101  0.4687
 6763SOL    HW231923   4.293   4.678  12.763  0.3933  1.9657  0.5753
 6764SOL     OW31924   2.836   1.065   5.143  0.0728 -0.0892 -0.1546
 6764SOL    HW131925   2.771   1.038   5.208  1.2981 -2.3180  0.1400
 6764SOL    HW231926   2.827   0.998   5.075 -0.3844 -0.0803 -0.1037
 6765SOL     OW31927   3.649   4.610   3.706 -0.5457  0.2078  0.4751
 6765SOL    HW131928   3.654   4.696   3.663 -0.1620  0.8202  1.7535
 6765SOL    HW231929   3.632   4.632   3.797 -2.6999  1.4127 -0.2214
 6766SOL     OW31930   2.715   1.060  12.375 -0.5092  0.6182 -0.0553
 6766SOL    HW131931   2.625   1.060  12.408 -0.6140 -0.3208 -0.3280
 6766SOL    HW231932   2.769   1.119  12.427 -1.1343  0.8756  0.3043
 6767SOL     OW31933   4.424   1.320   2.908 -0.5815  0.5173 -0.2224
 6767SOL    HW131934   4.409   1.395   2.850  0.7057  0.8309 -0.1564
 6767SOL    HW231935   4.474   1.255   2.858  0.0872  0.5164  0.4584
 6768SOL     OW31936   4.614   1.909   2.155 -0.0491  0.0677 -0.6247
 6768SOL    HW131937   4.534   1.866   2.187 -0.3814  0.6578 -0.6597
 6768SOL    HW231938   4.659   1.920   2.239 -1.3427 -0.6725  0.1666
 6769SOL     OW31939   4.477   0.350   2.883 -0.0324  0.3465 -0.4234
 6769SOL    HW131940   4.413   0.279   2.888  0.3203  0.1086  0.7675
 6769SOL    HW231941   4.451   0.368   2.792  1.4973 -1.8398 -1.2758
 6770SOL     OW31942   1.543   2.791  11.317 -0.0789 -0.1932  0.6942
 6770SOL    HW131943   1.450   2.784  11.336 -0.9171 -0.7133 -3.5913
 6770SOL    HW231944   1.576   2.816  11.403  1.0560 -0.1877  0.2627
 6771SOL     OW31945   0.546   0.255   3.202 -0.4275  0.1466 -0.3712
 6771SOL    HW131946   0.589   0.252   3.117 -0.7538  0.2221 -0.5385
 6771SOL    HW231947   0.624   0.242   3.256  0.2560  1.4360 -1.0541
 6772SOL     OW31948   0.336   0.550   3.377  0.6098 -0.2427 -0.3144
 6772SOL    HW131949   0.338   0.639   3.342 -1.4164 -0.1063 -0.1090
 6772SOL    HW231950   0.306   0.498   3.302  0.9905 -1.8080  0.6143
 6773SOL     OW31951   1.033   2.328  12.421 -0.1521 -0.3012 -0.5515
 6773SOL    HW131952   1.108   2.347  12.364 -0.3189 -0.8375 -0.9497
 6773SOL    HW231953   1.052   2.241  12.455 -1.1107 -0.2499  0.1240
 6774SOL     OW31954   4.394   4.108  10.594 -0.3676 -0.1197 -0.4178
 6774SOL    HW131955   4.434   4.082  10.511  2.2981 -2.7005  1.6782
 6774SOL    HW231956   4.469   4.129  10.649 -0.6939 -3.7148  1.4348
 6775SOL     OW31957   4.446   4.127   9.044 -0.1644  0.1303 -0.2904
 6775SOL    HW131958   4.503   4.128   9.120 -1.0683  0.1344  0.3862
 6775SOL    HW231959   4.376   4.069   9.074  1.6624 -1.7752  0.2566
 6776SOL     OW31960   4.218   3.713   5.126  0.1493  0.3491  0.1193
 6776SOL    HW131961   4.195   3.623   5.151  2.3497 -0.1863  0.2169
 6776SOL    HW231962   4.243   3.703   5.034  1.1081 -0.1108  0.4306
 6777SOL     OW31963   4.396   2.820   1.421 -0.0852  0.8380 -0.0739
 6777SOL    HW131964   4.418   2.810   1.514 -1.5125 -0.3205  0.1408
 6777SOL    HW231965   4.333   2.748   1.423  2.4261 -1.3581  0.8701
 6778SOL     OW31966   4.422   0.615   4.092 -0.7389 -0.0950 -0.2781
 6778SOL    HW131967   4.338   0.656   4.072 -0.6208 -0.4353 -1.4921
 6778SOL    HW231968   4.462   0.691   4.134  0.0661  0.2804 -1.7208
 6779SOL     OW31969   1.217   0.835   4.283 -0.2172 -0.1057  0.3233
 6779SOL    HW131970   1.216   0.915   4.335  3.1756  1.1712 -1.5665
 6779SOL    HW231971   1.278   0.790   4.341 -0.0339 -0.4692 -0.1466
 6780SOL     OW31972   3.500   0.716   9.929 -0.6206 -1.2075  0.1161
 6780SOL    HW131973   3.574   0.757   9.974  0.9123 -3.0396 -0.7351
 6780SOL    HW231974   3.462   0.789   9.880  1.4921 -0.9824 -1.2028
 6781SOL     OW31975   2.026   1.781   8.400 -0.1137  0.8093 -0.4300
 6781SOL    HW131976   1.967   1.847   8.362  0.2290  1.4927  0.2355
 6781SOL    HW231977   2.044   1.815   8.487  1.8072 -1.7180  0.1769
 6782SOL     OW31978   2.472   2.741   9.699  0.2277 -0.6325  0.5101
 6782SOL    HW131979   2.399   2.727   9.639 -0.2253  1.2001  0.6185
 6782SOL    HW231980   2.519   2.814   9.659 -1.4478  0.0222 -0.2582
 6783SOL     OW31981   1.284   1.355   6.300 -0.0111 -0.1587 -0.0972
 6783SOL    HW131982   1.296   1.450   6.304 -1.6018  0.1148 -1.8137
 6783SOL    HW231983   1.367   1.324   6.336 -1.2952 -4.0367 -0.4747
 6784SOL     OW31984   3.046   4.669   6.141 -0.1041 -0.8221  0.3642
 6784SOL    HW131985   3.094   4.643   6.219 -2.8349 -1.7826  1.7081
 6784SOL    HW231986   3.077   4.606   6.076  0.2880  1.1627 -1.4013
 6785SOL     OW31987   2.251   0.628   2.609 -0.1220  0.1554  0.4874
 6785SOL    HW131988   2.326   0.571   2.627 -0.6133 -1.2018 -1.7569
 6785SOL    HW231989   2.262   0.614   2.515 -1.6133  1.2846  0.1483
 6786SOL     OW31990   2.862   3.641   2.093  0.4564  0.2208 -0.2109
 6786SOL    HW131991   2.880   3.635   2.187  0.4824  0.2723 -0.2127
 6786SOL    HW231992   2.817   3.726   2.095 -0.0611 -0.0377 -0.6581
 6787SOL     OW31993   1.009   1.129   8.313 -1.0111  0.1006 -0.5725
 6787SOL    HW131994   0.974   1.054   8.361  2.0044 -1.3431 -0.5945
 6787SOL    HW231995   1.100   1.118   8.341 -1.2405  0.6618  0.3807
 6788SOL     OW31996   3.797   3.063   9.858  0.5234  0.0826 -0.0924
 6788SOL    HW131997   3.745   2.982   9.859 -0.7056  0.9041  1.4773
 6788SOL    HW231998   3.796   3.089   9.950 -0.8038  1.5914 -0.5422
 6789SOL     OW31999   2.458   0.113   0.934  0.6828 -0.0530  0.0910
 6789SOL    HW132000   2.383   0.056   0.922  0.9537 -0.2296 -0.7443
 6789SOL    HW232001   2.408   0.189   0.964 -0.6849  0.1005 -2.6341
 6790SOL     OW32002   2.761   3.748   7.641  0.1633 -0.0178 -0.3951
 6790SOL    HW132003   2.718   3.707   7.717  0.4229  0.6121  0.0913
 6790SOL    HW232004   2.827   3.681   7.625 -1.7758 -1.6301 -1.6908
 6791SOL     OW32005   1.867   2.329  16.632 -0.6285 -0.2406 -0.2159
 6791SOL    HW132006   1.851   2.324  16.726 -0.4980  0.0492 -0.1795
 6791SOL    HW232007   1.815   2.259  16.592  0.2915 -1.0963  0.0962
 6792SOL     OW32008   2.061   2.633   6.752 -0.0840 -0.4044 -0.0434
 6792SOL    HW132009   2.143   2.645   6.799 -0.1840 -0.5382  0.1651
 6792SOL    HW232010   1.993   2.660   6.814  0.7810  1.4208  0.1193
 6793SOL     OW32011   1.755   0.672   9.422  0.5634  0.5082  0.8999
 6793SOL    HW132012   1.770   0.728   9.499 -1.6607  0.4707  1.3593
 6793SOL    HW232013   1.755   0.582   9.454  0.3561 -0.2342 -1.1951
 6794SOL     OW32014   1.346   4.207   8.432 -0.0783  0.2845  0.4453
 6794SOL    HW132015   1.337   4.294   8.394  1.8811 -0.0298 -0.7056
 6794SOL    HW232016   1.387   4.222   8.518  1.7340  1.3189 -0.5922
 6795SOL     OW32017   2.473   4.239   8.847 -0.0530  0.1460 -0.3389
 6795SOL    HW132018   2.504   4.222   8.758  0.9418  0.4184 -0.0422
 6795SOL    HW232019   2.442   4.155   8.879 -0.8395  0.4994 -0.1654
 6796SOL     OW32020   0.934   0.255  11.984 -0.2257 -0.6953 -0.6832
 6796SOL    HW132021   0.885   0.328  12.024 -0.4829 -0.4911 -1.3802
 6796SOL    HW232022   0.912   0.278  11.894 -2.0341 -0.8215 -0.2711
 6797SOL     OW32023   3.334   4.405  13.896 -0.0719 -0.1112 -0.4621
 6797SOL    HW132024   3.318   4.357  13.815 -1.5555 -0.5312  0.0836
 6797SOL    HW232025   3.245   4.401  13.930 -0.3805  2.9198 -0.8800
 6798SOL     OW32026   2.020   3.510   3.497  0.2257 -0.2174  0.3968
 6798SOL    HW132027   2.020   3.605   3.501  3.5147 -0.2534  1.6359
 6798SOL    HW232028   2.027   3.488   3.590 -1.1249 -0.4082  0.4474
 6799SOL     OW32029   4.645   4.657  13.313 -0.2282  0.8216 -0.1629
 6799SOL    HW132030   4.568   4.610  13.344 -1.1483  1.4799 -1.4052
 6799SOL    HW232031   4.700   4.587  13.279 -1.8494 -0.5637  0.0745
 6800SOL     OW32032   1.375   0.603   7.567 -0.1354  0.1289 -0.2920
 6800SOL    HW132033   1.333   0.664   7.627  2.4330 -0.3570  2.0015
 6800SOL    HW232034   1.447   0.587   7.628  0.0235  0.9428 -0.2591
 6801SOL     OW32035   3.632   3.479   3.753  0.5183 -0.0469  0.4076
 6801SOL    HW132036   3.577   3.457   3.678  1.6361 -0.2910 -0.3446
 6801SOL    HW232037   3.631   3.574   3.748 -1.0438 -0.0637  0.2967
 6802SOL     OW32038   0.497   3.685   4.180 -0.2692  0.6208  0.9882
 6802SOL    HW132039   0.550   3.760   4.151  1.5552 -2.1072 -2.6445
 6802SOL    HW232040   0.486   3.625   4.107 -1.8361  1.6549  0.3721
 6803SOL     OW32041   0.694   2.178   2.359 -0.1789  0.3917 -0.4757
 6803SOL    HW132042   0.721   2.089   2.333  0.4301  0.3475  0.3113
 6803SOL    HW232043   0.767   2.228   2.322 -0.3646  2.7382  2.3450
 6804SOL     OW32044   0.599   1.844  10.479  0.5334 -0.3930 -0.2650
 6804SOL    HW132045   0.515   1.805  10.455 -0.3133  1.3981 -0.1938
 6804SOL    HW232046   0.582   1.881  10.565  0.9516 -2.0352  0.5223
 6805SOL     OW32047   2.616   0.343  14.121  0.1590 -0.3577  0.2056
 6805SOL    HW132048   2.651   0.395  14.193 -1.5500 -0.3344  1.0248
 6805SOL    HW232049   2.645   0.397  14.048 -1.6942  0.0090 -0.2661
 6806SOL     OW32050   0.394   2.241   0.213  0.0729  0.3773 -0.8961
 6806SOL    HW132051   0.352   2.239   0.127  0.2197  2.9695 -1.0450
 6806SOL    HW232052   0.482   2.207   0.198  0.6123  1.7294 -0.8560
 6807SOL     OW32053   0.096   1.794   4.128  0.7207  0.0853  0.5880
 6807SOL    HW132054   0.027   1.731   4.106  0.2655  0.9849 -0.5746
 6807SOL    HW232055   0.159   1.775   4.057 -0.0148 -0.9469  0.2128
 6808SOL     OW32056   1.530   2.095  12.240 -0.2615 -0.6245 -0.5458
 6808SOL    HW132057   1.535   2.022  12.303  0.1694 -0.8145 -0.8041
 6808SOL    HW232058   1.558   2.053  12.159 -1.4399 -2.0447 -0.2387
 6809SOL     OW32059   0.856   1.574  10.800 -0.4239  0.6384 -0.0719
 6809SOL    HW132060   0.886   1.500  10.852 -0.9189 -0.6710 -1.6268
 6809SOL    HW232061   0.765   1.592  10.824 -0.4424 -0.6414  0.7900
 6810SOL     OW32062   3.238   0.203   6.079 -0.2658  0.4106  0.2976
 6810SOL    HW132063   3.170   0.182   6.015 -0.3567 -0.5192  0.6955
 6810SOL    HW232064   3.294   0.263   6.030 -0.6687  0.8016  0.3113
 6811SOL     OW32065   3.556   2.790   2.194 -0.5798 -0.5088 -0.2788
 6811SOL    HW132066   3.616   2.717   2.179 -0.8045 -1.1018  1.6793
 6811SOL    HW232067   3.490   2.763   2.257  0.4494 -1.7193  0.2940
 6812SOL     OW32068   3.530   3.311   6.561 -0.2394 -0.0424  0.0703
 6812SOL    HW132069   3.483   3.229   6.578 -1.0139  0.4620  0.3695
 6812SOL    HW232070   3.466   3.380   6.577 -1.5337 -1.6068  1.6006
 6813SOL     OW32071   2.494   0.447   6.263  0.3259  0.1372 -0.4755
 6813SOL    HW132072   2.431   0.498   6.213 -0.8312 -1.4916 -0.7052
 6813SOL    HW232073   2.577   0.491   6.245  0.2499  1.6075  2.7848
 6814SOL     OW32074   2.442   1.137   1.452  0.1300  0.3088 -0.0322
 6814SOL    HW132075   2.363   1.101   1.493 -0.4388  0.5237 -0.9337
 6814SOL    HW232076   2.503   1.133   1.525 -0.3564 -3.2497  0.1989
 6815SOL     OW32077   3.768   2.649   6.339  0.3926  0.0425  0.2854
 6815SOL    HW132078   3.823   2.714   6.383  0.4856 -0.5102  0.9787
 6815SOL    HW232079   3.802   2.647   6.249  0.1691 -0.6257  0.2159
 6816SOL     OW32080   3.325   3.640   9.636 -0.2942  0.1136 -0.2154
 6816SOL    HW132081   3.295   3.731   9.630 -0.4397  0.0084 -1.1094
 6816SOL    HW232082   3.248   3.596   9.601 -0.6311  2.2137 -2.1696
 6817SOL     OW32083   2.162   3.561   8.196  0.1425  0.4250 -0.0198
 6817SOL    HW132084   2.085   3.574   8.140 -0.1143 -0.4138  0.1295
 6817SOL    HW232085   2.205   3.501   8.135 -1.6287  1.0482 -1.8979
 6818SOL     OW32086   3.337   0.780   2.473 -0.0721  0.3522  0.2294
 6818SOL    HW132087   3.242   0.773   2.463 -0.0428  1.3011 -0.6570
 6818SOL    HW232088   3.359   0.740   2.390  2.4125  1.4501  0.3527
 6819SOL     OW32089   1.242   3.865   3.684  0.3656 -0.6278 -0.0743
 6819SOL    HW132090   1.316   3.875   3.744  0.0480  0.9145  0.0755
 6819SOL    HW232091   1.165   3.867   3.741  0.0278 -0.7390 -0.5350
 6820SOL     OW32092   3.469   3.358   1.442 -0.4159 -0.4995  0.8493
 6820SOL    HW132093   3.514   3.309   1.511 -1.8786 -1.1061  1.3714
 6820SOL    HW232094   3.533   3.428   1.425  0.1605 -0.8008  1.7711
 6821SOL     OW32095   0.889   3.187   1.630 -0.0145 -0.1071 -0.1962
 6821SOL    HW132096   0.923   3.135   1.557  0.0432  0.7598 -0.7822
 6821SOL    HW232097   0.938   3.150   1.704  1.8453 -0.2280 -1.5232
 6822SOL     OW32098   3.015   0.686   7.571  0.4057 -0.4409  0.0254
 6822SOL    HW132099   3.020   0.748   7.498  1.3566 -1.5424 -0.8638
 6822SOL    HW232100   3.081   0.720   7.632  2.6334  1.5793 -3.4839
 6823SOL     OW32101   1.278   2.191   9.950  0.5036 -0.2383 -0.1055
 6823SOL    HW132102   1.350   2.223  10.005 -0.9464 -0.5867  1.9723
 6823SOL    HW232103   1.271   2.100   9.980  0.3438 -0.1289  0.1863
 6824SOL     OW32104   3.917   4.580   3.141  0.2717 -0.1972 -0.1314
 6824SOL    HW132105   3.984   4.558   3.076  1.0417 -2.2303  1.3851
 6824SOL    HW232106   3.921   4.675   3.126 -0.4559 -0.3175 -1.0435
 6825SOL     OW32107   1.859   0.313   6.875  0.1801  0.8466  0.0587
 6825SOL    HW132108   1.953   0.302   6.890  0.0747  1.0134  0.8377
 6825SOL    HW232109   1.842   0.270   6.791  0.6354  0.2092  0.2993
 6826SOL     OW32110   3.887   1.371   9.648 -0.1162 -0.0291 -0.2980
 6826SOL    HW132111   3.895   1.280   9.619 -1.0751 -0.2688  0.1559
 6826SOL    HW232112   3.831   1.408   9.579 -1.5166  3.4996  2.7275
 6827SOL     OW32113   1.596   4.269  10.700  0.5910  0.4893  1.1921
 6827SOL    HW132114   1.662   4.334  10.677  0.2468  0.4535  0.1157
 6827SOL    HW232115   1.570   4.296  10.788  1.3715  0.5933  1.3937
 6828SOL     OW32116   1.978   1.878   9.750  0.3025  0.1332 -0.0630
 6828SOL    HW132117   2.018   1.872   9.663  2.5499 -0.8397  1.0387
 6828SOL    HW232118   2.040   1.940   9.789 -1.7848  2.7267 -0.8724
 6829SOL     OW32119   0.122   1.747   6.914 -0.6728 -0.4332 -0.2145
 6829SOL    HW132120   0.193   1.725   6.854  0.2727  0.6101  0.5255
 6829SOL    HW232121   0.050   1.765   6.854 -1.0554 -0.5000  0.2246
 6830SOL     OW32122   0.708   0.667   4.289  0.5362  0.1657 -0.1639
 6830SOL    HW132123   0.691   0.668   4.383 -1.3019 -0.3351 -0.4945
 6830SOL    HW232124   0.786   0.723   4.291 -0.6218  1.7299  1.6919
 6831SOL     OW32125   2.049   0.461   4.803  0.1595 -0.0375 -0.7983
 6831SOL    HW132126   2.140   0.485   4.824  0.0322 -0.2547 -0.0160
 6831SOL    HW232127   2.011   0.425   4.883  0.9804 -1.1411 -0.9092
 6832SOL     OW32128   4.313   0.465   9.332  0.4898  0.2689 -0.1801
 6832SOL    HW132129   4.321   0.416   9.414 -0.3495  1.6122  0.7008
 6832SOL    HW232130   4.266   0.404   9.275  0.0442 -0.1360  0.6219
 6833SOL     OW32131   4.056   0.781   5.798  0.1677  0.4525 -0.5094
 6833SOL    HW132132   4.008   0.701   5.774  0.1899  0.3564 -0.2281
 6833SOL    HW232133   4.146   0.750   5.806  0.7136  2.0280 -0.5176
 6834SOL     OW32134   3.747   2.468   6.622 -0.1127  0.0322 -0.1509
 6834SOL    HW132135   3.720   2.483   6.532  0.6641 -2.3691 -0.7774
 6834SOL    HW232136   3.841   2.447   6.619 -0.6766 -2.3620 -0.9593
 6835SOL     OW32137   0.241   4.477   1.684 -0.4718  0.4920 -0.0622
 6835SOL    HW132138   0.251   4.536   1.609 -2.7464  0.9543 -0.0079
 6835SOL    HW232139   0.182   4.414   1.643 -0.3302 -0.5474  1.3256
 6836SOL     OW32140   3.569   3.084  12.540 -0.5308 -0.3863  0.1942
 6836SOL    HW132141   3.612   3.104  12.457 -0.1629 -0.8711  0.2642
 6836SOL    HW232142   3.535   2.994  12.544 -1.0895 -0.2049 -0.4530
 6837SOL     OW32143   2.766   1.798  11.374  0.0749 -0.3053 -0.5887
 6837SOL    HW132144   2.788   1.873  11.319  2.9715 -2.4047 -2.3164
 6837SOL    HW232145   2.672   1.796  11.354  0.2366 -0.3250 -1.3434
 6838SOL     OW32146   0.257   2.308  10.822 -0.4045  0.3775  0.1749
 6838SOL    HW132147   0.291   2.394  10.847  0.8236 -0.9537  3.0670
 6838SOL    HW232148   0.319   2.252  10.868 -0.2413  1.8323  1.6966
 6839SOL     OW32149   3.513   1.449  14.217 -0.2318  0.4804 -0.2484
 6839SOL    HW132150   3.604   1.419  14.211 -0.2315  0.6366 -1.0275
 6839SOL    HW232151   3.501   1.449  14.122 -1.6391  0.6686 -0.0659
 6840SOL     OW32152   0.735   1.502   6.053  0.4353  0.4687  0.0742
 6840SOL    HW132153   0.751   1.591   6.084 -0.1637  1.0229 -1.1959
 6840SOL    HW232154   0.640   1.510   6.045  0.1980 -3.6272 -0.7734
 6841SOL     OW32155   0.199   3.739   4.494 -0.0073  0.4296 -0.4716
 6841SOL    HW132156   0.276   3.682   4.489 -2.1444 -2.6022  1.9173
 6841SOL    HW232157   0.200   3.779   4.406  2.5800  0.7072 -0.3190
 6842SOL     OW32158   0.150   1.740   7.699 -0.2716  0.6775  0.1885
 6842SOL    HW132159   0.205   1.800   7.750  0.5571 -1.4309  1.7489
 6842SOL    HW232160   0.088   1.713   7.767 -0.7425  0.0924 -0.4830
 6843SOL     OW32161   1.606   1.121   2.927 -0.5853 -0.3558  0.1943
 6843SOL    HW132162   1.641   1.063   2.860  1.1756  2.7579 -1.5803
 6843SOL    HW232163   1.688   1.134   2.975 -0.2402 -0.3550 -0.3909
 6844SOL     OW32164   4.729   3.993   7.571 -0.7651 -0.2260 -0.3249
 6844SOL    HW132165   4.693   3.967   7.486 -0.1134 -0.9473 -0.3704
 6844SOL    HW232166   4.649   3.995   7.623  0.2482 -1.3208  1.2555
 6845SOL     OW32167   4.700   3.244   8.389  0.4161  0.6501  0.2724
 6845SOL    HW132168   4.662   3.268   8.305  1.2421 -0.4869 -0.4106
 6845SOL    HW232169   4.732   3.155   8.377 -1.4842  0.1608 -1.1512
 6846SOL     OW32170   2.277   1.774  10.823 -0.3378  0.1097 -0.2732
 6846SOL    HW132171   2.340   1.740  10.759  0.7286  0.6228  0.4921
 6846SOL    HW232172   2.201   1.721  10.802  0.6330 -0.9857 -0.9799
 6847SOL     OW32173   1.782   3.779  16.513 -0.1372 -0.1278 -0.0775
 6847SOL    HW132174   1.695   3.750  16.487  0.1314 -0.9187 -0.0831
 6847SOL    HW232175   1.807   3.687  16.521  0.1194 -0.1104 -0.7334
 6848SOL     OW32176   1.120   0.222   3.125 -0.2263 -0.0328 -0.6132
 6848SOL    HW132177   1.184   0.202   3.193 -0.9756 -3.0048 -0.7958
 6848SOL    HW232178   1.125   0.317   3.137  1.9144 -0.3114  0.6433
 6849SOL     OW32179   4.253   4.407  16.444  0.1080 -0.3726  0.4115
 6849SOL    HW132180   4.269   4.501  16.452 -1.9689  0.1002 -1.0411
 6849SOL    HW232181   4.193   4.388  16.516 -2.2224  0.7435 -1.2564
 6850SOL     OW32182   2.604   1.682   1.975  0.2510 -0.5912  0.4432
 6850SOL    HW132183   2.564   1.684   1.888 -1.1854 -1.8247  1.0786
 6850SOL    HW232184   2.687   1.726   1.959  0.9008 -2.1428 -0.4128
 6851SOL     OW32185   1.894   2.536   6.257  0.0099  0.2794  0.1782
 6851SOL    HW132186   1.874   2.454   6.212 -1.4480  1.6338 -1.5778
 6851SOL    HW232187   1.872   2.519   6.349  0.3451  1.4901  0.4823
 6852SOL     OW32188   1.597   1.877   3.600  0.2721 -0.1969 -0.1985
 6852SOL    HW132189   1.611   1.816   3.672 -0.2968 -1.2131 -0.9550
 6852SOL    HW232190   1.604   1.958   3.650 -1.2327 -0.1620 -0.0512
 6853SOL     OW32191   3.100   3.730   7.772 -0.0537  0.0655 -0.1360
 6853SOL    HW132192   3.106   3.732   7.677 -1.4272 -0.2215 -0.2361
 6853SOL    HW232193   3.188   3.696   7.785 -0.4484 -0.8495  0.1013
 6854SOL     OW32194   1.439   1.858   4.427  0.0224 -0.0727  0.7354
 6854SOL    HW132195   1.461   1.903   4.346 -0.0463  0.1857  0.8620
 6854SOL    HW232196   1.343   1.848   4.426 -0.0308  0.4859  0.3924
 6855SOL     OW32197   2.618   4.160  12.272 -0.2510  0.6274 -0.0977
 6855SOL    HW132198   2.618   4.210  12.354 -1.2148  0.3791  0.0622
 6855SOL    HW232199   2.528   4.126  12.278  0.6444 -2.4166 -3.8989
 6856SOL     OW32200   4.035   0.507   3.212  0.3442  0.4757 -0.5879
 6856SOL    HW132201   4.036   0.519   3.307 -2.4515  0.8938 -0.6319
 6856SOL    HW232202   3.973   0.574   3.184 -2.4307 -0.9923  2.0324
 6857SOL     OW32203   2.701   3.920  15.000 -0.2759  0.2272  0.5860
 6857SOL    HW132204   2.692   4.016  15.001 -1.1800  0.1616 -0.8403
 6857SOL    HW232205   2.735   3.899  15.086  0.7082 -0.1080  0.1191
 6858SOL     OW32206   1.875   3.512   8.583 -0.0712 -0.2534 -0.0098
 6858SOL    HW132207   1.787   3.503   8.547  1.0532  1.6490 -3.1948
 6858SOL    HW232208   1.874   3.438   8.644  1.3921 -0.5341 -0.3290
 6859SOL     OW32209   3.137   2.745  16.984  0.2479  0.2298  0.0747
 6859SOL    HW132210   3.064   2.715  17.039  0.5629 -2.1769 -0.8379
 6859SOL    HW232211   3.101   2.737  16.896 -1.4525 -1.3447  0.9248
 6860SOL     OW32212   0.127   2.086  11.308  0.2604 -0.6370 -0.3657
 6860SOL    HW132213   0.046   2.036  11.298 -0.0051 -0.2261 -0.2613
 6860SOL    HW232214   0.077   2.163  11.281  2.6793  1.4507  1.1163
 6861SOL     OW32215   4.402   2.753   3.121  0.4696  0.3399  0.1894
 6861SOL    HW132216   4.428   2.845   3.110 -0.1455  0.3072 -1.4945
 6861SOL    HW232217   4.457   2.709   3.056  1.0876  1.7529 -0.2497
 6862SOL     OW32218   1.842   1.543   6.378 -0.2630  0.3593  0.0753
 6862SOL    HW132219   1.763   1.568   6.330 -0.2313  1.2187  0.4608
 6862SOL    HW232220   1.864   1.612   6.441  1.6201  0.5858 -0.8432
 6863SOL     OW32221   3.864   3.308   1.891  0.2063  0.1617 -0.3921
 6863SOL    HW132222   3.842   3.328   1.800 -4.0264 -1.1075  0.3887
 6863SOL    HW232223   3.857   3.213   1.891  0.0821  0.1718 -0.4172
 6864SOL     OW32224   2.970   2.952  14.032  0.2124  0.0528 -0.0080
 6864SOL    HW132225   2.912   2.876  14.025  0.0237  0.2147 -0.2175
 6864SOL    HW232226   3.053   2.907  14.049 -1.4215 -2.7255  0.5409
 6865SOL     OW32227   3.236   2.468   7.239 -0.0289  0.2592 -0.1519
 6865SOL    HW132228   3.167   2.462   7.173  1.1533 -0.1598 -1.3510
 6865SOL    HW232229   3.203   2.395   7.291 -1.0909 -0.4666 -1.8373
 6866SOL     OW32230   3.753   1.541  10.846 -0.4382 -0.0462  0.1361
 6866SOL    HW132231   3.795   1.517  10.763 -1.9602 -1.1328 -0.3335
 6866SOL    HW232232   3.823   1.541  10.911 -1.1606  0.0608  0.9134
 6867SOL     OW32233   2.290   1.391  16.199  0.6078  0.1874  0.3106
 6867SOL    HW132234   2.352   1.393  16.127  0.1294 -1.8665 -0.1633
 6867SOL    HW232235   2.220   1.332  16.174  1.2732 -0.0500 -0.9706
 6868SOL     OW32236   3.824   0.314   3.319  0.0218 -0.1527 -0.0628
 6868SOL    HW132237   3.902   0.367   3.331 -0.8537  0.7465  1.5963
 6868SOL    HW232238   3.819   0.305   3.223  0.8501 -3.3950  0.1936
 6869SOL     OW32239   1.479   1.610  13.061 -0.1005 -0.0809 -0.0946
 6869SOL    HW132240   1.455   1.692  13.103 -2.1336 -0.6235 -0.1880
 6869SOL    HW232241   1.553   1.581  13.114 -0.1746 -0.0878  0.0067
 6870SOL     OW32242   0.594   3.820   2.054 -0.1015  0.0134 -0.1810
 6870SOL    HW132243   0.532   3.888   2.026 -1.1576 -1.6567 -1.8394
 6870SOL    HW232244   0.594   3.829   2.150 -0.7535 -0.8274 -0.1078
 6871SOL     OW32245   0.269   3.032   2.880  0.0787 -0.0760 -0.1091
 6871SOL    HW132246   0.213   3.022   2.957  1.2073 -2.7117  0.3762
 6871SOL    HW232247   0.232   3.111   2.842  1.0499  0.2654 -0.3444
 6872SOL     OW32248   1.260   0.698   7.286  0.3994  0.0655 -1.0927
 6872SOL    HW132249   1.328   0.713   7.353 -1.0678  1.1443  0.1353
 6872SOL    HW232250   1.313   0.697   7.206 -1.0899 -1.5169 -2.0576
 6873SOL     OW32251   2.101   4.441   7.647  0.5715  0.2504 -0.2774
 6873SOL    HW132252   2.168   4.493   7.691  1.2772 -1.5246  0.7283
 6873SOL    HW232253   2.146   4.357   7.638  0.8234  0.3949 -0.3593
 6874SOL     OW32254   1.475   0.982   2.486 -0.0364 -0.0261 -0.0118
 6874SOL    HW132255   1.519   0.961   2.404  1.0479  0.7556  0.3629
 6874SOL    HW232256   1.550   1.017   2.535 -0.3286  0.7445 -0.1061
 6875SOL     OW32257   2.551   0.726  15.948 -0.0025 -0.3442  0.6738
 6875SOL    HW132258   2.557   0.815  15.984 -0.7362  0.5048 -1.2938
 6875SOL    HW232259   2.552   0.748  15.855 -1.0709 -1.9590  0.2884
 6876SOL     OW32260   2.519   0.949   2.895 -0.0420  0.2157 -0.0142
 6876SOL    HW132261   2.446   0.917   2.841 -0.3702  0.3193  0.3694
 6876SOL    HW232262   2.496   0.908   2.978 -1.6754  0.0298 -0.5546
 6877SOL     OW32263   1.113   3.785  12.001  0.4596 -0.7032 -0.4661
 6877SOL    HW132264   1.132   3.826  12.086 -0.3753 -0.5921 -0.3245
 6877SOL    HW232265   1.135   3.693  12.017 -1.7535 -0.9921  1.0235
 6878SOL     OW32266   4.093   0.478   0.250 -1.0186 -0.0063 -0.2534
 6878SOL    HW132267   4.072   0.479   0.157 -2.5428  0.3557  0.0912
 6878SOL    HW232268   4.039   0.410   0.291 -1.2790  1.1777  1.3632
 6879SOL     OW32269   1.413   0.737   6.832 -0.2427  0.2926  0.0462
 6879SOL    HW132270   1.357   0.660   6.841  0.4949 -0.3674 -1.0624
 6879SOL    HW232271   1.360   0.800   6.882 -1.2118  0.2029 -0.8689
 6880SOL     OW32272   3.595   0.790   8.162 -0.1685  0.2251 -0.2455
 6880SOL    HW132273   3.549   0.761   8.241  1.7569 -1.2928  0.3134
 6880SOL    HW232274   3.566   0.881   8.171 -1.9022 -0.3173 -0.2601
 6881SOL     OW32275   1.445   0.818   8.412  0.4407  0.5895 -0.4864
 6881SOL    HW132276   1.523   0.779   8.373 -0.4785  1.4753 -3.1811
 6881SOL    HW232277   1.480   0.840   8.499 -2.0951 -0.9034  0.9026
 6882SOL     OW32278   0.655   1.679   6.249  0.3708 -0.1721 -0.0097
 6882SOL    HW132279   0.578   1.734   6.261 -0.0026 -0.4666 -1.0955
 6882SOL    HW232280   0.706   1.712   6.324  0.2845  0.4948 -0.2387
 6883SOL     OW32281   3.624   1.989   8.659 -0.6163  0.2043  0.2937
 6883SOL    HW132282   3.644   2.071   8.704 -0.0095  0.2054  0.0143
 6883SOL    HW232283   3.652   1.924   8.724 -2.1579 -2.6214 -1.8244
 6884SOL     OW32284   4.104   2.522   3.813 -0.0908  0.4939  0.5970
 6884SOL    HW132285   4.139   2.589   3.872  2.3966  0.2893 -0.6857
 6884SOL    HW232286   4.085   2.452   3.876 -2.6285 -0.5614 -1.3493
 6885SOL     OW32287   4.164   1.858   1.435 -0.7477  0.2292 -0.3751
 6885SOL    HW132288   4.105   1.828   1.503 -1.0808 -0.6007 -1.0272
 6885SOL    HW232289   4.212   1.917   1.494 -0.4464 -0.9512  0.5552
 6886SOL     OW32290   3.896   2.655   4.767  0.1057 -0.1245  0.1884
 6886SOL    HW132291   3.957   2.728   4.750 -0.6651  0.3901 -0.3590
 6886SOL    HW232292   3.856   2.645   4.680  2.0926  0.0273 -0.7590
 6887SOL     OW32293   0.224   2.667   2.419 -0.5600 -0.0214  0.5608
 6887SOL    HW132294   0.277   2.587   2.420 -0.6404 -0.0768 -0.5392
 6887SOL    HW232295   0.292   2.729   2.392 -1.1796  0.2602 -0.3260
 6888SOL     OW32296   2.982   4.008   5.801 -0.3238 -0.0877  0.0849
 6888SOL    HW132297   2.890   4.034   5.806 -0.3337 -0.0112 -0.4810
 6888SOL    HW232298   2.968   3.914   5.809  1.0075 -0.4815 -2.1415
 6889SOL     OW32299   3.638   4.540   7.923 -0.5440  0.6054 -0.1701
 6889SOL    HW132300   3.545   4.520   7.929 -0.4293 -0.1419 -0.9444
 6889SOL    HW232301   3.676   4.514   8.007 -1.1022 -2.6176 -0.9141
 6890SOL     OW32302   1.230   1.778   7.620  0.0434  0.7892  0.0956
 6890SOL    HW132303   1.201   1.688   7.608  0.0091  0.9778 -1.2434
 6890SOL    HW232304   1.264   1.793   7.532 -0.4083  2.8926  0.2732
 6891SOL     OW32305   3.311   0.401   3.342  0.1623 -0.5543  0.2757
 6891SOL    HW132306   3.258   0.324   3.362  0.1243 -0.9853 -1.4480
 6891SOL    HW232307   3.274   0.417   3.255 -0.9018 -0.0872  0.8243
 6892SOL     OW32308   1.875   1.550  16.062 -0.1967 -0.4570  0.0975
 6892SOL    HW132309   1.896   1.486  15.994  0.6072  1.5910 -1.5990
 6892SOL    HW232310   1.798   1.590  16.022 -0.4919  0.0857  1.2169
 6893SOL     OW32311   3.810   1.928  17.317 -0.0420  0.6466  0.1541
 6893SOL    HW132312   3.761   1.847  17.301  0.4361  0.4733 -0.4342
 6893SOL    HW232313   3.751   1.990  17.273 -2.3993 -2.4037 -0.9714
 6894SOL     OW32314   0.453   1.302  16.435  0.0883  0.0763  0.0772
 6894SOL    HW132315   0.441   1.226  16.379 -2.7184  0.9230 -0.4661
 6894SOL    HW232316   0.411   1.374  16.387  0.5423  0.3477  0.0873
 6895SOL     OW32317   1.815   4.341   4.243 -0.1787 -0.4464 -0.4468
 6895SOL    HW132318   1.840   4.433   4.255  0.8484 -0.9469  1.1867
 6895SOL    HW232319   1.890   4.296   4.206 -0.6272 -1.0664 -0.6109
 6896SOL     OW32320   2.121   2.342   8.948 -0.0919 -0.7659 -0.0648
 6896SOL    HW132321   2.204   2.356   8.995 -0.7637 -0.0758  0.9055
 6896SOL    HW232322   2.057   2.320   9.016 -0.7811 -0.7654 -0.7127
 6897SOL     OW32323   2.390   4.698  13.109 -0.3816  0.3865  0.3984
 6897SOL    HW132324   2.435   4.724  13.028  1.7810 -1.1277  1.1300
 6897SOL    HW232325   2.439   4.618  13.124  2.3563  2.3539  1.7835
 6898SOL     OW32326   3.832   2.116   8.955 -0.4321 -0.2206 -0.3182
 6898SOL    HW132327   3.894   2.189   8.952 -1.0482  0.3843  1.9107
 6898SOL    HW232328   3.863   2.071   9.033  0.5572  0.9966 -0.0083
 6899SOL     OW32329   2.745   1.125   5.987  0.3014 -0.1889  0.0020
 6899SOL    HW132330   2.778   1.088   5.905 -1.7061 -1.7529 -0.1321
 6899SOL    HW232331   2.726   1.212   5.952 -1.3959 -2.0792 -3.8262
 6900SOL     OW32332   3.814   1.570   3.714  0.1099  0.3741  0.2108
 6900SOL    HW132333   3.720   1.574   3.696 -0.1427 -0.1833  1.3489
 6900SOL    HW232334   3.825   1.491   3.662 -1.7926  0.4062 -0.2453
 6901SOL     OW32335   0.774   0.669   6.343 -0.3943  0.3389 -0.3748
 6901SOL    HW132336   0.862   0.637   6.324  0.2423  2.5159 -1.0730
 6901SOL    HW232337   0.726   0.657   6.261  0.0117 -0.0550 -0.5600
 6902SOL     OW32338   4.614   0.488   2.514  0.4369 -0.4194  0.2372
 6902SOL    HW132339   4.623   0.540   2.434 -0.2488 -0.6262  0.0275
 6902SOL    HW232340   4.607   0.557   2.580 -0.4968 -0.5706  0.2950
 6903SOL     OW32341   2.684   0.342  12.248 -0.0881 -0.4392  0.1410
 6903SOL    HW132342   2.733   0.423  12.265  0.8761 -0.8037 -0.9369
 6903SOL    HW232343   2.641   0.367  12.166  0.6062 -1.3081 -0.4809
 6904SOL     OW32344   1.974   4.389   6.159 -0.2843 -0.1693 -0.0388
 6904SOL    HW132345   2.020   4.406   6.077  0.4907  0.2057  0.4605
 6904SOL    HW232346   1.979   4.477   6.197 -0.1203 -0.7450  1.2656
 6905SOL     OW32347   1.606   2.187   6.922  0.1766 -0.3309  0.0510
 6905SOL    HW132348   1.552   2.109   6.932 -1.2903  0.4596 -1.6900
 6905SOL    HW232349   1.593   2.218   7.012  1.0445  0.1591  0.0060
 6906SOL     OW32350   1.783   2.585   8.819 -0.0683  0.1865  0.7202
 6906SOL    HW132351   1.748   2.660   8.772 -1.1369 -1.0315 -0.4221
 6906SOL    HW232352   1.702   2.534   8.824  0.6485 -1.1458 -1.3727
 6907SOL     OW32353   3.865   3.316   2.476 -0.0089  0.0478 -0.5283
 6907SOL    HW132354   3.929   3.353   2.416 -0.5844 -0.1699 -1.2717
 6907SOL    HW232355   3.928   3.283   2.540  2.3914  1.4763 -2.1430
 6908SOL     OW32356   1.637   1.597  11.564  0.3508  0.0341 -0.6518
 6908SOL    HW132357   1.621   1.504  11.580  2.3507 -0.3568 -0.9337
 6908SOL    HW232358   1.718   1.600  11.615  0.5098 -0.1106 -0.8985
 6909SOL     OW32359   1.487   1.318   9.172  0.2283  0.0432  0.0283
 6909SOL    HW132360   1.482   1.313   9.077  1.6180 -1.4185  0.0206
 6909SOL    HW232361   1.545   1.393   9.182  0.0885  0.0846  0.5168
 6910SOL     OW32362   3.159   0.585   8.810  0.1725 -0.1838 -0.4417
 6910SOL    HW132363   3.102   0.530   8.864  0.1457  0.5598  0.2900
 6910SOL    HW232364   3.241   0.536   8.808  0.2148 -0.1547  0.6003
 6911SOL     OW32365   0.953   1.224   4.893  0.7623 -0.6520  0.1982
 6911SOL    HW132366   0.886   1.261   4.952  0.1481  1.0944 -1.5988
 6911SOL    HW232367   0.909   1.221   4.809  0.4728  1.1267  0.2840
 6912SOL     OW32368   2.853   1.680   0.818  0.0701  0.4362 -0.2839
 6912SOL    HW132369   2.939   1.644   0.795 -1.4450 -2.8205 -0.7135
 6912SOL    HW232370   2.838   1.643   0.905  2.3329 -2.3867 -1.1067
 6913SOL     OW32371   2.905   0.352   8.327  0.6505  0.0128 -0.3532
 6913SOL    HW132372   2.968   0.384   8.392  1.1152 -0.5819 -0.5132
 6913SOL    HW232373   2.868   0.434   8.296  1.5096  0.4364 -0.2726
 6914SOL     OW32374   1.750   1.764   6.564  0.2479  0.4476 -0.2256
 6914SOL    HW132375   1.655   1.760   6.575 -0.0066 -1.1373 -3.0313
 6914SOL    HW232376   1.772   1.781   6.655 -2.4925 -0.3244  0.5992
 6915SOL     OW32377   3.865   1.478   4.394 -0.1503  0.3582 -0.1698
 6915SOL    HW132378   3.952   1.503   4.425 -0.7541  0.3192  1.5506
 6915SOL    HW232379   3.809   1.508   4.466 -1.3864 -1.2320 -0.4854
 6916SOL     OW32380   1.862   4.625  16.248 -0.3066  0.0841  0.2170
 6916SOL    HW132381   1.910   4.542  16.251 -1.1657 -0.4557 -0.7778
 6916SOL    HW232382   1.837   4.616  16.156  0.3876 -0.8934  0.1231
 6917SOL     OW32383   3.815   3.118   4.600  0.5291  0.5032 -0.6790
 6917SOL    HW132384   3.731   3.076   4.581  1.7507 -2.3730  0.1871
 6917SOL    HW232385   3.847   3.138   4.512  0.9725  1.1416 -0.3727
 6918SOL     OW32386   0.577   4.552   7.690  0.2670  0.1610 -0.2123
 6918SOL    HW132387   0.623   4.506   7.620 -0.4611  0.0391 -0.6103
 6918SOL    HW232388   0.538   4.475   7.731 -1.1524 -0.5265 -2.8268
 6919SOL     OW32389   0.331   0.518   7.987  0.5021  0.6776 -0.1247
 6919SOL    HW132390   0.333   0.487   8.077  0.7561  0.4086 -0.2238
 6919SOL    HW232391   0.401   0.466   7.947 -0.3223 -2.1054  2.0478
 6920SOL     OW32392   3.903   3.639   3.018 -0.6535  0.3467  0.5449
 6920SOL    HW132393   3.821   3.620   3.063  0.7978  0.8280  3.3445
 6920SOL    HW232394   3.905   3.574   2.948 -0.6104 -0.5682  1.4007
 6921SOL     OW32395   2.266   3.968  15.338  0.6596 -0.5221  0.3414
 6921SOL    HW132396   2.278   4.048  15.390  5.5161 -0.6737 -0.5336
 6921SOL    HW232397   2.196   3.925  15.387  0.8931  1.8921  2.8312
 6922SOL     OW32398   4.461   2.903   2.133 -0.0999  0.1027  0.1661
 6922SOL    HW132399   4.367   2.903   2.113 -0.0250  0.4378 -0.1759
 6922SOL    HW232400   4.499   2.954   2.062  0.7786  0.9918  1.2799
 6923SOL     OW32401   0.585   1.717   9.854  0.0956  0.0026  0.1965
 6923SOL    HW132402   0.612   1.808   9.858 -2.8548  0.8056  2.3316
 6923SOL    HW232403   0.656   1.681   9.907 -0.1789  0.1071  0.6392
 6924SOL     OW32404   1.432   2.999   5.694  0.1643 -0.2701 -0.0345
 6924SOL    HW132405   1.488   3.046   5.633 -2.8981  2.8324 -0.4148
 6924SOL    HW232406   1.492   2.957   5.756  1.2291 -0.0817 -0.9329
 6925SOL     OW32407   0.884   1.721   8.711  0.0158 -0.3310 -0.4794
 6925SOL    HW132408   0.813   1.669   8.749 -0.2441  0.2875 -0.1232
 6925SOL    HW232409   0.866   1.809   8.744  0.0083  0.2230 -1.9312
 6926SOL     OW32410   2.355   3.623   4.184 -0.1052 -0.7735 -0.0250
 6926SOL    HW132411   2.405   3.570   4.245 -1.9556 -1.3855  0.9533
 6926SOL    HW232412   2.269   3.597   4.215 -0.3273  0.7216  0.6225
 6927SOL     OW32413   3.189   4.470  11.866 -0.4863  0.6395 -0.2018
 6927SOL    HW132414   3.103   4.477  11.906  0.0100  0.7758  0.8553
 6927SOL    HW232415   3.215   4.562  11.857  1.3164  0.2176  0.5855
 6928SOL     OW32416   1.487   3.958   8.371  0.2624  0.4011  0.2881
 6928SOL    HW132417   1.419   3.891   8.370  1.3527 -0.6705 -1.5722
 6928SOL    HW232418   1.439   4.039   8.387 -0.2400 -0.0134  0.8670
 6929SOL     OW32419   1.088   4.453  12.977  0.2231 -0.2702  0.7399
 6929SOL    HW132420   1.004   4.496  12.962  0.2736 -0.6661 -0.6786
 6929SOL    HW232421   1.142   4.524  13.012 -1.2774  1.8982 -1.3805
 6930SOL     OW32422   0.070   3.219  13.656  0.0185 -0.0424 -0.0755
 6930SOL    HW132423   0.081   3.135  13.612  1.8556  0.6261 -0.8997
 6930SOL    HW232424   0.075   3.191  13.747 -0.3580 -0.5903 -0.2237
 6931SOL     OW32425   1.583   0.175   8.569  0.0414 -0.1593  0.1789
 6931SOL    HW132426   1.610   0.225   8.646 -0.1245 -0.7722  0.6320
 6931SOL    HW232427   1.503   0.130   8.598  1.3460 -2.4830  0.1259
 6932SOL     OW32428   0.452   2.109  14.649  0.3709 -0.6714 -0.1115
 6932SOL    HW132429   0.431   2.196  14.617 -2.0029 -2.0147 -2.2079
 6932SOL    HW232430   0.542   2.104  14.616  0.1467 -0.2710 -0.7748
 6933SOL     OW32431   1.362   3.068   6.878  0.1809  0.6058  0.0224
 6933SOL    HW132432   1.379   3.160   6.899 -0.8269  0.4001  1.7229
 6933SOL    HW232433   1.448   3.031   6.897 -1.2319 -1.8752  1.5075
 6934SOL     OW32434   0.404   3.329  12.586  0.3511 -0.6829 -0.2069
 6934SOL    HW132435   0.404   3.234  12.598 -1.2767 -0.6539  0.0042
 6934SOL    HW232436   0.351   3.354  12.662  0.6076 -2.4037  0.5325
 6935SOL     OW32437   1.913   1.691   8.026  0.4673  0.8185  0.0524
 6935SOL    HW132438   1.829   1.673   8.069  0.2739  1.7531  0.0689
 6935SOL    HW232439   1.945   1.604   8.004 -1.6867 -0.3717  1.6376
 6936SOL     OW32440   2.577   0.398   3.204 -0.1586 -0.0371 -0.5682
 6936SOL    HW132441   2.662   0.428   3.235 -0.6140  1.0001 -0.3227
 6936SOL    HW232442   2.591   0.304   3.197  0.7649 -0.1201  2.3525
 6937SOL     OW32443   3.979   3.508  13.929  0.4401 -0.0849  0.0269
 6937SOL    HW132444   3.960   3.415  13.937 -0.6383  0.1095 -0.2925
 6937SOL    HW232445   3.974   3.534  14.021 -0.6750 -2.3451  0.6015
 6938SOL     OW32446   0.267   1.278  15.430  0.4847 -0.4734  0.6652
 6938SOL    HW132447   0.313   1.196  15.413 -0.6866 -0.5308 -2.1824
 6938SOL    HW232448   0.296   1.331  15.355  1.1347 -1.5329  0.1688
 6939SOL     OW32449   2.079   0.587  14.092  0.8838  0.2418 -0.0998
 6939SOL    HW132450   2.003   0.645  14.088  0.6470 -0.0946 -0.3538
 6939SOL    HW232451   2.148   0.654  14.097 -0.7342  1.7015  2.7446
 6940SOL     OW32452   0.460   1.167   9.627 -0.1281 -0.4084 -0.0907
 6940SOL    HW132453   0.438   1.257   9.649 -1.5666 -0.4461 -1.3736
 6940SOL    HW232454   0.539   1.142   9.674 -0.5973 -2.0594 -0.1715
 6941SOL     OW32455   0.073   2.873   5.594  0.6813 -0.1333  0.0018
 6941SOL    HW132456   0.160   2.870   5.634  1.0466  0.1301 -0.7756
 6941SOL    HW232457   0.048   2.965   5.603 -0.2093 -0.1316 -2.4686
 6942SOL     OW32458   0.262   0.468  14.787 -0.7559  0.3067 -0.1492
 6942SOL    HW132459   0.251   0.484  14.880  4.6957  0.7193  0.3872
 6942SOL    HW232460   0.172   0.449  14.759 -1.6921  1.1482  2.3538
 6943SOL     OW32461   3.903   2.314   1.914 -0.7613 -0.4017  0.3443
 6943SOL    HW132462   3.878   2.387   1.857 -0.0726 -1.6165 -1.5023
 6943SOL    HW232463   3.874   2.336   2.002  1.4946  0.8467  0.7896
 6944SOL     OW32464   1.581   0.170  10.826 -0.1272 -0.0090 -0.4640
 6944SOL    HW132465   1.494   0.210  10.820 -0.2231 -0.5880 -2.6583
 6944SOL    HW232466   1.631   0.250  10.844 -1.6276 -0.2405  4.8583
 6945SOL     OW32467   2.915   0.452   2.898 -0.0416 -0.4131  0.3322
 6945SOL    HW132468   2.956   0.367   2.913  0.4774 -0.3772 -0.9048
 6945SOL    HW232469   2.961   0.478   2.818 -1.0317 -0.6460 -0.3278
 6946SOL     OW32470   0.356   0.163  11.323  0.1785  0.3616  0.0053
 6946SOL    HW132471   0.339   0.229  11.257 -1.8915 -0.8804 -0.7272
 6946SOL    HW232472   0.275   0.115  11.345  1.0896 -0.3539  1.8245
 6947SOL     OW32473   2.080   0.502  10.003  0.0870 -0.2432  0.6496
 6947SOL    HW132474   2.127   0.539  10.077  0.8070  0.4144 -0.1370
 6947SOL    HW232475   2.079   0.414  10.040  1.3450  0.2219  1.7939
 6948SOL     OW32476   2.859   2.824   5.939 -0.2601  0.2188 -0.3325
 6948SOL    HW132477   2.818   2.904   5.907  1.4199  1.8374  1.4960
 6948SOL    HW232478   2.784   2.767   5.925 -0.3565 -0.3577  2.4250
 6949SOL     OW32479   4.152   4.125   2.973 -0.5013 -0.2564  0.0045
 6949SOL    HW132480   4.245   4.145   2.988 -0.6996  0.1901  0.6675
 6949SOL    HW232481   4.175   4.055   2.913  1.5710  1.0066 -0.6997
 6950SOL     OW32482   0.819   0.330  13.377 -0.3849 -0.4574  0.2204
 6950SOL    HW132483   0.858   0.412  13.347  0.3926 -0.1635  2.0366
 6950SOL    HW232484   0.884   0.303  13.443 -1.1666  0.1845  1.2582
 6951SOL     OW32485   2.776   3.449  17.571 -0.2287 -0.3404 -0.2489
 6951SOL    HW132486   2.764   3.519  17.508  1.0369  0.9750  0.9750
 6951SOL    HW232487   2.867   3.466  17.593 -0.3114 -0.1148 -0.0837
 6952SOL     OW32488   1.401   2.675   4.894 -0.1291  0.3992 -0.1076
 6952SOL    HW132489   1.362   2.630   4.968  0.7073 -2.2399 -1.2375
 6952SOL    HW232490   1.339   2.653   4.824 -1.9995  0.0677  1.6900
 6953SOL     OW32491   3.570   2.636   5.350  0.3062  0.2125  0.0151
 6953SOL    HW132492   3.560   2.729   5.370 -0.2268  0.3029 -0.6551
 6953SOL    HW232493   3.564   2.600   5.438  3.8280  0.3368  0.2905
 6954SOL     OW32494   0.087   0.501   1.943 -0.2641  0.0953  0.6547
 6954SOL    HW132495   0.145   0.471   2.013  1.9684 -0.6065 -1.5547
 6954SOL    HW232496   0.140   0.484   1.866 -0.7364  2.8089 -0.2713
 6955SOL     OW32497   1.730   2.352   6.756 -0.1475 -0.9939  0.3278
 6955SOL    HW132498   1.812   2.303   6.748  0.2466 -0.2470 -0.2391
 6955SOL    HW232499   1.670   2.297   6.807  0.2045 -0.0246  1.7801
 6956SOL     OW32500   0.349   4.188  13.750  0.2020 -0.5076  0.2286
 6956SOL    HW132501   0.259   4.218  13.738 -0.0558 -0.5294  2.0670
 6956SOL    HW232502   0.345   4.159  13.841 -0.3250 -0.5945  0.1815
 6957SOL     OW32503   1.779   3.419   2.997 -0.4923 -1.0654 -0.6593
 6957SOL    HW132504   1.702   3.462   2.958  0.4221  0.8861 -0.3251
 6957SOL    HW232505   1.787   3.471   3.077 -0.6888 -1.0804 -0.6297
 6958SOL     OW32506   1.858   1.384  11.772 -0.1163  0.8311  0.2262
 6958SOL    HW132507   1.905   1.380  11.689  0.2775 -1.7145  0.5605
 6958SOL    HW232508   1.932   1.367  11.831 -0.7075 -1.1744  0.3724
 6959SOL     OW32509   0.664   4.333  12.356 -0.1239  0.7166  0.0907
 6959SOL    HW132510   0.724   4.406  12.371  0.8634 -0.3002  1.1543
 6959SOL    HW232511   0.693   4.280  12.431 -1.9012 -0.0868  0.1996
 6960SOL     OW32512   4.704   3.007  11.813  0.2101 -0.2172  0.0871
 6960SOL    HW132513   0.043   2.956  11.797  0.3929 -0.0115  0.3462
 6960SOL    HW232514   4.736   3.080  11.866  1.2868  0.4351 -1.4507
 6961SOL     OW32515   1.560   2.971   2.962 -0.3851 -0.4311  0.1939
 6961SOL    HW132516   1.536   2.885   2.927  0.2638 -0.8495  0.7857
 6961SOL    HW232517   1.583   3.014   2.879  0.4199  2.6770  2.0457
 6962SOL     OW32518   0.309   3.086   1.573 -0.1669  0.1759 -0.3523
 6962SOL    HW132519   0.388   3.087   1.520  0.1013 -1.5068  0.0311
 6962SOL    HW232520   0.303   3.180   1.590 -0.1001  0.4388 -1.8346
 6963SOL     OW32521   3.857   0.775   1.721 -0.1022  0.6567 -0.0603
 6963SOL    HW132522   3.788   0.787   1.655  1.8181  0.2062 -2.1873
 6963SOL    HW232523   3.809   0.773   1.803  0.0253 -1.0669 -0.0271
 6964SOL     OW32524   0.829   2.288   8.810  0.6865  0.2158 -0.0474
 6964SOL    HW132525   0.755   2.327   8.855  0.2266 -0.6677 -0.0327
 6964SOL    HW232526   0.897   2.314   8.872 -0.2015  0.9519  0.6093
 6965SOL     OW32527   0.125   3.710  14.498 -0.0631 -0.6019  0.0065
 6965SOL    HW132528   0.164   3.788  14.456  1.0619 -0.4451  1.3526
 6965SOL    HW232529   0.133   3.646  14.427 -1.9686  1.7649 -2.3304
 6966SOL     OW32530   1.541   0.099   4.889  0.1114  0.2381  0.6813
 6966SOL    HW132531   1.462   0.143   4.859  0.9180  1.4027  0.2357
 6966SOL    HW232532   1.507   0.013   4.913 -0.7461  0.9645  2.0028
 6967SOL     OW32533   2.631   4.626   7.066  0.5190  0.1599 -0.0333
 6967SOL    HW132534   2.538   4.649   7.060 -0.0882 -2.3369 -0.1965
 6967SOL    HW232535   2.639   4.568   7.141  1.0677 -1.4480 -1.3383
 6968SOL     OW32536   2.132   2.351   5.584 -0.1401 -0.3654  0.1678
 6968SOL    HW132537   2.222   2.333   5.610  0.1444 -0.1799 -0.7149
 6968SOL    HW232538   2.108   2.419   5.648  0.9202 -2.2500  2.5804
 6969SOL     OW32539   1.333   3.595   7.833 -0.2787 -0.2156 -0.6703
 6969SOL    HW132540   1.419   3.571   7.799  0.4225  1.0698  0.1705
 6969SOL    HW232541   1.343   3.690   7.841  0.9879 -0.4346  0.3540
 6970SOL     OW32542   2.480   3.246   6.053 -0.6281  0.0789 -0.2049
 6970SOL    HW132543   2.416   3.278   5.990  0.7752 -0.1176 -1.7344
 6970SOL    HW232544   2.494   3.156   6.025  1.6874  0.2198  0.5349
 6971SOL     OW32545   1.765   0.658   4.500  0.5354  0.1877 -0.2798
 6971SOL    HW132546   1.791   0.599   4.572  0.6468 -0.1147 -0.5687
 6971SOL    HW232547   1.724   0.603   4.433 -1.0954  0.2692  0.6375
 6972SOL     OW32548   1.267   4.465   1.183  0.2177 -0.8019  0.3604
 6972SOL    HW132549   1.188   4.468   1.237 -0.4160 -2.3310 -0.4784
 6972SOL    HW232550   1.296   4.556   1.192  0.4812 -0.8625  0.1409
 6973SOL     OW32551   4.456   1.040  13.527 -0.3611 -0.0672  0.2260
 6973SOL    HW132552   4.473   0.947  13.509  2.6888  0.4968  0.1898
 6973SOL    HW232553   4.546   1.073  13.521 -0.7033  0.9229  0.6737
 6974SOL     OW32554   4.331   0.399   8.493  0.0793  0.1407 -0.0124
 6974SOL    HW132555   4.424   0.416   8.504  0.2817 -1.6364  1.0569
 6974SOL    HW232556   4.293   0.486   8.502 -0.6447  0.0033 -1.6913
 6975SOL     OW32557   2.843   2.969  14.287 -0.0778 -0.2188 -0.1763
 6975SOL    HW132558   2.783   3.044  14.287  0.9890  0.6153 -1.1553
 6975SOL    HW232559   2.900   2.981  14.212 -1.3908  0.3259 -1.0988
 6976SOL     OW32560   1.406   1.335   6.664  0.0395 -0.2500 -0.2014
 6976SOL    HW132561   1.440   1.367   6.748 -0.5513  0.0537 -0.0796
 6976SOL    HW232562   1.407   1.240   6.671  3.0360 -0.3056 -1.3949
 6977SOL     OW32563   3.544   1.421   0.483 -0.0205  0.1245  0.0650
 6977SOL    HW132564   3.489   1.444   0.408 -1.1917 -1.7580  0.3349
 6977SOL    HW232565   3.569   1.330   0.467 -2.4781 -0.7094  0.9238
 6978SOL     OW32566   4.419   2.385  12.475  0.2790  0.3045  0.6613
 6978SOL    HW132567   4.507   2.347  12.472  0.2983  0.3607  0.4968
 6978SOL    HW232568   4.430   2.462  12.420  3.9956  0.4677  1.6501
 6979SOL     OW32569   3.368   4.097   4.028 -0.2371  0.3223  0.1246
 6979SOL    HW132570   3.374   4.032   4.097 -0.1496 -0.5509 -0.7014
 6979SOL    HW232571   3.275   4.100   4.006  0.0787 -0.1569 -1.2769
 6980SOL     OW32572   2.496   2.963   5.229  1.0046  0.0446 -0.2810
 6980SOL    HW132573   2.565   2.965   5.295 -0.4345 -2.8352  1.3301
 6980SOL    HW232574   2.500   2.870   5.204 -0.3462  0.1410 -0.8682
 6981SOL     OW32575   2.348   0.273   9.036 -0.0530 -0.7646  0.0147
 6981SOL    HW132576   2.288   0.265   8.962  2.2032  1.5485 -2.0756
 6981SOL    HW232577   2.288   0.257   9.109 -0.5572 -1.0815 -0.4734
 6982SOL     OW32578   2.612   1.677   0.201  0.3486  0.1991 -0.4469
 6982SOL    HW132579   2.607   1.716   0.289 -0.7870 -1.6329  0.2935
 6982SOL    HW232580   2.629   1.587   0.228 -0.8601  0.5075  1.3827
 6983SOL     OW32581   4.565   0.522   9.617  0.1357 -0.5354  0.0942
 6983SOL    HW132582   4.566   0.612   9.582 -0.4040 -0.8513 -0.7532
 6983SOL    HW232583   4.489   0.537   9.674 -1.4613 -1.1529 -1.8651
 6984SOL     OW32584   1.767   2.150   8.907 -0.1427 -0.0381 -0.1096
 6984SOL    HW132585   1.706   2.221   8.928  2.1267  2.2574 -1.1758
 6984SOL    HW232586   1.827   2.152   8.982  0.3456 -0.5102 -0.4901
 6985SOL     OW32587   4.731   3.142   5.589  0.4456  0.1576  0.0401
 6985SOL    HW132588   0.053   3.212   5.573 -0.9356  1.7438  1.5498
 6985SOL    HW232589   4.651   3.190   5.570 -0.0044 -1.1634 -1.4370
 6986SOL     OW32590   2.444   0.692   4.172  0.3070 -0.5359 -0.3273
 6986SOL    HW132591   2.460   0.628   4.102  0.2089  1.1163 -1.8493
 6986SOL    HW232592   2.348   0.693   4.164  0.3669  0.0278 -0.9146
 6987SOL     OW32593   0.142   1.607   3.155  0.3716 -0.3685  0.4200
 6987SOL    HW132594   0.158   1.698   3.130  0.6754 -1.5145 -3.4681
 6987SOL    HW232595   0.199   1.594   3.231  1.1607 -0.6021 -0.2084
 6988SOL     OW32596   4.275   0.750   7.646  0.2715 -0.1383  0.3829
 6988SOL    HW132597   4.338   0.681   7.666  0.3745  0.1793  1.1481
 6988SOL    HW232598   4.205   0.691   7.617 -1.7726  2.7262 -0.4666
 6989SOL     OW32599   3.363   3.767   8.941 -0.1050  0.0347 -0.2521
 6989SOL    HW132600   3.455   3.790   8.954 -0.2308  0.8361 -0.8127
 6989SOL    HW232601   3.346   3.720   9.023 -0.1440  0.4942 -0.0013
 6990SOL     OW32602   1.354   1.219  17.064 -0.2077  0.3029 -0.0071
 6990SOL    HW132603   1.309   1.295  17.026  0.0733  0.1882 -0.5784
 6990SOL    HW232604   1.290   1.150  17.051 -0.6691  0.5103  1.2322
 6991SOL     OW32605   2.839   1.103  16.336 -0.2146  0.8015 -0.0695
 6991SOL    HW132606   2.786   1.164  16.285 -1.0318 -1.2042 -1.6370
 6991SOL    HW232607   2.849   1.153  16.417  1.3276  0.3519  0.0148
 6992SOL     OW32608   4.273   3.592   3.743  0.0028 -0.0310  0.5420
 6992SOL    HW132609   4.237   3.524   3.686  1.1054 -1.1795  1.2127
 6992SOL    HW232610   4.364   3.580   3.715  0.0799 -1.4659  1.3996
 6993SOL     OW32611   0.592   3.699  12.732 -0.3454  0.0145 -1.6830
 6993SOL    HW132612   0.507   3.738  12.713 -1.9870 -1.8774  1.8252
 6993SOL    HW232613   0.657   3.770  12.729  0.4522 -0.7374 -2.0817
 6994SOL     OW32614   1.394   0.592   2.194  0.4272  0.7432  0.0414
 6994SOL    HW132615   1.412   0.682   2.168 -0.3574  0.8566 -0.1178
 6994SOL    HW232616   1.466   0.553   2.144  0.8886  1.9430 -0.2095
 6995SOL     OW32617   1.201   2.938  12.343  0.0345 -0.1562  0.6986
 6995SOL    HW132618   1.110   2.965  12.348  0.3368  0.7648  1.1720
 6995SOL    HW232619   1.197   2.863  12.402  0.3864  0.9258  2.0866
 6996SOL     OW32620   1.328   1.947   6.233  0.4375  0.1593  0.1858
 6996SOL    HW132621   1.259   1.989   6.284  0.1779 -1.2019  0.9573
 6996SOL    HW232622   1.289   1.869   6.193 -0.8805 -0.3605  2.5217
 6997SOL     OW32623   1.215   0.786  10.048  0.4029  0.0263 -0.4238
 6997SOL    HW132624   1.283   0.768   9.983  0.8299  1.3188 -0.3346
 6997SOL    HW232625   1.245   0.855  10.108  1.5667 -0.7915 -0.0762
 6998SOL     OW32626   3.617   1.497   7.116 -0.4321  0.7030  0.1716
 6998SOL    HW132627   3.603   1.541   7.201  0.2005  0.4509  0.4019
 6998SOL    HW232628   3.615   1.403   7.131 -0.6258  1.2753  4.0035
 6999SOL     OW32629   4.051   1.161   1.678  0.0134  0.9325 -0.0810
 6999SOL    HW132630   4.061   1.087   1.618  1.4947  0.3338  0.9148
 6999SOL    HW232631   4.005   1.226   1.624  1.2107  1.3002 -0.6726
 7000SOL     OW32632   1.493   2.533   0.733  0.1486 -0.1544 -0.1717
 7000SOL    HW132633   1.542   2.554   0.654 -1.3785  2.2555 -0.4593
 7000SOL    HW232634   1.415   2.587   0.721  0.8514  0.5349 -1.6038
 7001SOL     OW32635   3.265   4.003   8.794  0.7828 -0.2438 -0.5290
 7001SOL    HW132636   3.304   3.950   8.863 -0.2157 -2.6890 -1.8645
 7001SOL    HW232637   3.285   3.955   8.714  3.7270  0.9370 -0.5004
 7002SOL     OW32638   4.655   1.999   3.216  0.3359 -0.2711 -0.7100
 7002SOL    HW132639   4.597   2.039   3.281 -0.7507  0.3567 -2.0576
 7002SOL    HW232640   4.593   1.948   3.163 -1.5212  1.5272 -0.2557
 7003SOL     OW32641   2.337   1.877   1.368  0.3745 -0.0191 -0.6789
 7003SOL    HW132642   2.328   1.823   1.290 -0.4810 -2.8103  1.3464
 7003SOL    HW232643   2.305   1.831   1.446  1.2143  0.3251 -0.1225
 7004SOL     OW32644   2.433   2.911   5.660  0.5544  1.0636 -0.3894
 7004SOL    HW132645   2.393   2.854   5.595  1.5376  0.7387 -0.7096
 7004SOL    HW232646   2.358   2.963   5.689  0.4348 -0.2332  1.6769
 7005SOL     OW32647   1.637   0.257   4.669  0.3063  0.6772 -0.4483
 7005SOL    HW132648   1.631   0.326   4.735  2.1191  0.0250  0.3890
 7005SOL    HW232649   1.623   0.178   4.721  2.3402  0.7547  0.2417
 7006SOL     OW32650   4.568   3.981   0.833  0.0016  0.4068 -0.0397
 7006SOL    HW132651   4.486   4.004   0.790 -0.7554 -2.5357 -0.2060
 7006SOL    HW232652   4.601   3.911   0.776  1.4705  0.1941  1.0505
 7007SOL     OW32653   0.563   0.327   0.366  0.4418  0.2004  0.1124
 7007SOL    HW132654   0.533   0.286   0.285  1.7350 -1.2262  0.3492
 7007SOL    HW232655   0.535   0.265   0.434 -1.4464 -1.2389 -1.9558
 7008SOL     OW32656   4.706   1.949   8.681 -0.7652  0.5679 -0.5207
 7008SOL    HW132657   4.654   1.876   8.715 -1.7746  0.8012 -1.5568
 7008SOL    HW232658   0.011   1.913   8.605 -0.6899 -1.0323  0.2883
 7009SOL     OW32659   1.259   2.714  13.234  0.0171 -0.0447 -0.3126
 7009SOL    HW132660   1.309   2.633  13.226 -0.1112  0.1275 -2.7567
 7009SOL    HW232661   1.231   2.704  13.325 -0.8811 -0.4822 -0.6348
 7010SOL     OW32662   0.251   4.696   2.718  0.2902 -0.0091  0.3308
 7010SOL    HW132663   0.311   4.634   2.760 -0.0956 -1.2345 -0.8954
 7010SOL    HW232664   0.305   0.026   2.682  0.6826 -0.9481 -0.9441
 7011SOL     OW32665   1.716   0.398   3.209  0.0838  0.9836  0.0285
 7011SOL    HW132666   1.779   0.440   3.150  0.5618 -0.7572 -0.6859
 7011SOL    HW232667   1.753   0.435   3.290 -0.9187  3.1479 -0.5102
 7012SOL     OW32668   0.667   2.063  13.951 -0.0859 -0.4726 -0.0957
 7012SOL    HW132669   0.686   2.079  13.859  0.4709 -0.2132  0.0669
 7012SOL    HW232670   0.579   2.029  13.968 -0.1552 -1.0867 -1.6838
 7013SOL     OW32671   2.260   4.363   7.911  0.4216  0.2116 -0.1836
 7013SOL    HW132672   2.258   4.367   8.007 -1.6664  2.2534 -0.3232
 7013SOL    HW232673   2.326   4.294   7.900  0.1861 -0.2380  1.1944
 7014SOL     OW32674   4.392   2.569   7.423  0.1428 -0.1627 -0.4398
 7014SOL    HW132675   4.323   2.591   7.485 -0.4888 -0.7815 -0.9228
 7014SOL    HW232676   4.443   2.650   7.426 -1.3593  0.7479  0.7055
 7015SOL     OW32677   2.414   4.290   2.772 -0.2840 -0.3786 -0.0386
 7015SOL    HW132678   2.408   4.385   2.774 -1.3726 -0.4767  1.6717
 7015SOL    HW232679   2.508   4.282   2.789 -0.0795  1.2090 -0.4469
 7016SOL     OW32680   3.835   2.839   6.752 -0.0729 -0.4846  0.2414
 7016SOL    HW132681   3.759   2.883   6.791  0.4651  0.3831  0.3124
 7016SOL    HW232682   3.867   2.794   6.830 -0.8574 -3.7541 -1.3265
 7017SOL     OW32683   0.212   3.593   5.822  0.1427  0.0084 -0.1179
 7017SOL    HW132684   0.205   3.529   5.893  1.7169  1.4889  1.3530
 7017SOL    HW232685   0.196   3.679   5.859  2.4593 -0.3402  1.6778
 7018SOL     OW32686   0.599   0.963  13.292 -0.5812  0.4674 -0.0191
 7018SOL    HW132687   0.659   1.027  13.329  0.6001 -0.2972 -0.6427
 7018SOL    HW232688   0.538   0.958  13.366  1.7577  1.2429  1.9806
 7019SOL     OW32689   4.081   4.471   7.071 -0.3124  0.0880 -0.1047
 7019SOL    HW132690   4.081   4.567   7.074  0.4890  0.0092  2.5319
 7019SOL    HW232691   4.120   4.451   7.156 -1.7115  0.2046  0.5487
 7020SOL     OW32692   0.826   2.302  15.124  0.0899 -0.5768 -0.1120
 7020SOL    HW132693   0.830   2.298  15.029 -2.7061 -0.9674 -0.2364
 7020SOL    HW232694   0.854   2.213  15.144  0.3393 -0.3416  0.6138
 7021SOL     OW32695   0.605   0.432   6.754 -0.3752 -0.4938  0.9719
 7021SOL    HW132696   0.553   0.393   6.683  1.4175  2.6024 -2.0805
 7021SOL    HW232697   0.547   0.507   6.769 -0.6085 -0.7355  1.2533
 7022SOL     OW32698   0.635   1.346   8.696  0.1874  0.2590  0.6064
 7022SOL    HW132699   0.646   1.433   8.735 -2.4701  1.2582 -0.8986
 7022SOL    HW232700   0.545   1.323   8.717 -0.3177  2.5130  0.9407
 7023SOL     OW32701   3.493   1.349  12.576  0.2590 -0.6789  0.2244
 7023SOL    HW132702   3.512   1.441  12.597  0.8309 -1.0592  1.3352
 7023SOL    HW232703   3.423   1.361  12.511  3.0653 -0.3118 -2.7423
 7024SOL     OW32704   4.410   1.008   6.057 -0.5108 -0.3651  0.0433
 7024SOL    HW132705   4.472   0.942   6.027  0.7411  1.1680 -0.7053
 7024SOL    HW232706   4.467   1.044   6.125  1.0773 -0.1327 -1.4171
 7025SOL     OW32707   1.389   0.785  16.594 -0.4319  0.5132  0.2592
 7025SOL    HW132708   1.478   0.799  16.561 -0.6874  0.1720 -0.5564
 7025SOL    HW232709   1.370   0.700  16.556  2.9672 -0.5012  0.8186
 7026SOL     OW32710   3.592   2.785   3.715  0.6203  0.0469  0.9257
 7026SOL    HW132711   3.578   2.880   3.714 -1.6711 -0.2941  1.7708
 7026SOL    HW232712   3.682   2.785   3.749  1.5564  0.3337 -1.5199
 7027SOL     OW32713   3.650   2.009   3.057  0.4457  0.0967 -0.0176
 7027SOL    HW132714   3.561   1.994   3.090  0.0078  3.0681  0.1593
 7027SOL    HW232715   3.700   1.970   3.129  0.0213 -2.7144 -1.2525
 7028SOL     OW32716   0.599   2.973   1.598  0.6339  0.1474 -0.6241
 7028SOL    HW132717   0.650   3.008   1.671  2.6216 -1.7947 -1.0759
 7028SOL    HW232718   0.654   2.973   1.519  1.4741  2.2886 -0.0636
 7029SOL     OW32719   1.213   1.243   2.032 -0.7741  0.6417  0.0855
 7029SOL    HW132720   1.306   1.263   2.044 -0.4141 -0.5791 -0.6562
 7029SOL    HW232721   1.209   1.149   2.013  1.2600  0.9972 -2.0825
 7030SOL     OW32722   0.954   3.558   4.676  0.3755 -0.0085 -0.5472
 7030SOL    HW132723   0.966   3.557   4.771 -0.2320 -0.2462 -0.4700
 7030SOL    HW232724   0.963   3.466   4.653  4.3105  0.1656  0.4243
 7031SOL     OW32725   4.234   1.132   8.573  0.7503  0.1418 -0.7434
 7031SOL    HW132726   4.155   1.186   8.568  0.7129  0.4118  2.6511
 7031SOL    HW232727   4.233   1.106   8.665 -0.9673  2.1047 -0.1989
 7032SOL     OW32728   1.120   4.364   4.448 -0.4150  0.2809  0.0429
 7032SOL    HW132729   1.133   4.420   4.371  1.3347 -0.0777  0.0785
 7032SOL    HW232730   1.065   4.429   4.491 -1.5114 -0.9082  0.4484
 7033SOL     OW32731   4.671   3.428   2.126  0.2100 -0.0124 -0.3499
 7033SOL    HW132732   4.693   3.479   2.204 -2.1795  0.7329 -0.1735
 7033SOL    HW232733   4.577   3.448   2.119  0.2630 -0.0897 -1.3742
 7034SOL     OW32734   0.607   2.989   2.479  0.3372 -0.6533 -0.0540
 7034SOL    HW132735   0.610   2.993   2.383  1.9790 -1.1036 -0.0163
 7034SOL    HW232736   0.621   2.897   2.500  1.0610 -0.5241  0.0050
 7035SOL     OW32737   0.357   3.468   3.499  0.7246  0.4584 -0.4176
 7035SOL    HW132738   0.318   3.476   3.586  0.0097 -2.6174 -0.4234
 7035SOL    HW232739   0.379   3.558   3.477  2.9040  0.2519  0.8643
 7036SOL     OW32740   4.286   0.838   4.516 -0.0139 -0.4198  0.5443
 7036SOL    HW132741   4.256   0.785   4.590  2.5510  0.1868  2.0495
 7036SOL    HW232742   4.360   0.789   4.480  0.2713  0.3171  0.1390
 7037SOL     OW32743   0.971   0.982   9.856 -0.1934  0.1611  0.9784
 7037SOL    HW132744   0.897   0.974   9.797  2.3586 -2.7527 -1.7636
 7037SOL    HW232745   1.033   1.018   9.792  0.1243  1.8867  2.2526
 7038SOL     OW32746   2.669   0.106   6.823  0.5779 -0.2119  0.4793
 7038SOL    HW132747   2.758   0.071   6.821  1.0044  0.9065  0.1660
 7038SOL    HW232748   2.631   0.041   6.763  3.1420 -0.9872 -0.2713
 7039SOL     OW32749   0.031   1.438   9.227 -0.4947  0.3734  0.0350
 7039SOL    HW132750   4.681   1.467   9.239 -0.9769 -0.6469 -1.1059
 7039SOL    HW232751   0.022   1.376   9.155  0.4134 -0.9134  1.0169
 7040SOL     OW32752   2.298   0.844   6.036  0.4955  0.8629 -0.2405
 7040SOL    HW132753   2.220   0.883   6.075 -0.7793 -0.9865 -0.9663
 7040SOL    HW232754   2.365   0.891   6.085  0.5699  0.1421  0.3546
 7041SOL     OW32755   0.011   0.416  14.694  0.0618 -0.5166 -0.2835
 7041SOL    HW132756   4.678   0.372  14.736  0.1750  0.5199  1.0115
 7041SOL    HW232757   4.707   0.426  14.610 -0.8591  0.1151  0.2739
 7042SOL     OW32758   0.112   2.731  10.330 -0.2315  0.6253 -0.4394
 7042SOL    HW132759   0.043   2.752  10.266  0.2709 -1.1453 -1.5675
 7042SOL    HW232760   0.186   2.715  10.272 -0.1429 -0.4317 -0.0177
 7043SOL     OW32761   2.029   2.119   5.022  0.2874 -0.4491  0.2334
 7043SOL    HW132762   1.989   2.033   5.009 -1.5629  0.4634 -0.0576
 7043SOL    HW232763   2.044   2.144   4.931  3.1844 -2.2505  0.2265
 7044SOL     OW32764   4.437   4.671   1.956 -0.4277 -0.2053  0.4472
 7044SOL    HW132765   4.424   4.660   1.862  0.4955 -1.1650  0.4290
 7044SOL    HW232766   4.530   4.695   1.956 -0.2991 -0.7249 -0.1044
 7045SOL     OW32767   0.450   4.715   6.065 -0.5160  0.2592  0.1547
 7045SOL    HW132768   0.373   4.687   6.016 -0.7730  0.2980  0.5360
 7045SOL    HW232769   0.492   4.630   6.079 -2.5930 -0.7324  0.4412
 7046SOL     OW32770   1.890   1.019   3.948  0.0213 -0.1173 -0.1749
 7046SOL    HW132771   1.926   1.068   4.022  0.9429 -0.0055 -0.6961
 7046SOL    HW232772   1.857   1.092   3.895  0.3359  0.8031  0.8837
 7047SOL     OW32773   0.022   0.599  12.435  0.4197  0.5903 -0.2003
 7047SOL    HW132774   0.040   0.514  12.476  0.6678  0.5105 -0.4696
 7047SOL    HW232775   4.720   0.573  12.354  0.2808 -1.3264  0.4961
 7048SOL     OW32776   3.690   0.287   6.640  0.4675  0.1058  0.1286
 7048SOL    HW132777   3.652   0.206   6.608 -0.9595  0.8957 -0.1696
 7048SOL    HW232778   3.728   0.339   6.569 -0.2068  2.1723  1.2486
 7049SOL     OW32779   1.026   0.927   4.569  0.0218  0.2137 -0.2661
 7049SOL    HW132780   1.070   0.990   4.511  1.9440 -2.1561 -1.4309
 7049SOL    HW232781   0.945   0.975   4.584  0.9338  2.3370 -1.9786
 7050SOL     OW32782   4.631   0.264   3.110  0.1725  0.2080  0.7156
 7050SOL    HW132783   4.575   0.294   3.038 -0.8822 -1.4898  0.8373
 7050SOL    HW232784   4.683   0.193   3.072 -2.1236 -0.6949 -0.7838
 7051SOL     OW32785   1.744   1.521   3.478  0.3009  0.2594  1.2332
 7051SOL    HW132786   1.666   1.566   3.447 -0.6728 -1.0391  1.8080
 7051SOL    HW232787   1.791   1.599   3.506 -0.4191  0.9696  0.4590
 7052SOL     OW32788   2.264   2.525   7.355 -0.5578  0.5013  0.2706
 7052SOL    HW132789   2.284   2.618   7.343  1.3370  0.0912  0.2480
 7052SOL    HW232790   2.286   2.492   7.268  0.6383  0.3180  0.6387
 7053SOL     OW32791   3.538   0.848   7.836 -0.1075  0.1436  0.0823
 7053SOL    HW132792   3.597   0.773   7.846  0.3902  0.7624  1.6288
 7053SOL    HW232793   3.528   0.863   7.742  1.0617  0.8873  0.0772
 7054SOL     OW32794   2.070   3.695   4.912  0.1473  0.4255  0.5027
 7054SOL    HW132795   2.042   3.608   4.939 -0.0134  0.4604  0.4544
 7054SOL    HW232796   2.101   3.728   4.996 -1.7216  1.7342  0.6818
 7055SOL     OW32797   0.185   0.716   8.060 -0.2258  0.3089  0.0102
 7055SOL    HW132798   0.249   0.651   8.032  1.1494  1.0264  1.5223
 7055SOL    HW232799   0.119   0.668   8.110 -1.1430  0.5489 -0.9586
 7056SOL     OW32800   3.155   3.134  10.740  0.0706  0.0477 -0.6221
 7056SOL    HW132801   3.174   3.127  10.833 -0.4612 -0.4467 -0.5529
 7056SOL    HW232802   3.060   3.133  10.742  0.0541 -0.9730 -1.4512
 7057SOL     OW32803   0.476   1.555  15.488 -0.1987 -0.3617  0.0468
 7057SOL    HW132804   0.512   1.623  15.431  1.8745 -1.1148  0.4600
 7057SOL    HW232805   0.441   1.499  15.418 -1.0130  0.7183 -0.4215
 7058SOL     OW32806   3.174   1.122   5.446 -0.0916  0.4348 -0.3335
 7058SOL    HW132807   3.176   1.169   5.529  2.3336 -1.5711  0.7724
 7058SOL    HW232808   3.099   1.164   5.405 -0.8246  0.1085  0.6881
 7059SOL     OW32809   2.464   4.379   7.626 -0.0708  0.0217  0.3724
 7059SOL    HW132810   2.382   4.331   7.635 -0.4027  0.6119  0.5460
 7059SOL    HW232811   2.528   4.329   7.676  2.3136 -1.5704 -4.2785
 7060SOL     OW32812   3.568   0.567   7.998  0.3909  0.3523  0.3312
 7060SOL    HW132813   3.643   0.517   8.028  1.3571  0.4594 -1.8483
 7060SOL    HW232814   3.569   0.644   8.056 -0.3181 -0.3733  1.2962
 7061SOL     OW32815   1.069   4.247   5.487  0.2336  0.3170 -0.3243
 7061SOL    HW132816   1.086   4.170   5.433  1.9197 -0.0809  0.7485
 7061SOL    HW232817   1.116   4.218   5.566  2.8576 -1.3933 -2.4974
 7062SOL     OW32818   3.267   1.405   5.648 -0.1351  0.3927  0.2297
 7062SOL    HW132819   3.253   1.430   5.557 -0.3649  1.1650  0.4725
 7062SOL    HW232820   3.196   1.345   5.667  1.2636 -1.3302  0.0077
 7063SOL     OW32821   3.026   0.633   9.903 -0.0239  0.5684 -0.3256
 7063SOL    HW132822   3.114   0.649   9.938  0.1321 -1.2815  0.1147
 7063SOL    HW232823   3.020   0.723   9.869  2.6496  1.1010  0.5299
 7064SOL     OW32824   0.152   1.392  16.683 -0.0199  0.2487 -0.0972
 7064SOL    HW132825   0.214   1.328  16.717 -1.0684 -0.0196  1.3236
 7064SOL    HW232826   0.127   1.424  16.770  4.1092 -0.1794  1.2249
 7065SOL     OW32827   1.790   1.469   9.459 -0.2601  0.0322 -0.4569
 7065SOL    HW132828   1.696   1.485   9.470  0.2330  1.9092  0.9502
 7065SOL    HW232829   1.801   1.409   9.385  0.5080 -1.1957  0.6445
 7066SOL     OW32830   2.113   2.329  16.828 -0.0631 -0.0579  0.3667
 7066SOL    HW132831   2.111   2.308  16.921 -0.4438 -0.8873  0.1724
 7066SOL    HW232832   2.038   2.387  16.819 -0.6448 -0.8689 -0.0723
 7067SOL     OW32833   4.597   0.269   6.134  0.1294  0.3498 -0.1670
 7067SOL    HW132834   4.669   0.211   6.112 -0.1635  0.3198 -1.0263
 7067SOL    HW232835   4.592   0.256   6.229 -0.0997  1.5375 -0.0111
 7068SOL     OW32836   1.227   4.305   3.624  0.6202  0.1098 -0.1377
 7068SOL    HW132837   1.250   4.263   3.707  0.5697 -3.0754 -1.7158
 7068SOL    HW232838   1.133   4.308   3.640  0.5544 -0.4639 -0.4051
 7069SOL     OW32839   2.159   4.182   5.909  0.0316 -0.3595  0.3832
 7069SOL    HW132840   2.129   4.272   5.925  0.2365 -0.6121  2.1085
 7069SOL    HW232841   2.103   4.151   5.837  1.0241  0.9011 -0.9265
 7070SOL     OW32842   1.735   3.156   1.859 -0.1228  0.1182 -0.0781
 7070SOL    HW132843   1.748   3.144   1.953 -0.7182 -0.7710 -0.1087
 7070SOL    HW232844   1.821   3.188   1.831 -0.7830  0.1277 -2.1445
 7071SOL     OW32845   3.752   4.361   2.545  0.2881  0.6477  0.2018
 7071SOL    HW132846   3.836   4.387   2.506 -0.2405 -0.9769 -2.0328
 7071SOL    HW232847   3.771   4.363   2.639 -1.4781 -1.1727  0.5990
 7072SOL     OW32848   1.565   1.023   7.706 -0.0556 -0.2783  0.2977
 7072SOL    HW132849   1.514   1.083   7.760  1.3176 -1.0587  2.4790
 7072SOL    HW232850   1.627   1.085   7.666 -2.4724  1.4338 -0.7789
 7073SOL     OW32851   0.472   4.579   3.414 -0.2949  0.8295  0.4046
 7073SOL    HW132852   0.496   4.602   3.504  0.4119 -1.9984  0.9369
 7073SOL    HW232853   0.413   4.653   3.399 -2.3670 -0.8492  0.2848
 7074SOL     OW32854   3.320   1.621  14.279 -0.0792 -0.3076  0.2122
 7074SOL    HW132855   3.398   1.572  14.254 -1.5048 -2.2726 -0.3305
 7074SOL    HW232856   3.374   1.697  14.302 -0.1289  0.3096 -1.6987
 7075SOL     OW32857   0.428   3.610   4.715  0.8163 -0.3233 -0.2680
 7075SOL    HW132858   0.446   3.617   4.621  2.7069 -0.2132  0.0929
 7075SOL    HW232859   0.492   3.671   4.752  1.5529 -0.1184 -1.8945
 7076SOL     OW32860   0.200   0.346   2.156  0.0369 -0.3013 -0.1457
 7076SOL    HW132861   0.159   0.314   2.237 -1.2166  1.6126 -0.0267
 7076SOL    HW232862   0.283   0.368   2.198 -1.1553 -0.4060  2.3178
 7077SOL     OW32863   1.332   0.980   2.855 -0.4272 -0.4479  0.3504
 7077SOL    HW132864   1.421   1.008   2.872  0.9704 -4.1166 -0.7882
 7077SOL    HW232865   1.352   0.905   2.799 -0.0661  0.5927 -0.8991
 7078SOL     OW32866   3.621   4.024  13.644 -0.0095 -0.3389  0.2131
 7078SOL    HW132867   3.678   3.953  13.617  1.3896  0.9307 -0.1449
 7078SOL    HW232868   3.681   4.089  13.678 -1.3037  1.0628 -0.1578
 7079SOL     OW32869   3.945   1.974   2.525 -0.4057 -0.5704  0.5200
 7079SOL    HW132870   3.939   1.935   2.612 -3.6056  2.2228  1.5507
 7079SOL    HW232871   3.942   1.894   2.472  0.3917  0.8676 -1.7275
 7080SOL     OW32872   4.044   1.369   5.026  0.2656 -0.3685 -0.0869
 7080SOL    HW132873   4.035   1.408   5.113 -1.0957 -0.5408 -0.1494
 7080SOL    HW232874   3.989   1.431   4.977  1.9264 -0.3589 -1.9118
 7081SOL     OW32875   4.463   1.188   9.304 -0.7314  0.0753  0.0811
 7081SOL    HW132876   4.527   1.129   9.344  0.0607 -0.2755 -1.7087
 7081SOL    HW232877   4.475   1.269   9.354 -0.1470  0.3926 -0.5677
 7082SOL     OW32878   1.774   0.741   4.050 -0.3405  0.2372 -0.3527
 7082SOL    HW132879   1.839   0.755   4.118 -0.6234 -2.7298  0.5238
 7082SOL    HW232880   1.821   0.714   3.971  0.9005  0.0489  0.4415
 7083SOL     OW32881   3.731   0.895  13.540 -0.2681  0.0708 -0.1154
 7083SOL    HW132882   3.666   0.835  13.577  2.4742 -2.4888  0.5614
 7083SOL    HW232883   3.673   0.964  13.508 -2.6319 -1.6443  0.4909
 7084SOL     OW32884   1.999   4.622   6.315  1.0802 -0.4781  0.9060
 7084SOL    HW132885   1.956   4.657   6.238  0.4638  0.9793  1.9162
 7084SOL    HW232886   2.004   4.696   6.375 -1.3592  1.0926 -0.8561
 7085SOL     OW32887   4.376   0.186   6.990  0.8993 -0.1209  0.2929
 7085SOL    HW132888   4.296   0.235   6.973  2.1266  1.9829  0.5806
 7085SOL    HW232889   4.380   0.173   7.085 -0.4668  0.4150  0.4145
 7086SOL     OW32890   0.475   0.546   6.207 -0.0598  0.0873 -0.0603
 7086SOL    HW132891   0.417   0.520   6.135 -0.2439 -0.5060  0.2999
 7086SOL    HW232892   0.448   0.637   6.224 -0.3781  0.2255 -1.2809
 7087SOL     OW32893   1.424   1.607   2.252 -0.3347  0.0899  0.2685
 7087SOL    HW132894   1.420   1.692   2.207  0.6695  0.0257  0.0709
 7087SOL    HW232895   1.332   1.598   2.280 -0.6733  2.1470 -0.1421
 7088SOL     OW32896   4.204   0.395   2.094 -0.1066  0.0558 -0.5769
 7088SOL    HW132897   4.255   0.456   2.040 -0.0482  0.8526  0.3847
 7088SOL    HW232898   4.262   0.320   2.103  0.5551  0.6092 -0.2643
 7089SOL     OW32899   4.035   2.626   5.767 -0.0320 -0.4011  0.2810
 7089SOL    HW132900   4.092   2.692   5.728  0.2539 -1.7553 -1.5874
 7089SOL    HW232901   3.956   2.680   5.768 -1.2328 -2.1778  3.2092
 7090SOL     OW32902   4.057   4.307   4.961  0.0894 -0.1015 -0.0775
 7090SOL    HW132903   3.978   4.273   4.918  1.4685 -1.0916 -1.8572
 7090SOL    HW232904   4.109   4.227   4.960 -0.5562 -0.5207 -0.3362
 7091SOL     OW32905   0.543   0.189   8.214  0.2999 -0.1999 -0.4525
 7091SOL    HW132906   0.625   0.140   8.226  0.9103  0.9033 -0.1485
 7091SOL    HW232907   0.488   0.138   8.156  0.4748  1.3820 -1.9941
 7092SOL     OW32908   2.341   1.537   9.122 -0.0986 -0.8387 -0.1805
 7092SOL    HW132909   2.375   1.448   9.110  2.4964  0.1202 -0.1488
 7092SOL    HW232910   2.262   1.529   9.175  0.8339  1.5569  1.5654
 7093SOL     OW32911   3.857   4.554   9.023 -0.3287 -0.6311  0.4295
 7093SOL    HW132912   3.799   4.485   8.991 -0.8242 -0.1234  0.2242
 7093SOL    HW232913   3.902   4.572   8.940  0.6021 -1.3744  0.7775
 7094SOL     OW32914   2.929   3.380   5.360 -0.4639  0.4688  0.9704
 7094SOL    HW132915   2.898   3.321   5.429 -2.9419  0.9486  0.2847
 7094SOL    HW232916   2.922   3.324   5.283  1.0279 -0.0001  1.1869
 7095SOL     OW32917   2.199   4.507   1.801  0.3545 -0.5935  0.1147
 7095SOL    HW132918   2.120   4.514   1.748  0.0987  0.7606  0.6640
 7095SOL    HW232919   2.192   4.416   1.830 -1.4872 -1.1259 -2.0184
 7096SOL     OW32920   1.964   4.429   8.583 -0.2362  0.0985  0.1560
 7096SOL    HW132921   2.022   4.492   8.626 -0.0160  1.2776 -1.8360
 7096SOL    HW232922   1.895   4.487   8.549  0.0617  0.2692 -0.1572
 7097SOL     OW32923   1.770   2.139  10.808 -0.6855  0.1005  0.3933
 7097SOL    HW132924   1.778   2.068  10.744  1.2820 -1.6055  2.5622
 7097SOL    HW232925   1.755   2.075  10.877 -2.3225  0.9617  0.8501
 7098SOL     OW32926   0.807   3.067   4.659 -0.3381 -0.4754  0.1128
 7098SOL    HW132927   0.797   3.065   4.754 -1.9273  0.2449 -0.0442
 7098SOL    HW232928   0.883   3.123   4.641  1.1988 -2.8419 -0.8363
 7099SOL     OW32929   4.054   0.065  15.942 -0.1821 -0.2160 -0.3509
 7099SOL    HW132930   4.054   0.111  15.858  1.2421 -0.3491 -0.4093
 7099SOL    HW232931   4.143   0.030  15.938  0.0569  0.1007  1.9691
 7100SOL     OW32932   4.685   4.527   1.738 -0.0557 -0.0639  0.0381
 7100SOL    HW132933   4.730   4.461   1.684 -0.9631  0.8822 -1.8612
 7100SOL    HW232934   0.002   4.528   1.815 -0.5009  2.4909  0.3096
 7101SOL     OW32935   3.463   2.281  10.371 -0.3295  0.4404 -0.4242
 7101SOL    HW132936   3.464   2.363  10.421  1.7640 -1.3781  2.5201
 7101SOL    HW232937   3.374   2.247  10.383 -0.1842  0.0618 -0.4338
 7102SOL     OW32938   1.551   0.572   5.219  0.0550  0.4779 -0.3556
 7102SOL    HW132939   1.539   0.575   5.124  1.7316  0.7869 -0.5685
 7102SOL    HW232940   1.558   0.480   5.244 -0.0753 -0.0849 -2.4039
 7103SOL     OW32941   3.879   4.228   1.712  0.0487  0.5367  0.3306
 7103SOL    HW132942   3.855   4.321   1.718  0.9835  0.8874 -1.3607
 7103SOL    HW232943   3.974   4.235   1.699  0.0969 -2.0679 -0.6655
 7104SOL     OW32944   4.265   4.584   6.790  0.4208  0.0669 -0.1027
 7104SOL    HW132945   4.345   4.622   6.755  1.7585 -2.0804  0.6602
 7104SOL    HW232946   4.281   4.587   6.885 -0.6149  2.0241  0.0133
 7105SOL     OW32947   1.763   3.791  15.996 -0.2176 -0.1970 -0.3472
 7105SOL    HW132948   1.791   3.772  16.086 -0.2622 -0.1279 -0.3184
 7105SOL    HW232949   1.717   3.871  16.021 -1.9637 -1.0706 -0.7701
 7106SOL     OW32950   0.971   3.389   6.132  0.1989 -1.0753 -0.2989
 7106SOL    HW132951   0.954   3.483   6.123 -1.4548 -1.0827  2.4643
 7106SOL    HW232952   0.889   3.378   6.181 -0.1601 -2.5175 -1.2226
 7107SOL     OW32953   3.428   3.626   5.035  0.0586  0.1753 -0.0510
 7107SOL    HW132954   3.522   3.618   5.051  0.3455  1.0531 -1.3107
 7107SOL    HW232955   3.393   3.542   5.063  1.7350 -0.0681  1.3204
 7108SOL     OW32956   4.144   2.039   3.495  0.0865 -0.6270  0.9175
 7108SOL    HW132957   4.153   2.070   3.405  0.7371  0.2438  1.2826
 7108SOL    HW232958   4.230   2.058   3.534 -0.5551  1.1249  1.4569
 7109SOL     OW32959   1.920   3.478   5.271  0.0232 -0.3023 -0.0443
 7109SOL    HW132960   1.996   3.519   5.230 -1.0486 -0.5879 -2.2866
 7109SOL    HW232961   1.954   3.389   5.283  2.5363  0.6496 -0.1990
 7110SOL     OW32962   2.396   0.897   1.283  0.3098 -0.1386 -0.5088
 7110SOL    HW132963   2.438   0.842   1.217 -2.6341 -0.1924 -2.3851
 7110SOL    HW232964   2.444   0.979   1.272  0.2745 -0.2035 -1.1771
 7111SOL     OW32965   0.082   1.879   6.427 -0.5628  0.0292 -0.5517
 7111SOL    HW132966   0.062   1.931   6.350  1.1610 -2.6434 -2.7952
 7111SOL    HW232967   0.039   1.928   6.498 -0.5438  1.0482 -1.2448
 7112SOL     OW32968   4.210   2.180   8.450 -1.1577  0.2207 -0.2609
 7112SOL    HW132969   4.209   2.262   8.400 -2.1144 -0.2389 -0.9946
 7112SOL    HW232970   4.209   2.117   8.378 -1.1524 -0.1974  0.1080
 7113SOL     OW32971   1.188   1.040  15.301  0.1029  0.0696  0.6701
 7113SOL    HW132972   1.284   1.043  15.300  0.0946  0.7351  1.7021
 7113SOL    HW232973   1.178   0.948  15.277 -0.8781  0.4514 -0.4084
 7114SOL     OW32974   3.276   0.214   5.636  0.2840 -0.1822  0.0462
 7114SOL    HW132975   3.195   0.200   5.585 -0.3599  1.0678  0.7130
 7114SOL    HW232976   3.341   0.239   5.571 -2.4524  1.9277 -1.8756
 7115SOL     OW32977   1.037   0.247   7.848 -0.2105  0.3885  0.1539
 7115SOL    HW132978   1.088   0.323   7.876  1.3560 -0.0349 -1.5626
 7115SOL    HW232979   0.949   0.283   7.856  0.3553  1.6222  0.9110
 7116SOL     OW32980   0.245   4.330   4.947  0.3466 -0.4456  0.1140
 7116SOL    HW132981   0.198   4.405   4.984 -1.6116 -1.0760 -1.0726
 7116SOL    HW232982   0.314   4.307   5.008  2.1942 -1.4974 -2.3771
 7117SOL     OW32983   4.426   4.327   1.842 -0.1771  0.4177  0.0313
 7117SOL    HW132984   4.482   4.299   1.769 -1.7084  0.5645 -1.1812
 7117SOL    HW232985   4.402   4.416   1.815 -1.2182  1.1556  3.3831
 7118SOL     OW32986   0.784   2.639   5.040 -0.1146 -0.2914  0.2826
 7118SOL    HW132987   0.816   2.709   4.984 -0.6958 -2.2089 -2.4346
 7118SOL    HW232988   0.755   2.690   5.115  0.3048  0.1144  0.1671
 7119SOL     OW32989   3.747   0.970  14.754 -0.4992 -1.0078 -0.2431
 7119SOL    HW132990   3.668   0.955  14.702 -1.4354  2.3405  0.2132
 7119SOL    HW232991   3.798   0.891  14.732 -0.5364 -0.7315 -1.3165
 7120SOL     OW32992   4.160   4.291   7.531 -0.4531  0.0368 -0.4208
 7120SOL    HW132993   4.143   4.378   7.568 -0.1172 -0.3294  0.5869
 7120SOL    HW232994   4.119   4.249   7.607 -0.0843  0.7342  0.1641
 7121SOL     OW32995   1.517   4.311   9.092 -0.1174  0.1224 -0.3038
 7121SOL    HW132996   1.563   4.260   9.025  0.0630 -1.2105  0.8404
 7121SOL    HW232997   1.535   4.261   9.171  3.3644 -0.6023 -1.5522
 7122SOL     OW32998   1.265   3.455   5.276  0.0750 -0.3169  0.2162
 7122SOL    HW132999   1.242   3.516   5.346  0.2948  0.0871 -0.0611
 7122SOL    HW233000   1.310   3.389   5.328  1.4948  1.2446  0.9485
 7123SOL     OW33001   0.865   2.593  15.018  0.3143  0.5236  1.0491
 7123SOL    HW133002   0.804   2.528  15.053 -0.3064  0.5448  0.0325
 7123SOL    HW233003   0.811   2.656  14.971 -0.4120 -0.6091  0.3530
 7124SOL     OW33004   0.331   2.944   4.428  0.4330 -0.2185  0.0796
 7124SOL    HW133005   0.266   3.008   4.457  1.3239  1.3145 -1.2948
 7124SOL    HW233006   0.407   2.986   4.468 -0.2338 -0.6594  1.8164
 7125SOL     OW33007   0.173   1.993  14.847  0.5569 -0.5044  0.4880
 7125SOL    HW133008   0.219   1.912  14.867 -0.9880 -1.6724 -0.7121
 7125SOL    HW233009   0.116   1.967  14.775  2.0336  0.4690 -1.0377
 7126SOL     OW33010   2.480   2.454   5.484 -0.7284  0.0206  0.7065
 7126SOL    HW133011   2.536   2.459   5.407  0.0683 -1.0322  1.2158
 7126SOL    HW233012   2.418   2.523   5.459 -1.3800 -1.7229 -2.4852
 7127SOL     OW33013   1.108   1.457   9.129 -0.0755 -0.2348 -0.4880
 7127SOL    HW133014   1.192   1.441   9.085  0.5754 -1.1206  1.0329
 7127SOL    HW233015   1.076   1.541   9.097  1.1875  0.1891 -0.6256
 7128SOL     OW33016   0.709   0.473   7.401 -0.2768  0.4057  0.0587
 7128SOL    HW133017   0.800   0.466   7.430 -0.8069  2.1284  2.1302
 7128SOL    HW233018   0.681   0.553   7.446  0.8598  0.8617 -0.0524
 7129SOL     OW33019   0.688   2.802   2.061 -0.0567  0.1688 -0.1029
 7129SOL    HW133020   0.616   2.745   2.034 -1.5299  1.0280  1.9744
 7129SOL    HW233021   0.763   2.763   2.016 -0.8944  0.6781 -1.9471
 7130SOL     OW33022   0.064   2.994   3.646 -0.0011 -0.0117 -0.0858
 7130SOL    HW133023   0.141   2.988   3.703 -0.8113 -0.5462  0.9569
 7130SOL    HW233024   0.048   2.901   3.632  0.8350 -0.3083  0.9443
 7131SOL     OW33025   1.245   2.679   7.133  0.8168 -0.2700  0.0821
 7131SOL    HW133026   1.230   2.772   7.119  0.2487 -0.2983  0.5070
 7131SOL    HW233027   1.263   2.642   7.047 -2.9642  1.6814 -1.5158
 7132SOL     OW33028   1.429   4.181   7.273 -0.1182 -0.3157 -0.2056
 7132SOL    HW133029   1.351   4.168   7.220 -0.3699 -0.0673  0.1046
 7132SOL    HW233030   1.508   4.169   7.221 -0.5360  0.4879 -1.0250
 7133SOL     OW33031   3.082   4.082   4.010  0.2664 -0.3427  0.1833
 7133SOL    HW133032   3.084   4.160   4.066 -0.5088  0.8088 -1.4063
 7133SOL    HW233033   3.026   4.105   3.936 -1.0264 -1.3945  0.8370
 7134SOL     OW33034   0.457   4.244   8.532 -0.7569  0.4377 -0.1130
 7134SOL    HW133035   0.421   4.326   8.499 -1.0887 -0.0105 -0.8795
 7134SOL    HW233036   0.430   4.185   8.462 -0.4408 -0.9819  0.9645
 7135SOL     OW33037   3.865   0.541   7.780 -0.4938  0.3345  0.5870
 7135SOL    HW133038   3.776   0.516   7.754 -0.5719  0.0459  1.1288
 7135SOL    HW233039   3.867   0.508   7.870 -0.8763 -0.8689  0.1619
 7136SOL     OW33040   1.797   2.404   5.709  0.9341  0.3396  0.1269
 7136SOL    HW133041   1.864   2.368   5.767 -1.1569 -2.3497  0.8685
 7136SOL    HW233042   1.800   2.498   5.726  1.3737  0.3200  0.1679
 7137SOL     OW33043   1.544   1.400   3.781  0.7296  0.1755  0.3824
 7137SOL    HW133044   1.493   1.374   3.857  0.3986  2.0580  0.8050
 7137SOL    HW233045   1.486   1.366   3.712  0.2142  1.4530  0.1745
 7138SOL     OW33046   1.651   0.257   8.070 -0.1903 -0.2406 -0.2194
 7138SOL    HW133047   1.556   0.262   8.083 -0.2855  1.1687 -1.4253
 7138SOL    HW233048   1.682   0.321   8.135  3.0068 -1.4129 -0.5905
 7139SOL     OW33049   4.345   2.021   4.083  0.3360  0.2009  0.3325
 7139SOL    HW133050   4.425   1.969   4.075 -0.2229 -0.5207 -0.5257
 7139SOL    HW233051   4.289   1.964   4.135  0.2020 -1.0045 -1.1537
 7140SOL     OW33052   3.847   3.992   6.662  0.4076 -0.4459  0.7300
 7140SOL    HW133053   3.913   3.999   6.730  2.5230  0.5049 -1.4067
 7140SOL    HW233054   3.790   4.067   6.679 -1.0473 -1.2871 -0.3686
 7141SOL     OW33055   1.566   1.810   1.400  0.3553  0.3723 -0.0650
 7141SOL    HW133056   1.487   1.758   1.415  1.7192 -2.1478 -1.3716
 7141SOL    HW233057   1.549   1.824   1.307  1.7508  0.4352 -0.3155
 7142SOL     OW33058   0.795   2.099  17.151  0.6269 -0.2710  0.1935
 7142SOL    HW133059   0.843   2.022  17.182  1.3826 -0.0979 -0.5549
 7142SOL    HW233060   0.750   2.132  17.228  0.8413 -1.2601  0.7419
 7143SOL     OW33061   4.673   3.271  11.875  0.8113  0.2464 -0.0286
 7143SOL    HW133062   0.011   3.315  11.844 -0.8997  1.5426 -2.5131
 7143SOL    HW233063   4.652   3.330  11.948  1.7137 -0.3300  0.6935
 7144SOL     OW33064   4.132   0.247   3.188  0.4424 -0.0175  0.5429
 7144SOL    HW133065   4.102   0.335   3.209  0.6002 -0.0759  1.0011
 7144SOL    HW233066   4.225   0.241   3.210  0.5305  2.1182  0.7639
 7145SOL     OW33067   4.638   2.483   7.617 -0.0391  0.1537  0.4777
 7145SOL    HW133068   4.559   2.454   7.572  0.7087 -0.7607 -0.2498
 7145SOL    HW233069   4.601   2.524   7.695 -0.0235  0.6924  0.1951
 7146SOL     OW33070   0.545   2.228   2.600  0.3275 -0.3176  0.1074
 7146SOL    HW133071   0.589   2.145   2.618 -0.7985 -0.4474  2.2461
 7146SOL    HW233072   0.582   2.239   2.513 -1.4595  0.8748 -0.5001
 7147SOL     OW33073   0.082   2.446   4.988 -0.1149  0.4320 -0.1454
 7147SOL    HW133074   0.108   2.394   4.912  0.2183 -1.3245  1.1540
 7147SOL    HW233075   0.041   2.385   5.049 -1.9275 -0.8842 -2.6684
 7148SOL     OW33076   4.094   1.643  10.750 -0.9904 -0.3375 -0.5813
 7148SOL    HW133077   4.043   1.711  10.794  1.2392  0.3504  0.8785
 7148SOL    HW233078   4.112   1.684  10.665 -1.9865 -0.5350 -0.8990
 7149SOL     OW33079   0.132   3.828   5.912  0.0076  0.0188  0.5234
 7149SOL    HW133080   0.088   3.816   5.996 -0.4505 -0.9649  0.1411
 7149SOL    HW233081   0.205   3.884   5.937 -0.5347  1.0825 -0.2574
 7150SOL     OW33082   4.565   1.318   4.188 -0.5569 -0.3355 -0.0729
 7150SOL    HW133083   4.471   1.320   4.171 -0.5737 -0.3383  0.0155
 7150SOL    HW233084   4.577   1.240   4.242 -1.0470  0.5228  1.2900
 7151SOL     OW33085   2.273   1.025   5.108 -0.2889  0.1682  0.0203
 7151SOL    HW133086   2.300   1.066   5.191 -0.0563 -0.9107  0.4840
 7151SOL    HW233087   2.192   1.068   5.081 -0.5460 -0.0045  0.5088
 7152SOL     OW33088   4.042   2.097   4.406 -0.2932  0.2322 -0.3947
 7152SOL    HW133089   3.948   2.083   4.415  0.2195 -1.2000  2.5981
 7152SOL    HW233090   4.052   2.178   4.455  1.4488  0.8729 -1.7820
 7153SOL     OW33091   2.781   0.517   6.204 -0.0476  0.1280  0.2332
 7153SOL    HW133092   2.814   0.524   6.114  2.9423  2.4009  1.5049
 7153SOL    HW233093   2.848   0.460   6.240 -1.4456 -1.7122 -0.1067
 7154SOL     OW33094   0.375   2.928   3.766  0.1703 -0.3934 -0.1463
 7154SOL    HW133095   0.438   2.857   3.783  0.1217 -0.0999  1.3035
 7154SOL    HW233096   0.310   2.911   3.834  0.3348 -2.2366 -0.4491
 7155SOL     OW33097   1.880   3.387   2.140 -0.0175 -0.1543 -0.3718
 7155SOL    HW133098   1.837   3.301   2.136  0.6563 -0.5644  0.9538
 7155SOL    HW233099   1.800   3.435   2.160  0.7923  0.2506  1.8419
 7156SOL     OW33100   1.688   1.177  15.985 -0.4255  0.3871 -0.1749
 7156SOL    HW133101   1.622   1.197  15.918 -1.5952 -0.9317  0.5940
 7156SOL    HW233102   1.726   1.101  15.942 -0.4390 -0.3600  1.1380
 7157SOL     OW33103   2.993   2.269   3.068  0.2024 -0.7799  0.3197
 7157SOL    HW133104   3.017   2.177   3.080 -0.0695 -0.9205 -0.1936
 7157SOL    HW233105   3.051   2.306   3.001  0.1903  0.3918  0.9642
 7158SOL     OW33106   0.316   2.469   0.877  0.2331  0.4310  0.1647
 7158SOL    HW133107   0.252   2.404   0.848 -0.3076  0.9031  0.2989
 7158SOL    HW233108   0.355   2.436   0.958  0.0409 -2.6103 -0.9944
 7159SOL     OW33109   3.818   1.383   3.230 -0.3213  0.0996 -0.1541
 7159SOL    HW133110   3.869   1.417   3.304 -1.9521  0.4310  0.8155
 7159SOL    HW233111   3.791   1.462   3.184 -0.0397  0.5863  0.5190
 7160SOL     OW33112   0.442   3.038  13.190 -0.0765  0.3630 -0.4509
 7160SOL    HW133113   0.533   3.026  13.217 -0.4660  2.2291  1.7261
 7160SOL    HW233114   0.404   3.082  13.266 -1.1580  0.8936 -1.3012
 7161SOL     OW33115   0.189   0.182   7.393 -0.0666  0.3414  0.3375
 7161SOL    HW133116   0.239   0.263   7.383  0.1866  0.2219  0.6201
 7161SOL    HW233117   0.260   0.120   7.409 -0.3876 -0.2484 -0.5323
 7162SOL     OW33118   2.776   4.102  10.979 -0.3483 -0.3269 -0.4264
 7162SOL    HW133119   2.799   4.033  11.041 -1.3752 -0.9480 -0.7525
 7162SOL    HW233120   2.748   4.062  10.897 -1.3452 -0.3049 -0.0919
 7163SOL     OW33121   4.229   4.697  16.462 -0.2030  0.4429 -0.2966
 7163SOL    HW133122   4.251   0.019  16.393  1.5107  0.3943  0.2014
 7163SOL    HW233123   4.154   0.007  16.493 -2.6536 -3.4305  0.2061
 7164SOL     OW33124   3.122   3.503   9.578  0.6070 -0.1414 -0.2194
 7164SOL    HW133125   3.072   3.447   9.519 -0.4834  0.7877 -0.1821
 7164SOL    HW233126   3.074   3.585   9.567 -0.3376 -0.5273  1.0006
 7165SOL     OW33127   0.026   3.497   6.585  0.3470  0.3637  0.6288
 7165SOL    HW133128   4.679   3.534   6.598 -0.2162  0.0267 -2.3487
 7165SOL    HW233129   0.074   3.566   6.540 -3.4251  1.3035 -1.9501
 7166SOL     OW33130   4.729   3.805  15.323 -0.2272  0.1434 -0.3714
 7166SOL    HW133131   4.676   3.818  15.244  0.4131 -1.8449 -1.1270
 7166SOL    HW233132   4.671   3.854  15.382  0.8865  1.1384 -0.1215
 7167SOL     OW33133   1.094   3.569   9.358 -0.4747 -0.1595 -0.0784
 7167SOL    HW133134   1.030   3.565   9.287 -0.3888  0.1425 -0.1716
 7167SOL    HW233135   1.120   3.661   9.359 -0.8004 -0.0558 -2.0021
 7168SOL     OW33136   1.036   1.651  15.927  0.8471 -0.1919  0.3050
 7168SOL    HW133137   1.100   1.718  15.902 -1.9960  2.1886 -0.6554
 7168SOL    HW233138   0.963   1.690  15.880  0.3853  1.3498  2.2784
 7169SOL     OW33139   3.356   4.315   2.670 -0.3355  0.2009  0.2955
 7169SOL    HW133140   3.413   4.391   2.685 -1.9896  1.6222 -0.7012
 7169SOL    HW233141   3.272   4.359   2.682 -0.9088 -1.1569  1.2274
 7170SOL     OW33142   2.665   4.273   2.860  0.4881  0.1636  0.2320
 7170SOL    HW133143   2.727   4.207   2.829 -1.3311 -0.9589 -1.0165
 7170SOL    HW233144   2.716   4.344   2.821  1.4678 -2.5835 -3.5171
 7171SOL     OW33145   1.265   2.503   8.744 -0.4225  0.0693 -0.2706
 7171SOL    HW133146   1.266   2.596   8.721  0.1145  0.4223  1.1726
 7171SOL    HW233147   1.242   2.473   8.656 -0.1296 -1.0996  0.0460
 7172SOL     OW33148   2.368   0.493   3.423 -0.5655 -0.9379 -0.2050
 7172SOL    HW133149   2.422   0.558   3.468 -0.0787  1.9349 -5.0308
 7172SOL    HW233150   2.426   0.440   3.369 -1.0111  0.0127 -1.6065
 7173SOL     OW33151   3.289   0.647  14.742 -0.3133 -0.2747  0.3767
 7173SOL    HW133152   3.376   0.624  14.773 -0.2045  2.3148  2.0431
 7173SOL    HW233153   3.231   0.593  14.796  0.6030  1.3481  2.9739
 7174SOL     OW33154   1.842   1.079   2.240 -0.1294 -0.1101  0.4584
 7174SOL    HW133155   1.853   1.057   2.148 -2.1295 -0.1305  0.2269
 7174SOL    HW233156   1.932   1.104   2.264  0.3945  0.0048 -1.6359
 7175SOL     OW33157   2.840   2.157  15.624  0.0209  0.0580  0.4337
 7175SOL    HW133158   2.806   2.199  15.703  2.1795 -2.3625  2.6456
 7175SOL    HW233159   2.759   2.165  15.573 -0.3137 -0.4260  0.8897
 7176SOL     OW33160   2.967   1.721   0.474 -0.1531  0.4729 -0.3766
 7176SOL    HW133161   2.910   1.645   0.481  0.4342  0.0239 -0.4633
 7176SOL    HW233162   3.041   1.678   0.431  0.7376  0.4733  1.1346
 7177SOL     OW33163   0.169   1.693  17.633 -0.5503 -0.6458  0.0564
 7177SOL    HW133164   0.174   1.666  17.725 -1.4620 -2.0597 -0.3112
 7177SOL    HW233165   0.136   1.616  17.589  0.2575 -1.1808  0.3804
 7178SOL     OW33166   4.321   0.438   7.260 -0.3857 -0.5405  0.3073
 7178SOL    HW133167   4.270   0.407   7.185 -1.6674  2.5307 -0.0904
 7178SOL    HW233168   4.302   0.532   7.252  0.7311 -0.5274 -2.1869
 7179SOL     OW33169   3.602   2.641  17.714  0.1328 -0.4150  0.0927
 7179SOL    HW133170   3.667   2.594  17.662  1.6390  0.8213  0.8506
 7179SOL    HW233171   3.523   2.621  17.665  1.0370 -1.3606 -0.9785
 7180SOL     OW33172   0.951   4.439   2.533 -0.1775 -0.0902  1.0734
 7180SOL    HW133173   0.858   4.461   2.520 -0.3344 -0.4588  1.5637
 7180SOL    HW233174   0.944   4.348   2.564 -2.5184  0.0406  0.9571
 7181SOL     OW33175   1.924   0.752   4.298  0.4419 -0.3579  0.1698
 7181SOL    HW133176   1.998   0.745   4.360 -1.6674 -2.1284  2.4611
 7181SOL    HW233177   1.853   0.749   4.362  0.0223 -2.2370 -0.4098
 7182SOL     OW33178   2.374   3.808   3.125 -0.3186  0.2286  0.2560
 7182SOL    HW133179   2.377   3.759   3.042 -0.9216 -0.3480  0.5783
 7182SOL    HW233180   2.314   3.877   3.099 -1.1687 -0.3160  0.7815
 7183SOL     OW33181   4.740   3.512   8.012  0.1189  0.3430  0.6722
 7183SOL    HW133182   4.724   3.591   7.961  0.4131  1.7709  2.7743
 7183SOL    HW233183   0.083   3.535   8.052  0.8694 -0.7668 -0.2900
 7184SOL     OW33184   1.452   0.337   9.042  0.8021  0.1062  0.1534
 7184SOL    HW133185   1.407   0.420   9.061  2.2732  0.9651 -0.1257
 7184SOL    HW233186   1.379   0.276   9.038  1.2284 -0.3231 -1.1951
 7185SOL     OW33187   2.651   1.418   0.300 -0.1579  0.0731 -0.1176
 7185SOL    HW133188   2.676   1.341   0.248 -0.9130  0.5195 -1.1264
 7185SOL    HW233189   2.560   1.410   0.328 -0.1544 -2.4275 -0.7879
 7186SOL     OW33190   4.634   0.212   0.139  0.0072 -0.4209  0.3936
 7186SOL    HW133191   4.699   0.232   0.206 -0.9009  1.1685  0.8009
 7186SOL    HW233192   4.672   0.259   0.064 -1.5874 -0.0740 -0.1887
 7187SOL     OW33193   4.313   1.178  12.634 -0.3334 -0.5639 -1.0387
 7187SOL    HW133194   4.279   1.196  12.721 -3.1240  0.6540 -2.3920
 7187SOL    HW233195   4.403   1.149  12.650 -0.8548 -2.6724 -1.9787
 7188SOL     OW33196   4.261   0.128   8.235 -0.2071  0.2190  0.1136
 7188SOL    HW133197   4.271   0.220   8.257 -0.5078  0.2859 -0.0322
 7188SOL    HW233198   4.187   0.107   8.291 -1.3960 -2.5103 -2.4450
 7189SOL     OW33199   4.581   1.111  11.710 -0.2845  0.0184 -0.4603
 7189SOL    HW133200   4.622   1.197  11.715 -1.8454  0.8636 -1.9104
 7189SOL    HW233201   4.583   1.081  11.619  1.1288 -0.6139 -0.2161
 7190SOL     OW33202   0.824   3.002  10.613 -0.4286 -0.5966  0.4032
 7190SOL    HW133203   0.885   2.932  10.637 -0.0323 -0.1577  0.6807
 7190SOL    HW233204   0.886   3.070  10.589  0.4516 -1.6120 -0.1824
 7191SOL     OW33205   0.885   0.599   2.622  0.2573  0.2262 -0.7041
 7191SOL    HW133206   0.963   0.557   2.659  0.4376  1.2835  0.1213
 7191SOL    HW233207   0.909   0.612   2.530 -0.3338 -2.1133 -1.1974
 7192SOL     OW33208   3.467   1.600  13.760 -0.1969 -0.0624  0.0809
 7192SOL    HW133209   3.445   1.578  13.669  0.1794 -1.2818  0.2841
 7192SOL    HW233210   3.544   1.543  13.765  1.4102  1.9223 -1.7742
 7193SOL     OW33211   1.003   4.237   2.104  0.2520 -0.0387  0.2715
 7193SOL    HW133212   0.931   4.175   2.113  1.2179 -1.4198 -1.3916
 7193SOL    HW233213   1.064   4.177   2.061  1.4208  1.7088 -0.5075
 7194SOL     OW33214   4.510   0.319   5.644  0.1730  0.3329  0.2827
 7194SOL    HW133215   4.459   0.310   5.725  1.6402 -3.2365  0.7881
 7194SOL    HW233216   4.524   0.227   5.623 -1.9374 -0.6299  3.0755
 7195SOL     OW33217   0.008   3.420   6.291 -0.2412  0.0983 -0.4902
 7195SOL    HW133218   0.062   3.465   6.356 -0.9167 -0.4262  0.4392
 7195SOL    HW233219   0.068   3.348   6.269  0.7813  0.8621 -0.2315
 7196SOL     OW33220   1.193   0.358   5.670  0.2559 -0.7725  0.2325
 7196SOL    HW133221   1.142   0.282   5.642  1.5192 -1.7504  0.5480
 7196SOL    HW233222   1.143   0.425   5.624  1.1081 -1.0802 -1.1332
 7197SOL     OW33223   2.870   0.809  12.227 -0.4072 -0.3014  0.2030
 7197SOL    HW133224   2.924   0.854  12.162 -0.8370  0.0996  0.1223
 7197SOL    HW233225   2.868   0.878  12.294  0.3991 -1.0469  0.9840
 7198SOL     OW33226   1.785   2.209   0.806  0.4688  0.0955  0.1443
 7198SOL    HW133227   1.804   2.295   0.768 -1.8805  0.2152 -0.7910
 7198SOL    HW233228   1.697   2.196   0.770  1.0784 -2.6035 -0.3003
 7199SOL     OW33229   3.671   3.466  14.417  0.3857  0.0521 -0.1610
 7199SOL    HW133230   3.580   3.439  14.409  0.7132 -1.6317  1.9307
 7199SOL    HW233231   3.676   3.547  14.366  1.7865 -0.8013 -1.3850
 7200SOL     OW33232   3.653   4.455   6.056 -0.3568 -0.1720 -0.0707
 7200SOL    HW133233   3.611   4.541   6.059  0.0572  0.0773 -1.7722
 7200SOL    HW233234   3.746   4.466   6.077 -0.5170  3.0954 -1.0706
 7201SOL     OW33235   1.530   2.250   1.784 -0.6577 -0.2164  0.4559
 7201SOL    HW133236   1.615   2.227   1.821 -0.5558 -0.0261  0.3429
 7201SOL    HW233237   1.519   2.183   1.717  1.3626  1.3606 -1.4703
 7202SOL     OW33238   0.232   1.561   8.114  0.4502 -0.3372 -0.9854
 7202SOL    HW133239   0.301   1.607   8.065  0.0192  3.2242  1.7629
 7202SOL    HW233240   0.186   1.519   8.042 -1.1336  1.2994 -0.9186
 7203SOL     OW33241   0.805   2.182   1.486 -0.8995 -0.6154  0.0234
 7203SOL    HW133242   0.758   2.262   1.512 -0.1966  0.0996 -0.9123
 7203SOL    HW233243   0.765   2.117   1.543  0.9541 -2.4693 -0.8273
 7204SOL     OW33244   2.709   1.670   5.760  0.6223  0.3292  0.5929
 7204SOL    HW133245   2.645   1.632   5.700 -0.5879 -0.6455  2.4981
 7204SOL    HW233246   2.790   1.676   5.709  0.5841 -1.2694  0.3378
 7205SOL     OW33247   0.472   0.702   2.357  0.1680 -0.1071 -0.3408
 7205SOL    HW133248   0.405   0.743   2.303  0.5381 -1.8025 -2.1094
 7205SOL    HW233249   0.553   0.710   2.307 -0.7872  2.1837 -1.4859
 7206SOL     OW33250   1.258   2.373   5.142  0.0657 -0.1120 -0.4756
 7206SOL    HW133251   1.172   2.374   5.100  1.6381 -0.4986 -3.7361
 7206SOL    HW233252   1.311   2.365   5.062  2.6796  0.9821  1.1623
 7207SOL     OW33253   2.724   2.372   2.518 -0.3505  0.3285 -0.1067
 7207SOL    HW133254   2.717   2.360   2.424  0.7485  2.7282 -0.4704
 7207SOL    HW233255   2.686   2.458   2.537  0.6541  0.5834  0.7785
 7208SOL     OW33256   2.708   1.382   5.975 -0.7428 -0.0025  0.9883
 7208SOL    HW133257   2.765   1.415   5.905 -1.1083 -0.3446  0.5282
 7208SOL    HW233258   2.763   1.415   6.046 -1.5385  2.7871  0.3025
 7209SOL     OW33259   2.733   1.584   2.195 -0.0170 -0.0978 -0.0293
 7209SOL    HW133260   2.698   1.613   2.111 -0.4054  1.7309  0.7684
 7209SOL    HW233261   2.714   1.491   2.202  0.4859 -0.1854  0.2084
 7210SOL     OW33262   4.714   1.537  10.755  0.0105 -0.9082  0.1887
 7210SOL    HW133263   4.696   1.626  10.723  5.0124  0.4196  1.1583
 7210SOL    HW233264   0.066   1.535  10.732 -0.2253  0.4097 -0.8568
 7211SOL     OW33265   1.775   3.655  12.345  0.1780 -0.5443  0.4521
 7211SOL    HW133266   1.698   3.662  12.288 -0.7203 -3.4724  1.3005
 7211SOL    HW233267   1.843   3.710  12.305 -1.5359  0.3324 -1.2984
 7212SOL     OW33268   0.900   2.245   5.430  0.0591  0.5548  0.1347
 7212SOL    HW133269   0.908   2.211   5.519 -0.0454  1.3543  0.4449
 7212SOL    HW233270   0.989   2.272   5.408  0.6475 -0.4210  1.3505
 7213SOL     OW33271   3.775   2.964   4.854 -0.7107 -0.1004  0.4285
 7213SOL    HW133272   3.736   2.967   4.766 -1.8442 -0.5600  0.9276
 7213SOL    HW233273   3.773   2.869   4.869 -0.9545 -0.1788 -0.0807
 7214SOL     OW33274   1.272   3.334   4.583  0.4621 -0.4244  0.9457
 7214SOL    HW133275   1.275   3.356   4.490 -2.7783  1.0559  1.1942
 7214SOL    HW233276   1.358   3.295   4.602  0.3011 -0.5258  1.4835
 7215SOL     OW33277   3.630   0.258  14.320  0.3978 -0.1370 -0.1040
 7215SOL    HW133278   3.565   0.232  14.255  0.7473 -0.9128 -0.1463
 7215SOL    HW233279   3.572   0.265  14.396  1.1215 -2.5898  0.6902
 7216SOL     OW33280   2.582   2.019   1.408 -0.6268 -0.0238 -0.2532
 7216SOL    HW133281   2.502   1.970   1.390 -1.0823  0.1880  1.2175
 7216SOL    HW233282   2.552   2.102   1.373 -0.2573 -0.5771 -1.8765
 7217SOL     OW33283   0.782   2.530   4.409 -0.0189  0.2483 -0.2024
 7217SOL    HW133284   0.688   2.534   4.389  0.3919  2.4040 -1.6482
 7217SOL    HW233285   0.785   2.496   4.498 -1.1179  2.0561  0.5215
 7218SOL     OW33286   0.328   3.973   6.665  0.0720  0.6820  0.2999
 7218SOL    HW133287   0.247   4.021   6.681 -0.7565  0.0956 -2.1870
 7218SOL    HW233288   0.302   3.883   6.684 -1.6916  0.9122 -1.0430
 7219SOL     OW33289   3.902   3.668   1.519  0.5977  0.2659 -0.2289
 7219SOL    HW133290   3.981   3.672   1.574 -1.3412  0.4893  2.5255
 7219SOL    HW233291   3.839   3.720   1.568  0.4367 -0.4452  0.3236
 7220SOL     OW33292   0.529   0.551   1.361  0.4188  0.3114  0.0376
 7220SOL    HW133293   0.502   0.637   1.394  0.5066  0.0897  0.6868
 7220SOL    HW233294   0.446   0.508   1.343  0.1593 -0.1410  2.2192
 7221SOL     OW33295   2.709   0.480   4.440  0.2889 -0.3911  0.1633
 7221SOL    HW133296   2.801   0.469   4.462 -0.3918 -0.2564  3.0606
 7221SOL    HW233297   2.701   0.399   4.389  0.5108 -0.2659 -0.0739
 7222SOL     OW33298   4.598   1.426   9.529  0.4156 -0.3035  0.3730
 7222SOL    HW133299   4.606   1.396   9.620  1.0443  1.3533  0.8541
 7222SOL    HW233300   4.690   1.444   9.512 -0.0460  0.2356 -1.5929
 7223SOL     OW33301   1.158   1.703   8.405 -0.4702  0.0499 -0.3670
 7223SOL    HW133302   1.185   1.736   8.491  1.3075 -0.9313 -0.5534
 7223SOL    HW233303   1.098   1.772   8.377  0.0157  0.7120  0.2086
 7224SOL     OW33304   2.547   0.079   4.395 -0.6897  0.3387  0.4497
 7224SOL    HW133305   2.492   0.029   4.335  0.5171  1.6681 -1.7609
 7224SOL    HW233306   2.513   0.063   4.483  2.7844  0.8151  1.8934
 7225SOL     OW33307   4.468   3.929   3.297  0.1375  0.2503 -0.4004
 7225SOL    HW133308   4.388   3.875   3.292  1.2564 -1.4008 -0.3595
 7225SOL    HW233309   4.526   3.860   3.265 -1.3415 -1.6009  0.9120
 7226SOL     OW33310   4.604   3.675   4.096  0.0833  0.2863 -0.2699
 7226SOL    HW133311   4.657   3.614   4.147  0.0862  0.1449 -0.4425
 7226SOL    HW233312   4.611   3.760   4.139  0.3075 -0.0461  0.3547
 7227SOL     OW33313   2.892   1.863   3.040  0.3269  0.4428 -0.5398
 7227SOL    HW133314   2.885   1.797   3.109 -0.8933  0.3546 -0.7551
 7227SOL    HW233315   2.931   1.933   3.092  0.4060  1.6695 -2.2331
 7228SOL     OW33316   1.089   0.338  17.169 -0.1731  0.1089  0.4747
 7228SOL    HW133317   0.994   0.344  17.154 -0.2996  0.7850  1.5645
 7228SOL    HW233318   1.087   0.328  17.264  0.5361 -1.9727  0.2509
 7229SOL     OW33319   0.054   1.701   2.557  0.3532  0.5322 -0.1785
 7229SOL    HW133320   0.090   1.636   2.617 -0.6018  1.0251  0.9193
 7229SOL    HW233321   0.053   1.778   2.614  0.0810  0.5522 -0.2129
 7230SOL     OW33322   1.392   2.774  11.051  0.3897  0.2251 -0.2064
 7230SOL    HW133323   1.329   2.770  11.123  0.3678  2.2514 -0.1061
 7230SOL    HW233324   1.431   2.862  11.048 -0.4755  0.6895  2.1697
 7231SOL     OW33325   4.321   2.803   3.646 -0.4006  0.3456  0.8145
 7231SOL    HW133326   4.364   2.771   3.567 -1.2249  1.5857 -0.1356
 7231SOL    HW233327   4.339   2.894   3.624 -1.8787 -0.0710 -2.1604
 7232SOL     OW33328   3.843   3.242   5.598  0.4464 -0.6780 -0.1813
 7232SOL    HW133329   3.890   3.211   5.675 -0.1641  0.1830  0.5356
 7232SOL    HW233330   3.892   3.185   5.539 -0.2354  0.9217 -2.2805
 7233SOL     OW33331   3.622   3.906   5.615  0.4317  0.6776 -0.3552
 7233SOL    HW133332   3.541   3.957   5.608  0.7550  1.0598 -1.2041
 7233SOL    HW233333   3.692   3.970   5.617  0.3711  0.7273  0.2029
 7234SOL     OW33334   0.934   4.576  11.403 -0.3183 -0.1981 -0.3170
 7234SOL    HW133335   1.008   4.586  11.343 -1.1995  2.4068 -0.9771
 7234SOL    HW233336   0.865   4.555  11.340 -1.1408  0.4215  0.3739
 7235SOL     OW33337   4.338   1.677   5.122 -0.0445  0.0052 -0.0354
 7235SOL    HW133338   4.381   1.629   5.193 -2.5700  0.4150  1.7735
 7235SOL    HW233339   4.268   1.622   5.087 -0.2441  1.6600 -2.2257
 7236SOL     OW33340   0.379   1.727   6.785  0.6645 -0.7189  0.1159
 7236SOL    HW133341   0.371   1.705   6.692  0.0423 -0.9009  0.2112
 7236SOL    HW233342   0.396   1.821   6.773  0.6182 -0.7532 -0.2084
 7237SOL     OW33343   4.124   3.365   4.586  0.0282 -0.2790 -0.2704
 7237SOL    HW133344   4.094   3.299   4.649  0.4246  1.8253  2.1307
 7237SOL    HW233345   4.069   3.437   4.617  1.4208  0.2601  0.9710
 7238SOL     OW33346   0.868   3.397  17.093 -0.1876  0.1049  0.1129
 7238SOL    HW133347   0.915   3.478  17.112  1.0228 -1.0334  2.0180
 7238SOL    HW233348   0.810   3.396  17.169 -0.3735  1.9373 -0.0078
 7239SOL     OW33349   1.691   4.279   9.439  0.9523  0.5607  0.3251
 7239SOL    HW133350   1.628   4.265   9.511  0.1136 -1.2362 -0.7575
 7239SOL    HW233351   1.671   4.367   9.409 -0.5222  0.5092  1.1534
 7240SOL     OW33352   0.583   2.389   7.303 -0.2783 -0.3865  0.0908
 7240SOL    HW133353   0.611   2.392   7.211  1.3943  1.1207  0.6429
 7240SOL    HW233354   0.494   2.424   7.300  0.5721  1.5564 -2.8053
 7241SOL     OW33355   0.795   0.993   4.171 -0.1415  0.0346 -0.8003
 7241SOL    HW133356   0.853   0.920   4.193  0.6409  1.2300  1.1305
 7241SOL    HW233357   0.725   0.974   4.232  1.0087  1.6051  1.0252
 7242SOL     OW33358   2.819   4.423   3.104  0.8850  0.3571  0.3540
 7242SOL    HW133359   2.912   4.443   3.118  1.1975 -0.7083 -0.1308
 7242SOL    HW233360   2.816   4.327   3.097  0.3315  0.5073 -1.4732
 7243SOL     OW33361   1.710   3.663   8.964  0.0773  1.5342 -0.4891
 7243SOL    HW133362   1.738   3.706   8.883  0.8880  2.2018  0.1413
 7243SOL    HW233363   1.768   3.709   9.025  1.2652 -0.7259  0.0863
 7244SOL     OW33364   2.658   3.735   6.228 -0.7152 -0.1455 -0.6942
 7244SOL    HW133365   2.676   3.815   6.180  0.5518 -0.4991 -0.8092
 7244SOL    HW233366   2.626   3.675   6.160  0.1879 -0.8572 -0.4834
 7245SOL     OW33367   2.958   0.990   1.469  0.3232  0.5000  0.3490
 7245SOL    HW133368   3.033   1.050   1.471  2.1013 -1.7135 -0.0535
 7245SOL    HW233369   2.894   1.057   1.446 -0.3560  0.2384  1.4866
 7246SOL     OW33370   0.621   3.670   3.664 -0.1658  0.0166 -0.0042
 7246SOL    HW133371   0.644   3.652   3.572 -2.9717 -1.1096 -0.5026
 7246SOL    HW233372   0.612   3.580   3.694 -0.9312  0.5742  1.4203
 7247SOL     OW33373   3.126   1.582  10.842  0.2829  0.3229 -0.5035
 7247SOL    HW133374   3.087   1.528  10.910 -1.9713  0.6850 -1.5232
 7247SOL    HW233375   3.066   1.654  10.824  0.4218  0.2025 -1.4766
 7248SOL     OW33376   4.658   1.514   1.777 -0.3788  0.5350  0.1510
 7248SOL    HW133377   4.692   1.486   1.862  1.3386  0.4639 -0.5553
 7248SOL    HW233378   4.567   1.501   1.804 -0.1200 -1.6249 -0.0245
 7249SOL     OW33379   1.610   1.430  17.628  0.0538  0.3829  0.0557
 7249SOL    HW133380   1.566   1.388  17.554 -0.7946  2.7031 -0.7358
 7249SOL    HW233381   1.619   1.353  17.685  1.6522  1.2261  0.9432
 7250SOL     OW33382   3.041   3.862   6.091 -0.4007 -0.5941 -0.4513
 7250SOL    HW133383   3.121   3.810   6.090 -0.8828 -1.3440  0.1135
 7250SOL    HW233384   2.964   3.804   6.092 -0.9687  0.1938  1.4940
 7251SOL     OW33385   1.672   4.175   8.895  0.0819  0.0229 -0.2467
 7251SOL    HW133386   1.677   4.246   8.830 -3.1570 -0.4508 -1.0072
 7251SOL    HW233387   1.710   4.102   8.846 -1.1391 -0.7579 -0.0213
 7252SOL     OW33388   3.691   1.366   6.385  0.3113 -0.3674 -0.5635
 7252SOL    HW133389   3.724   1.433   6.444 -2.7936  0.0337  0.7182
 7252SOL    HW233390   3.614   1.335   6.433  1.1292  2.0187  2.2328
 7253SOL     OW33391   3.200   0.293   2.188 -0.3931 -0.9464 -0.4487
 7253SOL    HW133392   3.148   0.344   2.125  0.9856 -0.0348 -0.8399
 7253SOL    HW233393   3.280   0.274   2.138  0.6773  2.4621 -0.0376
 7254SOL     OW33394   4.017   3.636  13.579 -0.6428  0.5703  0.1343
 7254SOL    HW133395   4.079   3.652  13.507 -0.1795  2.6616  1.0033
 7254SOL    HW233396   4.057   3.561  13.623 -2.4249  0.5805  1.7591
 7255SOL     OW33397   3.121   2.323  15.274 -0.1154  0.6240  0.3074
 7255SOL    HW133398   3.116   2.251  15.338 -1.5602  0.0014 -0.5096
 7255SOL    HW233399   3.087   2.395  15.327  2.1489  2.1794 -0.3899
 7256SOL     OW33400   4.662   0.396   2.159  0.1212 -0.4126  0.5379
 7256SOL    HW133401   4.706   0.346   2.227  0.7050  2.1078  2.0005
 7256SOL    HW233402   4.737   0.440   2.119 -0.0561 -0.2817  0.3454
 7257SOL     OW33403   0.843   4.503   8.041 -0.2811 -0.4371  0.3626
 7257SOL    HW133404   0.824   4.410   8.025  0.6033 -0.8090  1.5201
 7257SOL    HW233405   0.938   4.514   8.035 -0.2041 -0.8937  0.6945
 7258SOL     OW33406   4.222   3.265   8.795  0.2073  0.6493  0.0782
 7258SOL    HW133407   4.192   3.250   8.884  0.3117 -2.5874 -0.4318
 7258SOL    HW233408   4.252   3.356   8.801  2.0110  0.1244 -0.9252
 7259SOL     OW33409   3.374   3.556   6.574  0.0165  0.1486  0.0245
 7259SOL    HW133410   3.336   3.566   6.662 -1.3620  0.5695 -0.6081
 7259SOL    HW233411   3.324   3.607   6.510 -2.9665 -2.2378  0.3987
 7260SOL     OW33412   0.409   0.641   6.806  0.1584  0.2783 -0.3008
 7260SOL    HW133413   0.410   0.727   6.764 -0.4162 -0.1001 -1.0803
 7260SOL    HW233414   0.331   0.613   6.759  0.5541 -0.4741 -0.5136
 7261SOL     OW33415   0.226   1.061  15.808 -0.3866  0.4876 -0.2285
 7261SOL    HW133416   0.163   1.123  15.770 -0.4129  0.2605 -0.5553
 7261SOL    HW233417   0.173   0.982  15.802 -0.4038  0.7106 -2.7131
 7262SOL     OW33418   4.598   0.792   5.920  0.1200  0.4856  0.5751
 7262SOL    HW133419   4.645   0.866   5.882 -0.4244  0.5727  0.0616
 7262SOL    HW233420   4.653   0.774   5.996  0.9321  1.2166  0.1593
 7263SOL     OW33421   4.730   3.633   4.607  0.1144  0.3031 -0.1712
 7263SOL    HW133422   0.055   3.682   4.560  0.7456 -0.9986 -0.6379
 7263SOL    HW233423   4.654   3.691   4.612  1.8346  2.4764  0.1410
 7264SOL     OW33424   3.120   1.846   8.393 -0.2772 -0.2565 -0.0243
 7264SOL    HW133425   3.200   1.898   8.384 -0.5967  0.3264  0.5177
 7264SOL    HW233426   3.052   1.911   8.374  0.8409  0.8468 -0.2807
 7265SOL     OW33427   1.229   2.165   5.958 -0.7016 -0.3428  0.3007
 7265SOL    HW133428   1.270   2.251   5.946 -0.3860 -0.2235  2.2269
 7265SOL    HW233429   1.165   2.166   6.029  0.3203  1.3595  1.1908
 7266SOL     OW33430   0.701   2.684   7.561  0.1001  0.1704 -0.3052
 7266SOL    HW133431   0.792   2.655   7.570 -0.0025  0.0060  0.2144
 7266SOL    HW233432   0.653   2.634   7.628  0.4411  0.1682 -0.0643
 7267SOL     OW33433   1.487   2.495   8.076 -0.1829  0.5301  0.2029
 7267SOL    HW133434   1.555   2.494   8.009  0.9646  1.4834  1.3746
 7267SOL    HW233435   1.505   2.411   8.119  2.4266  1.1235  0.2469
 7268SOL     OW33436   4.733   1.562   5.431  0.2993 -0.4732  0.6209
 7268SOL    HW133437   0.059   1.559   5.500  0.2120  2.6834  0.8453
 7268SOL    HW233438   0.036   1.621   5.369 -0.1776 -0.5520  0.2108
 7269SOL     OW33439   4.657   4.167   9.227  0.3137 -0.1278 -1.1875
 7269SOL    HW133440   0.008   4.184   9.247 -0.0979 -2.9885  2.9405
 7269SOL    HW233441   4.616   4.214   9.300  1.7346 -1.7004  0.5820
 7270SOL     OW33442   2.232   1.982   0.850 -0.0284 -0.4502 -0.1172
 7270SOL    HW133443   2.146   2.016   0.823  0.4680  0.3379 -0.6720
 7270SOL    HW233444   2.251   2.040   0.924 -0.9288  0.5334 -0.6539
 7271SOL     OW33445   2.241   4.626   7.810 -0.1677  0.4436 -0.5290
 7271SOL    HW133446   2.169   4.655   7.866 -0.3097 -0.0215 -0.4650
 7271SOL    HW233447   2.273   4.551   7.861 -0.3357  1.6385  1.3429
 7272SOL     OW33448   2.482   3.241   6.341 -0.6608  0.0064 -0.5103
 7272SOL    HW133449   2.516   3.240   6.252 -0.4873 -0.9949 -0.4357
 7272SOL    HW233450   2.565   3.237   6.388 -1.4021 -1.8504  0.6497
 7273SOL     OW33451   4.547   2.599  16.514  0.3045  0.3583  0.0546
 7273SOL    HW133452   4.591   2.514  16.514 -3.2193 -1.4727  0.1492
 7273SOL    HW233453   4.550   2.629  16.423 -1.3073  0.4505  0.0360
 7274SOL     OW33454   1.766   3.108   7.248 -0.3771  0.0492 -0.9572
 7274SOL    HW133455   1.697   3.164   7.212 -1.9817 -3.3389 -3.1293
 7274SOL    HW233456   1.836   3.172   7.237 -0.0525 -0.2558 -0.6574
 7275SOL     OW33457   4.675   2.375   5.737  0.2518  0.1763 -0.6674
 7275SOL    HW133458   0.028   2.370   5.753  0.0270 -1.3414  0.1301
 7275SOL    HW233459   4.657   2.321   5.660 -1.8410  0.2316 -0.2163
 7276SOL     OW33460   0.027   0.508   2.974  0.0402  0.6934 -0.4610
 7276SOL    HW133461   0.028   0.520   3.069 -0.2630 -0.1859 -0.3495
 7276SOL    HW233462   0.072   0.589   2.950 -0.2563  0.5405 -1.5163
 7277SOL     OW33463   2.777   3.782   7.326 -0.6707 -0.1711 -0.4965
 7277SOL    HW133464   2.720   3.750   7.395  0.2372 -1.9752 -0.5735
 7277SOL    HW233465   2.732   3.858   7.291  1.7082  1.4698 -0.0201
 7278SOL     OW33466   0.520   0.754   7.268 -0.1919 -0.5070 -0.1773
 7278SOL    HW133467   0.489   0.667   7.289  1.6187 -0.9134  0.8552
 7278SOL    HW233468   0.572   0.747   7.188  0.5750 -0.0819  0.2790
 7279SOL     OW33469   3.275   1.295   4.970 -0.7578  0.1760 -0.6923
 7279SOL    HW133470   3.218   1.300   5.046 -0.4705 -0.7929 -0.4131
 7279SOL    HW233471   3.236   1.359   4.909 -0.5619  0.6366 -0.3344
 7280SOL     OW33472   4.279   2.461  13.084  0.0704  0.0813  0.2197
 7280SOL    HW133473   4.200   2.485  13.036 -1.7308 -2.3590  1.9261
 7280SOL    HW233474   4.241   2.414  13.159 -0.0765  0.0860  0.1477
 7281SOL     OW33475   0.615   0.834   5.498  0.3182 -0.4590  0.0351
 7281SOL    HW133476   0.709   0.840   5.485 -0.1706  1.7904 -2.6421
 7281SOL    HW233477   0.571   0.908   5.455 -0.3271 -0.4283  0.7446
 7282SOL     OW33478   1.766   0.578  15.243  0.1261 -0.1064  0.1001
 7282SOL    HW133479   1.743   0.520  15.316  1.5272 -0.9651 -0.1377
 7282SOL    HW233480   1.856   0.589  15.274 -0.0226  2.2678 -0.3151
 7283SOL     OW33481   0.159   2.768  11.385 -0.2407  0.2538  0.0425
 7283SOL    HW133482   0.152   2.766  11.289  2.9953 -1.3286 -0.1500
 7283SOL    HW233483   0.220   2.842  11.391 -1.4738  1.3989 -1.3978
 7284SOL     OW33484   4.309   3.736   8.043 -0.7065 -0.0159 -0.3252
 7284SOL    HW133485   4.248   3.675   8.084 -0.7653 -0.8941 -1.7422
 7284SOL    HW233486   4.345   3.671   7.983  0.0952  0.4179 -0.3221
 7285SOL     OW33487   3.347   1.940   8.927 -0.0476  0.0053  0.6075
 7285SOL    HW133488   3.313   1.853   8.952 -0.8719  0.2345  0.3020
 7285SOL    HW233489   3.439   1.916   8.921  0.2620  1.2264  0.5054
 7286SOL     OW33490   1.732   4.714   7.376  0.0572  0.1181 -0.4658
 7286SOL    HW133491   1.745   4.643   7.313  0.6225 -0.1918 -0.0029
 7286SOL    HW233492   1.819   0.004   7.404  0.4150  1.2782 -2.8029
 7287SOL     OW33493   1.786   3.525  16.457 -0.4572 -0.8661  0.1144
 7287SOL    HW133494   1.734   3.450  16.426 -2.5641  0.3532  0.6647
 7287SOL    HW233495   1.778   3.498  16.549  0.4200 -0.5669  0.2716
 7288SOL     OW33496   3.055   3.988   7.822  0.5751 -0.1953  0.3942
 7288SOL    HW133497   2.994   4.007   7.751 -0.5329 -0.1627  1.3361
 7288SOL    HW233498   3.090   3.900   7.809  0.2512 -0.2132 -0.2960
 7289SOL     OW33499   4.059   0.033   3.385 -0.0478  0.4292  0.3392
 7289SOL    HW133500   4.074   4.694   3.334  1.7924 -0.1348  1.7397
 7289SOL    HW233501   4.053   0.096   3.314  0.2509 -0.2759 -0.3181
 7290SOL     OW33502   1.013   3.351   3.241  0.7052  0.2978  0.5530
 7290SOL    HW133503   1.029   3.347   3.146 -1.1205  1.4696  0.2004
 7290SOL    HW233504   0.930   3.303   3.242  1.5537 -1.1937  0.4731
 7291SOL     OW33505   0.175   4.335   4.140 -0.0175  0.1922 -0.2013
 7291SOL    HW133506   0.172   4.340   4.236  1.8499 -0.2750 -0.1255
 7291SOL    HW233507   0.262   4.372   4.129 -0.3002  0.6666 -0.8476
 7292SOL     OW33508   0.161   4.704   6.367  0.4989 -0.5255  0.4043
 7292SOL    HW133509   0.230   0.026   6.388 -0.5347  1.3737 -1.8284
 7292SOL    HW233510   0.092   4.717   6.432  0.4892  0.2822  0.2263
 7293SOL     OW33511   1.600   1.835  10.005 -0.3174  0.0483  0.0180
 7293SOL    HW133512   1.587   1.909  10.065 -1.7547  1.1428 -1.6420
 7293SOL    HW233513   1.535   1.774  10.039  1.8568 -0.8974  2.4778
 7294SOL     OW33514   0.868   2.697   6.148 -0.0881 -1.1404  0.4910
 7294SOL    HW133515   0.781   2.714   6.110  0.2383 -2.6326 -0.9189
 7294SOL    HW233516   0.913   2.685   6.065  0.7421 -1.6931  1.0262
 7295SOL     OW33517   1.315   0.693  11.067 -0.2744  0.2014  0.9894
 7295SOL    HW133518   1.321   0.783  11.033 -4.8480 -0.1154 -0.5691
 7295SOL    HW233519   1.298   0.713  11.159 -0.4327  1.4846  0.6792
 7296SOL     OW33520   4.164   2.405   3.315  0.2497  0.0738  0.0920
 7296SOL    HW133521   4.131   2.414   3.404  1.4044  0.3999  0.4823
 7296SOL    HW233522   4.084   2.422   3.264 -0.8048 -0.0283  1.6848
 7297SOL     OW33523   0.980   1.327  14.817 -0.4115 -0.0733 -0.3709
 7297SOL    HW133524   0.993   1.343  14.910 -2.6996  0.8882 -0.2270
 7297SOL    HW233525   0.896   1.366  14.795  0.4026  0.1101 -3.1973
 7298SOL     OW33526   4.018   3.387   0.487  0.1015  0.2311 -0.0508
 7298SOL    HW133527   4.014   3.365   0.580  0.1087  2.4222  0.4704
 7298SOL    HW233528   4.023   3.482   0.492 -2.1731  0.2826  1.4267
 7299SOL     OW33529   3.104   4.206  12.068 -0.1104 -0.3238  0.0638
 7299SOL    HW133530   3.130   4.125  12.112  0.2947  0.5099  1.3620
 7299SOL    HW233531   3.186   4.240  12.034 -1.4854  0.6417 -2.2810
 7300SOL     OW33532   3.160   2.620   3.970 -0.8083 -0.1603 -0.4631
 7300SOL    HW133533   3.240   2.574   3.996 -1.2188  0.1076  1.2656
 7300SOL    HW233534   3.171   2.679   4.045  0.2323 -1.6463  0.5667
 7301SOL     OW33535   3.400   4.255   5.107  0.8304 -0.6666 -0.5981
 7301SOL    HW133536   3.406   4.241   5.012  0.3933 -0.3222 -0.6728
 7301SOL    HW233537   3.488   4.289   5.120  1.7624 -2.8031 -1.2606
 7302SOL     OW33538   1.514   1.765   3.021  0.5832 -0.5525 -0.5667
 7302SOL    HW133539   1.558   1.850   3.017  2.3722 -1.5155 -1.2766
 7302SOL    HW233540   1.426   1.786   2.990  0.2358 -0.7187  0.3065
 7303SOL     OW33541   4.598   1.042   3.182  0.1225 -0.2448 -0.1199
 7303SOL    HW133542   4.647   1.119   3.211 -1.1125 -0.2273  1.8924
 7303SOL    HW233543   4.648   1.005   3.109  2.3329 -0.7607  1.6916
 7304SOL     OW33544   2.109   2.155   2.246  0.6693 -0.4508 -0.0920
 7304SOL    HW133545   2.188   2.205   2.270 -0.2083  1.0550 -0.3190
 7304SOL    HW233546   2.148   2.111   2.171  0.3636 -0.4620 -0.2445
 7305SOL     OW33547   1.351   2.542   3.849 -0.3347 -0.0657  0.5258
 7305SOL    HW133548   1.434   2.542   3.896  1.3125  1.5044 -2.3954
 7305SOL    HW233549   1.321   2.633   3.861  2.2199  0.4592  2.8862
 7306SOL     OW33550   2.166   2.288  11.867 -0.5315 -0.0816 -0.1119
 7306SOL    HW133551   2.098   2.354  11.877  1.0198  1.1394  2.2405
 7306SOL    HW233552   2.194   2.293  11.958  2.0133 -0.0160 -0.9069
 7307SOL     OW33553   3.956   0.570   5.630 -0.0812  0.4980 -0.2788
 7307SOL    HW133554   4.027   0.516   5.596 -1.4910 -0.2236 -2.0293
 7307SOL    HW233555   3.888   0.503   5.638 -0.8421  1.5138  1.8060
 7308SOL     OW33556   2.938   2.242  13.861  0.0989 -0.7550  0.8494
 7308SOL    HW133557   2.998   2.258  13.934  1.7539 -1.2144 -0.4026
 7308SOL    HW233558   2.881   2.318  13.868 -0.8096 -1.3542 -0.0780
 7309SOL     OW33559   2.975   4.623  13.193  0.0868 -0.9619  0.7637
 7309SOL    HW133560   3.008   4.696  13.142  2.0143 -2.1381  0.3012
 7309SOL    HW233561   3.038   4.553  13.175 -0.0709 -0.8765 -0.0914
 7310SOL     OW33562   0.049   4.304   2.487 -0.1193 -0.4705 -0.0037
 7310SOL    HW133563   0.020   4.233   2.429  1.5572 -1.8503  0.8435
 7310SOL    HW233564   0.139   4.320   2.460 -0.7422 -0.3230 -1.9740
 7311SOL     OW33565   3.114   1.348  17.574 -0.6002  0.5145  0.0643
 7311SOL    HW133566   3.099   1.360  17.480  0.4543 -0.8470 -0.2713
 7311SOL    HW233567   3.048   1.410  17.605 -1.8986 -0.7958 -0.0998
 7312SOL     OW33568   1.467   3.564   5.442 -0.1768 -0.0756 -0.6228
 7312SOL    HW133569   1.505   3.644   5.405  0.4099  1.0261  2.3919
 7312SOL    HW233570   1.531   3.495   5.421 -0.5826 -1.2385  1.9726
 7313SOL     OW33571   0.107   2.784  15.234 -0.0346  0.1884 -0.1087
 7313SOL    HW133572   0.084   2.789  15.141 -0.0490  0.5269 -0.0867
 7313SOL    HW233573   0.188   2.834  15.239  0.1451 -0.2902  1.7097
 7314SOL     OW33574   0.039   2.051   5.849  0.5291 -0.1513  0.4015
 7314SOL    HW133575   0.046   1.956   5.863  0.9288 -0.3455 -1.0602
 7314SOL    HW233576   0.050   2.055   5.754  2.6594 -0.4781  0.6325
 7315SOL     OW33577   1.757   3.483  17.738 -0.0812  0.5761 -0.0158
 7315SOL    HW133578   1.845   3.506  17.707  0.0817 -0.6734 -0.4706
 7315SOL    HW233579   1.782   3.415   0.041  1.3193  0.7680 -0.3657
 7316SOL     OW33580   0.485   4.076   8.734  0.0530  0.5977 -0.6227
 7316SOL    HW133581   0.501   4.143   8.668 -2.7738 -1.2285 -3.1611
 7316SOL    HW233582   0.498   3.993   8.688  1.5557  1.9979 -2.6937
 7317SOL     OW33583   3.726   4.148  12.158  0.1672  0.5178  0.5246
 7317SOL    HW133584   3.800   4.122  12.213 -0.1354  0.4554  0.9054
 7317SOL    HW233585   3.730   4.242  12.174  1.1383  0.8082 -1.5075
 7318SOL     OW33586   2.659   1.934   5.189  0.9990 -0.0840 -0.0506
 7318SOL    HW133587   2.667   1.931   5.094  0.7184 -0.5000 -0.0589
 7318SOL    HW233588   2.699   2.018   5.213  0.7579  0.6231 -2.1016
 7319SOL     OW33589   0.005   0.482   3.644  0.5843 -1.2014 -0.6277
 7319SOL    HW133590   4.689   0.478   3.721 -0.0149 -1.1171 -1.0614
 7319SOL    HW233591   0.050   0.397   3.642  0.4844 -1.2990  1.3220
 7320SOL     OW33592   0.944   2.864   4.884 -1.0001  0.3804  0.0193
 7320SOL    HW133593   1.029   2.885   4.922 -0.2899  0.4338 -1.6145
 7320SOL    HW233594   0.895   2.939   4.919 -1.7987 -0.6024  0.9742
 7321SOL     OW33595   0.678   2.167   6.332 -0.1239 -0.9762 -0.1759
 7321SOL    HW133596   0.622   2.113   6.387 -0.8224  0.2873  0.3631
 7321SOL    HW233597   0.620   2.190   6.260  1.6473  0.6033 -1.1073
 7322SOL     OW33598   2.176   0.150  14.909 -0.1518  0.1041  0.2994
 7322SOL    HW133599   2.228   0.084  14.955 -2.0582 -0.6068  1.4414
 7322SOL    HW233600   2.126   0.195  14.977  1.2148  1.7249  0.2267
 7323SOL     OW33601   3.701   1.811   6.115 -0.4145  0.2116  0.4338
 7323SOL    HW133602   3.788   1.815   6.155 -0.4062  0.6289  0.3698
 7323SOL    HW233603   3.703   1.728   6.068 -0.7353  0.7741 -0.5642
 7324SOL     OW33604   1.381   3.235   8.609 -0.3427  0.0224  0.2968
 7324SOL    HW133605   1.378   3.251   8.515 -1.2639 -0.3812  0.2591
 7324SOL    HW233606   1.389   3.324   8.645 -0.4105  0.2277 -0.1987
 7325SOL     OW33607   1.426   0.021   8.932  0.5905 -0.5401  0.6463
 7325SOL    HW133608   1.393   0.038   8.844 -0.7106 -2.2100  0.8044
 7325SOL    HW233609   1.351   0.033   8.992 -0.1049  1.9913 -0.7364
 7326SOL     OW33610   4.720   0.590   8.937  0.0923 -0.1603  0.2868
 7326SOL    HW133611   4.672   0.642   8.873 -0.3025  0.8205  1.4049
 7326SOL    HW233612   4.689   0.629   9.018  2.7674  1.1352  0.6823
 7327SOL     OW33613   3.012   2.619   3.138  0.4517  0.0238 -0.4333
 7327SOL    HW133614   3.032   2.559   3.211 -1.6867 -0.4639 -0.2262
 7327SOL    HW233615   2.999   2.699   3.188  3.2436  0.7080 -0.7972
 7328SOL     OW33616   3.094   1.865   1.480  0.1177 -0.2743  0.1273
 7328SOL    HW133617   3.002   1.891   1.469  0.3608 -0.2752 -1.9994
 7328SOL    HW233618   3.141   1.906   1.407 -0.0978 -0.5885 -0.1909
 7329SOL     OW33619   1.606   1.904   8.913 -0.1219 -0.3642 -0.3828
 7329SOL    HW133620   1.660   1.934   8.986 -0.9357 -2.2184  0.9893
 7329SOL    HW233621   1.540   1.971   8.900 -0.8851 -1.5803 -2.6857
 7330SOL     OW33622   4.342   0.522   9.805 -0.0267  0.1517 -0.2135
 7330SOL    HW133623   4.250   0.537   9.785 -1.0317 -2.8373  2.1334
 7330SOL    HW233624   4.365   0.593   9.864  0.1731  0.9348 -1.2245
 7331SOL     OW33625   4.659   1.167   3.642  0.6070 -0.6131 -0.5028
 7331SOL    HW133626   4.704   1.086   3.667  0.2651 -1.0262 -1.1909
 7331SOL    HW233627   4.648   1.207   3.728  0.3289  0.9888 -1.2786
 7332SOL     OW33628   3.090   3.253   4.592  0.1363  0.2218  0.0587
 7332SOL    HW133629   3.172   3.205   4.587 -1.0905 -1.8165 -0.8761
 7332SOL    HW233630   3.113   3.331   4.641 -0.9513  0.0677  0.8213
 7333SOL     OW33631   0.484   0.421   2.565 -0.4656  0.2188 -0.3667
 7333SOL    HW133632   0.394   0.439   2.592 -0.8080 -1.7012 -0.2845
 7333SOL    HW233633   0.531   0.491   2.611 -0.2872  0.1187 -0.3961
 7334SOL     OW33634   0.241   2.003   1.684  0.9886  0.5102  0.0366
 7334SOL    HW133635   0.235   2.079   1.742 -1.4492 -0.1851  0.6652
 7334SOL    HW233636   0.329   1.974   1.708  0.7425  0.4273  0.8323
 7335SOL     OW33637   4.030   3.620   3.835  0.1777  0.6891 -0.2551
 7335SOL    HW133638   4.123   3.618   3.816  0.3373  3.0234  0.3078
 7335SOL    HW233639   4.029   3.527   3.858  1.3987  0.5183 -0.8952
 7336SOL     OW33640   4.483   1.434   7.180  0.2616  0.2887 -1.1581
 7336SOL    HW133641   4.554   1.458   7.239  0.6440 -1.5675 -0.8482
 7336SOL    HW233642   4.422   1.502   7.209  0.0258 -0.1310 -0.6640
 7337SOL     OW33643   1.831   3.650   6.908  0.3309 -0.2657 -0.2389
 7337SOL    HW133644   1.755   3.662   6.964  0.0490  0.4201 -0.7621
 7337SOL    HW233645   1.802   3.689   6.825 -0.5245  0.1584  0.2589
 7338SOL     OW33646   1.294   1.844   4.094  0.2319 -0.3561 -0.3659
 7338SOL    HW133647   1.279   1.856   4.001  0.5655  0.6010 -0.3019
 7338SOL    HW233648   1.288   1.934   4.125  1.1682  0.1469 -1.6466
 7339SOL     OW33649   0.927   0.337  15.905  0.6111 -0.1619 -0.8035
 7339SOL    HW133650   0.911   0.429  15.925 -1.1527 -0.2117 -2.0677
 7339SOL    HW233651   1.003   0.352  15.848  0.9180 -0.0559 -0.3668
 7340SOL     OW33652   4.591   4.558   3.573  0.2279  0.0851  0.1828
 7340SOL    HW133653   4.514   4.552   3.517  0.2610 -2.2427  0.3740
 7340SOL    HW233654   4.575   4.643   3.612 -0.3231  0.8325 -1.6541
 7341SOL     OW33655   3.054   1.803   7.674  0.3473  0.0801 -0.2690
 7341SOL    HW133656   2.987   1.758   7.726 -1.5918  1.0575 -1.9429
 7341SOL    HW233657   3.012   1.805   7.588 -0.8320 -1.2731  0.2669
 7342SOL     OW33658   1.479   3.311   6.625  0.0827  0.4853 -0.3940
 7342SOL    HW133659   1.520   3.339   6.707  1.2948  0.5078 -1.0236
 7342SOL    HW233660   1.557   3.276   6.583 -0.5197  0.1795 -1.2576
 7343SOL     OW33661   2.074   4.524  16.659  0.0178  1.1221  0.1259
 7343SOL    HW133662   2.077   4.542  16.753 -0.9831  2.7752 -0.1517
 7343SOL    HW233663   2.025   4.602  16.630  0.0902  1.2991  0.4769
 7344SOL     OW33664   0.489   1.736   0.077 -0.8509  0.4904  0.3257
 7344SOL    HW133665   0.442   1.674   0.132  2.7590  0.3009  3.1646
 7344SOL    HW233666   0.569   1.752   0.127  0.0744 -3.4405  0.1536
 7345SOL     OW33667   4.200   2.773   0.240  0.1582  0.2817 -0.3095
 7345SOL    HW133668   4.169   2.854   0.199 -0.6469 -0.5021 -1.2205
 7345SOL    HW233669   4.223   2.792   0.331  0.8684 -1.4491 -0.1352
 7346SOL     OW33670   1.102   4.660  14.329 -0.2210 -0.3966 -0.1711
 7346SOL    HW133671   1.089   4.593  14.261 -0.1019  0.1855 -0.7686
 7346SOL    HW233672   1.023   4.706  14.302  1.2299  0.7132 -2.5622
 7347SOL     OW33673   4.163   1.603   1.982 -0.0062  0.6298 -0.2410
 7347SOL    HW133674   4.115   1.597   1.900  2.7743 -1.2460 -1.7111
 7347SOL    HW233675   4.112   1.667   2.032  0.5831 -0.2700  1.5082
 7348SOL     OW33676   4.590   3.073   2.683 -0.1349 -0.6430 -0.0230
 7348SOL    HW133677   4.635   3.150   2.648 -0.4202 -1.0760 -1.3327
 7348SOL    HW233678   4.667   3.033   2.724  1.1824  0.5459 -1.3117
 7349SOL     OW33679   1.504   2.841   8.149  0.1562 -0.8979 -0.0457
 7349SOL    HW133680   1.514   2.935   8.161  0.5617 -1.0345  0.6330
 7349SOL    HW233681   1.455   2.837   8.067 -0.5480 -0.8165  0.3707
 7350SOL     OW33682   3.023   4.488  13.682 -0.1570  0.4149 -0.4631
 7350SOL    HW133683   3.053   4.450  13.765  2.0998  0.9011 -1.0635
 7350SOL    HW233684   3.041   4.421  13.617  0.5653  1.5347 -1.4164
 7351SOL     OW33685   2.039   4.029   4.331  0.0527 -0.0880 -0.8398
 7351SOL    HW133686   2.049   4.091   4.259 -0.8843 -0.1533 -1.0296
 7351SOL    HW233687   2.058   3.945   4.289 -1.5806 -0.7763 -0.2328
 7352SOL     OW33688   0.366   0.437   1.781  0.5224 -0.3521  0.6806
 7352SOL    HW133689   0.442   0.471   1.733 -0.4478 -0.3359 -0.8388
 7352SOL    HW233690   0.414   0.409   1.859  0.4856  2.3070  1.6511
 7353SOL     OW33691   1.524   2.157  16.953  0.0972  0.4565  0.5670
 7353SOL    HW133692   1.548   2.086  16.893 -1.1784  0.9250 -0.5140
 7353SOL    HW233693   1.585   2.155  17.027  0.0601 -3.2478  0.4963
 7354SOL     OW33694   1.921   1.833  11.003  0.4915  0.7455 -1.1984
 7354SOL    HW133695   1.933   1.895  11.074  1.9277 -0.8410 -0.0458
 7354SOL    HW233696   2.001   1.785  11.024  0.0098 -0.4778 -2.1517
 7355SOL     OW33697   3.644   1.204   5.960 -0.2620  0.3140  0.0425
 7355SOL    HW133698   3.609   1.274   6.015  1.5762  0.6858  0.7219
 7355SOL    HW233699   3.734   1.227   5.939  0.5419 -0.7887  2.3180
 7356SOL     OW33700   2.341   4.629   2.177 -0.0592  0.0839  0.0753
 7356SOL    HW133701   2.387   4.645   2.259 -0.3113  0.7364  0.0944
 7356SOL    HW233702   2.255   4.662   2.203 -0.4471 -0.0934 -1.0023
 7357SOL     OW33703   2.749   3.608   4.628  0.3114  0.2557 -0.2587
 7357SOL    HW133704   2.708   3.546   4.688  0.2202  2.3989  1.8903
 7357SOL    HW233705   2.765   3.681   4.688  4.1528 -1.1577  0.4998
 7358SOL     OW33706   4.491   4.326  16.376 -0.0155 -0.0125  0.1332
 7358SOL    HW133707   4.514   4.272  16.452 -0.5596  0.3362  0.5380
 7358SOL    HW233708   4.401   4.354  16.393 -0.0787 -0.1371  0.0061
 7359SOL     OW33709   0.848   2.621   3.422 -0.0629  0.2393  0.1466
 7359SOL    HW133710   0.890   2.618   3.336  0.5144 -0.0276  0.4404
 7359SOL    HW233711   0.921   2.594   3.478 -0.1089  1.4120  0.7840
 7360SOL     OW33712   4.511   4.173   5.140  0.4143 -0.4195  0.0081
 7360SOL    HW133713   4.449   4.194   5.210 -0.7257  0.6193 -1.3385
 7360SOL    HW233714   4.458   4.177   5.061  1.1119 -0.7317 -0.4813
 7361SOL     OW33715   3.719   2.055   2.094 -0.2552 -0.0649 -0.1859
 7361SOL    HW133716   3.709   1.960   2.102  1.0991 -0.3780 -2.2345
 7361SOL    HW233717   3.683   2.066   2.006  0.1423  1.1726 -0.1897
 7362SOL     OW33718   3.960   1.777  13.760 -0.4894 -0.1076 -0.8033
 7362SOL    HW133719   3.898   1.738  13.821  0.9948  0.1227  0.8765
 7362SOL    HW233720   4.025   1.708  13.748 -0.5446 -0.8398  3.1992
 7363SOL     OW33721   2.925   3.684   3.953 -0.3034 -0.4104  0.0141
 7363SOL    HW133722   2.889   3.608   3.999  1.9071 -1.5863 -0.1816
 7363SOL    HW233723   2.922   3.755   4.017  0.0827  1.1406 -1.6768
 7364SOL     OW33724   2.914   2.950  14.539  0.0553  0.0206  0.3469
 7364SOL    HW133725   3.007   2.971  14.528  0.1546  0.7644  2.4824
 7364SOL    HW233726   2.891   2.947  14.446  1.8679  1.9453 -0.1732
 7365SOL     OW33727   1.322   0.212   4.119  0.2712 -0.0829  0.3153
 7365SOL    HW133728   1.351   0.242   4.033 -1.8541  1.8246  0.2719
 7365SOL    HW233729   1.390   0.154   4.154  0.7492  0.7130  0.7301
 7366SOL     OW33730   0.760   3.790   1.811  0.0409 -0.0815 -0.2730
 7366SOL    HW133731   0.708   3.760   1.885 -0.7605 -0.5402 -1.0086
 7366SOL    HW233732   0.762   3.884   1.828 -0.2761 -0.2466  0.6501
 7367SOL     OW33733   2.386   3.298   4.118 -0.1593 -0.1632  0.1276
 7367SOL    HW133734   2.300   3.278   4.082 -0.3288  1.2319 -0.2575
 7367SOL    HW233735   2.434   3.331   4.042 -1.1348 -2.3392 -1.4216
 7368SOL     OW33736   3.842   4.553   1.959  0.3410 -0.0399  0.1740
 7368SOL    HW133737   3.750   4.579   1.964  0.9014  1.8670  0.8123
 7368SOL    HW233738   3.881   4.640   1.974 -1.4986  0.9969 -0.9964
 7369SOL     OW33739   4.525   1.063  15.755  0.1618  0.2788  0.6018
 7369SOL    HW133740   4.451   1.008  15.729  0.1188  0.9422 -0.6698
 7369SOL    HW233741   4.495   1.101  15.837 -0.8583 -0.5456  0.6226
 7370SOL     OW33742   1.787   4.233  10.404 -0.0881  0.3725  0.2596
 7370SOL    HW133743   1.749   4.177  10.336 -2.6484  1.2515  0.9673
 7370SOL    HW233744   1.784   4.311  10.349  1.8641  0.5935  0.4736
 7371SOL     OW33745   4.259   2.141   2.585 -0.0381 -0.2045  0.0033
 7371SOL    HW133746   4.347   2.148   2.550  0.1477 -0.9914  0.3260
 7371SOL    HW233747   4.211   2.089   2.521  0.6374 -1.6145  0.6351
 7372SOL     OW33748   2.300   0.565   0.108 -0.0522 -0.0733  0.2278
 7372SOL    HW133749   2.247   0.510   0.050  0.3918 -0.3162  0.0542
 7372SOL    HW233750   2.260   0.649   0.085  2.0985  0.7784 -0.3808
 7373SOL     OW33751   3.632   4.648   2.492 -0.4074  0.1530  0.1167
 7373SOL    HW133752   3.557   4.635   2.551 -0.6315 -2.5520 -0.7506
 7373SOL    HW233753   3.677   4.563   2.499 -0.3731  0.2118  0.6084
 7374SOL     OW33754   2.793   0.860   4.988 -0.2280  0.5537  0.2396
 7374SOL    HW133755   2.706   0.898   5.002 -0.8920 -0.6330 -0.6850
 7374SOL    HW233756   2.789   0.840   4.894  0.4743 -0.9933  0.5397
 7375SOL     OW33757   2.235   3.076   5.426 -0.1917 -0.1592 -0.3158
 7375SOL    HW133758   2.301   3.019   5.387  1.3652  1.4898 -0.0740
 7375SOL    HW233759   2.283   3.100   5.505  0.6857  0.5009 -1.0497
 7376SOL     OW33760   2.732   2.456  14.996 -0.5931  0.2267  0.4960
 7376SOL    HW133761   2.732   2.539  15.045  0.6776  0.1810  0.5709
 7376SOL    HW233762   2.654   2.469  14.943 -0.9724  0.1852  1.0436
 7377SOL     OW33763   2.598   3.744   2.286  0.5013 -0.7573  0.4121
 7377SOL    HW133764   2.642   3.802   2.223 -1.0025 -0.1692 -0.0911
 7377SOL    HW233765   2.639   3.658   2.274  1.3046 -0.4306  0.7972
 7378SOL     OW33766   2.668   2.154   2.663 -0.0739  0.2181 -0.3014
 7378SOL    HW133767   2.699   2.222   2.603  2.9515 -1.5189 -0.6903
 7378SOL    HW233768   2.742   2.094   2.655  0.4670  0.7778  0.5968
 7379SOL     OW33769   1.022   0.702   8.929  0.0122 -0.3206  0.1851
 7379SOL    HW133770   1.041   0.745   8.845  0.6747 -0.2537  0.3737
 7379SOL    HW233771   0.949   0.643   8.913  1.5300 -1.5756 -2.0833
 7380SOL     OW33772   0.755   1.869   5.742  0.6693 -0.2877  0.3179
 7380SOL    HW133773   0.671   1.824   5.753  0.8490 -0.6635  0.1295
 7380SOL    HW233774   0.825   1.805   5.748 -0.3225 -1.3410  0.6391
 7381SOL     OW33775   4.146   4.187   1.676  0.5792 -0.3211  0.0793
 7381SOL    HW133776   4.181   4.264   1.719 -0.4174 -0.1336  0.5662
 7381SOL    HW233777   4.226   4.150   1.638  0.4516 -0.2919 -0.2161
 7382SOL     OW33778   3.107   2.731   5.087 -0.6725  0.3189  0.1925
 7382SOL    HW133779   3.066   2.800   5.138  2.3622  0.1742  2.8115
 7382SOL    HW233780   3.062   2.743   5.003  2.2047  1.5270 -1.1781
 7383SOL     OW33781   1.325   3.097   9.567  0.0657  0.3375  0.0407
 7383SOL    HW133782   1.311   3.179   9.519  0.3870 -0.5210 -1.4941
 7383SOL    HW233783   1.390   3.053   9.513  0.9560  1.3703  0.2714
 7384SOL     OW33784   3.415   1.546   0.836  0.4055 -0.0598  0.3032
 7384SOL    HW133785   3.347   1.481   0.853  0.5147 -0.4255 -0.6292
 7384SOL    HW233786   3.471   1.538   0.913 -1.2098  0.0236  1.4910
 7385SOL     OW33787   0.697   4.231   4.956  0.2971 -0.0758  0.4943
 7385SOL    HW133788   0.695   4.137   4.974 -0.4081  0.2108  1.9154
 7385SOL    HW233789   0.660   4.255   5.041 -1.2434  1.6675 -0.6777
 7386SOL     OW33790   1.919   2.433   0.703 -0.5407 -0.0406 -0.1151
 7386SOL    HW133791   1.987   2.446   0.637 -0.9346 -1.0910 -0.7250
 7386SOL    HW233792   1.929   2.508   0.761 -1.3552 -0.5731  0.7061
 7387SOL     OW33793   0.743   2.575  15.983 -0.5834 -0.5520  0.0826
 7387SOL    HW133794   0.672   2.605  16.041  0.9927  0.2434  1.5849
 7387SOL    HW233795   0.819   2.591  16.037 -1.1089 -0.2119  0.7200
 7388SOL     OW33796   1.164   1.672   7.328  0.3641 -0.0630  0.6332
 7388SOL    HW133797   1.240   1.674   7.271 -0.0933  0.4448  0.0265
 7388SOL    HW233798   1.097   1.628   7.276  2.1202 -0.7445 -1.0189
 7389SOL     OW33799   2.132   2.924   2.433 -0.4301  0.3736 -0.4443
 7389SOL    HW133800   2.195   2.857   2.461 -1.6895 -0.8277 -0.4914
 7389SOL    HW233801   2.182   2.983   2.377 -1.0582  2.2886  1.0204
 7390SOL     OW33802   4.416   4.176   7.576  0.0951  0.2802  0.1171
 7390SOL    HW133803   4.459   4.253   7.539  3.6232 -0.8578  1.8517
 7390SOL    HW233804   4.326   4.204   7.559 -1.2585 -3.6296  0.9065
 7391SOL     OW33805   3.257   3.963  11.032 -0.0010 -0.0748 -0.1730
 7391SOL    HW133806   3.310   3.892  11.068  1.6894  1.9025  1.2483
 7391SOL    HW233807   3.206   3.994  11.107 -2.2292  0.5888 -1.9646
 7392SOL     OW33808   1.152   0.713  16.058  0.2239 -0.7968  0.2888
 7392SOL    HW133809   1.091   0.676  15.995 -0.5694  1.4767 -0.2713
 7392SOL    HW233810   1.109   0.794  16.085 -1.6213 -1.3385 -1.0777
 7393SOL     OW33811   1.791   1.233   4.811  0.6201  0.2106  0.0830
 7393SOL    HW133812   1.730   1.290   4.858  0.3583 -0.8443  1.0207
 7393SOL    HW233813   1.840   1.307   4.776 -0.9071  1.2219  0.0948
 7394SOL     OW33814   0.475   0.992  14.696  0.1849  0.1341  0.0662
 7394SOL    HW133815   0.453   0.921  14.756  0.5628  0.0041  0.0513
 7394SOL    HW233816   0.396   1.045  14.703  0.2576  0.0924  1.1159
 7395SOL     OW33817   0.068   0.725   2.376  0.3299  0.2294 -0.0386
 7395SOL    HW133818   0.003   0.771   2.429 -0.6110 -0.0522 -0.9588
 7395SOL    HW233819   0.047   0.759   2.289 -1.3163  0.5052  0.4778
 7396SOL     OW33820   3.155   0.469  14.051 -0.1970  0.0022  0.3501
 7396SOL    HW133821   3.181   0.520  13.974  2.5995  1.5598  2.3363
 7396SOL    HW233822   3.240   0.455  14.092 -1.1976  1.8370  3.0347
 7397SOL     OW33823   2.262   4.107  13.568  0.0178  0.1997 -0.8022
 7397SOL    HW133824   2.349   4.126  13.602 -0.1097  0.2229 -0.4931
 7397SOL    HW233825   2.268   4.126  13.474 -2.0954 -2.3337 -1.4660
 7398SOL     OW33826   4.299   0.129   2.138  0.0169  0.0347  0.4363
 7398SOL    HW133827   4.344   0.062   2.087 -0.8442 -0.5280  0.4112
 7398SOL    HW233828   4.280   0.072   2.212 -3.2550  1.4543  0.7345
 7399SOL     OW33829   2.628   2.629   5.855 -0.0628 -0.0775 -0.0445
 7399SOL    HW133830   2.663   2.542   5.871  1.4453  0.6211  0.4789
 7399SOL    HW233831   2.555   2.638   5.916 -0.3572  0.1258 -0.4256
 7400SOL     OW33832   4.258   3.178   5.443  0.0539 -0.0339  0.1715
 7400SOL    HW133833   4.174   3.169   5.400  0.0514  1.1056 -0.0635
 7400SOL    HW233834   4.277   3.098   5.492  2.2743 -0.2483 -1.0224
 7401SOL     OW33835   0.427   3.595   4.441  0.1554 -0.4654 -0.4688
 7401SOL    HW133836   0.461   3.627   4.357 -0.9008  0.9921 -0.3331
 7401SOL    HW233837   0.419   3.503   4.416  0.9822 -0.4830 -0.6802
 7402SOL     OW33838   3.434   3.631   7.421  1.0625 -0.1226 -0.0584
 7402SOL    HW133839   3.496   3.574   7.465 -0.6964 -3.3769 -1.8227
 7402SOL    HW233840   3.453   3.708   7.475  1.6094 -1.4178  1.5858
 7403SOL     OW33841   4.385   1.667   0.925  0.1255  0.2499  0.0259
 7403SOL    HW133842   4.400   1.663   0.830  0.4441 -1.7401  0.1720
 7403SOL    HW233843   4.299   1.708   0.929 -0.3097 -0.3875 -2.6870
 7404SOL     OW33844   3.896   2.460   2.544 -0.2472  0.1431 -0.2642
 7404SOL    HW133845   3.851   2.500   2.618  0.0832  0.5580 -0.2874
 7404SOL    HW233846   3.975   2.430   2.589 -0.9251  1.5169  1.8137
 7405SOL     OW33847   0.474   2.623  15.090 -0.1750  0.4382 -0.4123
 7405SOL    HW133848   0.505   2.556  15.150  2.0325  1.0052 -0.9148
 7405SOL    HW233849   0.554   2.673  15.068 -0.2074  1.4612  1.8456
 7406SOL     OW33850   3.260   1.471   3.367  0.0354  0.1591 -0.2108
 7406SOL    HW133851   3.280   1.380   3.349 -1.8780 -0.4437  0.6612
 7406SOL    HW233852   3.311   1.518   3.301  0.9166 -0.5176 -0.0012
 7407SOL     OW33853   1.068   0.273   4.116 -0.0343  0.0820  0.0547
 7407SOL    HW133854   1.051   0.268   4.210  1.7281  0.4355  0.3913
 7407SOL    HW233855   1.164   0.266   4.117  0.0105  1.2773  2.5227
 7408SOL     OW33856   4.154   1.255   4.270 -0.3764  0.5911 -0.3953
 7408SOL    HW133857   4.168   1.181   4.329 -2.5750 -1.2438 -2.1938
 7408SOL    HW233858   4.065   1.240   4.239 -0.2271 -2.2078  0.5553
 7409SOL     OW33859   2.915   0.066   3.660  0.1166  0.1689  0.3478
 7409SOL    HW133860   2.993   0.015   3.641 -0.4899 -0.6882  0.1698
 7409SOL    HW233861   2.951   0.132   3.719  1.8190  0.9330 -1.5442
 7410SOL     OW33862   4.194   2.013   1.742  0.0057 -0.4648 -0.2771
 7410SOL    HW133863   4.269   1.954   1.755  2.9613  3.4786  0.5606
 7410SOL    HW233864   4.145   1.990   1.822  0.5061  1.3176  0.5357
 7411SOL     OW33865   4.098   3.130  16.938 -0.5632  0.4725 -0.3050
 7411SOL    HW133866   4.025   3.068  16.938  2.1893 -2.7588 -0.6620
 7411SOL    HW233867   4.056   3.214  16.917 -0.9059  0.0402 -1.3231
 7412SOL     OW33868   3.953   2.992   8.155 -0.2217  0.5190  0.3030
 7412SOL    HW133869   3.986   2.904   8.137  0.3635  0.7927  0.0623
 7412SOL    HW233870   3.978   2.989   8.248 -0.4538 -2.1656  0.2649
 7413SOL     OW33871   4.056   2.159   9.166 -0.0220 -0.0258 -0.3772
 7413SOL    HW133872   4.065   2.229   9.102 -1.6323  0.0803 -0.4696
 7413SOL    HW233873   4.068   2.216   9.241 -0.5702  0.0583 -0.3560
 7414SOL     OW33874   3.808   4.400  16.388  0.4399  0.0517 -0.1190
 7414SOL    HW133875   3.891   4.384  16.344  0.2511 -0.8553 -0.1548
 7414SOL    HW233876   3.829   4.413  16.481 -2.2741 -1.9168  0.7778
 7415SOL     OW33877   3.234   3.403   3.223 -0.3856 -0.3208  0.2233
 7415SOL    HW133878   3.198   3.341   3.286 -0.8968 -0.6588 -0.3999
 7415SOL    HW233879   3.255   3.347   3.148 -0.9811  0.7517 -0.7456
 7416SOL     OW33880   0.287   0.302   5.534 -0.2096  0.5309 -0.2738
 7416SOL    HW133881   0.227   0.230   5.554  0.4335  0.1579  0.3291
 7416SOL    HW233882   0.278   0.354   5.614 -0.0390 -1.0644  0.7861
 7417SOL     OW33883   1.204   0.770   2.998 -0.1583  0.0539  0.2049
 7417SOL    HW133884   1.271   0.714   3.038 -0.2825  0.1378  0.5343
 7417SOL    HW233885   1.258   0.841   2.963 -0.1167 -0.3703 -0.5664
 7418SOL     OW33886   0.660   3.015   2.224  0.7702  0.0856  0.8558
 7418SOL    HW133887   0.658   2.931   2.178 -0.3952  0.6730 -0.1668
 7418SOL    HW233888   0.689   3.077   2.158  1.8402  0.0802  1.3101
 7419SOL     OW33889   1.800   2.268   5.373 -0.0385  0.2242 -0.3383
 7419SOL    HW133890   1.741   2.255   5.448 -1.2412  1.2274 -1.0962
 7419SOL    HW233891   1.857   2.192   5.381 -0.1332  0.3554  1.5884
 7420SOL     OW33892   1.803   3.631   9.622 -0.2834  0.0662  0.1654
 7420SOL    HW133893   1.837   3.632   9.532  2.9517 -0.0977  1.3762
 7420SOL    HW233894   1.846   3.706   9.662  1.7707  0.1249 -2.1111
 7421SOL     OW33895   2.464   3.806   1.690 -1.0158 -0.2959  0.4444
 7421SOL    HW133896   2.441   3.776   1.778 -2.7027 -1.2529 -0.3398
 7421SOL    HW233897   2.473   3.899   1.714  1.1780 -0.3791 -0.0490
 7422SOL     OW33898   4.626   2.431   8.329  0.0633 -0.3354 -0.6811
 7422SOL    HW133899   4.623   2.443   8.424 -1.7066 -0.3814 -0.7349
 7422SOL    HW233900   4.628   2.336   8.329  1.0607 -0.3092 -0.3849
 7423SOL     OW33901   0.995   0.451   9.329  0.4289 -0.0526  0.4295
 7423SOL    HW133902   1.078   0.498   9.322  0.4315 -0.2529 -0.9140
 7423SOL    HW233903   1.031   0.375   9.375  1.3471  0.3449  0.3656
 7424SOL     OW33904   3.034   2.786   4.487  0.0411 -0.4399 -0.6749
 7424SOL    HW133905   2.961   2.827   4.441  0.5930  0.7144 -0.5236
 7424SOL    HW233906   3.103   2.783   4.421  1.1064 -2.0676  0.5142
 7425SOL     OW33907   2.856   1.386   8.629 -0.2142  0.1320 -0.0996
 7425SOL    HW133908   2.835   1.476   8.606 -0.7713 -0.0080 -0.1339
 7425SOL    HW233909   2.865   1.356   8.538 -0.8462  1.4297 -0.5879
 7426SOL     OW33910   0.600   2.543   8.038  0.5334  0.4029 -0.5524
 7426SOL    HW133911   0.669   2.560   7.974  2.3178 -2.4860  0.6068
 7426SOL    HW233912   0.647   2.480   8.092  2.0312  1.3813 -0.6986
 7427SOL     OW33913   2.886   4.304  13.069  0.1299  0.4187 -0.2480
 7427SOL    HW133914   2.972   4.337  13.096 -0.0339  0.0963  0.6402
 7427SOL    HW233915   2.899   4.299  12.974  0.5047 -0.6412 -0.1335
 7428SOL     OW33916   0.592   1.746   9.093  0.0564 -0.4873  0.2928
 7428SOL    HW133917   0.508   1.790   9.108 -0.5361 -2.2342  2.1217
 7428SOL    HW233918   0.624   1.717   9.179 -0.6220 -1.4146  0.2337
 7429SOL     OW33919   1.064   2.743   7.937  0.0061  0.8187  0.6600
 7429SOL    HW133920   1.121   2.778   7.868  1.1627 -0.4782  0.9575
 7429SOL    HW233921   1.115   2.714   8.013 -0.4360  1.1924  1.1015
 7430SOL     OW33922   4.471   3.332   5.034  0.0976 -0.3477  0.5699
 7430SOL    HW133923   4.528   3.343   5.110  1.0599 -1.7118  0.0394
 7430SOL    HW233924   4.392   3.294   5.074 -1.4183  0.7432 -1.3974
 7431SOL     OW33925   4.078   1.749   8.147  0.0645  0.1258  0.6988
 7431SOL    HW133926   4.066   1.654   8.137 -2.0349  0.4474  0.2290
 7431SOL    HW233927   4.138   1.780   8.079  0.0167 -0.1355  0.5348
 7432SOL     OW33928   3.303   1.158   9.432  0.4643  0.0861  0.1373
 7432SOL    HW133929   3.343   1.241   9.406 -1.3739  0.1809 -2.3800
 7432SOL    HW233930   3.247   1.188   9.503  0.3770  1.2568 -0.4286
 7433SOL     OW33931   0.911   2.591   4.063  0.2042 -0.4809 -0.3640
 7433SOL    HW133932   0.889   2.617   3.974  2.1330  0.4606 -0.5769
 7433SOL    HW233933   0.868   2.660   4.114 -0.7841 -1.3549 -0.0238
 7434SOL     OW33934   2.476   4.400   6.916 -0.3524  0.2263 -0.0341
 7434SOL    HW133935   2.417   4.461   6.871  0.4084  0.2473 -1.0056
 7434SOL    HW233936   2.502   4.339   6.846  1.5354 -0.1376  1.0047
 7435SOL     OW33937   1.680   3.628   5.926  0.3320 -0.8199 -0.2218
 7435SOL    HW133938   1.705   3.598   6.013  1.1196  1.6691  0.3983
 7435SOL    HW233939   1.755   3.682   5.904 -0.6517  0.4697 -0.4281
 7436SOL     OW33940   3.881   1.429  10.617 -0.1145 -0.2923 -0.1168
 7436SOL    HW133941   3.969   1.466  10.631 -0.5526  1.3767 -1.7975
 7436SOL    HW233942   3.838   1.485  10.552 -0.1919 -0.6037 -0.3334
 7437SOL     OW33943   1.096   0.783   7.531  0.7377  0.0313  0.1169
 7437SOL    HW133944   1.155   0.851   7.564 -1.7596  2.7896 -1.0195
 7437SOL    HW233945   1.157   0.735   7.475  0.3562  1.3111 -1.4062
 7438SOL     OW33946   0.849   1.076  13.363 -0.2311 -0.5623 -0.5166
 7438SOL    HW133947   0.893   1.024  13.295  1.5377 -1.0258  0.9946
 7438SOL    HW233948   0.907   1.152  13.367 -2.2252  0.9525 -0.7294
 7439SOL     OW33949   4.483   0.582   7.689  0.1345  0.0201  0.4146
 7439SOL    HW133950   4.517   0.658   7.735  0.4884 -0.4214  0.8836
 7439SOL    HW233951   4.445   0.536   7.764 -0.5622 -0.6479 -0.3454
 7440SOL     OW33952   3.122   3.409  16.516 -0.3348  0.0286  0.0456
 7440SOL    HW133953   3.158   3.498  16.523 -0.0451  0.0121 -1.3037
 7440SOL    HW233954   3.029   3.430  16.506 -0.1221  1.2250  0.5732
 7441SOL     OW33955   0.239   0.867   4.188  0.0425  0.3801  0.0222
 7441SOL    HW133956   0.238   0.878   4.283  3.2060 -1.3786  0.2431
 7441SOL    HW233957   0.212   0.775   4.190 -4.0900  1.6169  1.0764
 7442SOL     OW33958   1.557   0.056   3.077 -0.1221  0.0975  0.0858
 7442SOL    HW133959   1.640   0.059   3.125 -0.8632  0.0412  1.3600
 7442SOL    HW233960   1.526   4.706   3.080 -0.3644  0.2054  0.7713
 7443SOL     OW33961   0.083   2.386   2.885 -0.3630 -0.8602  0.0176
 7443SOL    HW133962   0.120   2.475   2.879 -0.3517 -0.9413 -1.0150
 7443SOL    HW233963   0.006   2.408   2.937 -0.8684 -2.8153  0.0938
 7444SOL     OW33964   0.844   2.605   2.381 -0.3171  0.2351  0.4068
 7444SOL    HW133965   0.885   2.577   2.463 -0.3450  0.5160  0.5166
 7444SOL    HW233966   0.751   2.609   2.402 -0.0255 -2.0794  2.1256
 7445SOL     OW33967   0.658   3.376   7.687  0.1146  0.3255  0.1560
 7445SOL    HW133968   0.689   3.385   7.597 -1.7306  1.4653 -0.3463
 7445SOL    HW233969   0.683   3.459   7.728 -0.6617  0.5939  0.0788
 7446SOL     OW33970   0.935   3.553   5.242  0.3863  0.5611  0.3673
 7446SOL    HW133971   0.902   3.467   5.216  0.3844  0.7165 -0.1500
 7446SOL    HW233972   0.950   3.528   5.333 -1.8758  0.8198  0.8220
 7447SOL     OW33973   2.623   3.781   3.490  0.6463 -0.6749  0.1124
 7447SOL    HW133974   2.551   3.821   3.441  0.0828 -0.9843  0.6732
 7447SOL    HW233975   2.576   3.705   3.525 -0.0382  1.0385  2.9252
 7448SOL     OW33976   0.177   4.145   5.293  0.4911  0.0461 -0.1157
 7448SOL    HW133977   0.134   4.230   5.280  0.1828  0.0993  1.1574
 7448SOL    HW233978   0.269   4.166   5.307  0.3723 -1.8384  3.4149
 7449SOL     OW33979   2.138   4.737  10.840  0.1284  0.0111 -0.2100
 7449SOL    HW133980   2.100   0.018  10.925 -0.3252  0.6255 -0.5630
 7449SOL    HW233981   2.069   4.681  10.803 -0.9572  1.5190 -0.4966
 7450SOL     OW33982   2.036   2.805   3.979 -0.6791  0.1508  0.6050
 7450SOL    HW133983   2.029   2.720   4.023 -3.9907  0.3217  0.4348
 7450SOL    HW233984   1.970   2.854   4.030 -2.2694 -2.2335  0.8506
 7451SOL     OW33985   2.249   0.183   5.962 -0.4032 -0.3947 -0.2916
 7451SOL    HW133986   2.289   0.178   6.049 -2.0988 -2.5616  0.3630
 7451SOL    HW233987   2.259   0.277   5.945  1.4866 -0.2816  1.5391
 7452SOL     OW33988   1.070   1.694   6.378  0.3417 -0.2665  0.0818
 7452SOL    HW133989   1.137   1.735   6.324  2.3417  0.4922  3.1423
 7452SOL    HW233990   1.037   1.624   6.322 -2.4449  0.9723  0.1596
 7453SOL     OW33991   3.548   4.288  16.352 -0.1531  0.5287 -0.7427
 7453SOL    HW133992   3.555   4.258  16.261  3.2072 -1.5079  0.1908
 7453SOL    HW233993   3.636   4.321  16.371 -1.1656  2.6388  0.3577
 7454SOL     OW33994   3.255   2.268   2.525  0.1440  0.3909 -0.1138
 7454SOL    HW133995   3.295   2.319   2.455  0.0399  1.6746  0.7509
 7454SOL    HW233996   3.161   2.264   2.507 -0.1284 -0.4245  1.5575
 7455SOL     OW33997   3.713   2.974   3.199 -0.0920 -0.7993  0.4031
 7455SOL    HW133998   3.777   2.977   3.270  0.7597 -1.1581 -0.3597
 7455SOL    HW233999   3.771   2.974   3.123  2.0338  1.1508  2.0299
 7456SOL     OW34000   1.320   4.369   6.371 -0.2453 -0.1855 -0.1080
 7456SOL    HW134001   1.351   4.280   6.354  1.3638  0.4494 -0.5407
 7456SOL    HW234002   1.378   4.382   6.447 -0.8973 -0.0178  0.3550
 7457SOL     OW34003   0.830   2.101   1.008  0.0434  0.4700 -0.1147
 7457SOL    HW134004   0.764   2.150   1.058  0.6549 -0.2350  1.3903
 7457SOL    HW234005   0.863   2.162   0.943 -1.5732  1.9705  0.4872
 7458SOL     OW34006   3.919   3.474   4.903 -0.2432  0.0230  0.4145
 7458SOL    HW134007   3.945   3.443   4.990 -0.9245  0.3754  0.7425
 7458SOL    HW234008   3.961   3.407   4.850 -0.9543  0.8588 -1.2057
 7459SOL     OW34009   4.338   2.637   5.357 -0.1350 -0.0743 -0.0910
 7459SOL    HW134010   4.418   2.669   5.398 -0.0056 -0.0920 -0.3283
 7459SOL    HW234011   4.355   2.664   5.267  2.7044 -2.5930 -0.3047
 7460SOL     OW34012   2.273   1.540   2.321 -0.5612 -0.8121 -0.3063
 7460SOL    HW134013   2.178   1.530   2.331 -0.5218  0.2453  1.1019
 7460SOL    HW234014   2.309   1.581   2.400 -2.1815  0.4453 -0.2064
 7461SOL     OW34015   1.872   3.736   8.761 -0.7751 -0.0703 -0.4524
 7461SOL    HW134016   1.952   3.702   8.801 -1.9209 -3.1776 -0.8543
 7461SOL    HW234017   1.859   3.668   8.696 -2.3768 -1.4339  1.2975
 7462SOL     OW34018   0.197   3.135   6.006  0.2602 -0.1864 -0.4491
 7462SOL    HW134019   0.117   3.110   5.959 -0.0446  0.0911 -0.0750
 7462SOL    HW234020   0.235   3.048   5.994 -0.2414 -0.3761 -0.6574
 7463SOL     OW34021   1.031   2.115   2.628  0.1352 -0.2241 -0.0722
 7463SOL    HW134022   1.034   2.038   2.686 -0.7506  0.4194  0.8234
 7463SOL    HW234023   1.006   2.081   2.542 -1.5448 -0.4322  0.4756
 7464SOL     OW34024   4.219   0.228   8.660  0.2427  0.1869 -0.4446
 7464SOL    HW134025   4.267   0.280   8.595  1.1348  1.5175  1.2732
 7464SOL    HW234026   4.291   0.204   8.719 -0.0880  1.6988  0.5780
 7465SOL     OW34027   1.750   0.432   9.551  0.2692 -0.5855  0.2086
 7465SOL    HW134028   1.801   0.405   9.627 -0.2218  1.9320  1.4059
 7465SOL    HW234029   1.674   0.383   9.581  0.3514 -1.1163 -0.4363
 7466SOL     OW34030   3.224   1.769   5.481 -0.4785 -0.2124  0.1478
 7466SOL    HW134031   3.184   1.758   5.568  1.4633 -0.5651  0.9823
 7466SOL    HW234032   3.269   1.853   5.482  2.1636 -1.6641  1.3426
 7467SOL     OW34033   4.343   3.061   3.594  0.4758  0.0582 -0.2117
 7467SOL    HW134034   4.403   3.092   3.526  0.4090  0.9659  0.1434
 7467SOL    HW234035   4.280   3.131   3.607 -1.5959 -1.4116 -2.2162
 7468SOL     OW34036   3.965   2.287   5.225  0.4231 -0.1096  0.4063
 7468SOL    HW134037   3.897   2.245   5.172  0.8949 -2.3282  1.5311
 7468SOL    HW234038   4.018   2.321   5.154 -0.1998 -0.5063 -0.2552
 7469SOL     OW34039   1.610   0.086   4.446 -0.2839  0.2700  0.6762
 7469SOL    HW134040   1.609   0.134   4.529  0.1505  0.5074  0.5469
 7469SOL    HW234041   1.533   0.031   4.461  1.3093 -2.0657  0.4496
 7470SOL     OW34042   3.830   1.182  15.344  0.1904  0.2386 -0.6191
 7470SOL    HW134043   3.882   1.259  15.366  0.0004  0.6970 -1.7686
 7470SOL    HW234044   3.742   1.218  15.355  0.1514 -0.0270 -0.0351
 7471SOL     OW34045   3.286   3.212   8.448 -0.1240  0.3829 -0.0107
 7471SOL    HW134046   3.305   3.274   8.518  0.1708  0.4491 -0.1500
 7471SOL    HW234047   3.257   3.266   8.374 -0.8383 -0.0482 -0.0407
 7472SOL     OW34048   1.564   4.238  13.689 -0.6104 -0.2425 -0.0816
 7472SOL    HW134049   1.491   4.187  13.655  0.3078 -1.9472  0.5282
 7472SOL    HW234050   1.521   4.278  13.765  0.6583  1.9487 -0.4985
 7473SOL     OW34051   1.542   0.303   3.413  0.6143 -0.3912 -0.0651
 7473SOL    HW134052   1.608   0.296   3.482 -0.0072 -1.3922  0.4142
 7473SOL    HW234053   1.603   0.323   3.342 -0.0028  3.4702  0.5074
 7474SOL     OW34054   0.819   2.189   6.650  0.0983  0.2268 -0.3056
 7474SOL    HW134055   0.791   2.197   6.741  0.6172 -0.3831 -0.0943
 7474SOL    HW234056   0.885   2.119   6.655  0.3983  0.5306  0.0717
 7475SOL     OW34057   4.649   2.682   5.455 -0.3478 -0.3263  0.0905
 7475SOL    HW134058   4.649   2.772   5.421  1.3729 -0.7077 -0.9099
 7475SOL    HW234059   4.705   2.691   5.531 -1.5560 -1.3050  1.0930
 7476SOL     OW34060   1.132   0.110   0.979  0.0482  0.3002  0.3717
 7476SOL    HW134061   1.188   0.041   0.943 -2.2111 -1.0860 -0.4359
 7476SOL    HW234062   1.065   0.109   0.911  0.9919 -0.1387 -0.5621
 7477SOL     OW34063   3.536   3.177   9.397 -0.0402  0.5733  0.0762
 7477SOL    HW134064   3.521   3.246   9.461  1.6044  0.5309  0.5140
 7477SOL    HW234065   3.449   3.143   9.376  0.5001 -0.1409 -1.0148
 7478SOL     OW34066   4.374   0.146   7.270  0.0491 -0.0016  0.3898
 7478SOL    HW134067   4.431   0.220   7.289 -0.5002  0.3073  0.8488
 7478SOL    HW234068   4.355   0.117   7.359 -0.5653 -0.0483  0.2460
 7479SOL     OW34069   2.506   0.747   1.083 -0.5276  0.4850 -0.1889
 7479SOL    HW134070   2.458   0.665   1.069 -0.4616  0.6624 -1.4144
 7479SOL    HW234071   2.589   0.705   1.105 -0.4699  1.1912  0.9302
 7480SOL     OW34072   2.689   0.996   4.498 -0.1970  0.3278 -0.3522
 7480SOL    HW134073   2.748   0.961   4.431 -0.2598 -3.5111  1.5850
 7480SOL    HW234074   2.744   1.067   4.530  0.1590  0.4442 -1.2090
 7481SOL     OW34075   3.021   3.288   8.238  0.3508  0.2354 -0.3255
 7481SOL    HW134076   3.031   3.202   8.279  0.4956  0.5446  0.2963
 7481SOL    HW234077   3.109   3.306   8.206 -0.0657 -1.4130 -2.3934
 7482SOL     OW34078   1.207   1.453   0.908 -0.2629  0.4041 -0.1542
 7482SOL    HW134079   1.140   1.471   0.841  2.2238  1.0154 -2.4837
 7482SOL    HW234080   1.180   1.519   0.972  0.3001 -1.6569  2.1738
 7483SOL     OW34081   2.030   3.604   7.061  0.2942 -0.5907 -0.3370
 7483SOL    HW134082   1.963   3.619   6.994 -0.7508  0.2490  0.8868
 7483SOL    HW234083   2.098   3.647   7.010  0.7980 -0.7545  0.1974
 7484SOL     OW34084   3.513   3.081   8.611  0.2851  0.7993 -0.6685
 7484SOL    HW134085   3.442   3.136   8.577 -0.0693 -0.6951 -2.3593
 7484SOL    HW234086   3.579   3.090   8.543  1.9767  0.3372  0.9026
 7485SOL     OW34087   2.332   2.296   9.203  0.0042 -0.5836 -0.5248
 7485SOL    HW134088   2.416   2.279   9.160  0.4164  0.7874 -0.2492
 7485SOL    HW234089   2.313   2.387   9.181 -0.5950 -0.6834 -0.4312
 7486SOL     OW34090   3.811   2.462  17.585  0.4915 -0.1152  0.2392
 7486SOL    HW134091   3.847   2.443  17.498  1.4451  1.1492  0.3417
 7486SOL    HW234092   3.774   2.377  17.607  1.0809 -0.3560  0.3092
 7487SOL     OW34093   2.220   0.398   4.139 -0.2009 -0.7915  0.0389
 7487SOL    HW134094   2.212   0.378   4.233 -2.2717 -1.4668 -0.2778
 7487SOL    HW234095   2.201   0.491   4.132  1.9215 -0.2021  2.1574
 7488SOL     OW34096   1.637   3.368   6.863 -0.1393  0.5501 -0.3442
 7488SOL    HW134097   1.677   3.314   6.930  0.2955  2.8852  1.2996
 7488SOL    HW234098   1.715   3.396   6.816  0.8233 -0.6815  0.5407
 7489SOL     OW34099   4.463   4.214   3.400 -0.6212  0.1484  0.5931
 7489SOL    HW134100   4.460   4.135   3.347 -0.4893 -0.6992  1.8362
 7489SOL    HW234101   4.557   4.211   3.416 -0.9436  1.4310  2.8359
 7490SOL     OW34102   3.023   2.857   3.262 -0.0431  0.2973  0.2488
 7490SOL    HW134103   3.084   2.905   3.206 -1.6887 -0.0748 -1.8578
 7490SOL    HW234104   3.057   2.868   3.351  0.6295  1.9754 -0.2101
 7491SOL     OW34105   3.063   3.304   2.303 -0.2365 -0.5205  0.5904
 7491SOL    HW134106   3.121   3.292   2.228  0.7156  0.2939  1.1981
 7491SOL    HW234107   3.003   3.230   2.307 -2.2954  1.0624 -0.9020
 7492SOL     OW34108   4.667   0.171   9.590 -0.6496 -0.5621  0.3442
 7492SOL    HW134109   4.733   0.141   9.528 -0.1116  0.5320  0.3904
 7492SOL    HW234110   4.707   0.249   9.628 -1.4070 -1.0372  2.1369
 7493SOL     OW34111   3.116   1.733  14.637 -0.2663 -0.0279  0.0406
 7493SOL    HW134112   3.084   1.813  14.678  0.9650 -1.6772  4.2028
 7493SOL    HW234113   3.029   1.693  14.628  0.0183 -0.8780  1.0250
 7494SOL     OW34114   3.937   1.907   5.856  0.1422 -0.4399 -0.5543
 7494SOL    HW134115   3.915   1.817   5.832 -1.0945 -0.9440  2.3329
 7494SOL    HW234116   3.948   1.900   5.951  1.0753  0.7833 -0.5698
 7495SOL     OW34117   3.114   0.687  11.579 -0.3427 -0.4199 -0.2238
 7495SOL    HW134118   3.054   0.613  11.586  0.2688 -1.0335 -1.4015
 7495SOL    HW234119   3.192   0.636  11.553  1.8062  2.8236 -0.1663
 7496SOL     OW34120   4.705   3.049   7.468  0.4176  0.6373 -0.2843
 7496SOL    HW134121   0.024   3.031   7.541  1.0352 -0.0411 -0.9623
 7496SOL    HW234122   0.026   3.108   7.423  1.9541 -2.3451 -2.0725
 7497SOL     OW34123   2.993   0.479   1.056  0.8933 -0.5362 -0.1923
 7497SOL    HW134124   2.905   0.464   1.090  0.1981  0.5392 -1.5421
 7497SOL    HW234125   3.046   0.445   1.128  0.2629  1.4278  1.1951
 7498SOL     OW34126   3.733   1.772   2.154  0.9485 -0.3358 -0.1044
 7498SOL    HW134127   3.827   1.772   2.137  1.2909  1.8785  1.7905
 7498SOL    HW234128   3.711   1.703   2.092  1.5805  1.4735 -2.3196
 7499SOL     OW34129   1.310   2.466   6.818  0.4416  0.2554  0.1447
 7499SOL    HW134130   1.347   2.378   6.807 -1.7273 -0.7795  1.1085
 7499SOL    HW234131   1.259   2.476   6.738  0.4593 -1.3256 -0.0636
 7500SOL     OW34132   4.276   2.982   5.852 -0.3609  0.1714  0.1228
 7500SOL    HW134133   4.226   2.955   5.930 -0.5071  1.8197  0.6038
 7500SOL    HW234134   4.343   3.042   5.884 -0.4642 -0.3105  1.2503
 7501SOL     OW34135   4.083   3.560  14.194  0.6414  0.6656  0.0925
 7501SOL    HW134136   4.109   3.605  14.274 -0.8545  0.3631  0.7460
 7501SOL    HW234137   4.074   3.470  14.226 -0.0482 -0.1049 -2.2069
 7502SOL     OW34138   3.092   2.052   0.419 -0.1437 -0.5645 -0.1297
 7502SOL    HW134139   3.167   2.061   0.360 -0.0104 -2.9349 -0.3228
 7502SOL    HW234140   3.030   2.119   0.393  0.2168 -0.0954  0.2120
 7503SOL     OW34141   0.568   2.339  16.867  0.3044  0.5209  0.0516
 7503SOL    HW134142   0.570   2.243  16.866  0.3909  0.5134  1.6925
 7503SOL    HW234143   0.625   2.362  16.940  0.8273 -1.2614  0.2129
 7504SOL     OW34144   1.345   2.954   4.533  0.4672  0.2573 -0.0153
 7504SOL    HW134145   1.269   2.959   4.475  0.5327 -1.4331 -0.2529
 7504SOL    HW234146   1.313   2.887   4.594 -1.2628  0.1995 -0.9871
 7505SOL     OW34147   3.723   2.523  13.814  0.0892  0.0672  0.0892
 7505SOL    HW134148   3.810   2.501  13.780  0.1279 -2.2909  1.8013
 7505SOL    HW234149   3.694   2.432  13.808 -2.6392  0.8762  1.0318
 7506SOL     OW34150   2.608   3.966   7.152  0.6396  0.7694 -0.1666
 7506SOL    HW134151   2.586   4.021   7.077  0.3077  1.8591  0.7240
 7506SOL    HW234152   2.609   4.033   7.221 -2.0749  2.5496 -1.8376
 7507SOL     OW34153   4.302   0.016  15.332  0.2027  0.1524 -0.6192
 7507SOL    HW134154   4.331   0.105  15.350  0.8308 -0.4936  1.6536
 7507SOL    HW234155   4.229   0.019  15.394  1.2585 -1.4723  0.7126
 7508SOL     OW34156   3.076   1.269  15.563  0.0514  0.0798  0.4889
 7508SOL    HW134157   3.168   1.290  15.577  0.3249 -0.6653 -0.2436
 7508SOL    HW234158   3.096   1.209  15.491  1.3753  0.6789  0.3662
 7509SOL     OW34159   0.986   0.002   1.967 -0.4873 -0.1424  0.2240
 7509SOL    HW134160   1.026   4.737   1.880 -1.2765  0.6421 -0.1902
 7509SOL    HW234161   1.048   0.067   2.001 -1.4925  0.7054  0.4160
 7510SOL     OW34162   2.212   1.513   6.703  0.6414 -0.4955  0.0733
 7510SOL    HW134163   2.287   1.459   6.679 -1.2447 -2.7644 -0.7267
 7510SOL    HW234164   2.252   1.586   6.751 -0.2119  0.7305 -1.0746
 7511SOL     OW34165   2.961   0.632   6.709 -0.3958  0.7306  0.5574
 7511SOL    HW134166   2.903   0.697   6.669 -1.8472 -0.6566  0.3788
 7511SOL    HW234167   3.034   0.687   6.733  2.1057 -0.9025 -3.2807
 7512SOL     OW34168   0.759   3.145   3.802 -0.0930 -0.4120  0.4675
 7512SOL    HW134169   0.792   3.061   3.832  0.0119 -0.0442  1.3889
 7512SOL    HW234170   0.781   3.147   3.709 -2.0226  0.1723  0.0211
 7513SOL     OW34171   1.674   0.316   8.777  0.5258 -0.2829  0.1247
 7513SOL    HW134172   1.747   0.258   8.796 -0.3603 -1.7059 -0.7870
 7513SOL    HW234173   1.616   0.319   8.853 -1.0594 -0.9856 -1.0398
 7514SOL     OW34174   3.054   2.911  15.981 -0.1339  1.2009  1.1876
 7514SOL    HW134175   3.027   2.952  15.899  2.3592 -0.2722 -0.3500
 7514SOL    HW234176   3.148   2.926  15.972 -0.2586  0.3398 -1.5235
 7515SOL     OW34177   1.914   4.469  10.869 -0.3608  0.7337 -0.2075
 7515SOL    HW134178   1.835   4.523  10.870  0.2407  1.5839  0.6574
 7515SOL    HW234179   1.896   4.411  10.795  0.5377 -1.6211  1.4298
 7516SOL     OW34180   0.943   0.343   8.160 -0.1534  0.1155 -0.3226
 7516SOL    HW134181   0.892   0.298   8.093 -2.3252  0.8733  0.8140
 7516SOL    HW234182   0.930   0.432   8.129  0.4196 -0.9422 -3.6260
 7517SOL     OW34183   3.553   3.302   7.542 -0.2726  0.4201 -0.1521
 7517SOL    HW134184   3.618   3.245   7.582  1.4229  2.4739 -0.0441
 7517SOL    HW234185   3.580   3.392   7.557  2.5158 -0.2537 -1.2334
 7518SOL     OW34186   4.285   3.766   8.924  0.0234  0.3212 -0.2078
 7518SOL    HW134187   4.319   3.686   8.885 -1.5795  0.2961 -1.5358
 7518SOL    HW234188   4.191   3.748   8.929 -0.0146  0.3847 -0.7417
 7519SOL     OW34189   2.815   1.666   7.773  0.1295  1.1932 -0.4634
 7519SOL    HW134190   2.859   1.599   7.825 -1.6391 -0.1422 -0.6839
 7519SOL    HW234191   2.741   1.614   7.741 -0.8439  2.6316 -0.5466
 7520SOL     OW34192   4.247   2.370   7.908  0.2995  0.3280 -0.4048
 7520SOL    HW134193   4.314   2.364   7.840 -0.2793  0.5757 -1.0007
 7520SOL    HW234194   4.302   2.388   7.985  0.5171 -0.5436 -0.3576
 7521SOL     OW34195   1.372   0.458   8.483 -0.4273 -0.3924 -0.1371
 7521SOL    HW134196   1.315   0.423   8.414 -2.7310  0.6934  1.2044
 7521SOL    HW234197   1.463   0.442   8.459 -0.1159  0.8807  0.1978
 7522SOL     OW34198   2.710   0.096   1.087  0.0943  0.3160  0.5950
 7522SOL    HW134199   2.719   0.190   1.071  2.7555  0.1908  1.3405
 7522SOL    HW234200   2.647   0.070   1.021  1.3410  1.6972 -1.1295
 7523SOL     OW34201   3.373   2.417   2.304 -0.1519 -0.2053 -0.8244
 7523SOL    HW134202   3.315   2.416   2.228 -1.2873 -1.2246  0.0548
 7523SOL    HW234203   3.346   2.494   2.353 -0.1788  0.5611 -2.0419
 7524SOL     OW34204   0.165   4.238  10.848  0.0187 -0.8519 -0.0028
 7524SOL    HW134205   0.134   4.239  10.938 -0.4327 -1.0641 -0.1546
 7524SOL    HW234206   0.137   4.148  10.828 -1.1339 -0.4818 -0.0284
 7525SOL     OW34207   4.121   2.673   7.497  0.1471  0.1232  0.4331
 7525SOL    HW134208   4.143   2.766   7.499 -0.1894  0.1816  1.4065
 7525SOL    HW234209   4.027   2.687   7.505 -0.0972 -0.3478 -1.6212
 7526SOL     OW34210   0.657   3.851  12.444  0.4863 -0.4018 -1.0538
 7526SOL    HW134211   0.731   3.895  12.485  0.4916 -3.0195  1.7098
 7526SOL    HW234212   0.587   3.855  12.510 -1.5024  2.8368 -3.3362
 7527SOL     OW34213   2.386   2.777   6.295  0.1994 -0.4136 -0.0380
 7527SOL    HW134214   2.391   2.859   6.345  0.6506 -1.4238  1.5491
 7527SOL    HW234215   2.369   2.713   6.364  1.0214 -1.1946 -0.5607
 7528SOL     OW34216   4.719   1.313   6.106 -0.0475  0.3470 -0.0104
 7528SOL    HW134217   0.032   1.256   6.050 -0.4239 -3.1593  3.1695
 7528SOL    HW234218   0.043   1.382   6.116  0.7765 -0.3380 -0.6161
 7529SOL     OW34219   3.625   2.515  14.457  0.1596  0.0205 -0.6952
 7529SOL    HW134220   3.569   2.592  14.448 -0.9505 -0.6532  0.4716
 7529SOL    HW234221   3.560   2.444  14.458 -1.1308  1.1800 -1.7872
 7530SOL     OW34222   2.230   2.638   9.524 -0.5642 -0.1474  0.3673
 7530SOL    HW134223   2.173   2.588   9.583 -1.4946 -0.1242 -0.5003
 7530SOL    HW234224   2.307   2.581   9.522  0.4847  1.3313 -1.0912
 7531SOL     OW34225   0.016   4.375   2.110 -0.0770 -0.2474  0.1116
 7531SOL    HW134226   0.110   4.358   2.107 -0.0542  0.2330 -1.6817
 7531SOL    HW234227   0.015   4.465   2.076 -0.9957 -0.7037 -1.0625
 7532SOL     OW34228   2.717   2.967   8.106  0.1228 -0.5114  0.0640
 7532SOL    HW134229   2.782   3.029   8.074 -0.7610  0.6093  0.4346
 7532SOL    HW234230   2.649   2.977   8.040 -1.8456  0.3153  2.1885
 7533SOL     OW34231   4.107   2.066   2.211  0.1484 -0.0706 -0.7193
 7533SOL    HW134232   4.157   2.013   2.272 -0.3061  1.2403  0.7979
 7533SOL    HW234233   4.080   2.145   2.258 -2.6915 -1.6422  0.2497
 7534SOL     OW34234   4.475   0.196  10.988  0.1268 -0.2112 -0.0216
 7534SOL    HW134235   4.438   0.201  10.900  0.9567  0.4256 -0.3271
 7534SOL    HW234236   4.566   0.186  10.961  0.0388  0.1487 -0.4391
 7535SOL     OW34237   2.702   4.069   3.271  0.3563 -0.1482 -0.4866
 7535SOL    HW134238   2.644   4.135   3.232  3.0116  0.9360 -2.6507
 7535SOL    HW234239   2.645   4.031   3.337 -2.6050  1.4791 -2.0834
 7536SOL     OW34240   3.477   3.143   7.795  0.4477  0.5146 -0.1262
 7536SOL    HW134241   3.461   3.236   7.812  2.3898  0.6428  1.0555
 7536SOL    HW234242   3.444   3.144   7.706  1.9198  6.4876 -0.6402
 7537SOL     OW34243   4.497   1.923   2.766 -0.1270  0.0301  0.2951
 7537SOL    HW134244   4.531   2.012   2.753 -1.5294  0.3733 -0.9751
 7537SOL    HW234245   4.582   1.879   2.766 -0.0230  0.2370  1.1639
 7538SOL     OW34246   0.471   0.981  10.251 -0.1855  0.3745 -0.0724
 7538SOL    HW134247   0.406   1.044  10.284  1.3622  0.1037  3.5133
 7538SOL    HW234248   0.519   0.963  10.331  0.5979  0.7409 -0.4615
 7539SOL     OW34249   1.137   2.741   3.094 -0.1168  0.1659  0.1647
 7539SOL    HW134250   1.041   2.740   3.105 -0.1653 -0.8610 -0.3961
 7539SOL    HW234251   1.161   2.820   3.045  1.3251 -0.2614  0.1856
 7540SOL     OW34252   2.384   3.875   6.689  0.6532 -0.2532  0.1218
 7540SOL    HW134253   2.315   3.812   6.669  0.5371 -0.4167  1.0392
 7540SOL    HW234254   2.437   3.885   6.610  1.5842  2.1639  1.0483
 7541SOL     OW34255   0.088   3.801   1.606  0.0774  0.1619  0.3713
 7541SOL    HW134256   0.003   3.761   1.621  1.5827 -2.1111  2.8292
 7541SOL    HW234257   0.150   3.732   1.583 -1.8991 -1.1653 -0.9627
 7542SOL     OW34258   1.901   3.944   5.784  0.3948 -0.2977 -0.1354
 7542SOL    HW134259   1.930   3.900   5.863  2.3590  1.2597  0.0230
 7542SOL    HW234260   1.893   3.868   5.726  0.4401 -1.2146  1.0564
 7543SOL     OW34261   3.919   0.374   4.263 -0.2202 -0.4116 -0.2717
 7543SOL    HW134262   3.850   0.434   4.237 -1.3059 -0.9348  1.3584
 7543SOL    HW234263   3.898   0.299   4.207 -1.8290 -0.2950  0.1858
 7544SOL     OW34264   2.513   4.117  15.251 -0.7367  0.0402 -0.4970
 7544SOL    HW134265   2.538   4.165  15.330 -2.7496  1.7091 -0.8640
 7544SOL    HW234266   2.432   4.076  15.279 -0.5652 -0.0992 -0.2111
 7545SOL     OW34267   2.398   3.977   8.901 -0.5242  0.0741  0.3485
 7545SOL    HW134268   2.489   3.950   8.909 -0.6997 -0.3215  0.9313
 7545SOL    HW234269   2.348   3.928   8.835 -0.4786 -1.6926  1.6291
 7546SOL     OW34270   2.081   1.291   1.575 -0.3767 -0.3812 -0.2503
 7546SOL    HW134271   2.122   1.207   1.594  2.8720  0.7064 -2.2979
 7546SOL    HW234272   2.078   1.329   1.662 -0.8984  0.6778 -0.7356
 7547SOL     OW34273   2.444   0.495   8.616  0.3673  0.4122  0.1901
 7547SOL    HW134274   2.360   0.453   8.631 -0.7919  1.8438 -2.2981
 7547SOL    HW234275   2.424   0.579   8.657  0.9656 -0.4011  2.1363
 7548SOL     OW34276   0.098   2.618  12.283  0.7225 -0.0398 -0.3510
 7548SOL    HW134277   0.095   2.546  12.347 -0.7281  0.1259 -0.2504
 7548SOL    HW234278   0.191   2.639  12.277  0.8434  0.0520  1.6456
 7549SOL     OW34279   2.570   4.735   0.552  0.2709  0.5327 -0.1756
 7549SOL    HW134280   2.600   4.686   0.628 -1.6491 -1.9466 -1.0192
 7549SOL    HW234281   2.505   4.676   0.512  0.7135 -0.3881  0.4548
 7550SOL     OW34282   2.362   0.917   4.797 -0.1573 -0.1668 -0.6109
 7550SOL    HW134283   2.288   0.858   4.781 -2.5958  2.3915  1.2223
 7550SOL    HW234284   2.394   0.932   4.708  2.9875  1.8247  0.8499
 7551SOL     OW34285   0.726   3.403   1.598 -0.3355 -0.9610 -0.1854
 7551SOL    HW134286   0.759   3.319   1.631 -0.5979 -0.6580  0.8516
 7551SOL    HW234287   0.810   3.439   1.569 -1.3986  1.4617 -0.1832
 7552SOL     OW34288   1.162   1.615   8.043  0.2711  0.5305 -1.0143
 7552SOL    HW134289   1.222   1.541   8.048  0.5922  0.9014  0.7943
 7552SOL    HW234290   1.216   1.677   7.995  1.2818 -0.7385 -1.5254
 7553SOL     OW34291   1.621   2.925   4.468  0.3537  0.2483 -0.1554
 7553SOL    HW134292   1.541   2.946   4.515 -0.6524 -1.3302 -1.1783
 7553SOL    HW234293   1.597   2.832   4.466 -0.0941  0.3531  0.3875
 7554SOL     OW34294   4.420   0.878   1.215  0.0440  0.2126  0.2850
 7554SOL    HW134295   4.356   0.919   1.157 -0.4386 -0.9035  0.0358
 7554SOL    HW234296   4.498   0.923   1.182  1.6623 -2.8115 -0.0071
 7555SOL     OW34297   3.568   1.918  11.660 -0.1180  0.4691 -0.4190
 7555SOL    HW134298   3.497   1.873  11.613 -1.5529 -0.0017  2.1936
 7555SOL    HW234299   3.519   1.995  11.689  0.3571  0.3725  0.6571
 7556SOL     OW34300   4.057   0.635   4.230  0.3640 -0.7242  0.0625
 7556SOL    HW134301   4.057   0.647   4.135 -0.9690 -0.4165  0.1085
 7556SOL    HW234302   4.036   0.544   4.247  3.5346 -1.7426 -1.3236
 7557SOL     OW34303   3.350   2.733   2.654 -0.1817  0.7558 -0.0160
 7557SOL    HW134304   3.432   2.711   2.610 -0.3445  1.5934 -0.7390
 7557SOL    HW234305   3.365   2.815   2.700  0.3801  0.0342  1.0976
 7558SOL     OW34306   1.077   3.864  16.378  0.2259  0.2509  0.3361
 7558SOL    HW134307   1.007   3.930  16.374 -0.1873 -0.2439 -0.4989
 7558SOL    HW234308   1.158   3.916  16.369 -0.2463  0.6396 -1.7406
 7559SOL     OW34309   0.725   3.901   7.334  0.1866  0.2969 -0.1469
 7559SOL    HW134310   0.692   3.990   7.346  0.1364  0.5544 -2.2938
 7559SOL    HW234311   0.746   3.897   7.241 -1.3004  1.2766 -0.5289
 7560SOL     OW34312   4.308   1.537   7.819 -0.0263 -0.4230 -0.0973
 7560SOL    HW134313   4.338   1.617   7.777 -0.8157  0.6268  1.3356
 7560SOL    HW234314   4.380   1.479   7.794 -0.2882 -1.5640  1.7857
 7561SOL     OW34315   2.691   4.656   3.035 -0.0530  0.0589  0.0615
 7561SOL    HW134316   2.748   4.579   3.043 -0.9779 -0.7042 -0.7656
 7561SOL    HW234317   2.616   4.620   3.082  1.2274 -2.7213 -0.0297
 7562SOL     OW34318   0.224   0.445   2.643 -0.0361  0.2681 -0.2832
 7562SOL    HW134319   0.184   0.532   2.639 -0.5503  0.0852  0.6976
 7562SOL    HW234320   0.171   0.391   2.703 -0.1366  2.7028  1.8303
 7563SOL     OW34321   3.171   2.354   6.588 -0.8057 -0.0608  0.9269
 7563SOL    HW134322   3.261   2.328   6.571 -1.4963 -1.9952  0.2690
 7563SOL    HW234323   3.188   2.426   6.648 -4.5277  0.8722  0.8291
 7564SOL     OW34324   3.168   2.300  13.668  0.0018  0.5113  0.3141
 7564SOL    HW134325   3.078   2.330  13.654 -0.4286 -0.3823  1.1169
 7564SOL    HW234326   3.174   2.310  13.763 -1.5050  0.1534  0.4476
 7565SOL     OW34327   3.790   1.295   7.313 -0.6501  0.5448 -0.4000
 7565SOL    HW134328   3.826   1.257   7.232  2.8835 -1.7415  2.2597
 7565SOL    HW234329   3.872   1.316   7.357 -1.6378 -0.4989  1.9060
 7566SOL     OW34330   4.437   0.961   7.054 -0.2994  0.0852 -0.7052
 7566SOL    HW134331   4.403   1.032   7.109  0.9765 -0.4879  0.8540
 7566SOL    HW234332   4.509   0.928   7.108  0.7719  1.4537 -1.3016
 7567SOL     OW34333   0.389   2.381  14.590  0.3015 -0.1536 -0.6200
 7567SOL    HW134334   0.379   2.473  14.618 -3.6399 -1.3437  1.9619
 7567SOL    HW234335   0.328   2.349  14.658  1.8256 -0.8803  0.3968
 7568SOL     OW34336   2.176   4.003   2.113  0.0288 -0.2201 -0.4710
 7568SOL    HW134337   2.264   3.984   2.081 -0.4913  0.7579 -2.4937
 7568SOL    HW234338   2.162   3.913   2.143 -1.2976  0.8873  2.1739
 7569SOL     OW34339   0.772   3.928  17.602  0.4743  0.2624 -0.2234
 7569SOL    HW134340   0.766   4.019  17.573  0.9786 -0.3735 -2.3706
 7569SOL    HW234341   0.713   3.950  17.673  0.0311 -2.8086  0.3710
 7570SOL     OW34342   4.023   4.679  13.866  0.3486  0.1975 -0.1512
 7570SOL    HW134343   4.064   4.593  13.871 -1.0146 -0.4583 -0.1163
 7570SOL    HW234344   3.963   4.665  13.792 -0.7573 -0.8748  0.9444
 7571SOL     OW34345   3.714   2.770  10.090 -0.1559 -0.6126  0.1060
 7571SOL    HW134346   3.740   2.684  10.057 -0.7907 -0.2804 -1.2613
 7571SOL    HW234347   3.658   2.798  10.018 -2.3514 -1.2121  1.5940
 7572SOL     OW34348   3.712   1.973  15.608 -0.6651  0.0394 -0.6665
 7572SOL    HW134349   3.660   2.047  15.576  0.7579  1.5397  0.4949
 7572SOL    HW234350   3.646   1.913  15.643 -1.4117  0.9039 -0.5932
 7573SOL     OW34351   2.168   4.624   2.679 -0.3541  0.3484  0.4296
 7573SOL    HW134352   2.237   4.598   2.618 -0.4743 -0.4124  0.6127
 7573SOL    HW234353   2.223   4.643   2.755 -0.5296 -0.7782  0.8446
 7574SOL     OW34354   1.486   4.582   4.607  0.6213  0.6204 -0.5099
 7574SOL    HW134355   1.450   4.524   4.675  0.2020  0.9249 -0.4749
 7574SOL    HW234356   1.576   4.550   4.594  0.2955 -1.0227  1.3421
 7575SOL     OW34357   3.486   2.688   4.542  0.6285 -0.2775 -0.2639
 7575SOL    HW134358   3.396   2.707   4.571  0.2072  0.7724 -2.2612
 7575SOL    HW234359   3.497   2.594   4.559  4.1750 -0.1223 -1.8180
 7576SOL     OW34360   2.956   3.482  12.853  0.5905  0.4805  0.3075
 7576SOL    HW134361   3.050   3.465  12.852  0.0762 -2.5233  1.9855
 7576SOL    HW234362   2.960   3.574  12.826 -0.6478  0.4735  0.0999
 7577SOL     OW34363   2.997   4.708   3.215 -0.1820  0.2946  0.0892
 7577SOL    HW134364   2.937   4.633   3.217 -1.5339  1.2894 -2.7524
 7577SOL    HW234365   3.080   4.665   3.197 -0.0616  0.6518 -0.2217
 7578SOL     OW34366   0.686   2.869  15.212  0.0276  0.4636  0.3044
 7578SOL    HW134367   0.725   2.955  15.222  1.2728  0.2553 -2.8121
 7578SOL    HW234368   0.753   2.813  15.252  0.1535  0.0803 -0.4494
 7579SOL     OW34369   0.311   0.951   7.777  0.0839 -0.3750  0.6943
 7579SOL    HW134370   0.338   1.032   7.733  1.3396 -1.9438 -1.4620
 7579SOL    HW234371   0.394   0.903   7.771  0.1993  0.0503 -1.2309
 7580SOL     OW34372   3.973   3.826   7.013  0.1798 -0.0204  0.0281
 7580SOL    HW134373   4.014   3.892   6.956 -2.1364  2.4385  1.1755
 7580SOL    HW234374   3.888   3.815   6.972 -0.8273 -0.9269  2.3597
 7581SOL     OW34375   2.067   3.420   2.914  0.1976 -0.0723 -0.3591
 7581SOL    HW134376   2.084   3.445   3.005 -0.3560 -0.4454 -0.1532
 7581SOL    HW234377   1.973   3.402   2.920  0.4219 -1.4730 -1.0323
 7582SOL     OW34378   3.546   2.532   6.118  0.0672 -0.0118  0.2169
 7582SOL    HW134379   3.597   2.558   6.195 -0.0179  0.0460  0.2548
 7582SOL    HW234380   3.467   2.587   6.119  1.8783  2.5659  1.0409
 7583SOL     OW34381   1.156   2.352   2.635 -0.2086  0.6433 -0.1099
 7583SOL    HW134382   1.121   2.263   2.636  2.6350 -0.4775 -0.5285
 7583SOL    HW234383   1.220   2.348   2.565  1.0672 -0.0113  1.0849
 7584SOL     OW34384   1.917   4.177   3.795 -0.5520 -0.1260 -0.1622
 7584SOL    HW134385   1.875   4.243   3.851 -3.0107 -1.6881 -0.1581
 7584SOL    HW234386   1.980   4.229   3.745 -2.6768  2.0337 -0.5800
 7585SOL     OW34387   4.540   3.142   6.293  0.1016  0.3303 -0.4123
 7585SOL    HW134388   4.629   3.109   6.305 -0.0907 -0.0146  0.0855
 7585SOL    HW234389   4.544   3.216   6.354 -1.6999  0.4018 -0.3883
 7586SOL     OW34390   3.861   4.391   2.216  0.1373 -0.4223 -0.2504
 7586SOL    HW134391   3.770   4.368   2.235 -0.0343 -0.7441 -1.4877
 7586SOL    HW234392   3.851   4.451   2.142  3.5269  0.2202 -0.1888
 7587SOL     OW34393   4.245   0.356  13.613 -0.0030 -0.5494 -0.2824
 7587SOL    HW134394   4.240   0.264  13.641 -1.2202 -0.3679  0.0966
 7587SOL    HW234395   4.327   0.368  13.565  0.3715  0.1686  0.5565
 7588SOL     OW34396   3.711   3.136   8.438 -0.2013  0.3831 -0.2026
 7588SOL    HW134397   3.801   3.165   8.422  0.1309 -1.2811 -1.3621
 7588SOL    HW234398   3.678   3.224   8.455 -1.2956  0.2117 -1.3762
 7589SOL     OW34399   3.803   3.424   1.641  0.1517 -0.3632  0.2683
 7589SOL    HW134400   3.761   3.471   1.713 -0.4892 -0.8272  0.1956
 7589SOL    HW234401   3.817   3.498   1.582  1.4847 -0.3136  0.6577
 7590SOL     OW34402   1.984   4.282   3.394  0.2201  0.3423 -0.7789
 7590SOL    HW134403   1.958   4.190   3.403 -1.1968  0.7987 -0.0613
 7590SOL    HW234404   1.900   4.313   3.359 -1.1030  0.6457  2.6443
 7591SOL     OW34405   1.701   0.378   5.562  0.5803 -0.0715 -0.3697
 7591SOL    HW134406   1.645   0.383   5.485 -0.3535  0.6323  0.3456
 7591SOL    HW234407   1.775   0.335   5.520 -1.0221 -2.8151 -0.3844
 7592SOL     OW34408   1.411   2.781   0.508  0.0778  0.3345  0.1215
 7592SOL    HW134409   1.380   2.746   0.592  0.6762 -1.2169 -0.2992
 7592SOL    HW234410   1.344   2.840   0.475  1.3414  0.1434 -2.8060
 7593SOL     OW34411   0.971   1.148   5.616  0.2891 -0.2959 -0.0474
 7593SOL    HW134412   1.058   1.185   5.605  0.2477 -0.7845 -2.0013
 7593SOL    HW234413   0.924   1.188   5.543  1.7731 -1.6585 -1.7384
 7594SOL     OW34414   1.014   1.606   4.352 -0.6172 -0.0894  0.9209
 7594SOL    HW134415   1.054   1.526   4.386  0.1304 -0.0938  0.0563
 7594SOL    HW234416   1.090   1.628   4.297 -2.4191  0.1722 -1.4518
 7595SOL     OW34417   2.126   0.317  14.701  0.7060  0.1367 -0.0435
 7595SOL    HW134418   2.121   0.249  14.768 -0.1486 -1.9167 -2.1832
 7595SOL    HW234419   2.056   0.377  14.728  1.4815  0.7747  0.5335
 7596SOL     OW34420   3.334   1.499   2.185 -0.2861  0.1206  0.1838
 7596SOL    HW134421   3.404   1.470   2.242  0.1084 -0.8104 -0.7913
 7596SOL    HW234422   3.345   1.445   2.107 -0.2283  1.1419 -0.5134
 7597SOL     OW34423   3.366   2.168   8.621 -0.2955 -0.1113  0.2496
 7597SOL    HW134424   3.384   2.254   8.660 -0.1564  0.2478 -0.6113
 7597SOL    HW234425   3.316   2.124   8.690  1.2243 -1.0156  0.7529
 7598SOL     OW34426   0.154   0.632   7.512 -0.1689  0.0085  0.3366
 7598SOL    HW134427   0.127   0.686   7.586 -0.3719  1.1681 -0.5796
 7598SOL    HW234428   0.107   0.550   7.532 -0.6731  0.4491  0.9654
 7599SOL     OW34429   2.292   2.351  15.360 -0.2338  0.5592  0.4016
 7599SOL    HW134430   2.367   2.323  15.309 -1.3523 -0.9763 -0.3953
 7599SOL    HW234431   2.262   2.275  15.411 -0.4983  1.8747  2.1984
 7600SOL     OW34432   1.258   1.055   4.404  0.3556  0.6085  0.0225
 7600SOL    HW134433   1.289   1.096   4.485 -1.9187  5.7754 -1.6937
 7600SOL    HW234434   1.283   1.123   4.342 -0.2150  1.0773  0.3082
 7601SOL     OW34435   0.342   2.131   3.258  0.0989  0.2441 -0.7341
 7601SOL    HW134436   0.395   2.107   3.334 -2.4596 -1.2279  0.5717
 7601SOL    HW234437   0.410   2.156   3.195  0.3489  1.0716 -0.1370
 7602SOL     OW34438   2.100   1.197   4.742 -0.3074 -0.5426 -0.5830
 7602SOL    HW134439   2.127   1.147   4.819 -0.3510 -0.5334 -0.5618
 7602SOL    HW234440   2.006   1.186   4.755 -0.2651 -0.5508 -0.2853
 7603SOL     OW34441   4.059   4.625   9.916  0.0771  0.4365 -0.3011
 7603SOL    HW134442   3.982   4.669   9.954  0.3677  1.3654 -0.7729
 7603SOL    HW234443   4.053   4.647   9.823 -0.4344  2.1000  0.1100
 7604SOL     OW34444   2.144   3.042   8.004 -0.0175  0.6311  0.6857
 7604SOL    HW134445   2.187   3.040   8.090  0.5320  0.1931  0.4043
 7604SOL    HW234446   2.066   3.091   8.028 -0.8123  0.0734 -0.7455
 7605SOL     OW34447   3.361   1.386   1.619  0.1028 -0.1542  0.6031
 7605SOL    HW134448   3.327   1.469   1.586 -3.2192 -1.8334 -0.1780
 7605SOL    HW234449   3.318   1.397   1.704 -0.7554 -1.4378  0.3314
 7606SOL     OW34450   1.630   4.206   4.104 -0.5610 -0.2604  0.1460
 7606SOL    HW134451   1.583   4.275   4.057 -1.7247 -2.2596 -1.6172
 7606SOL    HW234452   1.696   4.257   4.152 -0.0884 -0.0407 -0.7455
 7607SOL     OW34453   4.433   3.869   8.611  0.2656  0.6073  0.0610
 7607SOL    HW134454   4.405   3.935   8.676 -1.2184  0.9100 -0.9001
 7607SOL    HW234455   4.523   3.864   8.643  1.0165  0.2542 -2.1500
 7608SOL     OW34456   3.854   4.276  17.024  0.2288 -0.1638 -0.2012
 7608SOL    HW134457   3.800   4.298  16.948 -1.2630 -0.4193  0.7889
 7608SOL    HW234458   3.927   4.338  17.022 -1.1301  1.5240  2.7673
 7609SOL     OW34459   3.533   4.105   8.754 -0.6906 -0.2243  0.4423
 7609SOL    HW134460   3.438   4.112   8.759 -0.7877  0.5666 -2.0433
 7609SOL    HW234461   3.557   4.140   8.840 -0.1285 -2.1868  1.0812
 7610SOL     OW34462   1.855   0.217   6.126 -0.0470 -0.4925 -0.7952
 7610SOL    HW134463   1.937   0.264   6.109  1.8011 -3.8506 -1.2926
 7610SOL    HW234464   1.796   0.292   6.134  1.0148  0.5611 -2.7146
 7611SOL     OW34465   4.417   3.245   7.945 -1.0362 -0.0638  0.6165
 7611SOL    HW134466   4.360   3.169   7.956 -1.1152 -0.1445 -0.3149
 7611SOL    HW234467   4.417   3.250   7.849 -0.3739 -1.3110  0.5544
 7612SOL     OW34468   0.089   1.122   2.721  0.1982  0.7325 -0.4689
 7612SOL    HW134469   0.008   1.123   2.670  0.6565 -0.7866 -1.2251
 7612SOL    HW234470   0.072   1.059   2.791 -1.6312 -1.6579 -3.0473
 7613SOL     OW34471   4.495   0.233  11.303  0.3560  0.3818 -0.2218
 7613SOL    HW134472   4.419   0.289  11.287  0.1571 -0.0105 -0.6807
 7613SOL    HW234473   4.460   0.165  11.245 -0.0557  0.1858  0.2585
 7614SOL     OW34474   3.617   0.328   7.146  0.5063  0.3984 -0.0631
 7614SOL    HW134475   3.531   0.293   7.169 -0.0139  0.4803 -1.8181
 7614SOL    HW234476   3.652   0.314   7.233  3.7940  0.3522 -1.3907
 7615SOL     OW34477   3.958   0.122   0.991  0.1703  0.0095  0.3911
 7615SOL    HW134478   3.872   0.081   0.982  0.4857 -0.1706 -1.7899
 7615SOL    HW234479   3.948   0.177   1.069  0.5909  1.2373 -0.4184
 7616SOL     OW34480   3.817   0.399  11.481 -0.3608 -0.0933 -0.2537
 7616SOL    HW134481   3.754   0.344  11.434 -1.0208  1.2498 -0.9594
 7616SOL    HW234482   3.757   0.469  11.505 -0.6300 -0.3430 -0.1997
 7617SOL     OW34483   1.813   1.705   9.118  0.4912 -0.2833 -0.2316
 7617SOL    HW134484   1.876   1.727   9.187 -0.2353 -1.3346  0.7722
 7617SOL    HW234485   1.877   1.704   9.047  1.2557  0.6216  0.4435
 7618SOL     OW34486   3.777   2.624   7.179  0.4828 -0.2640  0.3196
 7618SOL    HW134487   3.817   2.551   7.226 -2.5003 -0.8484  1.9407
 7618SOL    HW234488   3.685   2.620   7.205 -0.3867  3.6952 -2.1465
 7619SOL     OW34489   3.415   3.183   5.860 -0.2869 -0.4673  0.0460
 7619SOL    HW134490   3.466   3.144   5.931 -0.4037  2.4605  1.7303
 7619SOL    HW234491   3.328   3.208   5.890 -0.0969  0.5883 -0.2791
 7620SOL     OW34492   0.822   4.004   2.022 -0.0021 -0.3756 -0.0818
 7620SOL    HW134493   0.875   3.950   2.081  3.4793  2.3107 -0.7930
 7620SOL    HW234494   0.738   3.957   2.027 -0.7346  0.7621 -1.8518
 7621SOL     OW34495   1.832   1.179   5.453  0.8955 -0.1946  0.0093
 7621SOL    HW134496   1.811   1.251   5.513 -0.3468  0.8702 -1.7098
 7621SOL    HW234497   1.910   1.218   5.413 -0.3062  1.9513 -0.2487
 7622SOL     OW34498   1.815   0.274   9.252  0.2217 -0.5731 -0.5034
 7622SOL    HW134499   1.756   0.202   9.229 -1.0373 -0.2356  1.6709
 7622SOL    HW234500   1.776   0.284   9.338 -0.8047  2.6240 -1.3430
 7623SOL     OW34501   2.468   4.678  10.069  0.3878 -0.0880  0.1134
 7623SOL    HW134502   2.417   4.624  10.129  2.4474 -1.4079  0.6605
 7623SOL    HW234503   2.437   4.636   9.989 -0.1298 -0.2420  0.3940
 7624SOL     OW34504   0.369   3.983   3.646 -0.2442  0.1917  0.1996
 7624SOL    HW134505   0.289   3.987   3.592 -0.4832  2.4668  0.7163
 7624SOL    HW234506   0.439   3.998   3.583 -0.4440 -0.2965 -0.1459
 7625SOL     OW34507   0.145   3.417   3.009  0.1767  0.0785 -0.2001
 7625SOL    HW134508   0.087   3.482   2.969 -1.4376  0.3121  2.5345
 7625SOL    HW234509   0.179   3.379   2.928 -1.5686 -1.5105 -0.1788
 7626SOL     OW34510   1.319   2.282  17.110  0.6924 -0.2654 -0.2755
 7626SOL    HW134511   1.379   2.208  17.103  0.0279 -1.0222  2.2022
 7626SOL    HW234512   1.233   2.244  17.129  0.6202 -0.2227 -0.5153
 7627SOL     OW34513   0.845   4.382  14.519  0.0866 -0.3062  0.3043
 7627SOL    HW134514   0.877   4.405  14.431 -2.9080  0.8460 -0.4741
 7627SOL    HW234515   0.836   4.287  14.511 -3.4594 -0.0391  1.5784
 7628SOL     OW34516   3.534   2.226   5.724  0.5918  0.5737 -0.0780
 7628SOL    HW134517   3.522   2.217   5.630 -1.8498 -2.6901  0.5532
 7628SOL    HW234518   3.622   2.194   5.741  0.6824  1.5837  1.4055
 7629SOL     OW34519   0.672   0.251   2.653 -0.1726  0.3147 -0.1441
 7629SOL    HW134520   0.748   0.301   2.681  0.3094  0.0657 -1.0310
 7629SOL    HW234521   0.621   0.323   2.617 -1.0476  0.2978  1.0437
 7630SOL     OW34522   0.150   1.154   2.016 -0.3821  0.1540  0.0612
 7630SOL    HW134523   0.180   1.242   1.992 -2.4480  0.7394 -0.3547
 7630SOL    HW234524   0.212   1.139   2.088 -1.5708 -1.8777  0.6553
 7631SOL     OW34525   4.466   1.201  11.960 -0.6884 -0.4120 -0.4100
 7631SOL    HW134526   4.454   1.107  11.949 -1.1465  0.0293 -3.5766
 7631SOL    HW234527   4.522   1.219  11.885  1.0719 -4.1350  0.0155
 7632SOL     OW34528   0.443   2.423   6.652  1.1877 -0.6444 -0.1763
 7632SOL    HW134529   0.491   2.414   6.734 -0.7216 -0.5485  0.9391
 7632SOL    HW234530   0.421   2.332   6.632 -1.4710 -0.3250  1.3589
 7633SOL     OW34531   0.617   2.001   6.557 -0.4050 -0.2722  0.1013
 7633SOL    HW134532   0.652   1.913   6.567  0.4959  0.1581  0.7447
 7633SOL    HW234533   0.694   2.051   6.585 -1.3541 -0.1367  2.4693
 7634SOL     OW34534   4.321   1.991  17.723 -0.2052  1.0316 -0.4775
 7634SOL    HW134535   4.302   1.914  17.669 -1.7949  0.0724  1.4427
 7634SOL    HW234536   4.267   2.052  17.673 -0.1556  0.9593 -0.6168
 7635SOL     OW34537   3.309   0.380  11.859  0.0365 -0.2441 -0.6037
 7635SOL    HW134538   3.307   0.290  11.826 -0.0130  0.4896 -2.5788
 7635SOL    HW234539   3.292   0.372  11.953  1.4534 -0.8910 -0.3991
 7636SOL     OW34540   1.544   2.515  12.758 -0.8101 -0.3401  0.1411
 7636SOL    HW134541   1.573   2.444  12.817  1.0107 -0.6837 -1.1691
 7636SOL    HW234542   1.469   2.478  12.713 -0.4359  1.1072 -1.6589
 7637SOL     OW34543   1.384   0.006  14.302  0.0817  0.1183 -0.1537
 7637SOL    HW134544   1.288   0.003  14.305  0.0839 -2.2294 -2.1028
 7637SOL    HW234545   1.398   0.085  14.250  0.7719 -0.4607 -0.8513
 7638SOL     OW34546   2.992   4.275  15.919  0.2312  0.1470  0.6206
 7638SOL    HW134547   2.949   4.286  15.834 -0.9002  0.4448  1.2337
 7638SOL    HW234548   3.078   4.243  15.891  0.1280  1.3466 -1.0392
 7639SOL     OW34549   3.702   3.377  13.442 -0.3248 -0.6375  0.1925
 7639SOL    HW134550   3.697   3.448  13.506  2.8943 -0.0913 -0.1771
 7639SOL    HW234551   3.616   3.388  13.401  0.4523 -0.3941 -1.3420
 7640SOL     OW34552   4.205   4.609  11.244 -0.3851 -0.2420 -0.2580
 7640SOL    HW134553   4.203   4.599  11.339  2.2770  1.0053 -0.0435
 7640SOL    HW234554   4.278   4.670  11.227 -0.8396  0.1126 -0.9129
 7641SOL     OW34555   2.169   0.016   4.401  0.1659 -0.4832 -0.0176
 7641SOL    HW134556   2.235   0.059   4.347  0.4030  0.2787  0.8672
 7641SOL    HW234557   2.139   0.091   4.453  1.4729 -0.9509  1.4193
 7642SOL     OW34558   0.233   4.566   3.670  0.6485  0.1418 -0.1368
 7642SOL    HW134559   0.259   4.485   3.627 -1.4354 -0.3370 -0.5117
 7642SOL    HW234560   0.307   4.620   3.642  0.6473  0.9634  1.4342
 7643SOL     OW34561   3.201   0.480   6.932 -0.0634  0.1580 -0.2473
 7643SOL    HW134562   3.165   0.409   6.985 -1.5792  1.1094 -0.0070
 7643SOL    HW234563   3.229   0.429   6.856 -2.3092 -0.6149 -0.5559
 7644SOL     OW34564   4.166   2.438   0.853  0.7326  0.1235 -0.7460
 7644SOL    HW134565   4.102   2.427   0.923  0.3864 -0.4805 -1.1505
 7644SOL    HW234566   4.162   2.353   0.809 -0.6251 -0.6555  0.8916
 7645SOL     OW34567   2.915   1.301   3.342  0.2799  0.2490 -0.1302
 7645SOL    HW134568   2.888   1.230   3.284  1.1769 -0.8768  0.8238
 7645SOL    HW234569   2.915   1.250   3.424  0.9789  0.6004  0.0882
 7646SOL     OW34570   2.064   0.334  15.112 -0.2506 -0.5495 -0.1927
 7646SOL    HW134571   2.025   0.378  15.188 -0.5274  3.2856 -2.5371
 7646SOL    HW234572   1.983   0.314  15.066 -0.9798 -2.0085  1.7105
 7647SOL     OW34573   4.562   0.342   8.010 -0.4062 -0.5219 -0.3348
 7647SOL    HW134574   4.480   0.382   7.983 -0.3879 -1.7183 -2.1408
 7647SOL    HW234575   4.623   0.415   8.000 -0.7345  0.2621  3.1548
 7648SOL     OW34576   3.374   2.644   6.461 -0.0566  0.8299  0.4940
 7648SOL    HW134577   3.351   2.722   6.412 -0.8006 -2.0803 -3.7999
 7648SOL    HW234578   3.329   2.578   6.408 -0.8310  2.4443 -0.8347
 7649SOL     OW34579   4.610   0.494   1.320  0.3893  0.2734  0.1451
 7649SOL    HW134580   4.655   0.412   1.301  0.8164  0.7703 -0.9654
 7649SOL    HW234581   4.547   0.464   1.385  1.4155  0.7045  1.3455
 7650SOL     OW34582   4.631   2.866   7.204  0.2563 -0.1585 -0.4546
 7650SOL    HW134583   4.609   2.950   7.164  1.4273  1.4203  2.2362
 7650SOL    HW234584   4.549   2.818   7.210 -2.1597  3.7518 -2.1352
 7651SOL     OW34585   2.040   4.694   7.956 -0.3333  0.8063 -0.4877
 7651SOL    HW134586   1.995   4.637   8.018  0.8789 -1.2853 -1.5575
 7651SOL    HW234587   1.972   4.730   7.899 -0.1465  2.9307  0.6112
 7652SOL     OW34588   1.970   1.649  11.294 -0.4932  0.4892 -0.5862
 7652SOL    HW134589   2.008   1.651  11.382 -3.1260 -2.3457  0.5950
 7652SOL    HW234590   2.041   1.682  11.239 -0.0192  1.9928  0.9140
 7653SOL     OW34591   1.267   3.781  14.979  0.0326  0.2693 -0.0026
 7653SOL    HW134592   1.203   3.777  14.908  0.0418 -0.2226  0.0177
 7653SOL    HW234593   1.289   3.688  14.977  0.4620  0.3751 -0.3050
 7654SOL     OW34594   1.895   0.340   1.714  0.3517 -0.1604 -0.1213
 7654SOL    HW134595   1.982   0.307   1.691  0.7217  0.1567  0.8183
 7654SOL    HW234596   1.844   0.354   1.634 -1.6330  0.1095  1.1948
 7655SOL     OW34597   2.321   0.938   5.784  0.0643 -0.4224  0.5585
 7655SOL    HW134598   2.412   0.966   5.798 -0.7998  2.7194 -0.1400
 7655SOL    HW234599   2.307   0.878   5.857 -2.2192  0.5074  0.8918
 7656SOL     OW34600   0.467   1.510  10.187  0.0251  0.4120  0.4073
 7656SOL    HW134601   0.435   1.483  10.101 -1.3834  2.9105  0.1221
 7656SOL    HW234602   0.395   1.569  10.211 -0.2426  0.3986 -0.3582
 7657SOL     OW34603   2.130   0.316   6.584 -0.6850  0.1266 -0.1427
 7657SOL    HW134604   2.107   0.390   6.527 -2.1004  1.3844  2.0871
 7657SOL    HW234605   2.219   0.291   6.559  0.1884  1.3059  1.8110
 7658SOL     OW34606   0.277   2.437   6.087 -0.2300 -0.1647 -0.4108
 7658SOL    HW134607   0.217   2.491   6.036  0.0022 -0.4546 -0.9813
 7658SOL    HW234608   0.250   2.445   6.179 -1.2036  1.8742 -0.8800
 7659SOL     OW34609   2.960   0.112   2.413  0.3319  0.1041  0.1743
 7659SOL    HW134610   2.921   0.040   2.363  0.1594 -0.1760  0.7018
 7659SOL    HW234611   2.930   0.187   2.362  1.1507 -0.0290 -0.4957
 7660SOL     OW34612   0.151   3.033   6.954  0.0092  0.6060 -0.1774
 7660SOL    HW134613   0.062   3.050   6.985  0.1619  0.7398  0.1970
 7660SOL    HW234614   0.196   3.078   7.026 -1.8126  1.9916  0.0807
 7661SOL     OW34615   0.284   1.240  17.678 -0.4933 -0.2711  0.1836
 7661SOL    HW134616   0.305   1.236   0.011  1.8129  0.6228 -0.2812
 7661SOL    HW234617   0.241   1.156  17.668 -2.4709  0.8306 -0.5372
 7662SOL     OW34618   1.235   1.632   4.580 -0.1907  0.3135 -0.5498
 7662SOL    HW134619   1.155   1.679   4.604 -2.4135 -2.8173 -1.8060
 7662SOL    HW234620   1.203   1.556   4.531 -0.5357  0.7916 -1.0708
 7663SOL     OW34621   4.547   3.240  10.756  0.3398 -0.4172 -0.1174
 7663SOL    HW134622   4.568   3.183  10.830 -1.5306 -0.6321  0.2449
 7663SOL    HW234623   4.500   3.312  10.798  1.1378 -0.2315  0.4753
 7664SOL     OW34624   3.710   1.868   7.559 -0.2858  0.0974  0.2820
 7664SOL    HW134625   3.643   1.845   7.494 -0.8810  0.4346  0.7730
 7664SOL    HW234626   3.661   1.834   7.634 -1.1616  1.9737  0.5658
 7665SOL     OW34627   4.625   1.985  11.578 -0.6230 -0.0627 -0.3389
 7665SOL    HW134628   4.710   1.945  11.598 -0.7003  0.4047  0.9000
 7665SOL    HW234629   4.650   2.071  11.612  1.0364 -1.3841  1.8233
 7666SOL     OW34630   2.920   4.112   3.791 -0.2345 -0.4414  0.1536
 7666SOL    HW134631   2.841   4.067   3.759 -0.9596  0.4572  0.6727
 7666SOL    HW234632   2.947   4.150   3.707 -1.3409  0.8605  0.3792
 7667SOL     OW34633   2.446   2.189   2.020 -0.6586 -0.6396  0.1690
 7667SOL    HW134634   2.536   2.163   2.041 -0.0660  0.3652 -1.1768
 7667SOL    HW234635   2.445   2.206   1.926  1.9569 -0.4695  0.1612
 7668SOL     OW34636   2.913   1.503   2.924 -0.0335 -0.2039  0.3591
 7668SOL    HW134637   2.861   1.567   2.973 -1.6511 -1.4906  0.3208
 7668SOL    HW234638   2.984   1.562   2.899 -2.0375  1.6182 -0.9538
 7669SOL     OW34639   0.095   0.903   3.231 -0.3396 -0.1783 -0.0588
 7669SOL    HW134640   0.180   0.860   3.228  0.7576  2.0695 -0.8087
 7669SOL    HW234641   0.127   0.989   3.258 -1.4471  0.4406 -0.6995
 7670SOL     OW34642   0.516   0.422  10.363  0.3614 -0.7938 -0.0211
 7670SOL    HW134643   0.537   0.406  10.455 -1.2105 -3.8185 -0.1738
 7670SOL    HW234644   0.512   0.517  10.371  0.9848 -0.7468 -0.2368
 7671SOL     OW34645   0.757   0.243   3.392  0.6892 -0.5399 -0.5437
 7671SOL    HW134646   0.764   0.172   3.455 -1.0388  0.8240  1.1943
 7671SOL    HW234647   0.851   0.260   3.383 -0.1089  3.5466 -1.3759
 7672SOL     OW34648   4.330   3.375   4.357 -0.0634  0.5609 -0.0676
 7672SOL    HW134649   4.332   3.463   4.321 -0.5951  0.1769 -1.0366
 7672SOL    HW234650   4.421   3.351   4.342 -0.1543 -0.4648  1.0255
 7673SOL     OW34651   2.219   3.265   5.053  0.3098 -0.3992 -0.1052
 7673SOL    HW134652   2.224   3.169   5.056  1.0463 -0.3288  0.9545
 7673SOL    HW234653   2.224   3.280   4.959 -0.1890 -2.7715 -0.5175
 7674SOL     OW34654   3.160   3.771   7.510  0.1547 -0.0254 -0.0066
 7674SOL    HW134655   3.246   3.811   7.508  0.1568 -0.0231  0.1264
 7674SOL    HW234656   3.140   3.771   7.417  2.4197  1.2266 -0.4831
 7675SOL     OW34657   1.097   4.190   4.790 -0.6602 -0.0584  0.4007
 7675SOL    HW134658   1.088   4.280   4.822 -2.2712 -0.2516  0.4931
 7675SOL    HW234659   1.043   4.139   4.851 -0.0129  0.1338  1.1327
 7676SOL     OW34660   1.987   3.933   6.257 -0.3189 -0.4240  0.6482
 7676SOL    HW134661   1.970   4.027   6.260 -0.7844 -0.4733 -0.4176
 7676SOL    HW234662   1.953   3.903   6.342  1.8788  0.0555  1.7017
 7677SOL     OW34663   0.904   4.490   4.302 -0.6841  0.0959  0.0852
 7677SOL    HW134664   0.844   4.454   4.236  0.4092  1.5963 -1.7192
 7677SOL    HW234665   0.861   4.444   4.374  0.2981  0.1272  0.6841
 7678SOL     OW34666   3.533   2.424  17.484 -0.4621 -0.5391 -0.0577
 7678SOL    HW134667   3.451   2.433  17.533  0.0506 -1.2416  0.9360
 7678SOL    HW234668   3.540   2.510  17.443 -1.1015 -0.4504  0.0143
 7679SOL     OW34669   0.958   2.498   6.337 -0.0492 -0.1800  0.1391
 7679SOL    HW134670   0.879   2.455   6.371  0.8539 -2.0474 -0.1226
 7679SOL    HW234671   0.926   2.560   6.271 -0.0913 -0.5350 -0.1723
 7680SOL     OW34672   2.768   2.889   7.824 -0.2032 -0.0885  0.0213
 7680SOL    HW134673   2.740   2.898   7.733 -2.6709  2.4431  1.0386
 7680SOL    HW234674   2.682   2.914   7.858  0.0072 -1.6489  1.6843
 7681SOL     OW34675   3.665   0.619   3.665 -0.1504  0.8662  0.5361
 7681SOL    HW134676   3.719   0.689   3.703  0.1919  0.2234  1.2238
 7681SOL    HW234677   3.633   0.677   3.596  0.6737  2.5623  1.5835
 7682SOL     OW34678   0.620   2.727   5.690  0.3936  0.3089  0.4231
 7682SOL    HW134679   0.678   2.675   5.635  0.7272  2.5423 -1.3212
 7682SOL    HW234680   0.638   2.694   5.778 -2.3138  0.3609  1.0108
 7683SOL     OW34681   3.933   0.798   5.446 -0.3698  0.4871 -0.5043
 7683SOL    HW134682   3.839   0.786   5.457 -0.1219 -0.8004  0.2008
 7683SOL    HW234683   3.954   0.717   5.493  1.0865  1.0445 -0.1620
 7684SOL     OW34684   1.219   4.207   7.914 -0.3170  0.5597  0.1847
 7684SOL    HW134685   1.293   4.167   7.959  0.3157  0.7810 -0.6646
 7684SOL    HW234686   1.153   4.204   7.983  0.5736  1.3747  1.0575
 7685SOL     OW34687   3.006   0.741   9.176  0.1896 -0.1423  0.3421
 7685SOL    HW134688   3.018   0.654   9.137 -1.0212  0.4660 -1.3831
 7685SOL    HW234689   2.925   0.779   9.143 -0.8254 -1.5560  1.1959
 7686SOL     OW34690   1.970   3.100   3.198 -0.1414 -0.0248 -0.2276
 7686SOL    HW134691   1.881   3.133   3.187  0.1750  0.9180 -0.0031
 7686SOL    HW234692   1.987   3.145   3.281 -1.2343 -0.7679  0.4038
 7687SOL     OW34693   4.279   4.017   8.801  0.2210 -0.2356 -0.5082
 7687SOL    HW134694   4.282   3.938   8.854  0.8083  1.6060  2.1842
 7687SOL    HW234695   4.191   4.054   8.809 -1.1553 -2.3083 -5.6149
 7688SOL     OW34696   1.535   2.663   4.537 -0.2850  0.0698 -0.0307
 7688SOL    HW134697   1.516   2.630   4.625 -1.2507  1.4955  0.2991
 7688SOL    HW234698   1.448   2.656   4.498 -0.7321 -0.5990  1.0818
 7689SOL     OW34699   1.881   3.713  16.225 -0.4431  0.5695 -0.0129
 7689SOL    HW134700   1.969   3.751  16.225 -0.9714  1.8373 -2.1176
 7689SOL    HW234701   1.878   3.660  16.304 -0.1801  1.9797  0.9419
 7690SOL     OW34702   3.119   4.160   4.902  0.0087 -0.8768  0.3978
 7690SOL    HW134703   3.116   4.065   4.914  4.0414 -0.8538  1.5366
 7690SOL    HW234704   3.059   4.185   4.972  0.0572 -0.4838  0.2961
 7691SOL     OW34705   1.462   0.987   5.797 -0.1851  0.5921 -0.1076
 7691SOL    HW134706   1.493   0.977   5.707  0.3296  2.7005 -0.1643
 7691SOL    HW234707   1.472   0.898   5.829 -1.5570  0.4558 -0.0436
 7692SOL     OW34708   3.850   2.753   5.389  0.2708 -0.1088 -0.5568
 7692SOL    HW134709   3.852   2.673   5.337  0.5903 -0.6925  0.3372
 7692SOL    HW234710   3.944   2.768   5.388  0.0199  1.5619  0.8204
 7693SOL     OW34711   0.879   3.903   2.975 -0.0345 -0.0736 -0.0091
 7693SOL    HW134712   0.955   3.954   2.999  0.8794 -0.6241 -1.7038
 7693SOL    HW234713   0.917   3.824   2.935 -0.7971 -0.0908 -0.7174
 7694SOL     OW34714   3.468   0.731   8.394 -0.4779 -0.0974  0.2861
 7694SOL    HW134715   3.413   0.654   8.382 -0.7820  0.0748  0.5788
 7694SOL    HW234716   3.414   0.784   8.452  0.0291  1.1915 -0.4142
 7695SOL     OW34717   3.453   2.499   5.865 -0.2230 -0.1931  0.0482
 7695SOL    HW134718   3.503   2.431   5.819 -1.8213  0.0240 -2.0421
 7695SOL    HW234719   3.510   2.534   5.932 -0.3944 -0.3364  0.2696
 7696SOL     OW34720   2.092   0.306   2.513  0.2287 -0.4109 -0.3818
 7696SOL    HW134721   2.102   0.393   2.474  0.1359 -0.5207 -0.6492
 7696SOL    HW234722   2.185   0.287   2.523  0.4795 -0.6065 -2.8821
 7697SOL     OW34723   1.410   3.257  14.877  0.0923  0.1525 -0.1740
 7697SOL    HW134724   1.425   3.166  14.906  2.3973  0.8685  0.8692
 7697SOL    HW234725   1.316   3.269  14.884  0.0935  0.6297 -1.0118
 7698SOL     OW34726   4.603   1.811   7.136 -0.2233  1.2494 -0.1020
 7698SOL    HW134727   4.658   1.759   7.194 -2.1206  0.2005  0.7751
 7698SOL    HW234728   4.631   1.901   7.154  1.5496  0.2689  2.0017
 7699SOL     OW34729   0.334   1.518   3.611 -0.2850  0.0049  0.4510
 7699SOL    HW134730   0.260   1.500   3.668 -1.2070 -1.1990 -1.1109
 7699SOL    HW234731   0.400   1.464   3.656  0.7101  0.5061 -0.4027
 7700SOL     OW34732   2.973   4.619   9.224 -0.5617  0.1087  0.3458
 7700SOL    HW134733   3.014   4.533   9.220 -0.4853  0.1831 -0.6175
 7700SOL    HW234734   2.888   4.588   9.194  0.2680 -0.4976 -1.4118
 7701SOL     OW34735   2.630   2.829  12.360  0.4166 -0.2422 -0.0813
 7701SOL    HW134736   2.722   2.809  12.343 -0.0435 -1.1787 -1.5094
 7701SOL    HW234737   2.611   2.768  12.430 -2.0192 -0.8756 -1.2987
 7702SOL     OW34738   1.214   4.257   2.821  0.2302 -0.3022 -0.3861
 7702SOL    HW134739   1.179   4.342   2.796 -0.2047 -0.0420  1.1108
 7702SOL    HW234740   1.309   4.266   2.809 -0.0683  1.9199 -1.0131
 7703SOL     OW34741   4.404   1.352   8.903  0.3579  0.4128 -0.0646
 7703SOL    HW134742   4.489   1.338   8.860  2.1431  1.3800  3.1657
 7703SOL    HW234743   4.347   1.285   8.867  0.3088  0.4464 -0.0501
 7704SOL     OW34744   0.815   4.264   5.640  0.3495  0.0496  0.2508
 7704SOL    HW134745   0.852   4.268   5.729 -1.2480 -1.3290  0.9790
 7704SOL    HW234746   0.888   4.287   5.583 -0.0654 -0.5883 -0.5378
 7705SOL     OW34747   1.532   0.354   5.836  0.3191  0.1657  0.0496
 7705SOL    HW134748   1.570   0.427   5.787  0.2157 -0.2092 -0.5838
 7705SOL    HW234749   1.535   0.392   5.923 -1.0475 -1.4206  0.7986
 7706SOL     OW34750   2.063   2.078  15.239 -0.2975 -0.1965 -0.0396
 7706SOL    HW134751   2.003   2.143  15.204  0.3908  0.5857  0.2406
 7706SOL    HW234752   2.128   2.076  15.168 -0.2406 -1.5899  0.0450
 7707SOL     OW34753   4.656   1.055   1.187 -0.7540  0.4440  0.1444
 7707SOL    HW134754   4.685   1.069   1.277 -0.3327 -0.6679  0.1900
 7707SOL    HW234755   4.648   1.145   1.156 -2.2061 -0.3331 -1.6797
 7708SOL     OW34756   0.373   0.337  16.981  0.5645  0.1494  0.3445
 7708SOL    HW134757   0.354   0.250  17.018 -0.6282  0.6970  0.9971
 7708SOL    HW234758   0.291   0.383  17.000  0.6769  0.4121  0.1873
 7709SOL     OW34759   4.631   1.445   7.430 -0.3687 -0.0147  0.0815
 7709SOL    HW134760   4.691   1.400   7.489 -1.0622 -0.8710  0.1422
 7709SOL    HW234761   4.550   1.400   7.454  0.2060  0.0791  2.1819
 7710SOL     OW34762   2.659   2.839   1.573  0.2434  0.0351 -0.1351
 7710SOL    HW134763   2.652   2.920   1.522  0.6963  0.4845  0.5184
 7710SOL    HW234764   2.573   2.803   1.551 -0.7273  1.7065  0.9285
 7711SOL     OW34765   4.417   3.224  11.793 -0.0576 -0.2396 -0.1952
 7711SOL    HW134766   4.512   3.225  11.802 -0.1596  1.1541  0.6579
 7711SOL    HW234767   4.395   3.307  11.836  0.3807 -0.1338 -0.1698
 7712SOL     OW34768   2.556   4.426   6.073 -0.7211  0.2166  0.2894
 7712SOL    HW134769   2.633   4.475   6.047 -2.0433  1.4421 -1.3392
 7712SOL    HW234770   2.516   4.471   6.148  1.3813 -0.0268  1.5378
 7713SOL     OW34771   4.524   1.941   3.470 -0.1351  0.0356 -0.5773
 7713SOL    HW134772   4.507   2.019   3.417  1.3138 -0.2185 -1.4170
 7713SOL    HW234773   4.469   1.967   3.544 -1.4593  1.9516 -2.2424
 7714SOL     OW34774   3.923   4.589  15.491 -0.3058 -0.0645  0.2146
 7714SOL    HW134775   3.997   4.528  15.480  0.2806  1.2018 -3.0915
 7714SOL    HW234776   3.965   4.675  15.484 -1.6108  0.3495 -2.6652
 7715SOL     OW34777   3.721   4.284   6.673 -0.5464 -0.0049  0.1377
 7715SOL    HW134778   3.674   4.315   6.596  1.3278  2.8274  0.1172
 7715SOL    HW234779   3.721   4.357   6.736  0.6723 -0.9761  1.2757
 7716SOL     OW34780   0.683   3.634   6.321 -0.6387  0.2174 -0.2492
 7716SOL    HW134781   0.599   3.678   6.306 -1.0756 -0.0086  1.5652
 7716SOL    HW234782   0.666   3.541   6.312 -0.3903  0.0059  1.5221
 7717SOL     OW34783   2.628   0.656   8.837 -0.3620  0.1186  0.1519
 7717SOL    HW134784   2.632   0.608   8.919  1.6686 -0.4557 -0.2704
 7717SOL    HW234785   2.682   0.597   8.785 -1.3033 -2.9760  2.7240
 7718SOL     OW34786   3.701   2.043   1.100 -0.6000  0.2143  0.2428
 7718SOL    HW134787   3.752   1.964   1.085  0.6776  0.8719  1.1268
 7718SOL    HW234788   3.639   1.999   1.158  0.0857  0.7364  1.3847
 7719SOL     OW34789   4.626   2.719   8.620 -0.1305 -0.1249 -0.6110
 7719SOL    HW134790   4.603   2.628   8.636 -2.2725  0.4543 -0.3287
 7719SOL    HW234791   4.636   2.746   8.712 -0.6537 -1.3212 -0.2081
 7720SOL     OW34792   0.604   0.989   9.808  0.4370  0.4890  0.3149
 7720SOL    HW134793   0.679   0.946   9.766  1.9860  3.6258 -0.1451
 7720SOL    HW234794   0.575   0.912   9.856 -0.5743  0.5236 -0.2597
 7721SOL     OW34795   1.046   0.909  13.266  0.4740 -0.1024  0.0725
 7721SOL    HW134796   1.016   0.827  13.226  1.0152 -0.8735  1.2354
 7721SOL    HW234797   1.080   0.948  13.186  1.3708  0.2977  0.6469
 7722SOL     OW34798   4.558   2.046   5.227  0.3183  0.0029  0.0194
 7722SOL    HW134799   4.614   1.978   5.264 -1.6634 -1.6779 -0.0999
 7722SOL    HW234800   4.536   2.102   5.302  2.5232  2.6523 -1.3092
 7723SOL     OW34801   3.137   2.961   9.634 -0.8067 -0.2048  0.6761
 7723SOL    HW134802   3.061   3.020   9.635 -1.0662 -0.5613  2.1668
 7723SOL    HW234803   3.157   2.981   9.542  0.5222 -0.1907  0.9810
 7724SOL     OW34804   3.068   0.858   7.366 -0.1712  0.5435  0.0589
 7724SOL    HW134805   3.005   0.835   7.297 -1.0959 -0.0689  1.0970
 7724SOL    HW234806   3.116   0.929   7.324  0.7055  0.2684  0.5914
 7725SOL     OW34807   0.995   1.903   0.510  0.3360  0.0489  0.1830
 7725SOL    HW134808   0.976   1.861   0.594  0.9269 -2.5186 -0.9420
 7725SOL    HW234809   0.920   1.867   0.463  0.4719 -2.2020  1.6523
 7726SOL     OW34810   2.665   2.260   7.071  0.5188 -1.1611  0.1197
 7726SOL    HW134811   2.586   2.206   7.072 -1.2211  1.3543  0.5340
 7726SOL    HW234812   2.730   2.207   7.026 -0.0895 -2.6522  0.9812
 7727SOL     OW34813   3.350   2.095   2.905 -0.4121  0.2209 -0.5427
 7727SOL    HW134814   3.406   2.126   2.834  2.1864  0.3762  1.5715
 7727SOL    HW234815   3.269   2.142   2.883 -0.3980 -0.0238 -1.1249
 7728SOL     OW34816   4.622   0.446   6.432  0.4194  0.0563 -0.4216
 7728SOL    HW134817   4.656   0.528   6.468 -0.1649  0.1307 -0.0567
 7728SOL    HW234818   4.599   0.476   6.344  0.6189  0.9204 -0.1877
 7729SOL     OW34819   1.930   4.050   2.758  0.5002  0.0468  0.1981
 7729SOL    HW134820   1.943   3.973   2.703 -1.2281 -0.8855  1.1037
 7729SOL    HW234821   2.018   4.088   2.761  0.3174  0.4741  0.1081
 7730SOL     OW34822   2.163   1.552  17.668 -0.5323  0.2916 -0.0369
 7730SOL    HW134823   2.127   1.570  17.755 -1.4568 -0.1702 -0.3224
 7730SOL    HW234824   2.120   1.619  17.614 -1.3350 -0.9570 -0.9262
 7731SOL     OW34825   0.171   2.456   3.519 -0.3006  0.4730  0.4267
 7731SOL    HW134826   0.160   2.494   3.606 -1.0032 -0.8160  0.9024
 7731SOL    HW234827   0.266   2.461   3.526 -0.2910  1.2057 -0.3036
 7732SOL     OW34828   1.443   0.843  13.311 -0.2615 -0.0925 -0.1090
 7732SOL    HW134829   1.503   0.860  13.384 -1.2254  1.2350  0.3806
 7732SOL    HW234830   1.500   0.795  13.251 -1.4369 -1.5146 -0.0839
 7733SOL     OW34831   3.892   3.109   2.209  0.2640  0.0748 -0.0467
 7733SOL    HW134832   3.807   3.111   2.254  0.6838 -1.4976  0.8249
 7733SOL    HW234833   3.924   3.021   2.231  0.9244  0.3419  0.0586
 7734SOL     OW34834   0.417   0.021   7.501  0.2191 -0.3084 -0.0765
 7734SOL    HW134835   0.492   4.712   7.534 -0.2160 -1.3713 -0.6876
 7734SOL    HW234836   0.451   0.043   7.414 -1.4277 -0.3219 -0.7181
 7735SOL     OW34837   0.587   2.868   6.745  0.3364  0.6001 -0.0716
 7735SOL    HW134838   0.633   2.808   6.804 -0.1357 -1.2109 -1.5311
 7735SOL    HW234839   0.502   2.879   6.787  1.6761 -1.2401  3.1352
 7736SOL     OW34840   3.607   2.538   2.979  0.3322 -0.5303 -0.2830
 7736SOL    HW134841   3.660   2.553   2.900  0.7312 -1.1303 -0.1266
 7736SOL    HW234842   3.609   2.443   2.984 -0.3657 -0.6284 -1.7043
 7737SOL     OW34843   3.784   2.093   4.236 -0.3899 -0.0008  0.2214
 7737SOL    HW134844   3.851   2.076   4.170 -3.2816 -2.6496 -2.0555
 7737SOL    HW234845   3.717   2.035   4.200 -1.2318  1.9633 -1.3174
 7738SOL     OW34846   1.838   3.195  17.666 -0.2015 -0.3477  1.0816
 7738SOL    HW134847   1.804   3.108  17.643  1.3180 -0.4883 -0.6315
 7738SOL    HW234848   1.820   3.246  17.587  1.7255  2.3520  2.3573
 7739SOL     OW34849   0.382   2.151   6.657  0.3303  0.5152  0.1991
 7739SOL    HW134850   0.335   2.164   6.575 -1.1555 -0.8238  0.8279
 7739SOL    HW234851   0.457   2.099   6.629  2.1813  3.1334  0.3328
 7740SOL     OW34852   0.955   1.503   7.901  0.7788 -0.4174  0.4702
 7740SOL    HW134853   1.015   1.491   7.974  2.3065  0.7014 -0.6117
 7740SOL    HW234854   1.006   1.541   7.830  1.0505 -0.6128  0.5603
 7741SOL     OW34855   1.281   0.499  14.374  0.3143  0.2292 -0.0629
 7741SOL    HW134856   1.294   0.576  14.320 -1.4351 -0.8341 -1.9924
 7741SOL    HW234857   1.192   0.510  14.409  0.0028  0.9338 -1.0835
 7742SOL     OW34858   1.401   1.091   6.162  0.0925 -0.0042  0.7301
 7742SOL    HW134859   1.453   1.116   6.086 -0.7043 -1.2985 -0.2437
 7742SOL    HW234860   1.372   1.173   6.202 -0.3875  0.8603 -1.3809
 7743SOL     OW34861   2.567   0.242   0.702 -0.4159  0.1459 -0.3556
 7743SOL    HW134862   2.557   0.172   0.637 -0.7716 -0.8684  0.8109
 7743SOL    HW234863   2.535   0.209   0.785 -0.4390  0.2207 -0.3349
 7744SOL     OW34864   3.859   3.262   6.480  0.6723  0.2638  0.4374
 7744SOL    HW134865   3.902   3.195   6.534 -0.0829  0.8974  1.8453
 7744SOL    HW234866   3.779   3.218   6.452 -0.3624  2.3712  0.1141
 7745SOL     OW34867   4.474   4.690   4.532 -0.6314 -0.2538 -0.2154
 7745SOL    HW134868   4.504   4.612   4.485 -1.2009 -0.4157 -0.3098
 7745SOL    HW234869   4.458   0.013   4.462  1.1556  1.6746  1.1499
 7746SOL     OW34870   2.689   4.549   1.447  0.3423 -0.3806  0.5092
 7746SOL    HW134871   2.710   4.631   1.403 -1.4513 -0.8607 -1.2621
 7746SOL    HW234872   2.684   4.488   1.373 -2.2953 -0.2526  0.5945
 7747SOL     OW34873   0.240   0.479   1.371 -0.3978 -0.4323 -0.7236
 7747SOL    HW134874   0.148   0.460   1.351 -0.9909 -0.1548  1.6467
 7747SOL    HW234875   0.241   0.574   1.362 -0.0291 -0.3360  0.2773
 7748SOL     OW34876   2.319   1.403   5.286 -0.0356 -0.4097 -0.0378
 7748SOL    HW134877   2.258   1.414   5.359  0.6139 -1.3393  0.6475
 7748SOL    HW234878   2.278   1.446   5.210 -1.2166  0.7977  1.2664
 7749SOL     OW34879   4.600   0.874   9.923 -0.1450 -0.7397  0.2913
 7749SOL    HW134880   4.628   0.895  10.012 -0.0123  1.0276 -0.1723
 7749SOL    HW234881   4.683   0.869   9.875 -0.8427  0.6865 -1.0764
 7750SOL     OW34882   0.436   3.943   3.924 -0.4911  0.2819  0.1817
 7750SOL    HW134883   0.403   3.866   3.879  3.2641 -0.2542 -1.6178
 7750SOL    HW234884   0.444   4.010   3.856  1.9360 -0.5100 -0.2951
 7751SOL     OW34885   2.140   0.172   5.425  0.0119  0.3416 -0.5575
 7751SOL    HW134886   2.108   0.156   5.336  0.6650 -0.0963 -0.7140
 7751SOL    HW234887   2.168   0.081   5.439  1.1257  1.0582  1.7303
 7752SOL     OW34888   2.845   3.018   6.599 -0.3687 -0.2982 -0.0868
 7752SOL    HW134889   2.934   2.982   6.593 -0.9758 -2.1505  1.9446
 7752SOL    HW234890   2.855   3.111   6.618  0.3879 -0.4342  0.1732
 7753SOL     OW34891   2.443   1.875   1.736 -0.2018 -0.6620 -0.8404
 7753SOL    HW134892   2.391   1.954   1.754 -0.3133 -0.5124 -1.8127
 7753SOL    HW234893   2.364   1.821   1.736  0.8775 -2.2484 -2.6506
 7754SOL     OW34894   1.123   3.685   3.107  0.0679 -0.5461  0.1675
 7754SOL    HW134895   1.086   3.709   3.192 -1.4618 -0.4844 -0.5109
 7754SOL    HW234896   1.121   3.773   3.068  0.9327 -0.5204  0.1709
 7755SOL     OW34897   0.292   4.386   2.404 -0.3724  0.4737 -0.4668
 7755SOL    HW134898   0.363   4.345   2.453 -0.4286  1.3091  0.3071
 7755SOL    HW234899   0.321   4.477   2.400 -1.4186  0.8217 -0.1579
 7756SOL     OW34900   2.712   2.328   2.256 -0.2205  0.0541  0.5665
 7756SOL    HW134901   2.707   2.406   2.201 -0.8625 -0.5368 -0.2273
 7756SOL    HW234902   2.745   2.258   2.199 -0.9138 -1.2966  1.8013
 7757SOL     OW34903   4.118   2.654   6.437 -0.0930  0.3411 -0.2301
 7757SOL    HW134904   4.166   2.664   6.354  2.1037 -0.4898  0.9311
 7757SOL    HW234905   4.175   2.697   6.501 -1.4625  1.2055  0.3985
 7758SOL     OW34906   1.760   4.450   1.763  0.4199  0.2520 -0.2688
 7758SOL    HW134907   1.777   4.544   1.771 -1.3687  0.7191 -2.0912
 7758SOL    HW234908   1.845   4.429   1.723 -0.1693 -1.2065 -0.7376
 7759SOL     OW34909   4.493   0.833   7.446 -0.6151  0.5766  1.2048
 7759SOL    HW134910   4.449   0.810   7.528  0.4969  0.3550  1.7440
 7759SOL    HW234911   4.431   0.903   7.426  0.4166  0.7165 -1.5086
 7760SOL     OW34912   2.529   1.619   5.074 -0.4193  0.5318  0.6421
 7760SOL    HW134913   2.524   1.665   4.990  0.4457 -0.4603  0.0508
 7760SOL    HW234914   2.447   1.571   5.070  0.9016 -1.8130  1.7974
 7761SOL     OW34915   0.816   3.844   6.414 -0.4965 -0.4425  0.1843
 7761SOL    HW134916   0.755   3.884   6.475 -0.2910  2.3624 -1.4787
 7761SOL    HW234917   0.774   3.760   6.397  0.4860 -0.7693 -0.6424
 7762SOL     OW34918   4.238   3.788  11.451  0.1110 -0.4816 -0.7221
 7762SOL    HW134919   4.315   3.844  11.461 -0.2629  0.1290 -1.2496
 7762SOL    HW234920   4.276   3.726  11.389 -1.3880 -1.7433 -0.3657
 7763SOL     OW34921   1.709   3.503   2.432  0.0147 -0.6538  0.0686
 7763SOL    HW134922   1.632   3.492   2.375  0.1275 -0.5545 -0.1050
 7763SOL    HW234923   1.765   3.557   2.376 -0.5577 -0.8825 -0.7323
 7764SOL     OW34924   0.226   4.666   5.905 -0.1697  0.5175  0.3109
 7764SOL    HW134925   0.192   4.712   5.828 -0.5800  1.2903  0.9531
 7764SOL    HW234926   0.250   4.578   5.877  1.1483  0.8466  0.3969
 7765SOL     OW34927   3.961   2.010   4.042 -0.2654 -0.1101  0.7674
 7765SOL    HW134928   3.918   1.962   3.970 -1.1817  1.7775  0.0573
 7765SOL    HW234929   4.032   2.055   3.996  0.9818 -0.5436  2.2843
 7766SOL     OW34930   1.757   0.221  11.664 -0.1059 -0.2656  0.3842
 7766SOL    HW134931   1.769   0.316  11.673  1.7366 -0.5319  0.7889
 7766SOL    HW234932   1.782   0.216  11.571  3.4291 -2.7955  1.4630
 7767SOL     OW34933   1.421   2.581   0.316  0.2585  0.3040 -0.2682
 7767SOL    HW134934   1.382   2.514   0.370  1.9106 -1.0026 -0.6982
 7767SOL    HW234935   1.435   2.653   0.377  0.2873 -0.7160  0.9194
 7768SOL     OW34936   3.353   1.538   5.859  0.1721 -0.8277 -0.0285
 7768SOL    HW134937   3.315   1.515   5.775 -0.2130 -4.0444  1.0404
 7768SOL    HW234938   3.446   1.522   5.840 -0.1852 -4.3199  1.2249
 7769SOL     OW34939   3.557   1.612  12.492 -0.3067 -0.2555  0.6341
 7769SOL    HW134940   3.503   1.657  12.557 -2.1062  0.1243 -1.1346
 7769SOL    HW234941   3.645   1.632  12.525  1.7636 -3.0527 -3.2294
 7770SOL     OW34942   0.946   1.910   3.097  0.0349  0.4151 -0.1154
 7770SOL    HW134943   0.904   1.990   3.063  0.0567 -0.1801 -1.5460
 7770SOL    HW234944   0.931   1.933   3.189  2.3208 -0.3823  0.4537
 7771SOL     OW34945   3.305   3.763  12.028 -0.1091 -0.2235  0.0300
 7771SOL    HW134946   3.264   3.695  11.975  1.0511 -0.1227 -0.9994
 7771SOL    HW234947   3.323   3.704  12.102 -0.7568 -1.4442 -0.7784
 7772SOL     OW34948   4.097   3.281   7.865 -0.4177 -0.0144  0.2907
 7772SOL    HW134949   4.035   3.262   7.936  0.1861 -0.8740  0.5801
 7772SOL    HW234950   4.142   3.197   7.859  0.6987  0.6501 -0.6309
 7773SOL     OW34951   2.785   2.170   6.540  1.1735  0.1121  0.1436
 7773SOL    HW134952   2.780   2.163   6.445  1.0822 -1.2752  0.2500
 7773SOL    HW234953   2.846   2.244   6.542 -1.0744  1.9837 -0.3942
 7774SOL     OW34954   3.992   3.630   2.603  0.3518  0.4986  0.7925
 7774SOL    HW134955   3.905   3.644   2.565 -0.9603 -2.6613  2.6429
 7774SOL    HW234956   3.963   3.567   2.668  0.0374  1.4966  1.6242
 7775SOL     OW34957   3.274   3.588   9.173  0.5416  0.2547 -0.2125
 7775SOL    HW134958   3.333   3.520   9.206 -1.2311 -0.5534  1.3387
 7775SOL    HW234959   3.191   3.542   9.190  1.3171 -0.3798  1.8467
 7776SOL     OW34960   0.006   4.093  15.654  0.3316 -0.1858 -0.1336
 7776SOL    HW134961   4.737   4.062  15.564  0.7351  0.2055 -0.3124
 7776SOL    HW234962   4.737   4.188  15.645  0.9470 -0.1623 -0.5064
 7777SOL     OW34963   1.958   1.200  13.907  0.4624 -0.1438  0.0000
 7777SOL    HW134964   1.874   1.236  13.878  0.1323  0.4676  1.6577
 7777SOL    HW234965   1.990   1.175  13.821 -1.1901  2.1176 -1.2634
 7778SOL     OW34966   4.305   1.172  10.999  0.2909 -0.0580  0.1617
 7778SOL    HW134967   4.237   1.129  11.051  1.4840 -3.8107 -1.4440
 7778SOL    HW234968   4.285   1.128  10.917  1.5959  0.3461 -0.3673
 7779SOL     OW34969   1.126   3.833  14.739 -0.6318  0.6118 -0.2072
 7779SOL    HW134970   1.052   3.801  14.791  0.3485  0.0978  0.8874
 7779SOL    HW234971   1.123   3.786  14.655  2.1806 -1.0536  0.6014
 7780SOL     OW34972   4.488   3.606   7.429 -0.0611  0.2946  0.6080
 7780SOL    HW134973   4.434   3.616   7.508 -0.1465  1.0702  0.4536
 7780SOL    HW234974   4.424   3.639   7.365  0.7838  1.0196  0.1329
 7781SOL     OW34975   3.487   4.266   6.176 -0.4119  0.2274  0.1203
 7781SOL    HW134976   3.514   4.298   6.262 -0.2519  2.9210 -0.9490
 7781SOL    HW234977   3.537   4.332   6.128  1.7616 -1.6854 -0.2625
 7782SOL     OW34978   1.346   2.081   5.244  0.0816  0.0572  0.0256
 7782SOL    HW134979   1.315   2.045   5.161 -0.2320  0.1964  0.0809
 7782SOL    HW234980   1.316   2.172   5.244  0.0092  0.0374  0.9112
 7783SOL     OW34981   3.737   4.513   8.204  0.3265 -0.5076  0.4663
 7783SOL    HW134982   3.658   4.567   8.208  0.1130 -0.7414 -0.5146
 7783SOL    HW234983   3.805   4.562   8.250 -1.5169 -0.3819  3.0590
 7784SOL     OW34984   1.413   0.390  10.833 -0.5838  0.4396  0.0244
 7784SOL    HW134985   1.326   0.418  10.805 -1.7171 -0.7346  2.3271
 7784SOL    HW234986   1.430   0.466  10.889  0.1310  0.7964 -0.6812
 7785SOL     OW34987   1.331   0.924  12.934 -0.2387 -0.3348  0.5784
 7785SOL    HW134988   1.425   0.927  12.956 -0.2156  1.0167  0.2899
 7785SOL    HW234989   1.344   0.918  12.839 -1.2980 -0.0768  0.4245
 7786SOL     OW34990   1.034   4.731  12.535 -0.5798  0.1187 -0.3265
 7786SOL    HW134991   1.114   0.023  12.495  0.5277 -1.1809  0.7830
 7786SOL    HW234992   0.965   4.725  12.469 -0.9625  1.6667 -0.0605
 7787SOL     OW34993   2.252   0.100   8.329 -0.3411 -0.2063  0.0286
 7787SOL    HW134994   2.301   0.052   8.263  0.6359  1.2441 -0.2932
 7787SOL    HW234995   2.167   0.101   8.284  0.0927 -1.5133 -0.8189
 7788SOL     OW34996   1.732   2.844   0.153  0.8327  0.8338  0.4099
 7788SOL    HW134997   1.776   2.782   0.211  1.3338  0.2746 -0.5560
 7788SOL    HW234998   1.704   2.901   0.224 -0.7596 -0.8385  1.1043
 7789SOL     OW34999   1.331   0.671  11.455  0.3300 -0.1787  0.0776
 7789SOL    HW135000   1.394   0.691  11.524 -1.0130 -0.4036  1.3651
 7789SOL    HW235001   1.281   0.609  11.508 -0.1267  0.7132  0.6867
 7790SOL     OW35002   3.966   2.511   1.070 -0.0183 -0.3696  0.5728
 7790SOL    HW135003   4.006   2.474   1.149  2.8683  2.8884  0.6121
 7790SOL    HW235004   3.932   2.593   1.107 -1.6083 -0.8467  0.1867
 7791SOL     OW35005   3.390   2.974   8.091  0.6486  0.7252 -0.1544
 7791SOL    HW135006   3.335   3.049   8.068  1.0168  0.5536 -1.5772
 7791SOL    HW235007   3.329   2.924   8.147 -0.8413  2.0833 -0.5584
 7792SOL     OW35008   0.574   0.617  13.465  0.5203  0.0745  0.6966
 7792SOL    HW135009   0.628   0.691  13.437 -2.8469  1.9630 -0.8287
 7792SOL    HW235010   0.622   0.586  13.542  1.0342 -0.2149  0.2654
 7793SOL     OW35011   2.670   3.591   1.850  0.3062 -0.2661 -0.5946
 7793SOL    HW135012   2.593   3.639   1.881  1.9764 -0.1601  3.4765
 7793SOL    HW235013   2.728   3.599   1.926 -0.5177  1.6814 -0.1770
 7794SOL     OW35014   2.609   0.205   8.028  0.4343  0.4196 -0.0168
 7794SOL    HW135015   2.672   0.140   8.060  1.0765  0.8272 -0.4375
 7794SOL    HW235016   2.650   0.260   7.962 -0.1912 -0.1359 -0.8548
 7795SOL     OW35017   4.334   3.604   7.668 -0.1011  0.0353  0.4657
 7795SOL    HW135018   4.368   3.560   7.746 -1.0609 -1.3868  0.0809
 7795SOL    HW235019   4.293   3.683   7.703  1.3655  0.4705  1.1702
 7796SOL     OW35020   2.515   0.592   9.209  0.0507 -0.1008  0.4164
 7796SOL    HW135021   2.518   0.515   9.266 -1.5412 -0.2806  0.2694
 7796SOL    HW235022   2.583   0.564   9.148  0.5460  3.4573 -0.6447
 7797SOL     OW35023   0.171   1.446   3.844  0.1591  0.6444  1.0329
 7797SOL    HW135024   0.083   1.415   3.826 -0.5397  3.4187 -0.4011
 7797SOL    HW235025   0.187   1.377   3.908  0.0334 -0.8355 -0.5324
 7798SOL     OW35026   3.195   3.504   5.366 -0.1972  0.8812 -0.1020
 7798SOL    HW135027   3.191   3.597   5.340  0.7874  1.1080  0.5932
 7798SOL    HW235028   3.104   3.473   5.368 -1.2790  4.0591  0.3089
 7799SOL     OW35029   3.444   1.515   2.753  0.4657 -0.0220  0.4530
 7799SOL    HW135030   3.394   1.530   2.672  2.2122 -1.0097 -0.8005
 7799SOL    HW235031   3.487   1.435   2.722  0.2783 -0.1114  0.4217
 7800SOL     OW35032   2.734   0.797   9.323  0.6048  0.2271 -0.1360
 7800SOL    HW135033   2.772   0.812   9.236 -2.4357  0.5934 -1.3927
 7800SOL    HW235034   2.668   0.733   9.300  1.6487 -1.4425  1.5290
 7801SOL     OW35035   0.499   2.919   8.496 -0.2950 -0.1543 -0.0515
 7801SOL    HW135036   0.426   2.932   8.436 -1.1334  1.0070  1.2324
 7801SOL    HW235037   0.522   3.008   8.523 -0.7405  0.7530 -2.6425
 7802SOL     OW35038   4.375   2.826   4.549  0.1637 -0.7809  0.6373
 7802SOL    HW135039   4.337   2.902   4.504 -0.0933 -0.9038  0.6455
 7802SOL    HW235040   4.394   2.865   4.634  0.7115 -0.2671  0.2799
 7803SOL     OW35041   3.977   3.017   3.352  0.6431  0.1985  0.1163
 7803SOL    HW135042   3.990   2.984   3.263 -1.1620 -0.8333  0.2289
 7803SOL    HW235043   4.019   2.949   3.405  0.3382 -0.8184 -0.9215
 7804SOL     OW35044   1.305   3.109  12.541  0.5624 -0.2784  0.2919
 7804SOL    HW135045   1.275   3.044  12.478 -0.4959  0.4163  0.0824
 7804SOL    HW235046   1.226   3.157  12.567  1.9143  0.9237  2.2263
 7805SOL     OW35047   0.647   4.083   5.466 -0.1624 -0.1415  1.2233
 7805SOL    HW135048   0.652   4.010   5.527  1.2532  0.4718  1.8427
 7805SOL    HW235049   0.726   4.122   5.503 -0.0347 -0.6935  1.5263
 7806SOL     OW35050   3.995   1.959   1.223  0.0090  0.0263  0.5159
 7806SOL    HW135051   4.073   1.925   1.267  1.4118 -1.6570 -3.1907
 7806SOL    HW235052   4.036   2.023   1.164  1.6912 -0.0072  1.6519
 7807SOL     OW35053   1.020   2.778   5.437 -0.2573 -0.1014  0.0359
 7807SOL    HW135054   1.053   2.782   5.527 -1.1711  1.6063  0.2995
 7807SOL    HW235055   1.088   2.726   5.392 -0.0139  0.5070 -0.2955
 7808SOL     OW35056   1.647   1.068   1.860  0.0834  0.2551  0.8719
 7808SOL    HW135057   1.631   1.000   1.925  0.3886  0.6754  1.3894
 7808SOL    HW235058   1.593   1.141   1.892  0.3513  0.2290  1.3805
 7809SOL     OW35059   3.069   1.001   7.875 -0.2504 -0.6823 -0.1044
 7809SOL    HW135060   3.163   1.007   7.859 -0.0450  1.6919  1.9858
 7809SOL    HW235061   3.056   0.906   7.883 -2.6474 -0.4048 -0.6054
 7810SOL     OW35062   0.175   4.340  14.106  0.2507 -0.1950 -0.0803
 7810SOL    HW135063   0.113   4.410  14.124 -0.8338 -1.0496 -0.4690
 7810SOL    HW235064   0.138   4.263  14.150 -0.0435  0.6422  1.1440
 7811SOL     OW35065   3.165   2.660  11.300  0.1383  0.0356 -0.4378
 7811SOL    HW135066   3.246   2.638  11.255  0.4435  1.6556 -0.6892
 7811SOL    HW235067   3.190   2.740  11.348  0.8686  0.4628 -1.5425
 7812SOL     OW35068   1.629   2.097   7.827 -0.1752  0.0379  0.2499
 7812SOL    HW135069   1.655   2.010   7.859 -1.3818  0.3681  2.1545
 7812SOL    HW235070   1.690   2.161   7.864  0.6360  0.1444 -1.2963
 7813SOL     OW35071   4.524   3.371   6.444 -0.4609 -0.0569  0.8845
 7813SOL    HW135072   4.617   3.396   6.446 -0.5775  0.4187  0.4586
 7813SOL    HW235073   4.478   3.451   6.418 -1.0498 -0.6257  0.1731
 7814SOL     OW35074   3.316   4.706   7.818 -0.2860 -0.3112  0.4078
 7814SOL    HW135075   3.356   4.639   7.874 -2.5708 -0.0199  2.4270
 7814SOL    HW235076   3.225   4.710   7.848 -1.0815 -1.1517 -1.8979
 7815SOL     OW35077   3.892   4.718  12.599  0.0883 -0.4327 -0.1087
 7815SOL    HW135078   3.809   0.015  12.629  0.0951 -1.9084  1.7351
 7815SOL    HW235079   3.933   0.064  12.588  1.7602 -1.0328  1.3860
 7816SOL     OW35080   2.776   0.107  15.533  0.4159 -0.0193  0.1073
 7816SOL    HW135081   2.786   0.179  15.595  0.2242  0.2653 -0.1892
 7816SOL    HW235082   2.855   0.063  15.562 -0.5291 -0.9812  1.1917
 7817SOL     OW35083   2.645   3.971   7.762 -0.3030 -0.8381  0.0894
 7817SOL    HW135084   2.578   3.919   7.808 -3.3586  2.2293 -0.8526
 7817SOL    HW235085   2.680   3.895   7.715 -0.2475 -0.0838 -1.0827
 7818SOL     OW35086   3.838   1.429   8.028 -0.4093 -0.0839 -0.4642
 7818SOL    HW135087   3.752   1.429   7.986 -1.2380 -0.4355  1.2224
 7818SOL    HW235088   3.895   1.455   7.956 -1.3503  0.1380 -1.1354
 7819SOL     OW35089   3.413   1.808   1.937  0.2274  0.1843  0.0889
 7819SOL    HW135090   3.387   1.765   2.019  0.0737  0.0320 -0.0400
 7819SOL    HW235091   3.348   1.877   1.928 -2.7004 -2.4679  0.8734
 7820SOL     OW35092   2.544   2.945   4.377  0.6511  0.0033 -0.1278
 7820SOL    HW135093   2.539   2.850   4.389 -0.0475  0.2700  1.6707
 7820SOL    HW235094   2.522   2.951   4.284  2.0261 -2.6676 -0.6519
 7821SOL     OW35095   2.763   0.638  14.714  0.3295 -0.1896 -0.2424
 7821SOL    HW135096   2.843   0.644  14.766 -1.5370  2.4709  2.3056
 7821SOL    HW235097   2.778   0.696  14.640 -0.8966 -0.5846 -0.7921
 7822SOL     OW35098   0.907   0.224   6.074  0.6429  0.2077  0.3090
 7822SOL    HW135099   0.870   0.145   6.113  0.0824  1.1028  1.5877
 7822SOL    HW235100   0.981   0.191   6.023  2.2971  1.9006  1.5978
 7823SOL     OW35101   2.232   0.741   5.057 -0.4920  0.2656 -0.2951
 7823SOL    HW135102   2.194   0.735   4.970  0.1372  0.0481 -0.5535
 7823SOL    HW235103   2.254   0.834   5.058  0.7604 -0.0403  0.0884
 7824SOL     OW35104   0.757   0.555   0.370  0.4924  0.0671 -0.4916
 7824SOL    HW135105   0.747   0.591   0.458 -0.0184  1.0909 -0.9653
 7824SOL    HW235106   0.671   0.524   0.343  1.5600 -2.0407 -1.4858
 7825SOL     OW35107   4.494   2.640   2.234 -0.0502  0.4129 -0.1509
 7825SOL    HW135108   4.467   2.571   2.173 -2.3246 -0.6034  1.9973
 7825SOL    HW235109   4.474   2.720   2.185 -1.9776 -0.8621 -1.4646
 7826SOL     OW35110   0.243   3.445  16.702 -0.8348  0.3118 -0.2033
 7826SOL    HW135111   0.336   3.438  16.720 -0.6612  0.2860 -1.0952
 7826SOL    HW235112   0.240   3.378  16.634 -1.2394  0.0212  0.0994
 7827SOL     OW35113   3.589   2.359  11.932  0.0653  0.5974  0.4155
 7827SOL    HW135114   3.648   2.293  11.970 -0.6585  0.5425  1.4641
 7827SOL    HW235115   3.606   2.432  11.991  0.7380  0.4379  0.4197
 7828SOL     OW35116   2.334   0.099   1.635  0.3788 -0.0287  0.1121
 7828SOL    HW135117   2.317   0.057   1.551  1.4785 -0.2220 -0.0179
 7828SOL    HW235118   2.391   0.034   1.675  0.3793 -0.9547 -1.3925
 7829SOL     OW35119   1.818   1.063  13.046  0.0097  0.1860 -0.7413
 7829SOL    HW135120   1.791   1.065  13.138  0.0601 -1.3454 -0.6928
 7829SOL    HW235121   1.842   1.155  13.037 -1.7058  0.4730 -2.4941
 7830SOL     OW35122   3.788   1.036   4.844  0.0057 -0.1714  0.2153
 7830SOL    HW135123   3.868   1.029   4.896 -1.0773 -0.5788  1.8535
 7830SOL    HW235124   3.788   0.963   4.783  1.7761 -0.1789  0.2315
 7831SOL     OW35125   4.691   4.597  16.405  0.3654 -0.5451  0.3475
 7831SOL    HW135126   0.045   4.585  16.405  0.5483  0.7123 -3.5179
 7831SOL    HW235127   4.659   4.608  16.315 -0.3826 -2.4536  0.3635
 7832SOL     OW35128   2.621   1.609   9.167  0.0155  0.3773  0.4030
 7832SOL    HW135129   2.634   1.566   9.252 -0.5016  0.4470  0.5168
 7832SOL    HW235130   2.525   1.611   9.159 -0.1251  0.4587  2.0386
 7833SOL     OW35131   1.466   3.111  14.007 -0.0683  0.5301  1.2411
 7833SOL    HW135132   1.478   3.060  14.087 -1.0870 -2.7791 -0.7300
 7833SOL    HW235133   1.379   3.078  13.983  0.8164 -2.6780  2.4830
 7834SOL     OW35134   0.690   1.987   1.669  0.1529 -0.9429  0.4144
 7834SOL    HW135135   0.635   1.953   1.739  0.4032 -0.0178  1.0688
 7834SOL    HW235136   0.651   1.955   1.588  2.6514 -2.1852 -0.2818
 7835SOL     OW35137   4.610   2.393   3.032 -0.5311  0.4390 -0.6872
 7835SOL    HW135138   4.645   2.315   3.076 -0.7715  1.3743  1.1800
 7835SOL    HW235139   4.527   2.396   3.078 -0.1862  0.1180 -0.0356
 7836SOL     OW35140   2.864   0.536  12.261  0.2006 -0.1120  0.0036
 7836SOL    HW135141   2.881   0.629  12.247 -3.0848  0.3288 -1.2111
 7836SOL    HW235142   2.956   0.513  12.277  0.2470 -0.4526 -0.7240
 7837SOL     OW35143   1.610   3.563  13.495  0.7074  0.3162 -0.3519
 7837SOL    HW135144   1.643   3.500  13.560 -3.7780 -2.4955 -0.7993
 7837SOL    HW235145   1.641   3.647  13.531 -0.6562 -0.3793  2.4872
 7838SOL     OW35146   0.035   1.847   7.470  0.1359  0.3727 -0.0530
 7838SOL    HW135147   0.038   1.760   7.430  0.6684  0.2412  0.2700
 7838SOL    HW235148   0.047   1.821   7.561 -1.0233 -1.8723 -0.5380
 7839SOL     OW35149   1.186   0.900   9.268 -1.4987 -0.1412  0.1804
 7839SOL    HW135150   1.256   0.961   9.290  0.1214 -1.9047 -0.1046
 7839SOL    HW235151   1.231   0.820   9.294  0.7740  1.2085  0.4288
 7840SOL     OW35152   0.596   3.379   6.512 -0.2035 -0.1407 -0.2178
 7840SOL    HW135153   0.629   3.436   6.581 -1.5804  0.4089 -0.0080
 7840SOL    HW235154   0.594   3.297   6.560  0.6219  0.4626  0.8318
 7841SOL     OW35155   4.635   1.898  10.910 -0.0192  0.1645 -0.0471
 7841SOL    HW135156   4.664   1.988  10.926  0.8921  0.1545 -1.6822
 7841SOL    HW235157   4.539   1.894  10.914 -0.0803  2.4036  0.9108
 7842SOL     OW35158   0.611   2.406  14.388  0.0563  0.0447  0.3757
 7842SOL    HW135159   0.665   2.334  14.357  0.1401  1.1015 -1.9383
 7842SOL    HW235160   0.530   2.358  14.404  0.2410 -0.2301  0.4839
 7843SOL     OW35161   3.056   2.248  16.866 -0.0216 -0.3309  0.4966
 7843SOL    HW135162   3.029   2.340  16.858  0.5926 -0.3333 -1.6483
 7843SOL    HW235163   2.991   2.210  16.807 -0.6720 -0.1674  1.1067
 7844SOL     OW35164   1.409   1.661   0.711  0.1949 -0.9393 -0.6407
 7844SOL    HW135165   1.332   1.709   0.741  0.4345 -0.0903 -1.3937
 7844SOL    HW235166   1.476   1.691   0.773 -1.9730  2.4528  0.0606
 7845SOL     OW35167   0.552   1.367   4.105 -0.7266  0.0444 -0.0994
 7845SOL    HW135168   0.549   1.349   4.199  0.7922  0.5082  0.0477
 7845SOL    HW235169   0.621   1.433   4.111  0.2425 -0.8188 -1.5143
 7846SOL     OW35170   2.599   2.600   4.896 -0.1845  0.5866 -0.2682
 7846SOL    HW135171   2.635   2.673   4.846 -1.8296  1.7721  0.2832
 7846SOL    HW235172   2.511   2.596   4.860  0.3447 -4.0312 -1.0046
 7847SOL     OW35173   0.870   0.159  14.478  0.1062 -0.5571  0.3157
 7847SOL    HW135174   0.799   0.220  14.459 -0.3241 -0.4011  2.5042
 7847SOL    HW235175   0.949   0.212  14.489 -0.3866  0.6458 -1.9108
 7848SOL     OW35176   0.039   1.660  10.994 -1.3038  0.0751  0.0424
 7848SOL    HW135177   0.009   1.615  10.914  0.4620  0.0515 -0.6284
 7848SOL    HW235178   0.010   1.751  10.987 -0.4485  0.3610  0.2347
 7849SOL     OW35179   2.163   4.246   7.003 -0.2417 -0.6771 -0.1146
 7849SOL    HW135180   2.134   4.278   6.918  0.7953  1.3938  0.3063
 7849SOL    HW235181   2.215   4.172   6.972 -0.5301 -0.7222 -0.4891
 7850SOL     OW35182   2.427   1.542   5.975 -0.2969  0.6027  0.0062
 7850SOL    HW135183   2.476   1.620   5.947 -0.2058  0.5106 -0.0943
 7850SOL    HW235184   2.505   1.485   5.975  0.6889  1.9389 -0.1510
 7851SOL     OW35185   4.281   0.188   6.246 -0.5076  0.1424 -0.2011
 7851SOL    HW135186   4.257   0.137   6.324  1.6028  0.3894  0.6167
 7851SOL    HW235187   4.374   0.198   6.267 -0.1819 -2.0178 -0.5670
 7852SOL     OW35188   0.239   1.912   6.173 -0.3550  0.3657  0.1577
 7852SOL    HW135189   0.177   1.981   6.147 -1.9474  0.1418  3.3604
 7852SOL    HW235190   0.281   1.872   6.098 -0.5307 -0.9767  0.7791
 7853SOL     OW35191   2.988   0.077   4.353 -0.1257 -0.2113  0.5980
 7853SOL    HW135192   2.952   0.040   4.434  1.2519  0.3206  1.4587
 7853SOL    HW235193   3.054   0.011   4.329 -2.2867 -2.6346  1.2993
 7854SOL     OW35194   0.439   1.983   4.124  0.2581 -0.0860 -0.1894
 7854SOL    HW135195   0.483   2.067   4.112  1.2081 -0.3845  1.2096
 7854SOL    HW235196   0.381   2.002   4.051 -0.5078 -2.8379 -0.3029
 7855SOL     OW35197   2.133   3.632   8.466  0.0480 -0.3312 -0.2833
 7855SOL    HW135198   2.066   3.584   8.515  1.4675 -1.0630  0.8995
 7855SOL    HW235199   2.127   3.593   8.378 -2.7258 -2.8559  1.0258
 7856SOL     OW35200   1.970   4.440   2.829 -0.1981 -0.1498  0.2655
 7856SOL    HW135201   2.053   4.465   2.788  0.6397 -0.0326  2.0222
 7856SOL    HW235202   1.935   4.525   2.859 -0.8373  0.1976 -1.4038
 7857SOL     OW35203   3.813   3.583  17.496  0.4357 -0.6174 -0.0451
 7857SOL    HW135204   3.880   3.649  17.480  0.3503 -0.4176  0.4099
 7857SOL    HW235205   3.875   3.515  17.521 -0.5297 -1.1481  0.8903
 7858SOL     OW35206   3.067   3.305   1.077  0.2079 -0.3241  0.6652
 7858SOL    HW135207   3.147   3.324   1.127  0.4530 -0.5548  0.3566
 7858SOL    HW235208   3.018   3.386   1.091  1.1315 -0.0308  2.2389
 7859SOL     OW35209   3.365   4.521   4.657 -0.1658 -0.3598  0.6099
 7859SOL    HW135210   3.367   4.463   4.733 -1.7024 -1.9337 -0.5256
 7859SOL    HW235211   3.356   4.457   4.586  0.0324 -0.8791  1.0482
 7860SOL     OW35212   3.001   4.370   2.351  0.3835 -0.3063 -0.3917
 7860SOL    HW135213   3.063   4.340   2.417  0.2432 -0.1648 -0.1983
 7860SOL    HW235214   3.056   4.422   2.292 -0.1662  0.7145  0.0097
 7861SOL     OW35215   4.007   1.787   3.430 -0.1017 -0.6255  0.4170
 7861SOL    HW135216   4.076   1.848   3.458  1.5904 -1.3165 -2.2266
 7861SOL    HW235217   3.937   1.841   3.466  1.2575  0.4215  1.4529
 7862SOL     OW35218   2.792   1.338   0.818 -0.3783  0.3731 -0.2257
 7862SOL    HW135219   2.704   1.303   0.815  0.0254 -0.8285  2.1664
 7862SOL    HW235220   2.809   1.342   0.912  1.5939 -3.3714 -0.4208
 7863SOL     OW35221   3.551   3.248   7.257 -0.1096 -0.1539 -0.5291
 7863SOL    HW135222   3.579   3.257   7.348 -1.1070 -0.1747 -0.2177
 7863SOL    HW235223   3.499   3.167   7.258 -1.3922  0.6302 -2.5634
 7864SOL     OW35224   0.480   1.833   1.754 -0.2341 -0.2235 -0.2710
 7864SOL    HW135225   0.471   1.808   1.662 -2.9356 -1.1614  0.2630
 7864SOL    HW235226   0.464   1.747   1.793 -0.8081 -1.3208 -2.9052
 7865SOL     OW35227   0.391   1.456  14.933  0.0661 -0.1528  0.1318
 7865SOL    HW135228   0.301   1.470  14.905  0.3247 -0.1888 -0.7127
 7865SOL    HW235229   0.429   1.544  14.923  0.4826 -0.6274 -2.4385
 7866SOL     OW35230   3.390   1.045   6.067  0.0750  0.1933 -0.4123
 7866SOL    HW135231   3.389   0.995   5.986 -1.7021 -0.7060  0.1736
 7866SOL    HW235232   3.339   0.988   6.124  1.1061 -0.3510 -0.0302
 7867SOL     OW35233   2.504   0.591  12.480 -0.1002  0.4656 -0.3507
 7867SOL    HW135234   2.530   0.632  12.397 -1.0836  2.1553  0.1878
 7867SOL    HW235235   2.558   0.623  12.553  0.5129  1.2997 -1.1604
 7868SOL     OW35236   3.348   1.988  11.871 -0.3444  0.0946 -0.8079
 7868SOL    HW135237   3.286   2.048  11.911  1.8081  1.3708  0.6258
 7868SOL    HW235238   3.321   1.980  11.779 -2.7598 -3.6040  0.2009
 7869SOL     OW35239   2.414   3.676   9.247 -0.5984 -0.5004 -0.3250
 7869SOL    HW135240   2.470   3.742   9.206  0.1514 -1.0129 -0.1225
 7869SOL    HW235241   2.325   3.710   9.238 -0.6017 -0.4371 -0.0466
 7870SOL     OW35242   2.280   3.605   6.913 -0.5061 -0.1975 -0.2258
 7870SOL    HW135243   2.279   3.512   6.890 -1.6790 -0.1192 -0.5022
 7870SOL    HW235244   2.303   3.634   6.825 -0.7601 -1.5923 -0.7592
 7871SOL     OW35245   1.668   2.743   9.085  0.5115 -0.0423 -0.0372
 7871SOL    HW135246   1.597   2.683   9.108 -0.0801  0.3632 -0.8300
 7871SOL    HW235247   1.746   2.690   9.105  2.1977  2.1027 -0.8849
 7872SOL     OW35248   0.169   3.493  13.589  0.2223  0.6872 -0.3645
 7872SOL    HW135249   0.138   3.409  13.620  1.3950 -0.2314 -1.6786
 7872SOL    HW235250   0.259   3.472  13.564 -0.2059 -0.1790 -1.1848
 7873SOL     OW35251   1.584   3.344   7.222 -0.5720  0.0078  0.1263
 7873SOL    HW135252   1.577   3.410   7.291 -1.4587 -0.0470  0.0829
 7873SOL    HW235253   1.535   3.371   7.144  0.0680  0.2578 -0.1925
 7874SOL     OW35254   3.745   0.306   5.636 -0.3970 -0.0310 -0.1337
 7874SOL    HW135255   3.827   0.298   5.588 -0.2872  1.2681 -0.1681
 7874SOL    HW235256   3.722   0.218   5.606  3.2350 -1.2863  0.7480
 7875SOL     OW35257   1.175   0.085   7.667  0.3648  0.3845  0.3398
 7875SOL    HW135258   1.115   0.151   7.702 -1.7730 -0.4344 -1.7485
 7875SOL    HW235259   1.124   0.051   7.593  0.2205 -1.6319  1.3514
 7876SOL     OW35260   1.032   2.173   0.559  0.2891  0.1173  0.0972
 7876SOL    HW135261   1.048   2.089   0.518  0.3693  0.6211 -0.9090
 7876SOL    HW235262   0.940   2.190   0.536  0.4867 -1.2876 -1.6941
 7877SOL     OW35263   0.068   0.435   8.732  0.5629  0.5039  0.1196
 7877SOL    HW135264   0.012   0.359   8.741  0.2006  0.5736 -1.4863
 7877SOL    HW235265   0.051   0.488   8.809  1.7094 -1.0920  1.4711
 7878SOL     OW35266   0.946   0.827   3.000  0.0865 -0.7389  0.8203
 7878SOL    HW135267   1.038   0.799   3.003 -0.1761 -1.6668  0.4335
 7878SOL    HW235268   0.951   0.890   2.928  1.3892 -0.7502  0.8921
 7879SOL     OW35269   1.000   3.852  11.481  0.3042  0.6045  0.3331
 7879SOL    HW135270   1.064   3.782  11.490 -1.2211 -0.8778 -0.3539
 7879SOL    HW235271   0.967   3.860  11.571  1.3989  1.7680  0.6307
 7880SOL     OW35272   0.414   3.062  12.584 -0.7488  0.0802  0.3520
 7880SOL    HW135273   0.373   3.040  12.500  1.0300 -1.0265 -0.2295
 7880SOL    HW235274   0.382   3.009  12.657  0.6505 -0.8876  0.2541
 7881SOL     OW35275   2.889   4.336   8.435 -0.0645 -0.1089 -0.4491
 7881SOL    HW135276   2.917   4.247   8.457  0.1744 -0.1222 -0.8108
 7881SOL    HW235277   2.828   4.348   8.509  0.9486  2.1169  0.0382
 7882SOL     OW35278   1.755   2.245   2.687 -0.2417 -0.7124 -0.0245
 7882SOL    HW135279   1.841   2.232   2.646 -0.4058 -0.2280 -0.5298
 7882SOL    HW235280   1.696   2.187   2.638 -0.9154  0.0276 -0.0950
 7883SOL     OW35281   2.495   1.135   4.355  0.4739 -0.9177 -1.2518
 7883SOL    HW135282   2.439   1.059   4.374 -1.0652  0.8003  1.1834
 7883SOL    HW235283   2.570   1.113   4.410  0.2732  0.0315 -0.5962
 7884SOL     OW35284   0.103   2.857  16.147 -0.1583 -0.4120 -0.2702
 7884SOL    HW135285   0.059   2.886  16.067 -0.6937  0.6022  0.3790
 7884SOL    HW235286   0.030   2.833  16.205  0.8920 -1.5230  0.5683
 7885SOL     OW35287   1.583   2.870  13.755 -0.0170  0.3227 -0.2000
 7885SOL    HW135288   1.644   2.830  13.694  0.6134 -1.9124  1.8818
 7885SOL    HW235289   1.593   2.824  13.838 -2.0310  0.8505  0.3476
 7886SOL     OW35290   4.658   2.711   6.964 -0.0770 -0.1726 -0.1580
 7886SOL    HW135291   4.712   2.736   6.889  1.3202 -0.9150  0.6166
 7886SOL    HW235292   4.704   2.742   7.042 -0.2409  0.8384 -0.4682
 7887SOL     OW35293   2.977   0.405   8.912  0.0319 -0.2779  1.1543
 7887SOL    HW135294   2.900   0.410   8.856  1.5098  0.4611 -0.8263
 7887SOL    HW235295   3.018   0.328   8.872 -2.6057 -0.7786 -0.5214
 7888SOL     OW35296   1.099   2.939  13.425 -0.0111 -0.1535  0.0139
 7888SOL    HW135297   1.027   2.956  13.485 -0.6177 -0.1404 -0.7153
 7888SOL    HW235298   1.097   2.844  13.424  0.4888 -0.1437 -2.6309
 7889SOL     OW35299   1.558   0.522   7.770  0.0344  0.2717  0.2575
 7889SOL    HW135300   1.635   0.518   7.713 -1.8460  2.3500 -2.3939
 7889SOL    HW235301   1.570   0.610   7.806  1.9615  0.5512 -1.0888
 7890SOL     OW35302   3.684   0.629  14.095 -0.4292 -0.1256 -0.0422
 7890SOL    HW135303   3.749   0.648  14.027 -0.0881 -1.1466  0.0008
 7890SOL    HW235304   3.730   0.552  14.128 -0.8927  0.7568  2.6136
 7891SOL     OW35305   2.193   1.127   8.629 -0.1216 -0.5942  0.2185
 7891SOL    HW135306   2.262   1.193   8.627 -0.0702 -0.6436  0.3289
 7891SOL    HW235307   2.172   1.125   8.723 -1.1693 -1.2978 -0.0318
 7892SOL     OW35308   1.331   4.607   7.773 -0.2808 -0.2393 -0.0783
 7892SOL    HW135309   1.279   4.680   7.738 -0.4180 -0.8595 -1.1467
 7892SOL    HW235310   1.390   4.585   7.701  1.6768 -1.2204  1.8271
 7893SOL     OW35311   4.581   1.480  15.276  0.3261 -0.1143 -0.4851
 7893SOL    HW135312   4.570   1.422  15.352  1.2382  1.0484  0.5495
 7893SOL    HW235313   4.676   1.474  15.276  0.4443  1.6120  0.5812
 7894SOL     OW35314   4.645   0.442   4.143 -0.9316 -0.2049  0.1168
 7894SOL    HW135315   4.563   0.488   4.128 -1.9580 -1.6376  1.3593
 7894SOL    HW235316   4.703   0.516   4.123  0.0387 -1.4459 -1.6385
 7895SOL     OW35317   4.379   0.987   8.785  0.1132  0.2089  0.5723
 7895SOL    HW135318   4.428   0.909   8.811 -1.1931  0.3232  3.3758
 7895SOL    HW235319   4.450   1.050   8.770 -0.1994  0.8201  1.6672
 7896SOL     OW35320   4.523   3.883   2.903  0.2251 -0.5370 -0.3364
 7896SOL    HW135321   4.580   3.845   2.970 -1.0744  1.0115  1.6492
 7896SOL    HW235322   4.432   3.862   2.923  0.2798  0.8594  1.3382
 7897SOL     OW35323   1.614   1.435   4.825 -0.2368 -0.3743 -0.4555
 7897SOL    HW135324   1.531   1.408   4.864  0.5559 -1.0764  0.7217
 7897SOL    HW235325   1.642   1.505   4.883  0.8073 -2.5492  1.6338
 7898SOL     OW35326   3.559   1.758   9.017 -0.0785  0.0617  0.6049
 7898SOL    HW135327   3.610   1.693   9.065 -0.9661 -0.9967  0.1324
 7898SOL    HW235328   3.633   1.801   8.973 -0.0152 -0.4655  0.1944
 7899SOL     OW35329   3.753   2.806   5.981 -0.1490  0.1962  0.3536
 7899SOL    HW135330   3.778   2.820   5.889  0.5418  1.9696  0.8234
 7899SOL    HW235331   3.796   2.720   5.986 -1.6600 -0.7035 -1.9975
 7900SOL     OW35332   0.092   1.188   6.674 -0.0566  0.2576  0.8838
 7900SOL    HW135333   0.155   1.205   6.604 -0.8317  0.4317  0.2259
 7900SOL    HW235334   0.138   1.113   6.712 -0.4504  0.1118  1.0724
 7901SOL     OW35335   3.378   4.618   6.127  0.1551  0.6752 -0.7087
 7901SOL    HW135336   3.385   4.691   6.189 -0.9082 -0.2935  0.5609
 7901SOL    HW235337   3.333   4.547   6.173  1.3370  2.2163  2.8031
 7902SOL     OW35338   2.411   2.466   2.810 -0.2603 -0.7609  0.1637
 7902SOL    HW135339   2.332   2.519   2.794  0.1271 -0.4719 -0.8198
 7902SOL    HW235340   2.392   2.391   2.754  1.7969 -0.5083 -0.8553
 7903SOL     OW35341   0.992   2.992   7.758 -0.2436 -0.0586  0.2984
 7903SOL    HW135342   1.002   3.086   7.741  0.4362 -0.1212  0.3341
 7903SOL    HW235343   1.070   2.956   7.716  0.2189  1.5587 -0.2694
 7904SOL     OW35344   0.047   1.740   1.335 -0.0280 -0.1397 -0.5103
 7904SOL    HW135345   0.040   1.814   1.395  0.0854 -2.7879  2.7801
 7904SOL    HW235346   4.717   1.754   1.272  0.8354  0.3702 -1.3720
 7905SOL     OW35347   2.402   1.869   8.581 -0.0939  0.1266 -0.0482
 7905SOL    HW135348   2.493   1.845   8.598  0.1215  1.7603  1.1113
 7905SOL    HW235349   2.405   1.964   8.569  0.0047  0.0138 -0.8832
 7906SOL     OW35350   1.033   3.780   3.342  0.3984  0.1214  0.2655
 7906SOL    HW135351   1.009   3.866   3.306  0.8048 -0.8935 -2.3874
 7906SOL    HW235352   1.046   3.812   3.431 -1.2653 -1.2028  0.9816
 7907SOL     OW35353   1.326   2.436   0.111  0.2095  0.2316  0.9269
 7907SOL    HW135354   1.357   2.507   0.166 -0.3573  1.6484 -0.5781
 7907SOL    HW235355   1.395   2.370   0.120  1.4535  1.5317  0.8698
 7908SOL     OW35356   0.851   0.654   9.482 -0.6687  0.0014 -0.2654
 7908SOL    HW135357   0.903   0.598   9.424  2.2467  1.6672  0.6974
 7908SOL    HW235358   0.776   0.602   9.511  0.1164 -1.0053 -0.0545
 7909SOL     OW35359   1.259   3.131  13.311 -0.1985  0.2143 -0.1889
 7909SOL    HW135360   1.213   3.202  13.357  2.4151  1.8234 -0.0319
 7909SOL    HW235361   1.204   3.062  13.346 -0.6837  0.7091  0.0272
 7910SOL     OW35362   1.374   2.930   7.244  0.3602 -0.2875 -0.6109
 7910SOL    HW135363   1.468   2.928   7.225  0.7318 -1.7916  1.3119
 7910SOL    HW235364   1.364   2.843   7.283 -0.1600  0.5854  1.1934
 7911SOL     OW35365   1.198   3.927  12.227  0.0080 -0.0496 -0.1289
 7911SOL    HW135366   1.124   3.892  12.275  2.3584 -0.7353  2.9477
 7911SOL    HW235367   1.195   4.021  12.246 -0.7887  0.0452 -0.7045
 7912SOL     OW35368   1.880   3.873   6.499 -0.3865  0.4531 -0.0456
 7912SOL    HW135369   1.818   3.803   6.522  0.7099  0.4567  2.8523
 7912SOL    HW235370   1.932   3.883   6.578 -1.1341  3.6910  0.0197
 7913SOL     OW35371   3.547   2.806  10.801 -0.3677  0.6853  0.3456
 7913SOL    HW135372   3.545   2.844  10.713 -1.1967 -2.1407 -0.8391
 7913SOL    HW235373   3.471   2.849  10.840 -0.1560 -0.0739  1.5680
 7914SOL     OW35374   2.446   4.494   8.247  0.3272 -0.5269 -0.3313
 7914SOL    HW135375   2.487   4.442   8.178 -0.0951 -2.2284  0.6910
 7914SOL    HW235376   2.440   4.581   8.207  0.4727 -0.6986 -0.7215
 7915SOL     OW35377   3.793   0.422   1.830  0.1026  0.4415 -0.1633
 7915SOL    HW135378   3.848   0.352   1.864 -2.0154  0.0639  2.5325
 7915SOL    HW235379   3.732   0.372   1.774 -1.5661  0.8552  1.2954
 7916SOL     OW35380   4.380   2.466   3.508 -0.1971 -0.0883 -0.2226
 7916SOL    HW135381   4.290   2.445   3.484  0.3649 -0.8939 -1.6184
 7916SOL    HW235382   4.384   2.555   3.471 -0.2425 -0.5582 -1.3619
 7917SOL     OW35383   3.249   1.672  11.726  0.3948 -0.1398  0.1436
 7917SOL    HW135384   3.188   1.694  11.656  1.9492 -1.3485 -1.5915
 7917SOL    HW235385   3.331   1.681  11.678  0.7836 -1.2168  0.5845
 7918SOL     OW35386   2.873   2.793   8.656 -0.3905 -0.5526 -0.4484
 7918SOL    HW135387   2.794   2.739   8.644 -0.1856 -1.0276  0.3367
 7918SOL    HW235388   2.867   2.845   8.576  0.6686  2.0315  1.1474
 7919SOL     OW35389   1.053   0.346   8.965 -0.1746 -0.0558  0.2081
 7919SOL    HW135390   0.982   0.409   8.974  0.2617  0.3721  0.6378
 7919SOL    HW235391   1.128   0.394   8.998 -2.1377  1.9700  1.7380
 7920SOL     OW35392   2.553   0.721   7.210  0.4359  0.8498 -0.6355
 7920SOL    HW135393   2.501   0.751   7.136  0.4019  1.8765 -0.1903
 7920SOL    HW235394   2.484   0.674   7.257  0.7539  3.2563  2.2805
 7921SOL     OW35395   1.243   0.297   0.220  0.3055  0.1865  0.3406
 7921SOL    HW135396   1.203   0.293   0.306  3.1492 -0.2353  1.6383
 7921SOL    HW235397   1.167   0.322   0.167  0.7027  2.0124  0.6278
 7922SOL     OW35398   3.593   3.057   6.028  0.2097  0.3259 -0.3663
 7922SOL    HW135399   3.667   3.073   5.969 -0.5870  2.7024 -0.7300
 7922SOL    HW235400   3.610   2.966   6.053 -1.1041  0.4413  0.9779
 7923SOL     OW35401   2.931   4.424   2.799  0.2920 -0.1284  0.4734
 7923SOL    HW135402   2.943   4.347   2.853 -1.2280  0.2571  1.3678
 7923SOL    HW235403   3.017   4.448   2.765  1.0340 -1.9441  1.0951
 7924SOL     OW35404   4.678   1.478   6.632 -0.2255  0.4985  0.3808
 7924SOL    HW135405   4.689   1.463   6.726 -1.6148 -2.7717  0.0030
 7924SOL    HW235406   4.657   1.572   6.625 -0.2971  0.4427 -0.1410
 7925SOL     OW35407   3.494   3.654   7.131  0.2025  0.7697  0.1544
 7925SOL    HW135408   3.497   3.676   7.224 -0.1162  1.0728  0.0958
 7925SOL    HW235409   3.480   3.559   7.132 -1.1670  0.9665 -1.0472
 7926SOL     OW35410   3.015   2.768   7.869 -0.1623  0.0089  0.5653
 7926SOL    HW135411   2.940   2.828   7.869  2.2866  3.0478  1.3100
 7926SOL    HW235412   3.083   2.835   7.874  0.6130 -0.7983  0.8683
 7927SOL     OW35413   2.800   3.138   5.763  0.2727 -0.3926 -0.0530
 7927SOL    HW135414   2.728   3.089   5.802 -0.6782 -0.0320 -1.3706
 7927SOL    HW235415   2.801   3.109   5.672  1.3097  2.9771 -1.1162
 7928SOL     OW35416   0.135   4.015   2.827 -0.3739  0.2549 -0.3392
 7928SOL    HW135417   0.117   3.921   2.831  0.7051  0.0898  0.6173
 7928SOL    HW235418   0.155   4.046   2.915  0.3410  0.8800 -0.7254
 7929SOL     OW35419   0.404   0.451   2.295  0.0237  0.0419  0.4802
 7929SOL    HW135420   0.430   0.539   2.322 -2.4883  0.8022  0.4558
 7929SOL    HW235421   0.408   0.404   2.378 -0.7337 -0.0073  0.4835
 7930SOL     OW35422   0.773   2.967   7.936 -0.1663 -0.1383  0.5502
 7930SOL    HW135423   0.763   2.971   8.031  1.1398  0.8500  0.6444
 7930SOL    HW235424   0.867   2.981   7.927  0.0573 -2.9299 -1.7081
 7931SOL     OW35425   1.992   0.523   3.582  0.0139 -0.1269 -0.0845
 7931SOL    HW135426   2.051   0.577   3.634 -1.1224 -0.9653  2.0511
 7931SOL    HW235427   2.047   0.447   3.567 -0.3050 -0.2062 -0.9046
 7932SOL     OW35428   2.464   0.065   1.263 -0.4855 -0.5609  0.0644
 7932SOL    HW135429   2.502   0.125   1.199  0.2099 -0.2189  0.7886
 7932SOL    HW235430   2.470   4.723   1.216  0.9064  1.4682 -3.3218
 7933SOL     OW35431   0.522   0.935   3.205  0.0247  0.0245  0.1866
 7933SOL    HW135432   0.599   0.956   3.153  0.4791 -0.7332  0.5443
 7933SOL    HW235433   0.490   1.016   3.244 -3.5904 -1.9963  1.5051
 7934SOL     OW35434   2.307   4.641   0.464  0.2784 -0.2240 -0.1114
 7934SOL    HW135435   2.268   4.722   0.497  0.5164  0.7336 -2.1469
 7934SOL    HW235436   2.281   4.647   0.372  1.8107 -1.7949 -0.6553
 7935SOL     OW35437   4.339   1.288   6.981  0.3740 -0.4068 -0.3491
 7935SOL    HW135438   4.319   1.344   6.906 -0.9727  1.4838  1.3924
 7935SOL    HW235439   4.388   1.348   7.036 -0.2026  0.3897 -0.6956
 7936SOL     OW35440   1.426   0.166   1.823  0.1992 -0.0160  0.7821
 7936SOL    HW135441   1.450   0.208   1.906  2.8270  0.7690 -0.3705
 7936SOL    HW235442   1.335   0.191   1.811  1.0561  2.4636 -0.7089
 7937SOL     OW35443   0.584   2.773   3.828 -0.1957 -0.2074 -0.0388
 7937SOL    HW135444   0.678   2.756   3.825 -0.0112  1.0686 -1.4422
 7937SOL    HW235445   0.561   2.730   3.910 -0.5623 -0.5153 -0.3033
 7938SOL     OW35446   0.413   2.436   2.935 -0.4071 -0.3273  0.0721
 7938SOL    HW135447   0.434   2.485   3.014 -3.8848  0.5220  0.4678
 7938SOL    HW235448   0.336   2.486   2.908 -2.6632 -2.2007  3.0382
 7939SOL     OW35449   4.269   3.271   7.076 -0.4179  0.7209  0.3180
 7939SOL    HW135450   4.218   3.264   7.157 -0.4383 -1.0561  0.1690
 7939SOL    HW235451   4.360   3.275   7.105 -0.5576  3.1373  0.4129
 7940SOL     OW35452   0.403   2.484   2.560  0.1983  0.0600  0.2429
 7940SOL    HW135453   0.366   2.434   2.487 -1.8121 -0.4936  1.6299
 7940SOL    HW235454   0.428   2.411   2.616  2.5054  0.8599  0.2635
 7941SOL     OW35455   1.679   2.655   8.232 -0.0392 -0.5438 -0.0923
 7941SOL    HW135456   1.637   2.598   8.167  1.4945  0.4985 -2.0060
 7941SOL    HW235457   1.609   2.720   8.236  0.8844  0.3965  0.8811
 7942SOL     OW35458   1.692   3.572   3.753  0.1194  0.5863  0.0391
 7942SOL    HW135459   1.672   3.552   3.661 -0.3210 -3.7693  1.0990
 7942SOL    HW235460   1.705   3.486   3.791 -0.6213  0.5516  0.2146
 7943SOL     OW35461   2.419   3.612   8.875  0.4850 -0.5424  0.1301
 7943SOL    HW135462   2.413   3.594   8.782 -0.9212  1.4972 -0.1710
 7943SOL    HW235463   2.506   3.651   8.883 -0.1282  1.0898 -1.1672
 7944SOL     OW35464   1.101   3.738   8.775 -0.6894 -0.4236  0.0411
 7944SOL    HW135465   1.179   3.765   8.822 -0.3070  1.4372 -1.6515
 7944SOL    HW235466   1.085   3.653   8.816  0.3409 -0.6804 -0.0840
 7945SOL     OW35467   4.530   0.685   2.920 -0.1054 -0.5770  0.0048
 7945SOL    HW135468   4.520   0.592   2.940 -0.3403 -0.5739 -0.0997
 7945SOL    HW235469   4.566   0.719   3.002 -3.6917  0.9702  0.9723
 7946SOL     OW35470   0.837   1.142   5.926  0.1731  0.4983 -0.5606
 7946SOL    HW135471   0.807   1.135   5.836 -0.0736 -1.4694 -0.3295
 7946SOL    HW235472   0.776   1.077   5.961 -1.0880  0.8611 -2.1194
 7947SOL     OW35473   4.343   0.496   5.963  0.0172 -0.5858  0.4929
 7947SOL    HW135474   4.353   0.413   5.916  0.0342 -0.4623  0.2789
 7947SOL    HW235475   4.257   0.491   6.004 -1.5884  2.6860 -2.5468
 7948SOL     OW35476   4.249   3.736  16.798  0.1086  0.2328  0.1712
 7948SOL    HW135477   4.174   3.792  16.816 -1.1285 -1.7549  1.1012
 7948SOL    HW235478   4.280   3.765  16.712 -6.2537  0.5216 -2.0070
 7949SOL     OW35479   3.075   4.473   5.201  0.3313  0.1194  0.0219
 7949SOL    HW135480   3.139   4.465   5.271 -0.9448 -0.3846  1.1314
 7949SOL    HW235481   3.002   4.500   5.256  0.1380  2.2714 -1.2633
 7950SOL     OW35482   1.460   1.010   3.204  0.2044 -0.2835  0.2882
 7950SOL    HW135483   1.535   1.070   3.208  0.9568 -1.1582 -0.6828
 7950SOL    HW235484   1.398   1.065   3.156 -0.1888 -0.4631  0.5911
 7951SOL     OW35485   0.488   1.665   8.076  0.9737  0.3307  0.4847
 7951SOL    HW135486   0.574   1.642   8.111  0.8363 -0.7444  0.1236
 7951SOL    HW235487   0.499   1.708   7.992  1.5166 -1.1595 -0.2110
 7952SOL     OW35488   1.169   1.785   2.030 -0.2124 -0.1042  0.0864
 7952SOL    HW135489   1.249   1.814   2.075 -0.3795  1.1203 -0.3881
 7952SOL    HW235490   1.123   1.759   2.110  0.8355  1.6490  1.2683
 7953SOL     OW35491   2.766   3.756   5.556  0.8031 -0.0672  0.1488
 7953SOL    HW135492   2.760   3.707   5.474 -0.6079 -0.3579  0.4299
 7953SOL    HW235493   2.688   3.809   5.536  0.1376 -0.2820  2.2626
 7954SOL     OW35494   1.182   4.540   9.263  0.2333  0.5231  0.0718
 7954SOL    HW135495   1.177   4.604   9.334  1.7457 -0.0355  0.6745
 7954SOL    HW235496   1.274   4.551   9.237 -0.4801  3.1263 -1.4015
 7955SOL     OW35497   4.553   2.462  10.467 -0.0738 -0.6053  0.1050
 7955SOL    HW135498   4.567   2.555  10.482  0.4283 -0.3388 -2.1269
 7955SOL    HW235499   4.579   2.427  10.553 -3.5439 -1.0484  0.9783
 7956SOL     OW35500   0.513   4.219   2.482 -0.3661  0.5579 -0.1989
 7956SOL    HW135501   0.568   4.204   2.405  0.0358  1.1705 -0.0297
 7956SOL    HW235502   0.578   4.223   2.551 -1.4117  2.5748  0.6684
 7957SOL     OW35503   2.743   4.010  13.960  0.2241 -0.2598 -0.4920
 7957SOL    HW135504   2.775   4.099  13.946 -1.5253  0.6020  0.9705
 7957SOL    HW235505   2.776   3.988  14.047 -2.5722 -0.4589  0.5161
 7958SOL     OW35506   0.011   3.045   4.006 -0.3782  0.0728 -0.2276
 7958SOL    HW135507   4.707   2.989   3.942 -1.5457  0.3949  0.3003
 7958SOL    HW235508   0.039   3.123   3.957  0.5126 -0.2910 -0.2967
 7959SOL     OW35509   3.436   3.280   4.279  0.0806  0.5462  0.7007
 7959SOL    HW135510   3.398   3.248   4.197 -1.4133  1.1554  1.1632
 7959SOL    HW235511   3.366   3.338   4.309 -1.8085 -1.2075 -0.3858
 7960SOL     OW35512   0.943   2.285   0.815  0.2471  0.0555  0.2618
 7960SOL    HW135513   1.022   2.312   0.861 -0.8450 -1.2761  2.8921
 7960SOL    HW235514   0.980   2.253   0.732  0.5563  0.5374  0.2177
 7961SOL     OW35515   4.290   2.778  10.034 -0.4491  0.3008 -0.2194
 7961SOL    HW135516   4.239   2.700  10.056  1.1598  0.2273  3.1810
 7961SOL    HW235517   4.261   2.789   9.943  0.2086 -1.4840 -0.6533
 7962SOL     OW35518   3.880   3.970   8.566 -0.1910 -0.1665 -0.3790
 7962SOL    HW135519   3.882   3.945   8.658 -1.8430  0.6958 -0.1001
 7962SOL    HW235520   3.803   4.027   8.566  0.1234  0.2835 -2.8808
 7963SOL     OW35521   2.920   1.648   9.219 -0.1507 -0.9214  0.0764
 7963SOL    HW135522   3.011   1.631   9.246  0.2988  2.0518  0.4897
 7963SOL    HW235523   2.899   1.575   9.162 -1.1542 -1.3519  1.0016
 7964SOL     OW35524   0.593   0.121   5.898 -0.3920 -0.5612  0.1272
 7964SOL    HW135525   0.618   0.038   5.857  0.4885  0.3210 -1.1304
 7964SOL    HW235526   0.541   0.086   5.970 -0.4988  0.1851  0.4089
 7965SOL     OW35527   1.831   2.364  14.670  0.6861  0.6915 -0.1363
 7965SOL    HW135528   1.873   2.281  14.691 -0.8156 -0.1324 -0.3924
 7965SOL    HW235529   1.767   2.356  14.741 -0.6553 -0.2328 -1.4537
 7966SOL     OW35530   0.200   2.347   5.241 -0.3631  0.6201  0.5693
 7966SOL    HW135531   0.270   2.299   5.285 -1.1733 -0.3953  0.7427
 7966SOL    HW235532   0.150   2.269   5.218 -0.3524  0.4867  1.0078
 7967SOL     OW35533   1.415   0.447   1.854  0.1514  0.3307  0.2037
 7967SOL    HW135534   1.320   0.454   1.853  0.1038 -0.3647  0.1719
 7967SOL    HW235535   1.435   0.407   1.769 -1.2781  2.1578 -1.0020
 7968SOL     OW35536   2.835   4.663   4.145 -0.0669  0.2420 -0.3265
 7968SOL    HW135537   2.879   4.730   4.093  1.9651  0.2520  1.3873
 7968SOL    HW235538   2.901   4.601   4.176 -0.5635 -0.4135 -0.5754
 7969SOL     OW35539   3.234   4.249  10.367 -0.7644 -0.3091  0.0885
 7969SOL    HW135540   3.287   4.186  10.417 -0.9908 -0.5289  0.0558
 7969SOL    HW235541   3.249   4.322  10.427 -1.0736 -1.2134  1.2738
 7970SOL     OW35542   4.501   2.421  17.695  0.0395 -0.1237 -0.4535
 7970SOL    HW135543   4.564   2.473  17.745  1.4398 -2.3955  0.1448
 7970SOL    HW235544   4.482   2.351  17.757  0.7155  1.1316  1.1857
 7971SOL     OW35545   4.003   2.525   1.633  0.2629 -0.2676  0.0565
 7971SOL    HW135546   4.067   2.459   1.656  0.8036  0.8692  1.7608
 7971SOL    HW235547   3.959   2.542   1.717  1.9647  0.9602  0.6878
 7972SOL     OW35548   0.947   2.987   5.781  0.2637  0.2757 -0.4684
 7972SOL    HW135549   0.913   3.022   5.699  1.4060 -1.3846 -1.6345
 7972SOL    HW235550   0.932   3.056   5.847  0.3831  1.2885 -1.4952
 7973SOL     OW35551   1.494   4.641   2.582 -0.5670 -0.3529  0.2495
 7973SOL    HW135552   1.445   4.575   2.533 -1.5751  2.0800 -2.0180
 7973SOL    HW235553   1.572   4.649   2.528 -1.8353  0.1515 -1.4911
 7974SOL     OW35554   1.837   0.657   5.643  0.1879  0.3712 -0.4444
 7974SOL    HW135555   1.819   0.628   5.554  0.1852 -1.6548  0.2253
 7974SOL    HW235556   1.823   0.750   5.625  0.0971  0.4339 -0.0354
 7975SOL     OW35557   3.383   1.656   3.552 -0.5388 -0.4392  0.2673
 7975SOL    HW135558   3.326   1.603   3.497 -1.2331  0.4153  0.1588
 7975SOL    HW235559   3.455   1.679   3.492 -1.4915  1.2013 -0.2567
 7976SOL     OW35560   4.180   0.914  16.763  0.3587  0.1047  0.3093
 7976SOL    HW135561   4.160   0.829  16.802  0.8603  1.3199  3.2391
 7976SOL    HW235562   4.179   0.894  16.670  2.7354 -1.6664  0.6611
 7977SOL     OW35563   3.027   3.077   0.638  0.1853  0.8892 -0.4359
 7977SOL    HW135564   2.947   3.128   0.626 -0.5013 -0.5854 -2.0944
 7977SOL    HW235565   3.028   3.017   0.564 -4.4509 -1.1121  1.1603
 7978SOL     OW35566   1.228   0.997   1.960 -0.2886 -0.3912 -0.2926
 7978SOL    HW135567   1.294   0.945   2.005  0.3670  0.5740 -0.1330
 7978SOL    HW235568   1.222   0.956   1.874 -0.2818  0.3696 -0.6593
 7979SOL     OW35569   0.041   2.528  10.816 -0.0497  0.6739  0.4185
 7979SOL    HW135570   4.702   2.577  10.837 -0.5186  0.3411 -0.6058
 7979SOL    HW235571   0.042   2.470  10.893 -0.7516  0.2088  0.0721
 7980SOL     OW35572   0.620   2.532   5.902  0.1279 -0.3984 -0.2365
 7980SOL    HW135573   0.543   2.476   5.906 -2.1579  2.7245  0.0136
 7980SOL    HW235574   0.604   2.587   5.979  0.6464  0.0945 -0.4805
 7981SOL     OW35575   4.075   1.017  12.631  0.1166 -0.1498  0.4258
 7981SOL    HW135576   4.109   0.945  12.685  0.2986  1.0632  1.9437
 7981SOL    HW235577   4.162   1.051  12.612  0.3195 -1.3502 -0.7936
 7982SOL     OW35578   2.989   2.476  11.401 -0.5339 -0.3246  0.1160
 7982SOL    HW135579   3.033   2.555  11.370  0.3333 -0.5541  0.7609
 7982SOL    HW235580   2.971   2.423  11.323  1.0204 -2.1439  0.9696
 7983SOL     OW35581   0.023   3.722  11.390 -0.0041  0.2096  0.0723
 7983SOL    HW135582   4.725   3.801  11.351 -0.6000  0.3866  1.0190
 7983SOL    HW235583   0.038   3.673  11.309 -1.0848 -1.1280  0.6835
 7984SOL     OW35584   4.504   0.313   5.333 -0.5960 -0.1913 -0.0303
 7984SOL    HW135585   4.577   0.353   5.381  0.9992 -2.7708 -0.3145
 7984SOL    HW235586   4.460   0.390   5.296 -0.5701  0.2544  0.8594
 7985SOL     OW35587   2.776   1.836  17.483  0.6945 -0.3590 -0.2508
 7985SOL    HW135588   2.762   1.845  17.577  2.3311  2.1038 -0.2640
 7985SOL    HW235589   2.805   1.744  17.484 -0.4913 -0.7444 -1.0835
 7986SOL     OW35590   2.276   2.361   3.741  0.0428 -0.1599 -0.0941
 7986SOL    HW135591   2.297   2.448   3.709  2.4100 -0.8185 -0.3519
 7986SOL    HW235592   2.349   2.309   3.706  0.2286  1.5653 -2.2139
 7987SOL     OW35593   3.186   0.775  11.868 -0.2973  0.0149 -0.1379
 7987SOL    HW135594   3.106   0.725  11.878 -0.8569  0.8692 -0.3379
 7987SOL    HW235595   3.202   0.758  11.775  0.6368  1.7082 -0.2927
 7988SOL     OW35596   0.647   3.706   1.565 -0.4956 -0.1894 -0.0718
 7988SOL    HW135597   0.677   3.615   1.563  1.4579  0.5034 -1.2910
 7988SOL    HW235598   0.707   3.741   1.631  0.2595 -1.9550  0.1756
 7989SOL     OW35599   0.222   4.132   5.914 -0.0834  0.1776  0.4629
 7989SOL    HW135600   0.167   4.117   5.991  2.2788 -0.4588  2.0293
 7989SOL    HW235601   0.307   4.122   5.958 -0.1122 -1.0613  0.2445
 7990SOL     OW35602   3.020   1.150   2.250 -0.2060 -0.0339 -0.0402
 7990SOL    HW135603   2.995   1.099   2.327  0.4630 -0.6183 -0.2148
 7990SOL    HW235604   3.073   1.221   2.286  0.4040 -2.6081  4.0339
 7991SOL     OW35605   0.382   2.293  14.018 -0.2083  0.0034  0.1291
 7991SOL    HW135606   0.441   2.247  14.079  1.1219  0.3339 -0.9028
 7991SOL    HW235607   0.300   2.295  14.067 -0.2669  0.7926 -0.0091
 7992SOL     OW35608   1.990   3.116   2.859  0.2903 -0.3035  0.2269
 7992SOL    HW135609   2.015   3.046   2.798  2.7360  1.6562 -0.9966
 7992SOL    HW235610   2.005   3.192   2.803  3.2396 -0.5762  0.6679
 7993SOL     OW35611   0.795   2.115  17.441 -0.0549 -0.0376  0.1104
 7993SOL    HW135612   0.830   2.168  17.512  0.2108 -0.0022 -0.0492
 7993SOL    HW235613   0.714   2.084  17.482 -0.9550 -0.4445 -1.9826
 7994SOL     OW35614   1.391   4.110   0.671 -0.3580 -0.3085 -0.5266
 7994SOL    HW135615   1.437   4.032   0.639 -1.1773 -0.6100 -0.9530
 7994SOL    HW235616   1.464   4.171   0.679 -1.0929  0.7835 -2.3376
 7995SOL     OW35617   3.573   1.029   1.752  0.3666 -0.4515 -0.1888
 7995SOL    HW135618   3.586   0.952   1.698 -2.9067 -1.4219  0.3749
 7995SOL    HW235619   3.478   1.018   1.757  0.2634  0.4930 -0.0896
 7996SOL     OW35620   1.529   3.407   5.775  0.3023  0.8543 -0.4294
 7996SOL    HW135621   1.595   3.462   5.817 -1.6387  1.4710  1.8217
 7996SOL    HW235622   1.520   3.341   5.844 -1.2864  0.6915 -0.7759
 7997SOL     OW35623   0.626   1.044   2.183 -0.2926 -1.1712 -0.9799
 7997SOL    HW135624   0.720   1.060   2.188 -0.4646 -1.1257  2.1375
 7997SOL    HW235625   0.621   0.949   2.167  1.8640 -1.4819  0.2445
 7998SOL     OW35626   1.310   2.657   7.398 -0.3700  0.0611 -0.1714
 7998SOL    HW135627   1.278   2.647   7.308 -0.2841 -0.6283 -0.1235
 7998SOL    HW235628   1.326   2.572   7.438  1.7022  1.2259  1.5067
 7999SOL     OW35629   4.383   1.494   6.787  0.1738  0.3882  0.2092
 7999SOL    HW135630   4.464   1.448   6.811 -2.0200 -2.4824  2.0899
 7999SOL    HW235631   4.410   1.550   6.714  0.2988 -0.2225 -0.2228
 8000SOL     OW35632   3.352   1.284   7.966 -0.0005  0.3129  0.1925
 8000SOL    HW135633   3.354   1.251   8.056 -4.6314 -1.4216 -0.3346
 8000SOL    HW235634   3.282   1.349   7.977  1.3586  1.7797  0.1472
 8001SOL     OW35635   3.563   3.004  16.253  0.1480 -0.2533 -0.0359
 8001SOL    HW135636   3.491   3.041  16.304 -0.3945 -0.8603 -0.3628
 8001SOL    HW235637   3.573   3.068  16.183  0.2848  1.7568  1.8312
 8002SOL     OW35638   3.125   1.395   2.332 -0.0752  0.3028 -0.3584
 8002SOL    HW135639   3.179   1.452   2.278  0.6692  0.0233  0.0819
 8002SOL    HW235640   3.169   1.418   2.414  0.8297  0.4807 -0.8915
 8003SOL     OW35641   0.609   0.806  11.809 -0.4106  0.5547  0.2219
 8003SOL    HW135642   0.540   0.793  11.744 -0.5116  2.1473  0.0053
 8003SOL    HW235643   0.651   0.888  11.786 -0.1686 -0.2162 -2.0301
 8004SOL     OW35644   2.788   3.476  17.126 -0.3349 -0.1851  0.4582
 8004SOL    HW135645   2.865   3.455  17.072 -0.6692  1.0879 -0.5159
 8004SOL    HW235646   2.786   3.393  17.173 -3.4723  0.1734  0.9592
 8005SOL     OW35647   0.369   0.016   8.029 -0.0099  0.2197 -0.1153
 8005SOL    HW135648   0.420   4.721   7.957 -0.1650 -0.3581  0.0608
 8005SOL    HW235649   0.358   4.674   8.075  0.2886  1.2594  1.8513
 8006SOL     OW35650   2.971   2.398  14.916 -0.2384 -0.3098  0.1999
 8006SOL    HW135651   2.882   2.405  14.951 -0.7288  1.6003 -1.4743
 8006SOL    HW235652   3.018   2.473  14.951 -1.0043 -0.4080  1.4581
 8007SOL     OW35653   0.449   3.552   9.659  0.2631  0.2732 -0.1917
 8007SOL    HW135654   0.494   3.592   9.585 -1.7236  1.4603 -0.7568
 8007SOL    HW235655   0.366   3.598   9.671  0.2280  0.6306 -1.8970
 8008SOL     OW35656   2.895   1.966   0.573 -0.2707 -0.4477  0.1442
 8008SOL    HW135657   2.914   1.875   0.548  0.1505  0.7429 -3.8813
 8008SOL    HW235658   2.970   1.999   0.523 -2.9498 -0.8859 -4.1155
 8009SOL     OW35659   0.843   2.759   3.142 -0.4234 -0.3710  0.0126
 8009SOL    HW135660   0.786   2.759   3.065  1.6263 -1.0082 -1.4858
 8009SOL    HW235661   0.833   2.847   3.177 -0.7912 -0.8014  0.9893
 8010SOL     OW35662   1.230   1.381  10.620  0.1234  0.0258 -0.2733
 8010SOL    HW135663   1.151   1.418  10.580  0.2526 -0.7818 -1.2730
 8010SOL    HW235664   1.201   1.314  10.681 -0.7377  1.5226  0.9609
 8011SOL     OW35665   1.871   1.897  10.112  0.1223 -0.4096 -0.2173
 8011SOL    HW135666   1.843   1.824  10.057  1.0829 -0.2452 -0.9307
 8011SOL    HW235667   1.808   1.960  10.075 -0.7642  0.0002  2.0128
 8012SOL     OW35668   1.694   3.342   3.897  0.4697  0.1440 -0.1228
 8012SOL    HW135669   1.608   3.332   3.857 -0.0073 -0.1636  1.0027
 8012SOL    HW235670   1.686   3.317   3.989  0.6492 -0.2382 -0.2117
 8013SOL     OW35671   2.872   1.291  15.278  0.4634 -0.5202  0.3658
 8013SOL    HW135672   2.829   1.367  15.316  0.3077 -0.7642  0.6755
 8013SOL    HW235673   2.804   1.229  15.304  0.9557 -1.2164  0.0036
 8014SOL     OW35674   0.915   0.067  11.538 -0.5141  0.1360  0.1049
 8014SOL    HW135675   0.924   4.721  11.498  2.5294  0.7722 -0.5792
 8014SOL    HW235676   0.993   0.104  11.497  0.1979 -3.1159 -1.5591
 8015SOL     OW35677   2.316   4.183  17.358 -0.2957 -0.1618  0.3062
 8015SOL    HW135678   2.225   4.153  17.358 -0.2952 -0.1602  1.0311
 8015SOL    HW235679   2.339   4.185  17.265 -0.0562  1.3258  0.3872
 8016SOL     OW35680   3.752   2.559   9.257 -0.2840 -0.3442 -0.3802
 8016SOL    HW135681   3.708   2.506   9.324 -1.1821 -2.3644 -2.5538
 8016SOL    HW235682   3.685   2.625   9.237 -0.2697 -0.1474  0.2216
 8017SOL     OW35683   3.832   2.574   2.759  0.3067  0.0596  0.5500
 8017SOL    HW135684   3.896   2.592   2.827 -0.7750  0.5083  1.4591
 8017SOL    HW235685   3.821   2.665   2.731 -2.1478 -0.0062  1.2362
 8018SOL     OW35686   3.612   4.012   9.802  0.0826  0.1927 -0.6800
 8018SOL    HW135687   3.694   4.061   9.798  0.7858 -0.8622  0.7424
 8018SOL    HW235688   3.597   4.022   9.896 -0.9793 -0.5186 -0.7666
 8019SOL     OW35689   4.260   2.241   6.274  0.1478 -0.0807  0.0747
 8019SOL    HW135690   4.309   2.166   6.238 -0.2077  0.1659 -0.9265
 8019SOL    HW235691   4.301   2.305   6.216 -1.7673  0.9371 -0.1516
 8020SOL     OW35692   3.806   0.680   4.462 -0.3605  0.4105 -0.6461
 8020SOL    HW135693   3.861   0.741   4.414  0.2990  0.1571 -0.2059
 8020SOL    HW235694   3.869   0.624   4.506  0.4283  1.4159 -0.5097
 8021SOL     OW35695   1.979   0.972   5.842  0.2329 -1.3127  0.2598
 8021SOL    HW135696   1.971   0.890   5.891  1.6420 -0.5829  1.7230
 8021SOL    HW235697   2.018   1.032   5.906  0.5360 -0.2952 -0.8742
 8022SOL     OW35698   3.594   3.780   3.738 -0.1022 -0.3205  0.3100
 8022SOL    HW135699   3.547   3.846   3.686 -0.2770 -1.2153 -0.6639
 8022SOL    HW235700   3.611   3.829   3.818  0.1087 -1.7462  1.1264
 8023SOL     OW35701   3.203   3.458   7.376  0.0319 -0.0477 -0.4434
 8023SOL    HW135702   3.126   3.513   7.363 -1.2509 -1.5893  0.5672
 8023SOL    HW235703   3.273   3.522   7.363 -0.2545  0.2902 -0.3205
 8024SOL     OW35704   4.081   3.376  17.548 -1.0472 -0.2281 -0.0486
 8024SOL    HW135705   4.165   3.334  17.533 -1.8369 -1.7948 -0.0180
 8024SOL    HW235706   4.097   3.469  17.529 -0.3755 -0.1117  1.0675
 8025SOL     OW35707   1.884   3.901  10.168  0.4175 -0.1175 -0.0184
 8025SOL    HW135708   1.938   3.826  10.146  1.6331  0.4488  1.0613
 8025SOL    HW235709   1.941   3.969  10.132 -1.0785  0.6232 -1.0337
 8026SOL     OW35710   4.226   4.160   4.582 -0.1248 -0.0879  0.5435
 8026SOL    HW135711   4.319   4.181   4.594 -0.0617 -0.9162  1.5347
 8026SOL    HW235712   4.218   4.065   4.597 -0.7181 -0.9738 -5.5176
 8027SOL     OW35713   2.503   0.252   2.470  1.1909  0.2306 -0.5096
 8027SOL    HW135714   2.543   0.183   2.416 -0.3179 -0.3170 -0.9118
 8027SOL    HW235715   2.547   0.246   2.554 -3.0084 -0.6835  1.6110
 8028SOL     OW35716   3.940   3.211  15.016  0.1958  0.0204  0.1667
 8028SOL    HW135717   3.975   3.265  14.946 -0.4102  1.5217  1.0151
 8028SOL    HW235718   3.926   3.278  15.083 -1.9886  0.9968 -1.2683
 8029SOL     OW35719   0.994   3.513   1.559  0.3764 -0.1693  0.5852
 8029SOL    HW135720   1.035   3.428   1.545  1.5779  0.7066 -1.2413
 8029SOL    HW235721   1.035   3.567   1.491 -1.5383 -0.1904 -0.5680
 8030SOL     OW35722   3.862   3.645  16.002 -0.4645 -0.5309 -0.6770
 8030SOL    HW135723   3.953   3.624  15.982 -0.1829  0.7008 -0.7025
 8030SOL    HW235724   3.852   3.721  15.945 -0.3277 -0.1410 -0.1838
 8031SOL     OW35725   0.378   3.138  12.925 -0.3213  0.3566  0.2688
 8031SOL    HW135726   0.285   3.123  12.909 -0.2843  1.5694 -1.0837
 8031SOL    HW235727   0.385   3.104  13.014  1.6433  1.7261  0.6653
 8032SOL     OW35728   2.837   4.527  11.455  0.1012  0.0330 -0.3960
 8032SOL    HW135729   2.807   4.616  11.437  0.4672  0.6588  2.0952
 8032SOL    HW235730   2.881   4.535  11.540  3.0471 -0.5983 -1.8885
 8033SOL     OW35731   2.543   3.827   5.726  0.3174 -0.1111 -0.1989
 8033SOL    HW135732   2.606   3.899   5.726  3.5349 -2.9389  0.0133
 8033SOL    HW235733   2.571   3.759   5.787 -0.2161 -0.9692 -0.9093
 8034SOL     OW35734   0.323   1.713   7.295 -0.6100  0.2609  0.0186
 8034SOL    HW135735   0.273   1.670   7.364 -0.4635 -2.1748 -1.4132
 8034SOL    HW235736   0.256   1.701   7.229  0.4019  2.2099 -1.3651
 8035SOL     OW35737   0.826   0.276  10.815 -0.5762  0.3565  0.3643
 8035SOL    HW135738   0.800   0.313  10.899 -0.0703 -4.0199  2.4770
 8035SOL    HW235739   0.803   0.347  10.755  2.1682  1.9995  1.2436
 8036SOL     OW35740   3.704   1.195   9.172 -0.4102 -0.4207  0.0698
 8036SOL    HW135741   3.656   1.130   9.223 -0.1793  2.2935  3.7441
 8036SOL    HW235742   3.785   1.150   9.149 -0.8863 -0.4592 -1.4766
 8037SOL     OW35743   3.709   1.765   1.084 -0.1733 -0.5167 -0.0192
 8037SOL    HW135744   3.676   1.677   1.068 -0.6841 -0.1748 -0.8262
 8037SOL    HW235745   3.749   1.771   0.997 -1.0827 -2.3380 -0.5506
 8038SOL     OW35746   0.513   0.992  12.383  0.7807 -0.0682 -0.2855
 8038SOL    HW135747   0.453   1.028  12.448  2.4223  1.2571  0.5127
 8038SOL    HW235748   0.474   0.915  12.342 -1.0673 -0.5485  2.3507
 8039SOL     OW35749   2.896   0.210  17.304  0.1910  0.5331  0.0978
 8039SOL    HW135750   2.824   0.211  17.240  1.6086 -0.8167 -1.5184
 8039SOL    HW235751   2.873   0.286  17.357 -0.8937  0.7356 -0.6503
 8040SOL     OW35752   4.341   4.278   6.986 -0.0557 -0.4232  0.1965
 8040SOL    HW135753   4.303   4.295   7.072  0.0561  1.5859 -0.1580
 8040SOL    HW235754   4.259   4.295   6.940  0.7271  0.4192 -0.8788
 8041SOL     OW35755   1.903   2.511   6.548 -0.8835  0.2160 -0.0499
 8041SOL    HW135756   1.961   2.527   6.622  1.3594  0.0406 -1.7902
 8041SOL    HW235757   1.846   2.441   6.581 -0.3249 -0.2659 -0.1133
 8042SOL     OW35758   0.660   1.190  15.669 -0.2014 -0.4876  0.1279
 8042SOL    HW135759   0.615   1.137  15.734 -0.3765  1.9878  2.0561
 8042SOL    HW235760   0.706   1.119  15.624  0.9064 -0.9590  1.9781
 8043SOL     OW35761   3.028   0.253   3.816 -0.1379 -0.0642  0.1861
 8043SOL    HW135762   3.101   0.307   3.845 -1.2043  1.9521 -0.9610
 8043SOL    HW235763   2.981   0.257   3.900  1.5822 -0.1161  1.1526
 8044SOL     OW35764   1.726   1.409   5.573  0.2371  0.6481  0.1827
 8044SOL    HW135765   1.663   1.406   5.646  0.6133  0.2694  0.4956
 8044SOL    HW235766   1.798   1.460   5.610 -0.1809  2.3091 -1.3388
 8045SOL     OW35767   1.816   1.017  15.828  0.4005 -0.0126 -0.3192
 8045SOL    HW135768   1.839   1.072  15.752 -2.1372  2.2099  0.4871
 8045SOL    HW235769   1.904   0.982  15.839 -0.7571 -2.7008  0.3327
 8046SOL     OW35770   0.932   3.123  17.075  0.3629  0.2426  0.2763
 8046SOL    HW135771   0.900   3.212  17.058 -0.2060 -0.2983 -1.4678
 8046SOL    HW235772   1.018   3.149  17.107  1.0979 -2.7586  0.7741
 8047SOL     OW35773   1.847   2.165   6.439  0.6063 -0.1085  0.1006
 8047SOL    HW135774   1.926   2.113   6.454  0.9135  1.5873  4.4190
 8047SOL    HW235775   1.802   2.143   6.521  1.9879 -0.4177  0.7712
 8048SOL     OW35776   0.294   1.153   4.474  0.1797 -0.0038 -0.0144
 8048SOL    HW135777   0.283   1.061   4.498 -0.9097 -0.5327 -2.5153
 8048SOL    HW235778   0.333   1.189   4.553  1.1866 -1.1820  0.0182
 8049SOL     OW35779   1.914   3.364   9.607  0.2022  0.5400  0.2257
 8049SOL    HW135780   1.977   3.385   9.538  1.6067  1.9434  1.9170
 8049SOL    HW235781   1.899   3.454   9.636 -0.2228  0.8383 -0.9229
 8050SOL     OW35782   4.121   1.664   4.415 -0.7645  0.2961  0.1299
 8050SOL    HW135783   4.083   1.640   4.500 -3.0830  0.2152 -0.9291
 8050SOL    HW235784   4.183   1.736   4.427 -1.0184 -0.0144  3.3958
 8051SOL     OW35785   3.257   0.987   5.738 -0.7895 -0.3632  0.3128
 8051SOL    HW135786   3.197   1.059   5.759  0.0278 -0.0467  1.5529
 8051SOL    HW235787   3.344   1.023   5.752 -1.4311  0.2924  2.5945
 8052SOL     OW35788   1.982   2.077   4.022 -0.1805 -0.3531 -0.3229
 8052SOL    HW135789   2.021   2.101   3.938  1.4751  0.7052  0.7638
 8052SOL    HW235790   1.891   2.070   3.993  0.7103  1.6100 -3.5700
 8053SOL     OW35791   1.597   3.476   2.124 -0.2323 -0.0439 -0.1067
 8053SOL    HW135792   1.552   3.450   2.044 -1.5262 -1.6379  1.1386
 8053SOL    HW235793   1.596   3.572   2.118 -2.1443 -0.1425 -1.4135
 8054SOL     OW35794   4.341   2.687   8.362  1.1274  0.0401  0.3575
 8054SOL    HW135795   4.336   2.754   8.430 -0.6338 -1.0193  1.2848
 8054SOL    HW235796   4.416   2.717   8.312 -0.5179 -1.5378 -3.1048
 8055SOL     OW35797   0.040   1.934   1.513  0.3780  0.2243 -0.2920
 8055SOL    HW135798   0.110   1.951   1.576 -0.6851 -0.1969  1.0090
 8055SOL    HW235799   4.728   1.881   1.573  2.1687 -0.3998  0.7202
 8056SOL     OW35800   0.117   0.088  11.108 -0.3406 -0.0763  0.2569
 8056SOL    HW135801   0.051   0.157  11.100 -0.7623 -0.4233  0.7126
 8056SOL    HW235802   0.066   0.010  11.130 -2.7124  1.3002 -0.3756
 8057SOL     OW35803   1.504   4.402   3.958  0.5813  0.7889  0.2165
 8057SOL    HW135804   1.476   4.343   3.888  0.8052  0.4297  0.4266
 8057SOL    HW235805   1.566   4.447   3.901 -1.4930 -0.8737 -3.3272
 8058SOL     OW35806   2.387   0.301   1.829  0.0753  0.2806 -0.3613
 8058SOL    HW135807   2.359   0.243   1.758 -3.7456 -0.0031  1.3565
 8058SOL    HW235808   2.318   0.282   1.893 -1.0124  0.3211 -1.5167
 8059SOL     OW35809   4.005   4.739   3.663  0.1397  0.0901  0.2571
 8059SOL    HW135810   3.922   4.736   3.614  0.9969  0.1531 -1.2156
 8059SOL    HW235811   4.058   0.021   3.587  1.7346 -3.2994  0.3548
 8060SOL     OW35812   4.168   2.924   7.469 -0.2462  0.0925  0.0172
 8060SOL    HW135813   4.099   2.985   7.442  1.0561  1.2558 -0.7016
 8060SOL    HW235814   4.250   2.968   7.447  0.2979 -0.1546  1.5439
 8061SOL     OW35815   2.518   4.479  13.334 -0.1686  0.1219  0.0682
 8061SOL    HW135816   2.489   4.496  13.423 -0.7672  0.7159 -0.2484
 8061SOL    HW235817   2.608   4.509  13.343 -0.9296  2.4614 -0.2434
 8062SOL     OW35818   1.870   1.249   4.433  0.1508 -0.0308 -0.0476
 8062SOL    HW135819   1.806   1.302   4.480 -0.9344 -1.1209 -0.2693
 8062SOL    HW235820   1.939   1.309   4.406 -0.9266  1.4122  0.4564
 8063SOL     OW35821   2.616   4.672   5.591 -0.2882 -0.0244 -0.1804
 8063SOL    HW135822   2.707   4.699   5.577 -0.2922  0.8699  1.5410
 8063SOL    HW235823   2.571   0.013   5.609  1.5224  0.8490  0.4073
 8064SOL     OW35824   3.736   2.214   6.266 -0.5151 -0.3706 -0.1908
 8064SOL    HW135825   3.749   2.260   6.183 -0.7730  0.0502  0.0008
 8064SOL    HW235826   3.825   2.211   6.301 -0.3699  0.1779 -0.5131
 8065SOL     OW35827   4.518   3.422  15.959  0.3473  0.0541 -0.1299
 8065SOL    HW135828   4.531   3.328  15.973  0.9183  0.4254  1.8822
 8065SOL    HW235829   4.589   3.431  15.895  0.8552 -0.9066  0.2893
 8066SOL     OW35830   2.701   2.801   3.084 -0.3398  0.0458  0.3713
 8066SOL    HW135831   2.632   2.763   3.031 -0.0724 -0.5605  0.4604
 8066SOL    HW235832   2.758   2.725   3.090  0.4161  0.3613 -3.0972
 8067SOL     OW35833   1.709   3.004   8.703 -0.1798 -0.1028  0.2488
 8067SOL    HW135834   1.694   2.917   8.666 -0.3696 -0.2975  0.7884
 8067SOL    HW235835   1.657   2.997   8.783  1.1788  1.4150  1.2573
 8068SOL     OW35836   1.938   2.906  12.614 -0.1096  0.0062 -0.0274
 8068SOL    HW135837   1.904   2.831  12.565 -0.1960  0.3706 -0.5250
 8068SOL    HW235838   1.886   2.980  12.582 -0.7608 -1.0335 -1.3773
 8069SOL     OW35839   3.604   3.981   5.014 -0.3841 -0.1188 -0.7237
 8069SOL    HW135840   3.631   4.031   5.091 -2.1354 -1.5421  0.7928
 8069SOL    HW235841   3.551   4.046   4.968 -0.7399  1.8346  2.4452
 8070SOL     OW35842   2.775   2.210   1.642  0.0419  0.1827 -0.2867
 8070SOL    HW135843   2.751   2.160   1.720 -0.0812 -0.1180 -0.5177
 8070SOL    HW235844   2.690   2.239   1.609 -1.1943 -1.6606  1.3287
 8071SOL     OW35845   3.514   2.629  13.669 -0.2501 -0.4188  0.1967
 8071SOL    HW135846   3.574   2.692  13.630  0.9866 -1.0133  1.1388
 8071SOL    HW235847   3.564   2.596  13.744 -1.6585 -0.4260  1.1334
 8072SOL     OW35848   4.487   1.091  11.161 -0.6880  0.4777 -0.2676
 8072SOL    HW135849   4.432   1.130  11.093 -1.5405 -1.7352 -0.8370
 8072SOL    HW235850   4.417   1.034  11.191  0.1867 -2.1930 -3.3818
 8073SOL     OW35851   3.225   0.011   2.059  0.0758 -0.2224  0.9188
 8073SOL    HW135852   3.306   0.062   2.054  0.3050 -0.5382  1.4056
 8073SOL    HW235853   3.168   0.053   1.994  1.3908  1.4334  0.8301
 8074SOL     OW35854   4.679   0.126   7.363  0.1281 -0.2251  0.3721
 8074SOL    HW135855   4.676   0.030   7.371 -0.7887 -0.3844 -1.8068
 8074SOL    HW235856   0.027   0.152   7.388 -0.8276  0.2267  3.4030
 8075SOL     OW35857   1.424   1.709   6.409 -0.3539 -0.1966 -0.2740
 8075SOL    HW135858   1.398   1.660   6.487 -0.9863  0.7856  0.1308
 8075SOL    HW235859   1.410   1.800   6.437 -0.8854 -0.7440  1.2716
 8076SOL     OW35860   1.974   3.671   1.919 -0.0313 -0.3130 -0.1366
 8076SOL    HW135861   1.951   3.753   1.874 -0.2981  0.4044  1.2944
 8076SOL    HW235862   1.895   3.657   1.971  0.1556 -1.0388 -0.0616
 8077SOL     OW35863   2.861   0.442   2.272 -0.1961  0.0784 -0.0545
 8077SOL    HW135864   2.833   0.457   2.362 -0.0199  0.9356 -0.1497
 8077SOL    HW235865   2.931   0.505   2.254  0.1262  0.2194  1.6757
 8078SOL     OW35866   3.740   1.054  10.033  0.2688  0.0100  0.0883
 8078SOL    HW135867   3.702   1.082  10.117  0.7055 -0.1768  0.3453
 8078SOL    HW235868   3.673   1.076   9.968 -0.7962  0.6648  1.4112
 8079SOL     OW35869   1.053   1.013   6.032  0.2909 -0.0448 -0.0401
 8079SOL    HW135870   1.124   1.043   5.976  0.2797  0.4790  0.2267
 8079SOL    HW235871   0.983   1.067   5.997 -0.1619  0.0948  1.0808
 8080SOL     OW35872   4.165   1.329  12.452 -0.0455  0.2951 -0.3377
 8080SOL    HW135873   4.211   1.248  12.476  0.0741  0.4584 -0.0038
 8080SOL    HW235874   4.145   1.310  12.361  0.3477 -1.7050  0.0002
 8081SOL     OW35875   4.171   4.505   8.363  0.0026 -0.1445 -0.3658
 8081SOL    HW135876   4.162   4.444   8.436  1.6439  1.5833  1.2768
 8081SOL    HW235877   4.095   4.562   8.375  0.7919  0.8885 -0.2328
 8082SOL     OW35878   1.077   2.592   3.567  0.4251  0.1617 -1.0085
 8082SOL    HW135879   1.098   2.683   3.585 -2.1248  0.6128 -0.3497
 8082SOL    HW235880   1.164   2.553   3.569 -0.0906 -0.6870  4.9538
 8083SOL     OW35881   3.462   1.134   8.845  0.0010 -0.2361 -0.9838
 8083SOL    HW135882   3.484   1.083   8.923  1.0644 -2.4401 -2.7464
 8083SOL    HW235883   3.369   1.113   8.841 -1.0068  3.8338  0.7468
 8084SOL     OW35884   0.879   0.716   7.383  0.5271  0.1156 -0.3734
 8084SOL    HW135885   0.949   0.744   7.442  0.1599  0.7831 -0.2531
 8084SOL    HW235886   0.805   0.706   7.443  0.0746 -5.2856 -1.8733
 8085SOL     OW35887   0.337   2.929  14.706  0.2305  0.8961  0.0067
 8085SOL    HW135888   0.274   2.995  14.677 -0.5892  0.3727  0.6090
 8085SOL    HW235889   0.405   2.927  14.638 -0.7042  1.0505 -0.9448
 8086SOL     OW35890   1.143   0.763  15.264  0.4558 -0.1468  0.1537
 8086SOL    HW135891   1.136   0.705  15.340  0.7261 -0.4081 -0.0201
 8086SOL    HW235892   1.154   0.698  15.194  0.1507  2.9225 -2.7173
 8087SOL     OW35893   3.967   1.236   8.565  0.1194 -0.0547  0.0622
 8087SOL    HW135894   3.955   1.173   8.494  0.0625  0.1072 -0.0720
 8087SOL    HW235895   3.877   1.267   8.575 -0.1450 -1.2154  1.2585
 8088SOL     OW35896   4.539   0.140   6.368  0.0756 -0.1956  0.0505
 8088SOL    HW135897   4.497   0.179   6.444 -2.1299  0.6388 -1.6190
 8088SOL    HW235898   4.628   0.143   6.404 -0.1997 -0.4486  0.7486
 8089SOL     OW35899   1.855   0.723   6.906  0.1985 -0.2588 -0.0594
 8089SOL    HW135900   1.878   0.658   6.972 -0.1779 -1.9746 -1.5908
 8089SOL    HW235901   1.927   0.701   6.846  0.4420  2.4071 -0.7135
 8090SOL     OW35902   0.957   4.433  13.287 -0.4838 -1.0882 -0.3284
 8090SOL    HW135903   1.011   4.358  13.310  3.8344  1.7848 -1.1443
 8090SOL    HW235904   0.866   4.403  13.282 -1.1680  0.9656 -0.3600
 8091SOL     OW35905   2.025   1.469  16.872 -0.4581 -0.6018 -0.0539
 8091SOL    HW135906   2.025   1.528  16.948  1.7836 -2.6763  1.5730
 8091SOL    HW235907   2.107   1.422  16.889  1.0499  2.5821  1.5415
 8092SOL     OW35908   1.505   2.467   5.724 -0.1127 -0.2221  0.1541
 8092SOL    HW135909   1.491   2.557   5.754  2.8887  0.7064 -1.2114
 8092SOL    HW235910   1.600   2.463   5.714 -0.2381 -1.4116 -0.4524
 8093SOL     OW35911   4.365   1.896   0.225  0.5685  0.5954 -0.1491
 8093SOL    HW135912   4.354   1.940   0.141  0.5254 -1.9177 -1.4899
 8093SOL    HW235913   4.281   1.851   0.232  0.8326  0.1841  0.4908
 8094SOL     OW35914   4.079   4.509   3.736  0.0596  0.9441 -0.0577
 8094SOL    HW135915   4.041   4.594   3.713 -0.2285  0.4886 -1.2576
 8094SOL    HW235916   4.002   4.453   3.725  0.6822  0.3864 -1.4817
 8095SOL     OW35917   2.246   1.972  13.445  0.1326 -0.0779 -0.0276
 8095SOL    HW135918   2.199   2.029  13.506 -2.0863 -0.5721 -1.2930
 8095SOL    HW235919   2.303   1.936  13.513  0.5928 -1.7640 -1.2949
 8096SOL     OW35920   3.777   2.396   3.874 -0.3792  0.3701 -0.4346
 8096SOL    HW135921   3.751   2.307   3.851  0.1028  0.3869 -1.0575
 8096SOL    HW235922   3.698   2.449   3.879 -1.4480 -1.3387  0.3687
 8097SOL     OW35923   0.935   0.575  13.337 -0.1589  0.6346  0.1478
 8097SOL    HW135924   0.863   0.631  13.305  0.9477  2.0018  0.0629
 8097SOL    HW235925   1.004   0.598  13.275  0.5606  0.2930  0.8262
 8098SOL     OW35926   0.053   3.873   8.907 -0.1018 -0.4268 -0.0310
 8098SOL    HW135927   0.122   3.934   8.880  0.2037 -0.5926  0.3824
 8098SOL    HW235928   0.069   3.867   9.001  0.2920  1.8229  0.0417
 8099SOL     OW35929   2.428   1.252  16.972 -0.6295  0.6132  0.1541
 8099SOL    HW135930   2.338   1.220  16.961 -0.9924  1.1284  1.6368
 8099SOL    HW235931   2.425   1.264  17.067 -1.2238  0.0152  0.2131
 8100SOL     OW35932   0.241   0.288   6.403 -0.0372 -0.2841 -0.3065
 8100SOL    HW135933   0.311   0.346   6.433  1.1786 -3.2110  2.5720
 8100SOL    HW235934   0.283   0.262   6.321  0.2165 -1.4634  0.1960
 8101SOL     OW35935   3.345   2.079   6.888  0.6770 -0.0121  0.1729
 8101SOL    HW135936   3.279   2.051   6.825 -1.2769  1.4463  1.5694
 8101SOL    HW235937   3.344   2.172   6.863  2.0091 -0.1535 -0.4457
 8102SOL     OW35938   2.280   4.709  13.394  0.6158  0.0974 -0.5551
 8102SOL    HW135939   2.239   4.634  13.436  0.3621  0.6642  0.1961
 8102SOL    HW235940   2.283   4.684  13.301 -1.3809 -0.5599 -0.4461
 8103SOL     OW35941   3.226   3.631  10.457  0.0796 -0.2355  0.7387
 8103SOL    HW135942   3.276   3.665  10.531 -0.9661 -0.5529  1.5935
 8103SOL    HW235943   3.169   3.568  10.501  0.0898 -1.2529 -0.7212
 8104SOL     OW35944   0.138   0.212  17.266  0.0878  0.6115 -0.7515
 8104SOL    HW135945   0.048   0.227  17.240 -0.0081 -1.6157 -1.6777
 8104SOL    HW235946   0.164   0.138  17.212 -1.1778 -1.1460  1.0726
 8105SOL     OW35947   2.448   4.467   2.999 -0.3749 -0.7085 -0.2231
 8105SOL    HW135948   2.405   4.546   2.969 -0.5354 -1.4283 -1.8771
 8105SOL    HW235949   2.488   4.485   3.085  1.9360 -0.8064 -1.2678
 8106SOL     OW35950   2.338   0.361   5.226 -0.4037 -0.6564 -0.2924
 8106SOL    HW135951   2.376   0.446   5.248 -0.6760 -1.6106  4.0450
 8106SOL    HW235952   2.383   0.299   5.284 -0.7285 -2.3535 -1.8511
 8107SOL     OW35953   4.483   3.200  13.503 -0.2352  0.0248  0.4010
 8107SOL    HW135954   4.392   3.187  13.531 -0.0435 -0.5087  0.7761
 8107SOL    HW235955   4.477   3.255  13.425  0.4140  0.6727  0.8094
 8108SOL     OW35956   0.516   4.364  14.790 -0.0098  0.0127 -0.0054
 8108SOL    HW135957   0.510   4.435  14.854  0.1043 -1.6861  1.8674
 8108SOL    HW235958   0.514   4.411  14.706 -3.6250 -0.7886 -0.3520
 8109SOL     OW35959   3.594   2.868   6.866 -0.4347  0.4606  0.3505
 8109SOL    HW135960   3.566   2.783   6.902  1.2831 -1.2356 -2.3466
 8109SOL    HW235961   3.539   2.869   6.788  0.7880  1.1163 -0.4859
 8110SOL     OW35962   1.973   0.377  10.776 -0.2031  0.2997 -0.3049
 8110SOL    HW135963   1.896   0.359  10.829  0.3226 -0.4236  0.2027
 8110SOL    HW235964   2.044   0.328  10.819 -0.8137 -0.5411 -0.2519
 8111SOL     OW35965   4.018   0.454   9.582 -0.2639 -0.0267 -0.1390
 8111SOL    HW135966   4.028   0.538   9.626 -1.0175 -1.2105  2.3235
 8111SOL    HW235967   3.964   0.417   9.652 -2.1060  0.1846 -1.4615
 8112SOL     OW35968   2.533   0.160   5.316 -0.1453  0.0391 -0.1396
 8112SOL    HW135969   2.614   0.211   5.308 -0.2687  0.3490  0.5141
 8112SOL    HW235970   2.528   0.140   5.410  0.5812  1.2403  0.1562
 8113SOL     OW35971   4.632   3.978   1.315  0.1879 -0.2390  0.4517
 8113SOL    HW135972   4.664   3.899   1.270  0.8162  0.2914 -0.0237
 8113SOL    HW235973   4.576   4.019   1.250  2.0531  1.2151 -0.2557
 8114SOL     OW35974   3.166   0.977   4.946 -0.3652 -0.4911 -0.3403
 8114SOL    HW135975   3.261   0.983   4.956 -0.3971 -1.4329  0.5418
 8114SOL    HW235976   3.139   0.983   5.038 -2.3953  1.6431 -1.0820
 8115SOL     OW35977   4.343   2.235   3.924  0.3998  0.1182  0.6663
 8115SOL    HW135978   4.335   2.158   3.980 -2.8113 -0.5934 -0.7388
 8115SOL    HW235979   4.251   2.261   3.928  1.0276  2.4032 -0.0439
 8116SOL     OW35980   1.497   0.218   0.350 -0.1576 -0.0259  0.0874
 8116SOL    HW135981   1.404   0.216   0.330  0.2227 -3.1639 -1.3846
 8116SOL    HW235982   1.533   0.203   0.262  2.2824  1.4384  0.8271
 8117SOL     OW35983   2.267   1.341   4.571 -0.4108 -0.7774  0.3902
 8117SOL    HW135984   2.231   1.424   4.603 -0.7660 -0.4698 -0.8110
 8117SOL    HW235985   2.212   1.276   4.616  0.4565 -1.6467  0.2045
 8118SOL     OW35986   2.135   4.729   8.599  0.4845  0.0071  0.5008
 8118SOL    HW135987   2.222   4.692   8.582  1.3970  1.4257  2.0488
 8118SOL    HW235988   2.104   4.671   8.668  0.9065 -0.8158 -0.0080
 8119SOL     OW35989   3.227   1.041   4.051 -0.1930 -0.0861  0.6539
 8119SOL    HW135990   3.203   1.012   3.963 -3.5696 -1.3884  1.9985
 8119SOL    HW235991   3.287   1.113   4.030 -2.2502  1.6451  0.7548
 8120SOL     OW35992   3.890   3.939   6.258 -0.0930  0.3184  0.0474
 8120SOL    HW135993   3.864   4.022   6.218 -4.0169 -0.8972  0.0314
 8120SOL    HW235994   3.817   3.920   6.318  0.4595 -2.2989 -0.0906
 8121SOL     OW35995   1.400   1.168   7.875  0.3861  0.1566  0.3617
 8121SOL    HW135996   1.358   1.248   7.845  1.8645  0.2642 -1.4035
 8121SOL    HW235997   1.336   1.128   7.934 -0.1942  0.9985  0.2953
 8122SOL     OW35998   1.364   2.447   5.496 -0.1351  0.7487  0.4750
 8122SOL    HW135999   1.422   2.437   5.572  1.1196  0.9338 -0.4677
 8122SOL    HW236000   1.418   2.424   5.420  0.3446  0.3473  0.9308
 8123SOL     OW36001   3.161   3.566   3.890  0.1979 -0.4163 -0.5347
 8123SOL    HW136002   3.078   3.593   3.928  1.3952 -0.1459  1.8498
 8123SOL    HW236003   3.206   3.650   3.876 -0.2617 -0.4334 -2.2071
 8124SOL     OW36004   4.553   0.526   6.185 -0.0513 -0.1435 -0.8865
 8124SOL    HW136005   4.485   0.556   6.124  0.5386 -0.8017 -1.8672
 8124SOL    HW236006   4.575   0.442   6.144  0.5859 -0.8265  0.8739
 8125SOL     OW36007   1.461   2.144   2.073  0.5083 -0.0559  0.0090
 8125SOL    HW136008   1.536   2.143   2.014 -0.1129  1.0189 -0.8036
 8125SOL    HW236009   1.475   2.215   2.137 -0.8286  1.4501 -1.3681
 8126SOL     OW36010   0.142   1.456  13.022 -0.4605 -0.3618  0.3009
 8126SOL    HW136011   0.074   1.507  12.977  0.5778  1.4504  0.7961
 8126SOL    HW236012   0.140   1.381  12.961  1.1998  1.0047 -1.4176
 8127SOL     OW36013   3.150   2.103   5.421  0.1187 -0.3913  0.6110
 8127SOL    HW136014   3.108   2.053   5.351 -1.3218  1.1997  0.3399
 8127SOL    HW236015   3.103   2.187   5.416  0.2935 -0.2800  0.8177
 8128SOL     OW36016   2.336   2.350   8.649 -0.3323  0.4639  0.0149
 8128SOL    HW136017   2.351   2.404   8.571  1.7578  1.0365  0.8059
 8128SOL    HW236018   2.250   2.376   8.681 -0.4488 -0.7095  0.6287
 8129SOL     OW36019   3.699   3.518   1.351 -0.0883 -0.5583 -0.0208
 8129SOL    HW136020   3.790   3.547   1.341 -0.6689  0.5716 -2.1511
 8129SOL    HW236021   3.668   3.592   1.404  1.8014 -1.4070  2.2596
 8130SOL     OW36022   1.665   2.869   7.224 -0.3217 -0.0192 -0.4711
 8130SOL    HW136023   1.694   2.955   7.254  0.1727  0.7971 -3.3175
 8130SOL    HW236024   1.713   2.854   7.143 -3.1321 -2.6800 -1.6760
 8131SOL     OW36025   3.772   2.451  13.337  0.8829 -0.8128 -0.4790
 8131SOL    HW136026   3.799   2.491  13.255  0.9485 -2.3069 -1.1935
 8131SOL    HW236027   3.681   2.427  13.318  1.4102 -3.1371 -0.1312
 8132SOL     OW36028   3.058   4.272   2.975  0.3015 -0.4866  0.6583
 8132SOL    HW136029   3.084   4.189   2.935 -0.6945  0.3725 -1.7550
 8132SOL    HW236030   3.035   4.241   3.063 -0.3295  0.2780  0.7605
 8133SOL     OW36031   2.864   0.387  13.063 -0.1640  0.3814  0.5431
 8133SOL    HW136032   2.954   0.374  13.032 -0.1792  0.4847  0.4557
 8133SOL    HW236033   2.876   0.362  13.155 -0.1611  0.2178  0.4985
 8134SOL     OW36034   2.255   0.200   9.445 -0.6712 -0.2264 -0.2701
 8134SOL    HW136035   2.309   0.168   9.517 -0.8809 -0.5976 -0.2774
 8134SOL    HW236036   2.265   0.295   9.450 -0.3121 -0.1482 -2.5629
 8135SOL     OW36037   2.134   1.121   9.264 -0.2732  0.4402  0.0460
 8135SOL    HW136038   2.223   1.086   9.269  0.5583  3.0506  2.9315
 8135SOL    HW236039   2.077   1.049   9.290 -0.5440  0.5226 -0.3106
 8136SOL     OW36040   2.113   1.344   2.521 -0.0565 -0.3457  0.3288
 8136SOL    HW136041   2.124   1.427   2.568  2.8442  0.1806 -1.3037
 8136SOL    HW236042   2.078   1.289   2.591  0.4199  0.6265  1.3426
 8137SOL     OW36043   0.558   1.041   7.284  0.0018  0.2395 -0.2749
 8137SOL    HW136044   0.549   0.948   7.307  0.5723  0.6764  1.6914
 8137SOL    HW236045   0.579   1.039   7.191 -1.0820 -2.3286 -0.4701
 8138SOL     OW36046   2.881   0.402   9.709  0.3567  0.5316  0.0569
 8138SOL    HW136047   2.854   0.400   9.617 -0.8644 -2.7551  0.4843
 8138SOL    HW236048   2.902   0.495   9.714  2.0611  0.1556  0.0507
 8139SOL     OW36049   1.545   3.245   5.992 -0.1725 -0.2231  0.5209
 8139SOL    HW136050   1.459   3.205   6.005  0.2608 -2.0127 -2.2328
 8139SOL    HW236051   1.598   3.178   6.036  0.6682  0.8254  1.0920
 8140SOL     OW36052   3.621   3.574  13.585  0.0157  0.0384  0.3960
 8140SOL    HW136053   3.644   3.541  13.672 -0.1188 -1.6678 -0.2247
 8140SOL    HW236054   3.655   3.663  13.596  0.1931 -0.1807  1.6816
 8141SOL     OW36055   2.668   3.195   8.351  0.1623 -0.5684 -0.7279
 8141SOL    HW136056   2.721   3.219   8.427  0.6481  0.6034 -1.4378
 8141SOL    HW236057   2.707   3.235   8.273  0.3481 -0.3376 -0.5160
 8142SOL     OW36058   3.034   2.045   4.967 -0.1023 -0.3480 -0.5335
 8142SOL    HW136059   3.111   2.053   4.911  1.0002  1.1135  1.1867
 8142SOL    HW236060   3.029   2.136   4.994  0.9518 -0.8078  1.2378
 8143SOL     OW36061   3.768   0.748   3.966  0.1040  0.4909 -0.0608
 8143SOL    HW136062   3.822   0.827   3.967 -0.5237  0.9257 -0.2684
 8143SOL    HW236063   3.694   0.781   3.915  1.1238 -0.6227 -2.3070
 8144SOL     OW36064   1.250   1.568  10.312 -0.4300  0.0007  0.0002
 8144SOL    HW136065   1.299   1.634  10.360 -0.9545  0.4768 -0.1210
 8144SOL    HW236066   1.173   1.558  10.369 -0.8533 -0.0752 -0.5798
 8145SOL     OW36067   4.512   4.616  12.108  0.0478 -0.3903  0.5560
 8145SOL    HW136068   4.553   4.532  12.128  0.1658 -0.1524  1.3008
 8145SOL    HW236069   4.518   4.620  12.012  2.8711 -0.1208  0.7395
 8146SOL     OW36070   3.552   3.662   9.485  0.4597  0.7087  0.6088
 8146SOL    HW136071   3.585   3.577   9.513 -1.3097 -0.6024 -1.2807
 8146SOL    HW236072   3.486   3.677   9.553  0.7617  2.3091  0.5573
 8147SOL     OW36073   3.498   1.083   7.264  0.1149 -0.5886  0.4760
 8147SOL    HW136074   3.530   1.151   7.323 -1.7130 -1.3753  2.3758
 8147SOL    HW236075   3.506   1.131   7.182  0.7675  0.8634  1.3971
 8148SOL     OW36076   2.943   0.753   7.952 -0.2779 -0.6737  0.2910
 8148SOL    HW136077   2.982   0.666   7.942  0.0445 -0.4046 -0.8039
 8148SOL    HW236078   2.865   0.730   7.901  0.3158 -1.3190 -0.3311
 8149SOL     OW36079   2.603   2.058   8.019  0.3384  0.6906 -0.2268
 8149SOL    HW136080   2.672   2.051   7.952  1.3810 -0.0294  0.9196
 8149SOL    HW236081   2.532   2.064   7.955 -2.3308 -1.1561  2.6025
 8150SOL     OW36082   1.731   0.031   1.988  0.3147  0.0459  0.7250
 8150SOL    HW136083   1.713   0.123   1.969  0.7810 -0.2281 -1.0990
 8150SOL    HW236084   1.803   0.016   1.925 -1.7012 -0.3662 -1.4799
 8151SOL     OW36085   0.509   3.793   0.286  0.0836 -0.2670 -1.1017
 8151SOL    HW136086   0.576   3.738   0.326 -0.3280 -1.6073 -2.2903
 8151SOL    HW236087   0.440   3.731   0.265 -0.0374 -0.5461  0.0932
 8152SOL     OW36088   0.773   1.514  14.752  0.0447 -0.7447  0.7371
 8152SOL    HW136089   0.787   1.589  14.694 -0.1337 -0.3431  1.2190
 8152SOL    HW236090   0.724   1.457  14.692 -1.3685  0.2954  0.9083
 8153SOL     OW36091   4.474   2.358   0.440 -0.2281  0.2609 -0.5437
 8153SOL    HW136092   4.462   2.409   0.520 -1.4313 -1.6838  0.5424
 8153SOL    HW236093   4.420   2.410   0.381 -0.4763  0.5762 -0.0309
 8154SOL     OW36094   1.107   0.622   2.776 -0.5139 -0.4047 -0.0041
 8154SOL    HW136095   1.128   0.678   2.851  0.6902 -0.1242 -0.5518
 8154SOL    HW236096   1.150   0.651   2.696  1.6585 -1.0916  0.9115
 8155SOL     OW36097   4.698   3.781   6.826 -0.2650 -0.6524  0.1290
 8155SOL    HW136098   4.666   3.871   6.834 -0.1441 -0.4961 -1.2708
 8155SOL    HW236099   4.665   3.758   6.739 -3.6207 -0.4963  1.3394
 8156SOL     OW36100   1.416   0.007   7.061  0.2314 -0.0528  0.3033
 8156SOL    HW136101   1.365   0.076   7.019  0.6452  0.0818  0.0159
 8156SOL    HW236102   1.478   4.736   6.990 -2.4233 -0.2767 -1.9426
 8157SOL     OW36103   4.400   0.707   9.318 -0.4470 -0.8081  0.2147
 8157SOL    HW136104   4.364   0.619   9.328 -0.1717 -1.0098 -0.5563
 8157SOL    HW236105   4.463   0.678   9.252 -0.8835  0.0552 -0.5749
 8158SOL     OW36106   2.311   4.673   7.075 -0.4492  0.1443 -0.0585
 8158SOL    HW136107   2.221   4.685   7.043  0.5816  1.3684 -2.5489
 8158SOL    HW236108   2.338   0.021   7.052  0.4837 -0.3521 -0.9277
 8159SOL     OW36109   0.761   1.925   7.944 -0.1587 -0.4879 -0.8009
 8159SOL    HW136110   0.830   1.945   7.882  0.8217  2.4232  1.2094
 8159SOL    HW236111   0.828   1.880   7.996  1.3981  0.9519 -1.5571
 8160SOL     OW36112   2.441   0.672   0.716 -0.8489 -0.5129 -0.3971
 8160SOL    HW136113   2.370   0.711   0.766  2.0184  4.6573 -0.3759
 8160SOL    HW236114   2.414   0.580   0.718 -2.8606  0.1369  2.0592
 8161SOL     OW36115   4.524   4.580  11.833  0.4865 -0.0976  0.3588
 8161SOL    HW136116   4.511   4.486  11.842 -0.2824  0.1773  2.1807
 8161SOL    HW236117   4.432   4.593  11.811  0.8275  0.5662 -0.6837
 8162SOL     OW36118   0.504   0.839  17.512  0.5083  0.3870  0.3344
 8162SOL    HW136119   0.571   0.774  17.491 -1.3619 -1.1260 -0.9191
 8162SOL    HW236120   0.436   0.786  17.555  0.2261 -0.1943 -0.8435
 8163SOL     OW36121   4.263   2.416   8.312  0.2618 -0.3075  0.0400
 8163SOL    HW136122   4.279   2.506   8.341 -0.0392 -0.2083 -0.1091
 8163SOL    HW236123   4.326   2.405   8.241  0.3475  0.3330  0.0127
 8164SOL     OW36124   2.964   4.643   6.556  0.1795 -0.1009  0.1152
 8164SOL    HW136125   3.020   4.684   6.490 -0.6978 -0.9589 -1.1653
 8164SOL    HW236126   2.906   4.594   6.498  0.1099 -0.0250  0.1208
 8165SOL     OW36127   1.367   3.096   9.086  0.3968  0.1044  0.1981
 8165SOL    HW136128   1.284   3.069   9.126  0.0681  1.4789  0.4456
 8165SOL    HW236129   1.386   3.184   9.119 -0.6328 -0.2883  1.8243
 8166SOL     OW36130   1.975   4.595   3.793  0.4875 -0.0534 -0.4964
 8166SOL    HW136131   1.964   4.600   3.697 -0.1708  0.7470 -0.3819
 8166SOL    HW236132   1.892   4.630   3.826  0.6567  1.5908 -1.7922
 8167SOL     OW36133   0.261   1.643   2.813  0.4549 -0.3704  0.8237
 8167SOL    HW136134   0.319   1.584   2.765 -0.8775 -0.5651 -0.5407
 8167SOL    HW236135   0.245   1.605   2.899  3.3523  0.4538  1.7257
 8168SOL     OW36136   3.084   4.405   3.635  0.3933 -0.0908 -0.0502
 8168SOL    HW136137   2.991   4.394   3.615  0.9637 -4.2670 -0.4537
 8168SOL    HW236138   3.121   4.351   3.564 -0.6317  1.3449 -1.6743
 8169SOL     OW36139   0.630   4.645   2.312  0.1890  0.0381 -0.1851
 8169SOL    HW136140   0.631   4.591   2.391 -1.2801 -0.7719 -0.7117
 8169SOL    HW236141   0.720   4.642   2.279  0.1054 -1.6828 -0.2462
 8170SOL     OW36142   4.407   3.631   6.374 -0.4205 -0.5857  0.2188
 8170SOL    HW136143   4.432   3.599   6.287  0.8231  1.1760 -0.0695
 8170SOL    HW236144   4.313   3.615   6.368 -0.7540  1.6544 -0.7865
 8171SOL     OW36145   1.802   1.911   5.650 -0.4885  0.7708  0.4655
 8171SOL    HW136146   1.836   1.989   5.606 -0.2423  0.2485 -0.2689
 8171SOL    HW236147   1.717   1.935   5.687  0.2255 -1.1924  3.3503
 8172SOL     OW36148   2.423   2.029   4.241  0.2329 -0.2509  0.0844
 8172SOL    HW136149   2.457   2.006   4.155 -2.7527  0.1312 -1.2026
 8172SOL    HW236150   2.417   1.949   4.293  1.6998  0.1781  0.9080
 8173SOL     OW36151   2.674   1.621   4.612  0.4113  0.0593  0.5748
 8173SOL    HW136152   2.706   1.625   4.522 -2.5826  0.4601 -0.4696
 8173SOL    HW236153   2.632   1.535   4.620  0.2868  0.0499 -0.1468
 8174SOL     OW36154   3.212   3.240  15.727  0.8966  0.8257 -0.5651
 8174SOL    HW136155   3.303   3.268  15.739  1.2857  0.0195 -1.5265
 8174SOL    HW236156   3.188   3.264  15.637 -0.1440 -0.3437 -0.5896
 8175SOL     OW36157   1.124   2.498  16.075  0.4789 -0.0733  0.2716
 8175SOL    HW136158   1.085   2.494  15.988  0.5841 -0.7901  0.2569
 8175SOL    HW236159   1.069   2.561  16.121  0.6055 -0.9932  1.6854
 8176SOL     OW36160   2.968   2.067   8.321  0.3365  0.4562 -0.3088
 8176SOL    HW136161   2.971   2.058   8.226  0.1414 -2.0173 -0.0764
 8176SOL    HW236162   3.016   2.149   8.327  1.9834 -0.4131 -1.8112
 8177SOL     OW36163   1.402   2.651  13.696  0.4895  0.3865 -0.6184
 8177SOL    HW136164   1.445   2.603  13.625  2.1304 -0.9802  1.3007
 8177SOL    HW236165   1.453   2.732  13.697 -0.7735  1.1802 -0.2613
 8178SOL     OW36166   3.254   3.127   3.399  0.1601 -0.3993 -0.2284
 8178SOL    HW136167   3.252   3.040   3.439 -1.2201 -0.2079  0.1131
 8178SOL    HW236168   3.321   3.111   3.333 -0.4652 -2.2530 -0.4307
 8179SOL     OW36169   4.399   1.317  14.229  0.2072  0.0866 -0.4784
 8179SOL    HW136170   4.454   1.393  14.246  0.7172 -0.2073 -0.8185
 8179SOL    HW236171   4.440   1.291  14.146  0.8382  0.6607 -0.3435
 8180SOL     OW36172   2.565   1.019   5.694 -0.4430  0.1915 -0.1533
 8180SOL    HW136173   2.571   0.938   5.643  0.1919 -0.7682  1.4457
 8180SOL    HW236174   2.660   1.033   5.702  0.0620 -3.4147 -0.0409
 8181SOL     OW36175   0.771   0.582   5.033 -0.0480  0.1451 -0.1314
 8181SOL    HW136176   0.837   0.523   5.071  1.6360  1.6107 -0.7729
 8181SOL    HW236177   0.761   0.554   4.942  1.0540 -0.3055 -0.1184
 8182SOL     OW36178   1.363   3.105   4.840  0.1205 -0.0794  0.5891
 8182SOL    HW136179   1.402   3.130   4.923  0.0871  0.2707  0.5003
 8182SOL    HW236180   1.408   3.146   4.766 -0.8276 -0.2437 -0.0900
 8183SOL     OW36181   0.623   1.902   4.477 -0.0891  0.1557 -0.1041
 8183SOL    HW136182   0.628   1.858   4.392  0.0695 -0.3157  0.1483
 8183SOL    HW236183   0.622   1.991   4.441  1.5712  0.0685 -0.3874
 8184SOL     OW36184   0.226   2.445  11.155 -0.2480 -0.3357  0.0393
 8184SOL    HW136185   0.295   2.456  11.219 -0.5284 -2.6813  0.7301
 8184SOL    HW236186   0.223   2.350  11.151 -1.5677 -0.2757 -0.4934
 8185SOL     OW36187   3.776   1.835   1.341  0.6728 -0.0681 -0.4669
 8185SOL    HW136188   3.735   1.802   1.261 -1.8765  0.5736  0.5665
 8185SOL    HW236189   3.854   1.872   1.302  0.6813 -1.3062 -1.6398
 8186SOL     OW36190   3.235   1.858   7.352  0.1187 -0.1139  0.4172
 8186SOL    HW136191   3.229   1.942   7.307  1.7359  1.0304  2.3735
 8186SOL    HW236192   3.167   1.813   7.302 -0.1417  0.0767  0.6064
 8187SOL     OW36193   3.725   3.412  15.971 -0.0078 -0.1530  0.4287
 8187SOL    HW136194   3.800   3.355  15.989 -0.7408 -0.6362  1.9252
 8187SOL    HW236195   3.758   3.495  16.005  1.7762 -0.2809 -1.0072
 8188SOL     OW36196   1.271   3.990   3.999 -0.1006  0.1477  0.3371
 8188SOL    HW136197   1.182   3.960   3.981 -0.4035 -0.0255  2.0881
 8188SOL    HW236198   1.263   4.004   4.094  0.1645  0.4766  0.3100
 8189SOL     OW36199   0.911   3.187   0.298 -0.2996 -0.2605 -0.2292
 8189SOL    HW136200   0.832   3.187   0.352 -0.3343  0.7271 -0.2861
 8189SOL    HW236201   0.975   3.227   0.357  1.3587  1.4511 -3.2186
 8190SOL     OW36202   1.477   1.094  12.373 -0.1085  0.1975 -0.0498
 8190SOL    HW136203   1.407   1.144  12.332  1.1788  1.8345 -0.2464
 8190SOL    HW236204   1.477   1.107  12.468 -2.3382 -1.9269  0.2440
 8191SOL     OW36205   0.148   0.324   5.815 -0.1150  0.1186  0.2260
 8191SOL    HW136206   0.201   0.359   5.886  0.6171 -0.1614 -0.1753
 8191SOL    HW236207   0.065   0.366   5.839  1.4014  2.1368  1.8756
 8192SOL     OW36208   4.058   2.038  15.658  0.8130  0.2308 -0.0159
 8192SOL    HW136209   3.975   2.062  15.618  0.7160 -3.2352 -1.9025
 8192SOL    HW236210   4.105   2.121  15.667  1.5254 -0.2161  0.3862
 8193SOL     OW36211   2.111   0.758   4.805  0.5574  0.4075 -0.1296
 8193SOL    HW136212   2.045   0.696   4.773  0.7507  1.2416 -2.1386
 8193SOL    HW236213   2.048   0.827   4.827  2.2835  2.1210 -0.5261
 8194SOL     OW36214   3.642   3.178  10.897  0.5746  0.3024  1.3320
 8194SOL    HW136215   3.602   3.232  10.829 -1.6294 -1.4299  1.2520
 8194SOL    HW236216   3.692   3.114  10.846 -0.5229 -1.2218  2.1738
 8195SOL     OW36217   4.524   1.760   5.574  0.2877 -0.1955  0.0739
 8195SOL    HW136218   4.598   1.746   5.514 -1.0330  2.4969 -2.2255
 8195SOL    HW236219   4.570   1.782   5.655 -1.0050  0.3378  0.6652
 8196SOL     OW36220   4.414   2.430   8.099 -0.2935 -0.4201 -0.2173
 8196SOL    HW136221   4.445   2.513   8.063  0.8333  0.6974  3.4159
 8196SOL    HW236222   4.492   2.383   8.128  0.1802 -0.6387 -1.8432
 8197SOL     OW36223   2.154   2.108   1.263 -0.5482  0.2202 -0.5476
 8197SOL    HW136224   2.188   2.026   1.300  1.3019  1.7049  1.0174
 8197SOL    HW236225   2.122   2.070   1.181  0.5924 -0.8694 -0.4823
 8198SOL     OW36226   1.051   4.566   4.721 -0.0287 -0.3495  0.1284
 8198SOL    HW136227   1.054   4.605   4.808  0.1229  0.9631 -0.4629
 8198SOL    HW236228   1.002   4.484   4.730  0.1372 -0.5374 -0.6872
 8199SOL     OW36229   1.383   3.781  13.325 -0.5538  0.0400  0.2307
 8199SOL    HW136230   1.441   3.725  13.274  0.2811 -0.4188  1.6805
 8199SOL    HW236231   1.448   3.821  13.382  0.2384  1.7169 -1.8660
 8200SOL     OW36232   0.885   0.060   5.235  0.3016 -0.6311 -0.1939
 8200SOL    HW136233   0.892   0.151   5.262  2.0342 -0.1772 -2.1147
 8200SOL    HW236234   0.833   0.061   5.155  0.5477  0.1211 -0.3467
 8201SOL     OW36235   0.293   4.714   3.067 -0.2113 -0.6192 -0.1966
 8201SOL    HW136236   0.367   0.031   3.050 -2.2400  0.8543 -3.9702
 8201SOL    HW236237   0.320   4.642   3.010 -2.7182 -1.8137  0.1146
 8202SOL     OW36238   0.936   2.353   2.246  0.5306 -0.1383  0.0817
 8202SOL    HW136239   0.925   2.383   2.156 -0.4826  0.5783  0.4455
 8202SOL    HW236240   0.904   2.430   2.292 -1.0782  0.0749 -1.4345
 8203SOL     OW36241   1.954   3.160   4.405 -0.0101  0.7587 -0.0266
 8203SOL    HW136242   2.040   3.190   4.436 -0.8283  2.1326  0.9183
 8203SOL    HW236243   1.907   3.243   4.401 -1.3172  0.0691  1.3628
 8204SOL     OW36244   2.563   3.368   5.706  0.0993  0.7040  0.4512
 8204SOL    HW136245   2.581   3.455   5.740 -1.7292  0.6043  1.7171
 8204SOL    HW236246   2.646   3.321   5.717  0.0330  0.2567 -1.0305
 8205SOL     OW36247   0.491   1.995   7.395 -0.2670 -0.1848  0.2526
 8205SOL    HW136248   0.559   2.046   7.439 -0.7725  0.7572 -0.0413
 8205SOL    HW236249   0.415   2.004   7.453 -0.0063  1.2078  0.3716
 8206SOL     OW36250   2.531   3.561  16.857 -0.2168  0.2580 -0.3916
 8206SOL    HW136251   2.539   3.466  16.855 -2.0399  0.0668  0.9968
 8206SOL    HW236252   2.607   3.600  16.815  1.3557 -0.1684  2.0899
 8207SOL     OW36253   4.433   2.259  11.505 -0.0175 -0.2489  0.0454
 8207SOL    HW136254   4.398   2.200  11.571 -0.4806 -0.0035  0.0197
 8207SOL    HW236255   4.361   2.318  11.481  0.6597  0.2138 -0.8330
 8208SOL     OW36256   3.909   4.054   9.802 -0.0725  0.1505  0.2805
 8208SOL    HW136257   3.978   3.990   9.820 -2.1052 -1.4621  2.3319
 8208SOL    HW236258   3.866   4.050   9.887  1.3684  1.5288  1.0630
 8209SOL     OW36259   2.738   4.700   9.967  0.1383 -0.1968  0.0490
 8209SOL    HW136260   2.645   4.681   9.977 -0.2478  1.4856 -0.2961
 8209SOL    HW236261   2.759   0.003  10.050 -1.6215  1.0496 -0.1644
 8210SOL     OW36262   2.995   2.569   8.104  0.0250 -0.3444  0.2987
 8210SOL    HW136263   3.044   2.618   8.039  0.1446  1.9058  2.0968
 8210SOL    HW236264   3.008   2.478   8.078  0.7312 -0.0947 -0.2146
 8211SOL     OW36265   4.185   3.277   1.845 -0.0483  0.5667 -0.4218
 8211SOL    HW136266   4.246   3.239   1.782  1.4807  1.3626  0.6071
 8211SOL    HW236267   4.118   3.208   1.845 -0.8932  1.3923  1.1157
 8212SOL     OW36268   0.222   4.076   2.406 -0.0705  0.1933  0.2247
 8212SOL    HW136269   0.294   4.139   2.403 -0.5790  0.7418 -0.4511
 8212SOL    HW236270   0.199   4.064   2.314  0.5033  0.0384  0.1002
 8213SOL     OW36271   4.276   2.258   5.783  0.2540 -0.5046 -0.1429
 8213SOL    HW136272   4.257   2.169   5.812  0.6113  0.6348  3.5599
 8213SOL    HW236273   4.263   2.307   5.864 -0.0427 -1.3044  0.2960
 8214SOL     OW36274   2.005   4.319   1.939 -0.4249  0.2871  0.4683
 8214SOL    HW136275   2.011   4.375   2.016 -2.8758  2.7201 -1.1158
 8214SOL    HW236276   1.954   4.242   1.962  0.8985 -0.3944  1.1209
 8215SOL     OW36277   3.229   2.501   8.949  0.2657  0.0535 -0.2993
 8215SOL    HW136278   3.161   2.541   8.896 -0.6228 -0.2802  0.5776
 8215SOL    HW236279   3.291   2.472   8.882  1.4883  0.2832  0.7307
 8216SOL     OW36280   2.765   4.717   8.218 -0.0438 -0.3689 -0.5279
 8216SOL    HW136281   2.782   4.705   8.124 -0.8642 -0.2469 -0.6987
 8216SOL    HW236282   2.782   4.634   8.261  0.3702 -0.9322 -1.8024
 8217SOL     OW36283   4.627   1.604   4.149  0.0382  0.3930 -0.1526
 8217SOL    HW136284   4.592   1.518   4.125  1.6526  0.0301 -1.2618
 8217SOL    HW236285   4.557   1.646   4.199  0.7620  2.0387 -0.5238
 8218SOL     OW36286   4.451   1.738   4.365  0.3415 -0.0654  0.2816
 8218SOL    HW136287   4.368   1.785   4.353 -0.7505 -2.2690 -0.8468
 8218SOL    HW236288   4.452   1.731   4.461 -0.8376  0.4221  0.3328
 8219SOL     OW36289   1.238   3.223   4.007 -0.7005 -0.4725 -0.3861
 8219SOL    HW136290   1.171   3.210   4.074 -0.9787 -1.2642 -0.8172
 8219SOL    HW236291   1.257   3.316   4.017 -0.9353 -0.5382  0.6686
 8220SOL     OW36292   2.495   1.407   4.411  0.1019 -0.3097 -0.5422
 8220SOL    HW136293   2.536   1.325   4.387  0.7829  0.0836 -0.7318
 8220SOL    HW236294   2.427   1.383   4.475  0.4686  2.8244  1.0731
 8221SOL     OW36295   1.312   2.327  16.121 -0.6844 -0.7554  0.1131
 8221SOL    HW136296   1.343   2.327  16.031  1.8666  1.3096  0.9677
 8221SOL    HW236297   1.230   2.375  16.120  0.7008  1.5977 -2.2876
 8222SOL     OW36298   0.880   2.202  13.974 -0.5486 -0.7636  0.8531
 8222SOL    HW136299   0.795   2.157  13.971 -1.3401  0.8792 -1.5012
 8222SOL    HW236300   0.858   2.293  13.995 -2.4248 -0.9679 -0.2173
 8223SOL     OW36301   1.366   1.441  14.514 -0.1996  0.0712 -0.0239
 8223SOL    HW136302   1.318   1.448  14.596  2.5256 -1.1559  1.6751
 8223SOL    HW236303   1.309   1.492  14.456 -1.6012  1.7648  2.8475
 8224SOL     OW36304   1.246   1.265   5.625 -0.2506 -0.3371  0.1521
 8224SOL    HW136305   1.297   1.229   5.553 -1.4105  0.4070 -1.0216
 8224SOL    HW236306   1.259   1.359   5.619  0.5760 -0.3680  1.2958
 8225SOL     OW36307   3.397   1.323   1.996  0.0292  0.0112  0.2541
 8225SOL    HW136308   3.313   1.317   1.950  0.4646  0.8658 -0.6498
 8225SOL    HW236309   3.411   1.234   2.028 -2.5430 -0.0599  1.1703
 8226SOL     OW36310   2.648   1.375   6.625  0.1043 -0.3762 -0.4296
 8226SOL    HW136311   2.619   1.438   6.692 -0.3951  1.4894 -2.3780
 8226SOL    HW236312   2.608   1.413   6.547 -0.2537 -0.0309 -0.0790
 8227SOL     OW36313   0.572   2.873   8.960 -0.3434  0.7765 -0.3080
 8227SOL    HW136314   0.557   2.818   8.882  1.8632  0.9394 -0.8642
 8227SOL    HW236315   0.601   2.811   9.027  0.9825 -0.7625 -2.2890
 8228SOL     OW36316   2.277   1.990  15.819  0.0593 -0.4526  0.1741
 8228SOL    HW136317   2.358   2.021  15.779 -1.9495  1.4717 -2.3275
 8228SOL    HW236318   2.292   2.023  15.908 -2.2988 -1.3980  0.9473
 8229SOL     OW36319   0.452   0.189   6.244 -0.1462 -0.5478 -0.8907
 8229SOL    HW136320   0.545   0.208   6.253 -0.8342  1.2028  2.6640
 8229SOL    HW236321   0.449   0.114   6.185 -1.2087  1.0051 -2.7885
 8230SOL     OW36322   2.884   1.246   7.112 -0.3506  0.1246 -0.1167
 8230SOL    HW136323   2.939   1.248   7.190 -0.6645  0.2455  0.1018
 8230SOL    HW236324   2.839   1.331   7.114  0.5583  0.5371  2.3415
 8231SOL     OW36325   2.418   1.309   8.648  0.3572 -0.6556 -0.1496
 8231SOL    HW136326   2.471   1.385   8.623  1.1571 -1.5327 -1.1205
 8231SOL    HW236327   2.483   1.263   8.700  1.5207  0.0734 -0.9645
 8232SOL     OW36328   4.567   3.696   1.726 -0.1116  0.4335  0.5419
 8232SOL    HW136329   4.510   3.619   1.720  1.1979 -0.4090 -1.5907
 8232SOL    HW236330   4.549   3.738   1.809  0.4226  0.1582  0.7977
 8233SOL     OW36331   1.689   2.407  14.998  0.3952 -0.1658 -0.0429
 8233SOL    HW136332   1.625   2.411  15.069 -0.4762 -0.6579 -0.8023
 8233SOL    HW236333   1.671   2.488  14.951  1.2545 -1.9052 -3.4423
 8234SOL     OW36334   1.168   0.994   2.579  0.2410  0.4737 -0.2687
 8234SOL    HW136335   1.161   1.088   2.560 -0.0548  0.3540 -0.7497
 8234SOL    HW236336   1.259   0.979   2.604 -0.3921 -0.9607  1.1395
 8235SOL     OW36337   1.281   2.717   0.779  0.2067 -0.1904  0.8622
 8235SOL    HW136338   1.208   2.708   0.840 -0.2827 -0.8031  0.1770
 8235SOL    HW236339   1.327   2.788   0.824  2.0949 -1.1932  0.5557
 8236SOL     OW36340   0.988   0.118   3.911 -0.2032 -0.0177  0.1952
 8236SOL    HW136341   1.015   0.053   3.976 -2.3247 -0.3999  0.6741
 8236SOL    HW236342   0.997   0.198   3.963  1.1054  1.2553 -2.0283
 8237SOL     OW36343   1.683   3.647   4.412 -0.4101 -0.3063 -0.3793
 8237SOL    HW136344   1.712   3.713   4.348  0.5042 -0.0037  0.3492
 8237SOL    HW236345   1.728   3.690   4.484 -0.7082 -1.8673  0.7297
 8238SOL     OW36346   2.729   2.928   7.550  0.2767  0.1035  0.8106
 8238SOL    HW136347   2.655   2.948   7.493 -1.1777  0.8161  2.9438
 8238SOL    HW236348   2.797   2.963   7.492 -0.0515  2.1500  1.6644
 8239SOL     OW36349   1.920   2.229   8.544 -0.0275  0.2723 -0.7613
 8239SOL    HW136350   2.009   2.200   8.526  0.9062  2.7940 -0.2312
 8239SOL    HW236351   1.927   2.324   8.536 -1.4950  0.3075 -1.6243
 8240SOL     OW36352   0.706   0.537   0.087  0.2541 -0.0338  0.2986
 8240SOL    HW136353   0.757   0.581   0.019 -1.0066  0.8564 -0.0551
 8240SOL    HW236354   0.750   0.565   0.167 -2.7483  1.2088  1.4972
 8241SOL     OW36355   2.982   3.003  17.277  0.1185 -0.3098  0.3553
 8241SOL    HW136356   3.062   2.991  17.329 -0.4006 -1.2276  0.9476
 8241SOL    HW236357   3.018   3.022  17.191  0.6962 -0.5642  0.5406
 8242SOL     OW36358   4.379   1.139   3.557 -0.0612  0.0118  0.2916
 8242SOL    HW136359   4.474   1.152   3.562  0.0890  0.2021 -3.1115
 8242SOL    HW236360   4.373   1.091   3.475  0.7321  0.0032  0.2388
 8243SOL     OW36361   3.700   3.911  17.175 -0.3987  0.0631 -0.1492
 8243SOL    HW136362   3.669   3.848  17.240  0.9393  0.8842  1.2739
 8243SOL    HW236363   3.657   3.991  17.207  0.1763  0.3470 -0.0955
 8244SOL     OW36364   0.218   3.385   1.943 -0.2002  0.1994 -0.0038
 8244SOL    HW136365   0.294   3.392   2.001  0.8481  0.5812 -1.4253
 8244SOL    HW236366   0.158   3.367   2.015  0.2947 -0.4170  0.2618
 8245SOL     OW36367   1.803   0.169   4.946  0.2518  0.1849 -0.5781
 8245SOL    HW136368   1.710   0.149   4.935 -0.1005  0.5432  1.8537
 8245SOL    HW236369   1.822   0.107   4.876 -0.7521  0.2119 -0.8718
 8246SOL     OW36370   0.472   1.868   8.807  0.3590 -0.0965 -0.2320
 8246SOL    HW136371   0.393   1.921   8.811  1.7433  1.6628  3.6842
 8246SOL    HW236372   0.444   1.796   8.750 -2.5113  1.2062 -0.4657
 8247SOL     OW36373   4.518   3.651   6.625  0.1556  0.8309  0.3791
 8247SOL    HW136374   4.436   3.608   6.647  1.1340 -1.3748 -0.1878
 8247SOL    HW236375   4.495   3.672   6.535 -0.4046  2.6989  0.9641
 8248SOL     OW36376   4.162   0.766   6.165 -0.1348 -0.1627 -0.9326
 8248SOL    HW136377   4.191   0.835   6.106  1.2631 -0.7870 -0.9702
 8248SOL    HW236378   4.218   0.793   6.238  0.0149 -4.1931  0.4457
 8249SOL     OW36379   1.295   4.668  16.685 -0.4984  0.7647  0.2077
 8249SOL    HW136380   1.299   4.640  16.777 -0.6205  2.4269  0.7221
 8249SOL    HW236381   1.201   4.671  16.670 -0.4862  0.5071  0.0880
 8250SOL     OW36382   3.122   1.637   0.751 -0.0291  0.3594 -0.1519
 8250SOL    HW136383   3.146   1.544   0.749 -1.3388  0.0624 -2.5570
 8250SOL    HW236384   3.115   1.643   0.656  0.8335 -1.7362 -0.3531
 8251SOL     OW36385   1.451   1.349   2.874 -0.0718 -0.0297  0.6893
 8251SOL    HW136386   1.472   1.274   2.930 -2.2145 -0.3155  1.1095
 8251SOL    HW236387   1.356   1.358   2.882 -0.0327  1.6982 -0.8851
 8252SOL     OW36388   1.294   4.572   3.039 -0.0544 -0.7429 -0.0302
 8252SOL    HW136389   1.277   4.649   2.985 -1.5815 -2.9315 -2.6542
 8252SOL    HW236390   1.207   4.557   3.075  0.5916 -0.6829  1.5574
 8253SOL     OW36391   0.774   0.757   9.124 -0.1274  0.1081 -0.1758
 8253SOL    HW136392   0.759   0.675   9.077  1.3617 -0.0078 -0.4430
 8253SOL    HW236393   0.862   0.775   9.091 -0.6118  4.9687  1.2399
 8254SOL     OW36394   2.327   4.474  10.191 -0.3015  0.0156  0.3168
 8254SOL    HW136395   2.257   4.477  10.257 -1.3675 -2.2079 -0.7147
 8254SOL    HW236396   2.400   4.436  10.240 -0.4686 -0.3263  0.2985
 8255SOL     OW36397   3.761   4.211   3.291  0.2813  0.2569  0.0998
 8255SOL    HW136398   3.776   4.266   3.367  0.9723  1.3225 -0.8022
 8255SOL    HW236399   3.848   4.191   3.257  0.2135 -0.5495  0.4065
 8256SOL     OW36400   1.223   2.064   3.415 -0.7256 -0.4673 -0.0490
 8256SOL    HW136401   1.278   2.137   3.385 -2.6544  0.7076 -0.7512
 8256SOL    HW236402   1.262   1.988   3.373 -1.9755 -0.2322 -1.6532
 8257SOL     OW36403   3.884   3.679   7.983  0.1570 -0.2206  1.2316
 8257SOL    HW136404   3.793   3.688   8.008 -0.3142  0.8182 -0.8222
 8257SOL    HW236405   3.914   3.596   8.021  0.4825 -1.0187 -0.7881
 8258SOL     OW36406   4.392   2.731   3.402  0.6642 -0.3053  0.0568
 8258SOL    HW136407   4.483   2.703   3.397  0.6140 -0.0595 -1.9073
 8258SOL    HW236408   4.375   2.763   3.314 -2.6186  1.2578  1.2301
 8259SOL     OW36409   1.689   1.608   4.232  0.1685 -0.6132  0.2439
 8259SOL    HW136410   1.732   1.639   4.153 -1.2060  3.4785  1.1108
 8259SOL    HW236411   1.708   1.682   4.289 -0.2255 -0.3054 -0.0217
 8260SOL     OW36412   3.226   2.959   4.129 -0.2926  0.0213 -0.4006
 8260SOL    HW136413   3.143   2.997   4.102 -0.9949 -0.2214  1.4168
 8260SOL    HW236414   3.283   2.975   4.054  1.6184 -0.0897  1.0157
 8261SOL     OW36415   2.776   3.897   2.058  0.4396  0.4166  0.1057
 8261SOL    HW136416   2.725   3.927   1.983  0.1435  0.0397  0.1595
 8261SOL    HW236417   2.842   3.967   2.067  0.7845 -0.0124  0.9355
 8262SOL     OW36418   2.175   2.257  17.619  0.5741 -0.4832  0.4982
 8262SOL    HW136419   2.097   2.312  17.624 -0.2094 -1.5475 -0.1003
 8262SOL    HW236420   2.215   2.272  17.705  1.5344  0.9884 -0.2058
 8263SOL     OW36421   2.968   0.915   3.341  0.2493  0.3504 -0.2931
 8263SOL    HW136422   2.941   0.964   3.263  1.2411 -1.0859 -1.5457
 8263SOL    HW236423   2.925   0.956   3.416  2.5916  1.6357  0.3348
 8264SOL     OW36424   2.765   4.521   3.445  0.1317  0.2425  0.0657
 8264SOL    HW136425   2.771   4.617   3.442 -2.3062  0.3643 -0.8702
 8264SOL    HW236426   2.852   4.494   3.416  1.0065  2.3365  0.7697
 8265SOL     OW36427   4.207   4.728   2.760 -0.6001 -0.9021  0.3999
 8265SOL    HW136428   4.201   0.074   2.720  1.4185 -0.5489  0.8527
 8265SOL    HW236429   4.280   4.698   2.705 -3.1834 -2.8530 -2.0208
 8266SOL     OW36430   4.445   2.509   5.757  0.4699 -0.2530 -0.5123
 8266SOL    HW136431   4.407   2.424   5.733 -0.4588 -0.1366  0.5456
 8266SOL    HW236432   4.527   2.484   5.714  0.4197  0.5154 -1.0515
 8267SOL     OW36433   0.090   3.545   7.735 -0.0188 -0.2137  0.1106
 8267SOL    HW136434   0.174   3.499   7.727  1.0690  1.5191  1.4768
 8267SOL    HW236435   0.038   3.508   7.664 -1.0465  0.2300  0.6365
 8268SOL     OW36436   0.209   0.589   6.619  0.3115  0.2220 -0.0970
 8268SOL    HW136437   0.183   0.593   6.526 -0.4679  1.9456  0.1863
 8268SOL    HW236438   0.170   0.504   6.639  0.8375  0.2001  0.8333
 8269SOL     OW36439   3.448   2.661   0.166  0.1525 -0.4306  0.5718
 8269SOL    HW136440   3.512   2.666   0.095  3.3985 -1.2638  3.4229
 8269SOL    HW236441   3.502   2.612   0.227  1.5640  0.3945  0.0052
 8270SOL     OW36442   2.993   3.507   3.674  0.4722 -0.2452  0.0030
 8270SOL    HW136443   3.002   3.598   3.644 -1.7851 -0.2126 -0.5324
 8270SOL    HW236444   3.071   3.507   3.729 -0.2811  0.4567  1.0713
 8271SOL     OW36445   1.151   3.877   7.569  0.3513 -0.4564 -0.2093
 8271SOL    HW136446   1.154   3.922   7.485  1.3278  0.0690  0.1029
 8271SOL    HW236447   1.166   3.785   7.549 -1.7643 -0.6176 -1.0554
 8272SOL     OW36448   4.661   0.717   2.661 -0.3537  0.0368  0.3930
 8272SOL    HW136449   4.636   0.710   2.753 -1.9425  0.1084 -0.0216
 8272SOL    HW236450   0.002   0.767   2.661  0.5204 -1.3798 -1.7740
 8273SOL     OW36451   2.913   0.507  11.629 -0.1836 -0.1505  0.0931
 8273SOL    HW136452   2.834   0.468  11.666 -3.2699  4.7891 -1.3623
 8273SOL    HW236453   2.903   0.467  11.542  2.0836  0.0691 -0.2689
 8274SOL     OW36454   4.689   1.240   3.907  0.0828 -0.2205 -0.2781
 8274SOL    HW136455   4.655   1.283   3.985  1.2283 -2.3087  1.3684
 8274SOL    HW236456   4.735   1.167   3.949  0.5840  2.0099  3.0840
 8275SOL     OW36457   3.107   1.393  10.636  0.3216 -0.3199  0.3491
 8275SOL    HW136458   3.121   1.475  10.683  2.5128  0.4948 -1.7559
 8275SOL    HW236459   3.165   1.330  10.679  1.2552 -0.7707 -1.5911
 8276SOL     OW36460   2.474   3.453   4.343  0.0836 -0.0020 -0.1808
 8276SOL    HW136461   2.569   3.448   4.343  0.1025  0.3331 -0.0759
 8276SOL    HW236462   2.444   3.389   4.279  0.6811  0.3020 -0.7614
 8277SOL     OW36463   0.071   0.565   4.544  0.2207  0.4395  0.1395
 8277SOL    HW136464   0.046   0.526   4.627  0.4763  0.8619  0.4169
 8277SOL    HW236465   0.139   0.501   4.522  0.1241 -0.1685  1.6352
 8278SOL     OW36466   3.449   3.851   7.585  0.3211 -0.1535  0.4925
 8278SOL    HW136467   3.543   3.846   7.601  0.1671 -0.8841  1.2234
 8278SOL    HW236468   3.445   3.935   7.540 -0.2900 -0.1408  0.5615
 8279SOL     OW36469   4.411   1.514   1.906  0.0546 -0.0815 -0.4403
 8279SOL    HW136470   4.334   1.557   1.943  0.7451  0.5324  0.2924
 8279SOL    HW236471   4.405   1.422   1.931  0.2921 -0.4347 -1.6775
 8280SOL     OW36472   0.187   2.113  17.751  0.4919 -0.0744 -0.3015
 8280SOL    HW136473   0.231   2.158  17.678  1.0356 -1.7545 -1.0159
 8280SOL    HW236474   0.233   2.029  17.750 -0.8063 -0.7840  0.0294
 8281SOL     OW36475   1.514   3.288  13.310  0.0828  0.4522  0.3421
 8281SOL    HW136476   1.470   3.204  13.294 -0.7605  0.5307  2.1887
 8281SOL    HW236477   1.484   3.312  13.398 -2.1736 -1.5718  0.1391
 8282SOL     OW36478   0.346   4.489   5.392  0.1369  0.0281 -0.3288
 8282SOL    HW136479   0.305   4.498   5.478 -1.6882 -0.1429 -1.1755
 8282SOL    HW236480   0.436   4.519   5.405  0.2874 -1.4501  1.8769
 8283SOL     OW36481   1.065   3.464   2.939  0.2547  0.0792 -0.6528
 8283SOL    HW136482   1.148   3.445   2.896 -1.1816 -0.9475 -2.9400
 8283SOL    HW236483   1.086   3.524   3.011 -2.2192  0.4710 -0.2711
 8284SOL     OW36484   4.102   0.740   1.374 -0.1581 -0.6417  0.7236
 8284SOL    HW136485   4.105   0.821   1.324  0.9560  0.4014  2.4584
 8284SOL    HW236486   4.147   0.680   1.315 -0.6758  1.3554 -1.6828
 8285SOL     OW36487   1.872   4.713   1.734  0.5805 -0.0791 -0.4859
 8285SOL    HW136488   1.812   0.014   1.672 -0.2261  0.9598  0.9609
 8285SOL    HW236489   1.941   4.700   1.669  0.5889 -0.4683 -0.3985
 8286SOL     OW36490   3.638   1.625   9.661 -0.0531 -0.3824 -0.2371
 8286SOL    HW136491   3.636   1.708   9.708  1.2516  0.0397 -0.9293
 8286SOL    HW236492   3.708   1.648   9.600  0.2584  0.0979  0.3000
 8287SOL     OW36493   3.966   2.460   0.084  0.6709  0.0505 -0.2957
 8287SOL    HW136494   4.051   2.422   0.104  0.5792 -0.3051 -0.5679
 8287SOL    HW236495   3.971   2.484  17.751 -1.7137 -0.1171 -0.4780
 8288SOL     OW36496   4.734   3.030   5.210  0.8292 -0.2450  0.0251
 8288SOL    HW136497   4.698   2.974   5.279  1.0877  1.9673  1.9562
 8288SOL    HW236498   4.695   3.117   5.221  3.0729  0.5863  1.4981
 8289SOL     OW36499   3.860   3.672  16.805 -0.2270  0.0368 -0.2011
 8289SOL    HW136500   3.878   3.711  16.719 -1.2802  0.8681 -0.0439
 8289SOL    HW236501   3.811   3.746  16.841 -1.7672 -1.4989  0.7781
 8290SOL     OW36502   0.921   2.562  12.214 -0.1256 -0.3321 -0.2225
 8290SOL    HW136503   1.012   2.576  12.187 -0.0020 -0.3789  0.1744
 8290SOL    HW236504   0.930   2.581  12.307  1.2323 -2.0195 -0.0150
 8291SOL     OW36505   1.681   4.440   6.135  0.1158  0.0438  0.4533
 8291SOL    HW136506   1.765   4.405   6.104 -0.3548  0.3557 -1.1633
 8291SOL    HW236507   1.657   4.489   6.056 -0.3679 -2.8566 -1.2209
 8292SOL     OW36508   1.551   1.527   8.430 -0.4332 -0.3132  0.2662
 8292SOL    HW136509   1.490   1.592   8.465 -0.5199  1.2272 -2.7380
 8292SOL    HW236510   1.557   1.480   8.513 -0.1943 -0.3184  0.2460
 8293SOL     OW36511   0.004   0.149  15.604  0.1373  0.4577 -0.2159
 8293SOL    HW136512   0.003   0.202  15.524  0.1134  1.0016  0.1431
 8293SOL    HW236513   0.095   0.160  15.633  0.7908 -1.9206 -1.4131
 8294SOL     OW36514   1.872   4.079   7.760 -0.6109 -0.4430  0.4002
 8294SOL    HW136515   1.937   4.134   7.803 -1.1178  0.9504 -0.6134
 8294SOL    HW236516   1.793   4.131   7.774  0.0456  0.2213  1.5898
 8295SOL     OW36517   0.024   0.700   6.142  0.4014  0.4309 -0.7594
 8295SOL    HW136518   0.077   0.675   6.217 -1.7967  0.2996  0.7534
 8295SOL    HW236519   4.684   0.650   6.157  0.5071 -0.3553 -2.7645
 8296SOL     OW36520   3.901   1.973  12.808  0.2528 -1.1086  0.0523
 8296SOL    HW136521   3.981   1.947  12.763  2.2244  0.4139  2.6548
 8296SOL    HW236522   3.928   2.061  12.834  0.1414 -1.4164  1.2152
 8297SOL     OW36523   0.102   1.144   5.925  0.2939 -0.1698 -0.1647
 8297SOL    HW136524   0.175   1.176   5.872 -0.0227  3.6348  1.7130
 8297SOL    HW236525   0.134   1.062   5.962  0.2860  0.6392  1.6194
 8298SOL     OW36526   2.457   0.299   7.666 -0.0799  0.0102 -0.6112
 8298SOL    HW136527   2.419   0.255   7.741 -0.3545 -0.4431 -1.0137
 8298SOL    HW236528   2.504   0.229   7.621 -0.9829  0.1673 -1.8018
 8299SOL     OW36529   2.065   1.416   6.308  0.0008 -0.2981  0.4308
 8299SOL    HW136530   2.005   1.437   6.380  0.9032 -2.0631  1.6897
 8299SOL    HW236531   2.043   1.487   6.247  0.7097  2.0228  2.8842
 8300SOL     OW36532   3.771   4.593   5.736 -0.2658  0.2683  0.8942
 8300SOL    HW136533   3.862   4.564   5.743 -0.3062  0.3699  1.7358
 8300SOL    HW236534   3.773   4.629   5.647 -2.9774 -2.6869 -0.3761
 8301SOL     OW36535   0.521   2.874  14.523  0.1417  0.5237  0.0129
 8301SOL    HW136536   0.602   2.833  14.553  0.4801  0.0793 -1.4867
 8301SOL    HW236537   0.538   2.894  14.431 -1.7382  1.9447 -0.0097
 8302SOL     OW36538   0.925   3.021   0.085 -0.2973 -0.0468 -0.3489
 8302SOL    HW136539   1.015   2.993   0.097 -0.1739 -0.9825 -3.3426
 8302SOL    HW236540   0.904   3.076   0.160  0.3871 -1.1303  0.6306
 8303SOL     OW36541   2.664   3.462   8.521  0.2724 -0.4156 -0.0192
 8303SOL    HW136542   2.639   3.386   8.573  0.5003 -0.8488 -0.5348
 8303SOL    HW236543   2.588   3.457   8.462  0.3914  0.2618 -0.2331
 8304SOL     OW36544   3.649   2.209   7.579  0.3593  0.4777  0.1575
 8304SOL    HW136545   3.601   2.163   7.649  0.6068  1.6227  1.0766
 8304SOL    HW236546   3.739   2.196   7.609  0.0180 -0.5132  0.7562
 8305SOL     OW36547   1.122   4.472   0.344 -0.2359  0.7166 -0.4639
 8305SOL    HW136548   1.125   4.431   0.258  1.5505 -0.2238  0.0384
 8305SOL    HW236549   1.045   4.432   0.384  0.8902 -0.7969  0.2067
 8306SOL     OW36550   3.977   2.034   1.951  0.3463  0.0764  0.3762
 8306SOL    HW136551   3.958   2.119   1.910  1.9448  0.8183  1.1236
 8306SOL    HW236552   3.989   2.054   2.044  1.0418  0.5244  0.1934
 8307SOL     OW36553   0.774   4.323   3.655  0.9969  0.0475  0.2312
 8307SOL    HW136554   0.836   4.251   3.662 -1.5943 -2.1908  0.1617
 8307SOL    HW236555   0.801   4.388   3.720 -2.2863 -0.4859  2.1660
 8308SOL     OW36556   3.523   2.428   7.491  0.1157  0.0490  0.1138
 8308SOL    HW136557   3.442   2.404   7.535  1.4785 -1.1167  1.9660
 8308SOL    HW236558   3.579   2.365   7.537  1.1456  0.1772 -0.9516
 8309SOL     OW36559   1.001   2.031   9.370  0.4516  0.1605  0.7085
 8309SOL    HW136560   1.061   1.985   9.311  0.7743 -1.1175  2.0603
 8309SOL    HW236561   1.058   2.103   9.397  0.8813  0.0548  0.0989
 8310SOL     OW36562   1.755   3.124  13.524 -0.4359  0.0141 -0.4090
 8310SOL    HW136563   1.722   3.185  13.590  1.2804  0.8465 -0.3083
 8310SOL    HW236564   1.850   3.126  13.541 -0.5477  2.3904 -0.0712
 8311SOL     OW36565   1.684   4.496   5.021  0.6590 -0.1619 -0.7191
 8311SOL    HW136566   1.655   4.507   4.931 -0.4117  2.7106 -0.0066
 8311SOL    HW236567   1.685   4.401   5.032  0.6146  0.0515  1.1982
 8312SOL     OW36568   0.790   1.909  12.140 -0.0247  0.5375 -0.2297
 8312SOL    HW136569   0.768   1.854  12.215 -0.8102  1.1934  0.0181
 8312SOL    HW236570   0.765   1.987  12.189 -0.5378  0.9074 -1.0875
 8313SOL     OW36571   1.765   2.553   4.840  0.4311  0.1144  0.4122
 8313SOL    HW136572   1.793   2.521   4.926  0.6402  1.4467  0.8272
 8313SOL    HW236573   1.848   2.542   4.793  0.0405  0.6971 -0.4055
 8314SOL     OW36574   3.567   2.167  14.292  0.6202 -1.0133 -0.2853
 8314SOL    HW136575   3.604   2.089  14.250 -0.8564 -0.4787 -2.5751
 8314SOL    HW236576   3.612   2.157  14.376 -1.4165  0.3913  0.9423
 8315SOL     OW36577   1.166   2.861  13.729 -0.0068  0.3502 -0.3533
 8315SOL    HW136578   1.214   2.781  13.705 -0.4070 -0.8433  2.8088
 8315SOL    HW236579   1.074   2.841  13.711  0.4740 -1.0310 -1.3156
 8316SOL     OW36580   1.185   2.860   6.779  0.7085  0.0327 -0.5043
 8316SOL    HW136581   1.231   2.943   6.788  1.6849 -0.6334  0.5743
 8316SOL    HW236582   1.256   2.805   6.811  0.5069 -0.4008 -0.7957
 8317SOL     OW36583   3.019   4.515   5.844 -0.4308 -0.0823  0.1575
 8317SOL    HW136584   3.111   4.538   5.857 -0.9503  1.8465  0.5027
 8317SOL    HW236585   3.002   4.526   5.751 -2.8800  4.0004  1.1058
 8318SOL     OW36586   3.412   2.535  10.480 -0.5811  0.0840 -0.1294
 8318SOL    HW136587   3.343   2.594  10.451 -1.0412  0.1027  0.9760
 8318SOL    HW236588   3.487   2.595  10.482  0.4040 -1.1045 -2.3204
 8319SOL     OW36589   0.023   3.693   7.225 -0.6221 -0.0170  0.2144
 8319SOL    HW136590   0.032   3.776   7.180  0.5220  0.3409  1.0982
 8319SOL    HW236591   0.098   3.698   7.285  0.3196 -3.1212 -0.6994
 8320SOL     OW36592   0.320   4.321   3.886  0.2997 -0.2324 -0.1011
 8320SOL    HW136593   0.238   4.274   3.904  1.8087 -3.2321 -1.1100
 8320SOL    HW236594   0.301   4.359   3.800 -0.8141  0.4415  0.4445
 8321SOL     OW36595   1.221   1.133   5.859 -0.0620 -0.0074 -0.7308
 8321SOL    HW136596   1.287   1.069   5.830 -0.0594 -0.1951 -0.3087
 8321SOL    HW236597   1.220   1.190   5.782  2.6456  1.3338  0.2478
 8322SOL     OW36598   4.418   1.463   2.684 -0.1857 -0.1392 -0.0334
 8322SOL    HW136599   4.501   1.497   2.719 -0.7695  3.5334 -2.2422
 8322SOL    HW236600   4.430   1.453   2.589  1.8422  2.4056 -0.0402
 8323SOL     OW36601   0.207   1.768   5.484  0.6623  0.0603 -0.3288
 8323SOL    HW136602   0.269   1.763   5.412 -0.8020  0.1581 -1.5881
 8323SOL    HW236603   0.244   1.710   5.551 -1.1985  0.1009  0.7527
 8324SOL     OW36604   3.020   4.025   7.296  0.0943  0.1875 -0.0846
 8324SOL    HW136605   2.979   3.966   7.360  0.0669 -0.2169 -0.4791
 8324SOL    HW236606   2.942   4.071   7.265 -0.9510 -1.3407  0.2489
 8325SOL     OW36607   0.570   0.384  12.046 -0.9123  0.0326  0.2966
 8325SOL    HW136608   0.593   0.477  12.045  0.1710 -0.2440  0.2647
 8325SOL    HW236609   0.555   0.372  11.952  0.1874  2.0903 -0.1436
 8326SOL     OW36610   3.964   3.078   6.675  0.1232 -0.2465  0.2981
 8326SOL    HW136611   4.046   3.062   6.722 -0.2528 -2.1281  0.2850
 8326SOL    HW236612   3.909   3.003   6.696 -0.8376  0.3300 -0.1347
 8327SOL     OW36613   4.629   2.896   4.894 -0.9397 -0.5286 -0.5238
 8327SOL    HW136614   4.643   2.893   4.988 -0.6220  2.6454 -0.4561
 8327SOL    HW236615   4.674   2.819   4.859  0.0336  0.6732 -1.9227
 8328SOL     OW36616   2.156   3.783   5.158  0.2324 -0.2725 -0.0363
 8328SOL    HW136617   2.127   3.873   5.177 -1.2954 -0.3257 -2.0892
 8328SOL    HW236618   2.168   3.762   5.250 -1.3647 -2.7586 -0.3971
 8329SOL     OW36619   1.657   1.822   4.635 -0.5519 -1.0889  0.4807
 8329SOL    HW136620   1.586   1.781   4.685 -2.0573  1.1492  0.2045
 8329SOL    HW236621   1.614   1.826   4.549  1.6895 -2.6641 -0.7308
 8330SOL     OW36622   1.201   1.298   4.805 -0.4894 -0.7147  0.1045
 8330SOL    HW136623   1.239   1.337   4.884  1.3010  0.9076 -1.5685
 8330SOL    HW236624   1.114   1.275   4.838 -0.4700  1.1833  1.5066
 8331SOL     OW36625   0.823   4.672   5.485  0.1453  0.3739  0.1340
 8331SOL    HW136626   0.789   0.003   5.539 -1.8583  0.8375 -1.7372
 8331SOL    HW236627   0.844   4.733   5.413  0.6870 -0.4595 -0.4075
 8332SOL     OW36628   2.412   4.326  12.423 -0.5603  0.3600 -0.3103
 8332SOL    HW136629   2.354   4.253  12.444  0.1292  0.5663  2.2375
 8332SOL    HW236630   2.425   4.370  12.507  1.5912 -0.8824  0.0150
 8333SOL     OW36631   3.032   1.936   5.213  0.2234  0.0910  0.1801
 8333SOL    HW136632   3.100   1.868   5.217  1.1570  1.0314  0.2649
 8333SOL    HW236633   3.031   1.966   5.122 -0.1372  0.4356  0.2988
 8334SOL     OW36634   3.649   3.073   4.099  0.4359  0.3504 -0.1217
 8334SOL    HW136635   3.717   3.116   4.151  0.8747  0.7774 -1.0439
 8334SOL    HW236636   3.594   3.146   4.071 -1.6450 -1.1792 -0.0425
 8335SOL     OW36637   3.358   2.042   6.270 -0.4880  0.0788 -0.5765
 8335SOL    HW136638   3.452   2.033   6.286 -0.4581  2.2479  0.4733
 8335SOL    HW236639   3.349   2.118   6.212  0.0654 -0.0216 -0.7874
 8336SOL     OW36640   1.587   2.253  12.839 -0.3366 -0.0114 -0.0560
 8336SOL    HW136641   1.677   2.234  12.863 -0.1346 -0.9872 -1.6087
 8336SOL    HW236642   1.539   2.253  12.922  1.1019 -2.2087  0.7483
 8337SOL     OW36643   3.203   4.561   8.154  0.2283 -0.0504  0.0559
 8337SOL    HW136644   3.170   4.636   8.103 -1.1928 -0.1496  0.8417
 8337SOL    HW236645   3.243   4.612   8.224 -0.0258 -1.6930  1.3922
 8338SOL     OW36646   1.825   2.172   2.200 -0.1113 -0.0134  0.0628
 8338SOL    HW136647   1.793   2.104   2.259  0.9640  0.2681  0.9577
 8338SOL    HW236648   1.916   2.176   2.229  0.1280 -0.7362 -0.5984
 8339SOL     OW36649   2.573   2.622  12.513 -0.1746  0.1832 -0.3221
 8339SOL    HW136650   2.576   2.527  12.502  0.8311  0.2853 -0.9083
 8339SOL    HW236651   2.568   2.627  12.609  1.0718 -4.5133 -0.0487
 8340SOL     OW36652   4.427   1.496   2.213  0.0419  0.1448 -0.5304
 8340SOL    HW136653   4.406   1.402   2.211 -1.7948  0.5541 -0.0219
 8340SOL    HW236654   4.502   1.508   2.272  0.6026  1.7810 -1.5537
 8341SOL     OW36655   1.876   2.252   4.197  0.4432  0.3719  0.2107
 8341SOL    HW136656   1.815   2.279   4.128 -1.6023  0.8165  2.2125
 8341SOL    HW236657   1.922   2.189   4.142 -0.7053 -0.4751  0.2424
 8342SOL     OW36658   4.436   2.648   5.976 -0.1216 -0.4164  0.6956
 8342SOL    HW136659   4.455   2.577   5.914 -0.2860  0.9156 -0.8953
 8342SOL    HW236660   4.517   2.700   5.970 -1.2687  1.4498  1.3583
 8343SOL     OW36661   3.857   2.385   4.366 -0.2268  0.6420 -0.6049
 8343SOL    HW136662   3.800   2.322   4.322 -0.1631 -0.7954  1.3966
 8343SOL    HW236663   3.884   2.439   4.292 -0.8877  0.1740 -1.1843
 8344SOL     OW36664   1.736   3.689   6.634  0.0478 -0.1416 -0.7270
 8344SOL    HW136665   1.756   3.610   6.584 -1.1173 -2.3586  2.3582
 8344SOL    HW236666   1.642   3.701   6.618 -0.1550  1.5192  1.6557
 8345SOL     OW36667   4.097   3.620   9.152 -0.6355 -0.4606 -0.5051
 8345SOL    HW136668   4.183   3.589   9.178 -1.8405 -1.7481  1.9292
 8345SOL    HW236669   4.072   3.640   9.242  0.0190 -1.1221 -0.1843
 8346SOL     OW36670   4.111   2.539   9.390 -0.3630  0.0686 -0.4816
 8346SOL    HW136671   4.065   2.609   9.437  0.6301  0.1617  0.3583
 8346SOL    HW236672   4.072   2.530   9.303 -3.2268  1.1963  0.6982
 8347SOL     OW36673   2.630   4.478  17.455 -0.5468  0.2129  0.0917
 8347SOL    HW136674   2.570   4.543  17.492  0.4070  0.5524  1.0394
 8347SOL    HW236675   2.660   4.527  17.379 -2.5977  2.9859  1.0610
 8348SOL     OW36676   1.172   1.625   2.344  0.1113 -0.2488  0.0399
 8348SOL    HW136677   1.183   1.704   2.396 -0.1180  0.1370 -0.4962
 8348SOL    HW236678   1.107   1.579   2.397  0.5245 -0.7533  0.1120
 8349SOL     OW36679   4.734   4.183  15.929 -0.2050  0.2850  0.1269
 8349SOL    HW136680   4.710   4.105  15.979 -0.2310 -1.4574 -2.6297
 8349SOL    HW236681   0.018   4.148  15.844 -0.7702  0.2655 -0.0296
 8350SOL     OW36682   0.626   4.234  13.654 -0.3108  0.3234 -0.6737
 8350SOL    HW136683   0.642   4.250  13.747  0.9487 -2.5684 -0.3755
 8350SOL    HW236684   0.551   4.175  13.657  1.4465 -1.7648  2.4952
 8351SOL     OW36685   0.716   1.131   3.942  0.2687 -0.2233  0.2127
 8351SOL    HW136686   0.668   1.200   3.988  1.2939  1.4873 -1.3125
 8351SOL    HW236687   0.730   1.064   4.009  0.2424 -0.3138  0.1262
 8352SOL     OW36688   0.325   2.200  11.484 -0.2364 -0.4847  0.3734
 8352SOL    HW136689   0.286   2.169  11.566 -1.4659  0.6556  0.2347
 8352SOL    HW236690   0.258   2.185  11.417 -0.8133  1.2222  0.5562
 8353SOL     OW36691   3.381   2.353  13.517  0.6011 -0.0310  0.1664
 8353SOL    HW136692   3.405   2.433  13.564 -0.9464  1.1145 -0.9834
 8353SOL    HW236693   3.311   2.322  13.574 -1.1029  2.6428 -0.4858
 8354SOL     OW36694   3.901   4.315   3.977  0.4791  0.1788  0.2085
 8354SOL    HW136695   3.844   4.243   4.003 -0.3163  0.6754 -0.1708
 8354SOL    HW236696   3.857   4.351   3.900  2.5622  2.1808 -0.0523
 8355SOL     OW36697   4.225   3.753   8.482 -0.3189  0.1431 -0.0063
 8355SOL    HW136698   4.260   3.792   8.402  2.5400  1.4340  1.8685
 8355SOL    HW236699   4.307   3.756   8.532  1.0149 -1.8338 -2.0831
 8356SOL     OW36700   0.733   2.659   2.662 -0.0270 -0.0091 -0.1018
 8356SOL    HW136701   0.716   2.665   2.756  2.7788 -2.5612  0.5789
 8356SOL    HW236702   0.652   2.622   2.626 -0.1738  0.6692 -0.4719
 8357SOL     OW36703   4.189   2.017   7.210  0.0135  0.0984 -0.0495
 8357SOL    HW136704   4.175   1.926   7.235 -0.0216 -0.3600 -1.7636
 8357SOL    HW236705   4.163   2.016   7.118 -0.3755 -0.2457  0.0630
 8358SOL     OW36706   4.030   1.984   6.982  0.2310 -0.2795  0.4188
 8358SOL    HW136707   4.016   2.042   6.907  3.0617  1.5050  1.2904
 8358SOL    HW236708   3.941   1.964   7.013  0.3528  0.6102  1.3192
 8359SOL     OW36709   4.690   2.296  11.561 -0.1451 -0.1931  0.6309
 8359SOL    HW136710   4.604   2.297  11.519 -0.0862  1.9797  0.6054
 8359SOL    HW236711   4.736   2.356  11.503 -2.1957  0.0220 -0.7998
 8360SOL     OW36712   1.591   0.040   2.215  0.2858  0.2728 -0.3208
 8360SOL    HW136713   1.643   4.736   2.282  1.3649  2.4517  0.3019
 8360SOL    HW236714   1.643   0.025   2.136  1.0595 -0.1976  0.2749
 8361SOL     OW36715   0.869   3.294   7.131  1.0503 -0.0327 -0.8493
 8361SOL    HW136716   0.817   3.368   7.100  0.3068  0.5299  1.8211
 8361SOL    HW236717   0.920   3.264   7.055  2.5196  0.0322  0.1141
 8362SOL     OW36718   1.087   3.587  16.372  0.6648  0.5221 -0.5182
 8362SOL    HW136719   1.071   3.584  16.277 -0.9284  3.7382 -0.3345
 8362SOL    HW236720   1.067   3.679  16.389  1.4908  0.2454  1.8588
 8363SOL     OW36721   1.380   3.742   8.631  0.3797 -0.0930 -0.0374
 8363SOL    HW136722   1.386   3.832   8.662  1.6962 -0.2665  0.1901
 8363SOL    HW236723   1.363   3.758   8.538 -1.5290  2.9439  0.8297
 8364SOL     OW36724   0.707   4.166   8.891  0.3852 -0.2514 -0.4266
 8364SOL    HW136725   0.730   4.084   8.935  0.9610 -0.6510 -1.4707
 8364SOL    HW236726   0.646   4.131   8.826  0.1942  2.5025 -1.7073
 8365SOL     OW36727   2.571   4.235   4.040 -0.3218 -0.1809  0.5703
 8365SOL    HW136728   2.521   4.237   3.959  0.7134 -1.1303 -0.0960
 8365SOL    HW236729   2.598   4.327   4.043  1.4440 -0.6749  0.0034
 8366SOL     OW36730   2.568   1.276   2.214 -0.1099 -0.0256 -0.4674
 8366SOL    HW136731   2.615   1.213   2.269  0.9208  1.5606  0.4637
 8366SOL    HW236732   2.511   1.313   2.282  1.0943 -4.2275  2.8845
 8367SOL     OW36733   1.546   2.801   3.691 -0.4066 -0.2339  0.3690
 8367SOL    HW136734   1.637   2.775   3.705  0.1151  0.4985 -1.7062
 8367SOL    HW236735   1.555   2.870   3.626  1.8447  0.7921  1.7699
 8368SOL     OW36736   1.997   4.295   7.877  0.4126 -0.1292  0.0483
 8368SOL    HW136737   1.999   4.364   7.810 -0.2526  0.7563  0.9266
 8368SOL    HW236738   2.091   4.297   7.896 -0.2654 -0.4831  3.4671
 8369SOL     OW36739   2.544   0.504   2.058 -0.5585 -0.7275 -0.5461
 8369SOL    HW136740   2.457   0.521   2.096  0.1958  1.1034  0.3415
 8369SOL    HW236741   2.580   0.438   2.117 -2.5608 -0.8708  0.5273
 8370SOL     OW36742   1.926   4.353  16.287 -0.3082 -0.4438 -0.0176
 8370SOL    HW136743   1.929   4.356  16.383 -1.5759 -0.3981  0.0159
 8370SOL    HW236744   1.890   4.265  16.274  0.0567 -0.3566 -1.5856
 8371SOL     OW36745   4.140   1.551   5.606 -0.1270 -0.3835 -0.1898
 8371SOL    HW136746   4.158   1.642   5.583 -0.0887 -0.2359  0.4218
 8371SOL    HW236747   4.226   1.510   5.600  0.3310  0.3981  1.1518
 8372SOL     OW36748   0.330   2.668   6.530  0.4568  0.0255 -0.0350
 8372SOL    HW136749   0.321   2.760   6.552  0.8631  0.0476  0.0293
 8372SOL    HW236750   0.237   2.648   6.517  0.2183  1.1048  0.0348
 8373SOL     OW36751   1.051   3.261   7.888 -0.0321 -0.0784 -0.0968
 8373SOL    HW136752   1.018   3.351   7.888 -0.5220 -0.2445  2.6327
 8373SOL    HW236753   1.114   3.253   7.816  0.0127 -2.4608  0.2108
 8374SOL     OW36754   1.215   0.377   1.075 -0.1128 -0.4432 -0.0890
 8374SOL    HW136755   1.173   0.309   1.021 -1.3045  0.8005 -0.7411
 8374SOL    HW236756   1.156   0.451   1.064  1.1348  0.4733 -0.5584
 8375SOL     OW36757   1.382   2.994  12.156  0.2054 -0.3160 -0.0130
 8375SOL    HW136758   1.322   2.947  12.214  0.3237 -0.3480  0.0833
 8375SOL    HW236759   1.340   3.080  12.153  1.8366  0.4687  0.1397
 8376SOL     OW36760   4.263   1.902   4.445 -0.1080  0.6099  0.3193
 8376SOL    HW136761   4.212   1.979   4.420  0.7879  0.0875 -3.1323
 8376SOL    HW236762   4.318   1.952   4.506  1.0885  1.0852 -1.1421
 8377SOL     OW36763   1.488   4.651   6.459 -1.0132  0.0603 -0.2828
 8377SOL    HW136764   1.514   4.559   6.453 -0.7915 -0.0739  2.4857
 8377SOL    HW236765   1.538   4.692   6.388 -0.7822  0.5000  0.1284
 8378SOL     OW36766   1.970   3.336   6.123  0.1968 -0.1680  0.3722
 8378SOL    HW136767   1.890   3.387   6.140  0.8790  1.2153 -0.5949
 8378SOL    HW236768   2.024   3.413   6.108  0.3662  0.0438  2.0367
 8379SOL     OW36769   1.615   0.277   7.509  0.3582 -0.3057 -0.4436
 8379SOL    HW136770   1.639   0.263   7.601 -0.0100  2.2062  0.0292
 8379SOL    HW236771   1.551   0.207   7.493 -0.8782  0.7750 -0.1979
 8380SOL     OW36772   2.101   0.807   9.111  0.0473 -0.6304 -0.3677
 8380SOL    HW136773   2.190   0.841   9.121 -0.4575  1.5838 -3.5109
 8380SOL    HW236774   2.128   0.719   9.137 -0.7634 -1.0690 -1.0364
 8381SOL     OW36775   3.560   2.475   2.532  0.1006 -0.9613 -0.1594
 8381SOL    HW136776   3.583   2.566   2.550 -0.7009 -0.6201 -0.8783
 8381SOL    HW236777   3.601   2.461   2.446 -0.8948  3.3401 -1.3287
 8382SOL     OW36778   3.474   3.388  12.464 -0.6722  0.2471  0.0410
 8382SOL    HW136779   3.457   3.345  12.380  0.7398 -1.8886  0.8563
 8382SOL    HW236780   3.480   3.318  12.529 -1.8451 -0.3324 -0.4579
 8383SOL     OW36781   2.258   1.986  15.055 -0.6094  0.0814 -0.0756
 8383SOL    HW136782   2.275   1.915  15.117 -0.2743 -0.5244 -0.8610
 8383SOL    HW236783   2.349   2.014  15.048  0.0940 -1.7731  1.6075
 8384SOL     OW36784   2.535   3.154   6.960 -0.1945 -0.3532 -0.1490
 8384SOL    HW136785   2.558   3.176   6.870  0.5574 -0.8797 -0.0786
 8384SOL    HW236786   2.544   3.238   7.003  2.5176 -0.5762 -0.3149
 8385SOL     OW36787   2.854   1.602   6.898  0.7206  0.0187  0.9992
 8385SOL    HW136788   2.947   1.618   6.916  1.0088 -1.7800  1.1642
 8385SOL    HW236789   2.855   1.605   6.802  1.6433 -1.6690  0.9422
 8386SOL     OW36790   1.470   2.913  13.217  0.2936  0.0078  0.0426
 8386SOL    HW136791   1.518   2.897  13.297  1.4439  0.1844 -0.6126
 8386SOL    HW236792   1.394   2.857  13.233 -2.0549  3.4553  1.0088
 8387SOL     OW36793   1.473   1.870   1.139  0.1045  0.1588  0.2390
 8387SOL    HW136794   1.542   1.935   1.152  0.9327 -0.5700 -0.5169
 8387SOL    HW236795   1.400   1.921   1.175 -0.0776 -0.1809  0.3523
 8388SOL     OW36796   3.104   2.439   4.676  0.1046 -0.3414  0.9880
 8388SOL    HW136797   3.154   2.399   4.747  0.2655 -0.0823  1.0200
 8388SOL    HW236798   3.102   2.371   4.608  0.7694  1.8637 -1.2109
 8389SOL     OW36799   3.571   2.348   4.163 -0.7489  0.0339 -0.1115
 8389SOL    HW136800   3.640   2.300   4.117 -2.2460 -3.7048  1.5262
 8389SOL    HW236801   3.512   2.382   4.096 -2.1313  1.0473  1.6173
 8390SOL     OW36802   0.091   2.536   1.931 -0.2738 -0.0704 -0.2327
 8390SOL    HW136803   0.141   2.599   1.879  1.2759 -1.3723 -0.2918
 8390SOL    HW236804   0.046   2.599   1.988 -0.3611  1.6555 -2.2261
 8391SOL     OW36805   0.395   4.564   4.220  0.2485  0.1627  0.4169
 8391SOL    HW136806   0.321   4.588   4.276 -0.1556  0.7456 -0.3656
 8391SOL    HW236807   0.438   4.492   4.266 -0.5714  0.5031  1.7043
 8392SOL     OW36808   0.303   0.865   4.501  0.5725 -0.1248  0.2302
 8392SOL    HW136809   0.334   0.782   4.464  2.8776  0.6503  0.3952
 8392SOL    HW236810   0.304   0.843   4.594 -2.1799  0.8707  0.4901
 8393SOL     OW36811   1.843   2.087   9.327 -0.2847  0.4730 -0.1748
 8393SOL    HW136812   1.783   2.013   9.339  0.2995 -0.1269 -0.9037
 8393SOL    HW236813   1.926   2.050   9.359 -0.5903  0.7234  0.9119
 8394SOL     OW36814   0.811   3.695   3.861 -0.1287 -0.6827  0.5773
 8394SOL    HW136815   0.873   3.623   3.852 -1.2814 -1.4500 -1.1417
 8394SOL    HW236816   0.746   3.690   3.791 -2.4441  0.8276  2.5916
 8395SOL     OW36817   1.835   4.737   8.567  0.5680  0.1932 -0.1469
 8395SOL    HW136818   1.775   0.067   8.544  0.5093 -0.3539 -1.6748
 8395SOL    HW236819   1.912   0.020   8.515  1.5549  0.2817  1.3399
 8396SOL     OW36820   2.654   3.733   4.387 -0.0157  0.1349 -0.0910
 8396SOL    HW136821   2.729   3.723   4.329 -1.2977 -1.3439 -1.4869
 8396SOL    HW236822   2.684   3.700   4.472  0.7444 -0.6688 -0.6705
 8397SOL     OW36823   3.794   0.273   2.883 -0.3760  0.8278  0.6848
 8397SOL    HW136824   3.767   0.365   2.886 -0.8511  0.7188 -0.5106
 8397SOL    HW236825   3.738   0.239   2.813  1.5240  0.4634 -0.6517
 8398SOL     OW36826   3.721   0.931   3.176  0.1131  0.4161  0.2059
 8398SOL    HW136827   3.780   1.005   3.165  0.6984  0.1364  1.5012
 8398SOL    HW236828   3.654   0.958   3.113  1.6623 -0.0123 -1.6327
 8399SOL     OW36829   3.255   3.899   9.571 -0.5736  0.0607  0.4500
 8399SOL    HW136830   3.301   3.982   9.562 -0.1102 -0.0797  1.5391
 8399SOL    HW236831   3.171   3.934   9.601  0.1177 -0.7736  3.3814
 8400SOL     OW36832   1.798   2.599  14.515 -0.2047  0.0236  0.1268
 8400SOL    HW136833   1.881   2.643  14.533 -1.2788  1.5121  1.5411
 8400SOL    HW236834   1.819   2.509  14.539  1.2368  0.5285  0.7653
 8401SOL     OW36835   1.194   2.929   4.965  0.1973 -0.2490 -0.2029
 8401SOL    HW136836   1.215   2.972   5.048 -0.9399 -1.1323  0.5353
 8401SOL    HW236837   1.245   2.979   4.901  0.2715 -2.9274 -2.2470
 8402SOL     OW36838   0.449   2.606   3.139  0.3214  0.3572  0.7554
 8402SOL    HW136839   0.371   2.591   3.192 -0.6000  0.2016 -0.6487
 8402SOL    HW236840   0.502   2.644   3.209  0.4796 -0.5603  1.1286
 8403SOL     OW36841   0.539   1.193   5.565 -0.1507  0.5131  0.1047
 8403SOL    HW136842   0.545   1.127   5.634  1.0519 -0.9667 -1.3995
 8403SOL    HW236843   0.510   1.141   5.490  2.1772  0.3399 -0.6847
 8404SOL     OW36844   1.158   1.925   9.644  0.3249  0.2201 -0.3616
 8404SOL    HW136845   1.254   1.932   9.637  0.4844 -3.1341 -1.5104
 8404SOL    HW236846   1.135   2.014   9.619  0.8514  1.0494  2.1371
 8405SOL     OW36847   3.813   4.255   4.845  0.4528  0.2624  0.5355
 8405SOL    HW136848   3.739   4.314   4.858 -0.9324 -1.0062 -1.5565
 8405SOL    HW236849   3.812   4.247   4.750 -0.4803 -0.9060  0.6368
 8406SOL     OW36850   4.340   2.008  13.293 -0.0893 -0.2223 -0.0513
 8406SOL    HW136851   4.246   2.004  13.276 -0.6293 -1.6113  3.3480
 8406SOL    HW236852   4.351   1.946  13.365 -1.7627  0.4028  0.7393
 8407SOL     OW36853   1.635   1.110   8.750 -0.1358  0.1683  0.3298
 8407SOL    HW136854   1.608   1.124   8.660 -0.1369 -1.5972  0.0468
 8407SOL    HW236855   1.729   1.089   8.745  0.3706  1.7382  2.7175
 8408SOL     OW36856   0.799   0.239   2.304  0.1164  0.1115  0.2549
 8408SOL    HW136857   0.836   0.236   2.392 -1.1595  0.2535  0.7893
 8408SOL    HW236858   0.833   0.155   2.274  0.7593  0.0697  1.1010
 8409SOL     OW36859   2.141   2.122  16.661  0.2007 -0.4767 -0.6002
 8409SOL    HW136860   2.051   2.093  16.646 -0.1829  0.9066 -1.0203
 8409SOL    HW236861   2.124   2.200  16.714  0.6127 -1.2582  0.6848
 8410SOL     OW36862   2.171   4.523   4.155  0.2028 -0.1659 -0.0056
 8410SOL    HW136863   2.240   4.586   4.177  0.0767  1.0546 -3.0986
 8410SOL    HW236864   2.152   4.482   4.239  0.6211  0.3444  0.3381
 8411SOL     OW36865   0.894   0.482   8.642  0.4322 -0.9479 -0.0057
 8411SOL    HW136866   0.984   0.515   8.639 -0.0700  0.5623  1.5250
 8411SOL    HW236867   0.882   0.480   8.737  1.7006 -0.6546  0.1623
 8412SOL     OW36868   4.659   4.531   3.304 -0.4319  0.2404 -0.4782
 8412SOL    HW136869   0.008   4.557   3.328 -0.1343  0.2821 -1.6427
 8412SOL    HW236870   4.629   4.532   3.395 -1.6856 -1.5028 -0.8718
 8413SOL     OW36871   4.219   1.948   9.111 -0.2146  0.0815 -0.1146
 8413SOL    HW136872   4.156   2.009   9.149 -0.0831  1.4611 -2.0905
 8413SOL    HW236873   4.166   1.909   9.041  1.5607 -2.5508 -0.0120
 8414SOL     OW36874   0.819   3.370   8.337  0.6801  0.5017 -0.2066
 8414SOL    HW136875   0.909   3.351   8.364 -0.1412 -3.4338 -0.2702
 8414SOL    HW236876   0.829   3.464   8.321  0.9021  0.4473 -0.4066
 8415SOL     OW36877   0.174   0.390   5.285  0.1147 -0.5650 -0.1800
 8415SOL    HW136878   0.214   0.367   5.369 -0.4250  0.2613  0.3110
 8415SOL    HW236879   0.099   0.428   5.331 -1.1840 -2.1457 -0.9963
 8416SOL     OW36880   2.375   4.254   9.299 -0.4822 -0.2243  0.0869
 8416SOL    HW136881   2.467   4.232   9.281 -0.5192 -1.1072  0.9367
 8416SOL    HW236882   2.354   4.318   9.231 -0.6810  0.4207  0.7446
 8417SOL     OW36883   4.027   1.889   4.805 -0.4559 -0.1233 -1.0133
 8417SOL    HW136884   4.052   1.896   4.897 -1.7548  0.5945 -0.7000
 8417SOL    HW236885   4.057   1.972   4.767 -1.8152  0.1550 -1.4955
 8418SOL     OW36886   2.228   4.566  11.569 -0.3331  0.3058 -0.2045
 8418SOL    HW136887   2.187   4.576  11.655  2.1890 -1.0835  1.1889
 8418SOL    HW236888   2.321   4.561  11.594 -0.5402 -3.1433 -0.1520
 8419SOL     OW36889   3.988   0.035   1.990  0.2872 -0.6543 -0.3196
 8419SOL    HW136890   4.013   0.079   1.909 -0.8669 -0.3343 -0.4950
 8419SOL    HW236891   3.994   0.104   2.056 -0.9840  1.5590 -2.5401
 8420SOL     OW36892   0.367   4.025   8.430 -0.5379  0.1286  0.2173
 8420SOL    HW136893   0.294   3.989   8.480 -1.2356 -0.7742 -1.4475
 8420SOL    HW236894   0.341   3.981   8.349  0.0739  2.2522 -1.1368
 8421SOL     OW36895   0.920   2.952  14.671 -0.4823  0.2714  0.2349
 8421SOL    HW136896   0.946   3.000  14.593 -1.1520 -1.0265 -0.7762
 8421SOL    HW236897   0.925   3.003  14.752 -0.5838  3.0174 -1.5014
 8422SOL     OW36898   0.870   0.460   6.659 -0.0385  0.3241  0.0428
 8422SOL    HW136899   0.860   0.367   6.641 -1.6052  0.2890  1.0781
 8422SOL    HW236900   0.776   0.475   6.646  0.3000  1.7496 -0.7318
 8423SOL     OW36901   1.977   4.201   9.166  0.0036  0.2111 -0.3492
 8423SOL    HW136902   2.051   4.176   9.111  0.9049 -1.5920  1.6750
 8423SOL    HW236903   1.934   4.271   9.117  0.3738  1.1389  0.6550
 8424SOL     OW36904   4.137   1.436   6.643 -0.6554 -0.4744  0.5978
 8424SOL    HW136905   4.093   1.519   6.658 -0.4470 -0.1341 -0.6741
 8424SOL    HW236906   4.212   1.441   6.703  0.8520 -2.0051 -1.1302
 8425SOL     OW36907   0.907   2.812   6.391 -0.6499 -0.3851  0.0919
 8425SOL    HW136908   0.892   2.761   6.312  0.2792 -2.3084  1.1678
 8425SOL    HW236909   0.836   2.876   6.387 -1.3375 -1.0775  1.3089
 8426SOL     OW36910   1.438   1.841  13.185 -0.2049 -0.0205  0.7325
 8426SOL    HW136911   1.345   1.839  13.162 -0.1371 -0.8472  0.5218
 8426SOL    HW236912   1.444   1.813  13.277  0.7066 -0.1660  0.6265
 8427SOL     OW36913   0.904   1.277   9.505  0.4872 -0.0331 -0.2884
 8427SOL    HW136914   0.896   1.322   9.589 -0.7163  0.9008 -0.8947
 8427SOL    HW236915   0.820   1.289   9.460  0.6246 -1.9840 -1.0502
 8428SOL     OW36916   3.298   3.631   6.822  0.1786 -0.0088 -0.4843
 8428SOL    HW136917   3.376   3.630   6.877  0.1141 -1.7520 -0.4207
 8428SOL    HW236918   3.289   3.725   6.810 -2.0653  0.0492  1.8152
 8429SOL     OW36919   3.155   1.988  16.627  0.5121  0.4022  0.4775
 8429SOL    HW136920   3.218   1.954  16.563 -0.2361  0.9047 -0.5188
 8429SOL    HW236921   3.156   2.081  16.603  0.7163  0.5883  1.1941
 8430SOL     OW36922   0.072   1.675   0.384  0.3572 -1.4001  0.2863
 8430SOL    HW136923   0.048   1.621   0.459 -0.2216  0.7466  1.6596
 8430SOL    HW236924   0.004   1.743   0.384  2.4344  0.6935 -1.4565
 8431SOL     OW36925   2.606   4.362   3.592  0.5280  0.4010  0.2376
 8431SOL    HW136926   2.693   4.345   3.629  0.8806 -1.2196 -1.3012
 8431SOL    HW236927   2.639   4.433   3.538  2.1221 -1.9908 -1.9467
 8432SOL     OW36928   0.718   1.877   2.832 -0.1697 -0.2046  0.2604
 8432SOL    HW136929   0.633   1.877   2.877 -1.3969  1.2985 -2.0718
 8432SOL    HW236930   0.692   1.861   2.741 -0.2591 -3.0868  0.7990
 8433SOL     OW36931   3.291   1.371   8.284 -0.3305  0.2454 -0.0492
 8433SOL    HW136932   3.280   1.452   8.334  0.2427 -0.4874  1.2662
 8433SOL    HW236933   3.385   1.356   8.300  0.3299  1.5852 -2.6928
 8434SOL     OW36934   4.694   1.164   6.904 -0.1840  0.6061 -0.0591
 8434SOL    HW136935   4.732   1.183   6.818  0.0274 -3.4965 -0.8795
 8434SOL    HW236936   4.665   1.074   6.893  1.3655  0.0758  0.1633
 8435SOL     OW36937   1.847   1.000   6.884  0.1356 -0.4173 -0.0269
 8435SOL    HW136938   1.806   0.997   6.798 -1.3752 -0.4184  0.6943
 8435SOL    HW236939   1.861   0.907   6.902 -3.2002 -0.9301 -0.2222
 8436SOL     OW36940   3.834   2.719   1.193  0.2706 -0.1155 -0.3643
 8436SOL    HW136941   3.787   2.714   1.276  1.9430  1.7048  0.7036
 8436SOL    HW236942   3.779   2.771   1.133  1.0456  1.6941  0.5125
 8437SOL     OW36943   3.287   0.579   2.045  0.2979 -0.2114  0.1637
 8437SOL    HW136944   3.251   0.645   1.985  2.3079 -0.4709 -1.3002
 8437SOL    HW236945   3.366   0.543   2.005  2.0678  1.0664  2.5434
 8438SOL     OW36946   4.183   1.968  16.520 -0.0993  0.0961 -0.4132
 8438SOL    HW136947   4.249   1.955  16.451 -1.0398  0.4253 -1.3752
 8438SOL    HW236948   4.245   1.973  16.593 -0.9009  0.6308  0.2349
 8439SOL     OW36949   2.602   0.789   5.552  0.3891  0.0682 -0.8210
 8439SOL    HW136950   2.564   0.702   5.560  0.7025 -0.1573 -1.8382
 8439SOL    HW236951   2.680   0.749   5.514  2.0383  3.6707 -1.2598
 8440SOL     OW36952   3.053   1.746  11.547 -0.8146 -0.3057  0.1011
 8440SOL    HW136953   2.959   1.750  11.533 -0.6631 -0.5779 -0.9887
 8440SOL    HW236954   3.072   1.837  11.524  2.4693 -1.1065 -0.3430
 8441SOL     OW36955   0.968   4.634  12.191  0.3859  0.4221 -0.5229
 8441SOL    HW136956   1.053   4.625  12.149 -0.2436 -0.2347 -1.6779
 8441SOL    HW236957   0.925   4.632  12.105 -2.2611 -1.8405  0.8535
 8442SOL     OW36958   4.468   1.574   5.337 -0.2476  0.1059 -0.2796
 8442SOL    HW136959   4.538   1.512   5.314  1.1128  1.4339  0.3176
 8442SOL    HW236960   4.495   1.607   5.422  0.6081 -2.2838  0.3879
 8443SOL     OW36961   3.950   0.104   5.025  0.1177  0.0731 -0.4213
 8443SOL    HW136962   3.922   0.035   4.965  2.9470 -0.7302 -0.8186
 8443SOL    HW236963   3.887   0.086   5.094  0.8146 -0.7856 -0.0186
 8444SOL     OW36964   2.036   2.624   3.549  0.0403  0.3294 -0.6407
 8444SOL    HW136965   1.991   2.693   3.501 -0.5357 -0.3850 -1.1443
 8444SOL    HW236966   2.084   2.582   3.478  1.7587  2.0798 -0.5021
 8445SOL     OW36967   1.299   0.671   3.451  0.3043  0.1337  0.8133
 8445SOL    HW136968   1.307   0.609   3.524 -1.1245  0.1035  0.9314
 8445SOL    HW236969   1.379   0.723   3.448 -0.3605  1.1101  0.1348
 8446SOL     OW36970   3.920   1.003   5.646 -0.4615 -0.7023  0.3060
 8446SOL    HW136971   3.918   0.966   5.557  0.6791  1.2920 -0.5459
 8446SOL    HW236972   3.953   0.922   5.683 -1.6703 -1.5851 -0.5337
 8447SOL     OW36973   1.545   1.284  12.100 -0.4634 -1.0827  0.1260
 8447SOL    HW136974   1.526   1.312  12.190 -1.2960  1.9973 -1.0011
 8447SOL    HW236975   1.565   1.360  12.045 -1.2579 -0.7264  0.3254
 8448SOL     OW36976   1.344   0.034   3.576 -0.0220  0.0678 -0.1122
 8448SOL    HW136977   1.308   0.113   3.614  0.3975  0.5921 -0.8002
 8448SOL    HW236978   1.426   0.030   3.625 -1.1993 -0.2260  1.7936
 8449SOL     OW36979   0.578   3.825   8.628  0.8817  0.0449 -0.2871
 8449SOL    HW136980   0.663   3.824   8.673  1.4974 -0.8577 -1.4700
 8449SOL    HW236981   0.609   3.815   8.538 -0.9026  1.5608 -1.0474
 8450SOL     OW36982   2.868   4.461   6.858 -0.4300 -0.2911  0.0714
 8450SOL    HW136983   2.830   4.374   6.845 -0.4183  0.0329 -2.2070
 8450SOL    HW236984   2.788   4.509   6.878 -1.2865 -0.1704 -3.6106
 8451SOL     OW36985   2.763   1.530  15.382  0.3458  0.0925 -0.2294
 8451SOL    HW136986   2.774   1.565  15.471 -0.5867  0.0099 -0.0820
 8451SOL    HW236987   2.811   1.595  15.332 -1.1983 -0.4210 -2.3820
 8452SOL     OW36988   0.370   1.767  15.948 -0.1711  0.1072 -0.0907
 8452SOL    HW136989   0.339   1.727  15.866  2.3525  0.5357 -1.2625
 8452SOL    HW236990   0.457   1.728  15.938  0.0096  0.6587 -0.6529
 8453SOL     OW36991   3.613   0.801   2.644  0.2885  0.1833 -0.2563
 8453SOL    HW136992   3.551   0.874   2.638 -1.6005 -1.3749  0.4991
 8453SOL    HW236993   3.570   0.741   2.583  0.3476  0.0170 -0.1332
 8454SOL     OW36994   1.261   0.193   3.354 -0.2152 -0.2349 -0.2140
 8454SOL    HW136995   1.239   0.135   3.426  0.7326  0.6211  0.7654
 8454SOL    HW236996   1.355   0.193   3.374  0.0636  1.2889 -1.5112
 8455SOL     OW36997   1.105   2.101  17.262  0.0215 -0.2394  0.2819
 8455SOL    HW136998   1.071   2.022  17.304  0.1954 -0.4823 -0.0332
 8455SOL    HW236999   1.083   2.150  17.341 -0.9644  1.2534 -0.9263
 8456SOL     OW37000   1.400   0.224   2.154 -0.0774 -0.2543  0.2528
 8456SOL    HW137001   1.468   0.157   2.164 -0.5741 -0.7678  0.2336
 8456SOL    HW237002   1.428   0.291   2.216  0.0616 -0.6553  0.6252
 8457SOL     OW37003   2.920   0.413  10.023 -0.2315  0.0619 -0.0331
 8457SOL    HW137004   2.966   0.497  10.029  0.3508 -0.2211 -0.4396
 8457SOL    HW237005   2.868   0.411   9.943 -1.3836  1.8410  0.6723
 8458SOL     OW37006   3.493   1.970   2.627 -0.6282 -0.3522  0.1258
 8458SOL    HW137007   3.511   1.984   2.534 -1.5760  0.1477  0.0210
 8458SOL    HW237008   3.511   2.059   2.656 -2.9104  0.8855 -2.3446
 8459SOL     OW37009   3.994   2.419   8.370 -0.2851  0.2087  0.0563
 8459SOL    HW137010   4.088   2.406   8.361 -0.4101 -1.4280  1.0715
 8459SOL    HW237011   3.981   2.412   8.275 -0.7720 -0.2140  0.1523
 8460SOL     OW37012   2.806   3.965   8.019  0.3298 -0.2605  0.1501
 8460SOL    HW137013   2.877   4.029   8.007 -0.5388  0.7772  0.5241
 8460SOL    HW237014   2.761   3.968   7.934  0.3175 -0.5163  0.1488
 8461SOL     OW37015   2.491   3.518   6.644  0.1443 -0.3707 -0.4577
 8461SOL    HW137016   2.538   3.595   6.676 -1.5594  0.4979 -0.0372
 8461SOL    HW237017   2.476   3.551   6.555  0.2118  1.5300  0.2319
 8462SOL     OW37018   0.828   4.098   3.311  0.5043  0.0654  0.1746
 8462SOL    HW137019   0.775   4.028   3.273  0.1032  1.4322 -1.7559
 8462SOL    HW237020   0.787   4.175   3.272  1.7887  1.5573  1.7889
 8463SOL     OW37021   2.750   2.705   5.605  0.4068  0.2326  0.0147
 8463SOL    HW137022   2.706   2.646   5.545  0.1376  0.5700 -0.1166
 8463SOL    HW237023   2.735   2.668   5.692 -1.2015 -1.6198 -1.0659
 8464SOL     OW37024   3.923   4.040   3.612  0.0649  0.0432  0.3730
 8464SOL    HW137025   3.920   3.984   3.689 -0.4293  2.3986  2.0636
 8464SOL    HW237026   3.883   4.117   3.653 -0.9941 -0.9106  1.1247
 8465SOL     OW37027   1.911   1.601   2.137  0.8423  0.1339 -0.3590
 8465SOL    HW137028   1.947   1.617   2.224 -1.6881 -1.1709  0.9491
 8465SOL    HW237029   1.924   1.507   2.126 -0.5043 -0.0836 -0.1455
 8466SOL     OW37030   1.914   0.854   0.462  0.8241  0.1383  0.8601
 8466SOL    HW137031   1.936   0.801   0.386 -1.8298 -0.3895  0.4738
 8466SOL    HW237032   1.979   0.820   0.524  2.5061  1.3773 -0.2618
 8467SOL     OW37033   4.653   1.811   5.822  0.7548  0.1824 -0.6625
 8467SOL    HW137034   4.594   1.833   5.893  2.3842  1.3193  0.3523
 8467SOL    HW237035   4.714   1.749   5.862  1.5524  1.1470 -0.3654
 8468SOL     OW37036   4.014   0.855   6.531  0.8354  0.0109 -0.2277
 8468SOL    HW137037   4.093   0.803   6.515  0.5224  0.1618 -2.2954
 8468SOL    HW237038   3.955   0.793   6.574  1.6487 -1.0070 -0.6049
 8469SOL     OW37039   1.470   0.451   1.061 -0.4169  0.4626  0.2242
 8469SOL    HW137040   1.507   0.397   0.990  0.3204  0.2108  0.8035
 8469SOL    HW237041   1.380   0.422   1.074  0.3956 -2.3318 -0.3840
 8470SOL     OW37042   2.730   1.649   5.261  0.2006  0.3312  0.4694
 8470SOL    HW137043   2.707   1.741   5.271 -2.3068 -0.0394 -1.7364
 8470SOL    HW237044   2.663   1.626   5.196 -1.5623 -0.0235  2.4387
 8471SOL     OW37045   0.204   4.615   4.580 -0.2726  0.2643  0.1132
 8471SOL    HW137046   0.154   4.666   4.644 -0.2655  0.5956 -0.1430
 8471SOL    HW237047   0.207   4.524   4.610 -2.7958  0.1428  0.0004
 8472SOL     OW37048   3.939   2.055   0.525  0.1334  0.3985  0.1988
 8472SOL    HW137049   3.868   2.053   0.589 -0.3533 -1.1758 -0.3931
 8472SOL    HW237050   3.920   1.984   0.464  1.4425 -1.1302  1.5947
 8473SOL     OW37051   3.480   1.924   5.521 -0.1562 -0.4300 -0.4044
 8473SOL    HW137052   3.524   1.917   5.436 -1.5050 -0.3285 -1.1145
 8473SOL    HW237053   3.487   2.020   5.524  1.4696 -0.5270 -0.7527
 8474SOL     OW37054   0.155   4.028   4.452  0.1530 -0.2907 -0.2721
 8474SOL    HW137055   0.125   3.991   4.369 -0.5305  1.5176 -0.8306
 8474SOL    HW237056   0.066   4.015   4.483 -0.1608 -1.0427 -1.4773
 8475SOL     OW37057   0.821   1.040   8.715 -0.0003 -0.0278 -0.1114
 8475SOL    HW137058   0.750   1.056   8.777 -0.5039  1.9818 -1.2108
 8475SOL    HW237059   0.887   1.099   8.752 -0.3518  1.6772 -2.2188
 8476SOL     OW37060   0.452   1.040  11.597  0.3416 -0.0498 -0.0849
 8476SOL    HW137061   0.516   1.058  11.666 -0.1792  0.7167  0.2009
 8476SOL    HW237062   0.447   0.946  11.609 -0.3534  0.2878  2.4530
 8477SOL     OW37063   3.265   3.364   6.880 -0.2878  0.1936  0.0225
 8477SOL    HW137064   3.317   3.365   6.960  0.0264 -1.1678 -0.1535
 8477SOL    HW237065   3.270   3.454   6.849  1.8529  0.8512  2.3035
 8478SOL     OW37066   3.239   0.201  12.550 -0.3946 -0.1369 -0.1188
 8478SOL    HW137067   3.162   0.258  12.541  0.3681  0.8520 -0.3249
 8478SOL    HW237068   3.202   0.140  12.614  3.4258 -0.0445  2.1512
 8479SOL     OW37069   1.236   0.523   9.059 -0.7128 -0.0534 -0.5330
 8479SOL    HW137070   1.161   0.574   9.089  0.1391  2.2069 -2.2128
 8479SOL    HW237071   1.274   0.577   8.990 -0.9872  1.2614  0.3417
 8480SOL     OW37072   3.434   1.496   4.483  0.3711 -0.5610 -0.0861
 8480SOL    HW137073   3.412   1.495   4.576 -0.9679 -2.6964 -0.4379
 8480SOL    HW237074   3.442   1.403   4.466  1.7845 -0.1141 -1.7959
 8481SOL     OW37075   2.667   2.337   5.925 -0.5446  0.7600 -0.5283
 8481SOL    HW137076   2.758   2.332   5.896 -0.6709 -2.0909 -0.4576
 8481SOL    HW237077   2.656   2.275   5.997 -0.4014 -0.8151 -1.8448
 8482SOL     OW37078   1.224   1.983   6.753 -0.0062  0.3108 -0.6141
 8482SOL    HW137079   1.185   2.068   6.730 -0.6996  0.5400  1.4556
 8482SOL    HW237080   1.161   1.928   6.705  0.2156 -0.7190  0.3021
 8483SOL     OW37081   0.784   3.300   2.328 -0.3235  0.2013  0.0702
 8483SOL    HW137082   0.756   3.264   2.245  1.4674 -0.6461 -0.1597
 8483SOL    HW237083   0.822   3.225   2.374 -1.3408 -0.2019  0.2463
 8484SOL     OW37084   0.067   1.083   7.250  0.2677  0.2393 -0.0439
 8484SOL    HW137085   4.712   1.087   7.246  0.3711  2.0471 -1.0306
 8484SOL    HW237086   0.075   1.069   7.344  0.8352  0.3153 -0.0835
 8485SOL     OW37087   3.847   0.405  14.559 -0.2647  1.0794  0.1056
 8485SOL    HW137088   3.818   0.321  14.525 -0.1612  0.1351  2.3308
 8485SOL    HW237089   3.767   0.453  14.583 -1.6770 -0.6642 -1.0680
 8486SOL     OW37090   2.185   1.424   8.634 -0.1964  0.5686 -0.7417
 8486SOL    HW137091   2.278   1.403   8.648 -0.6594  1.0791  3.3208
 8486SOL    HW237092   2.185   1.512   8.599  1.2816  0.9425  0.1917
 8487SOL     OW37093   0.717   4.737   8.140  0.0729  0.0524  0.0574
 8487SOL    HW137094   0.706   0.019   8.048 -1.8802  2.0856  0.7951
 8487SOL    HW237095   0.765   4.655   8.129 -0.6400 -0.4410  0.5944
 8488SOL     OW37096   0.373   3.581   2.357 -0.0459 -0.3352  0.1353
 8488SOL    HW137097   0.465   3.585   2.334 -0.6421 -1.5067 -2.4548
 8488SOL    HW237098   0.343   3.633   2.282 -1.1071  1.5737  1.8745
 8489SOL     OW37099   2.400   4.315   2.286 -0.4657 -0.0034 -0.3692
 8489SOL    HW137100   2.477   4.259   2.273 -0.0341  0.3147  0.8341
 8489SOL    HW237101   2.364   4.319   2.197 -0.0349  2.0525 -0.4356
 8490SOL     OW37102   1.245   0.011   9.424  0.4456  0.0058  0.4542
 8490SOL    HW137103   1.200   0.089   9.455  1.5744  0.9837 -0.3583
 8490SOL    HW237104   1.285   4.702   9.495  0.0911 -0.4366  0.3510
 8491SOL     OW37105   0.491   4.319   7.860 -0.0447 -0.4301 -0.4830
 8491SOL    HW137106   0.495   4.225   7.840 -1.6810 -0.8393  1.1173
 8491SOL    HW237107   0.492   4.313   7.955 -1.0681  2.1109 -0.3220
 8492SOL     OW37108   3.623   2.889   9.453 -0.6179  0.0116  0.3211
 8492SOL    HW137109   3.700   2.832   9.460  0.7951  1.7710 -0.5657
 8492SOL    HW237110   3.659   2.954   9.392 -1.9141  1.0360  0.6561
 8493SOL     OW37111   3.379   3.088   2.448  0.0976 -0.0782 -0.6861
 8493SOL    HW137112   3.390   3.027   2.521  0.0705 -1.4927 -1.8618
 8493SOL    HW237113   3.295   3.045   2.436  1.1181 -2.2562 -0.0730
 8494SOL     OW37114   4.622   4.293   8.586 -0.3431  0.0312 -0.3971
 8494SOL    HW137115   4.622   4.209   8.541 -2.2396  0.4638 -1.1668
 8494SOL    HW237116   4.545   4.292   8.642 -0.3055 -0.3970 -0.3552
 8495SOL     OW37117   2.934   0.039   5.304  0.0547 -0.0371  1.0806
 8495SOL    HW137118   2.902   4.690   5.291 -0.0773  0.1235  0.3383
 8495SOL    HW237119   2.905   0.060   5.393  0.4053 -0.1432  1.2192
 8496SOL     OW37120   2.689   2.923  15.720  0.1134 -0.5032 -0.2215
 8496SOL    HW137121   2.708   2.975  15.642  0.2826 -1.5829 -0.9003
 8496SOL    HW237122   2.604   2.962  15.741  0.0894 -1.4376  1.3732
 8497SOL     OW37123   1.802   3.232   6.377 -0.1886  0.1547 -0.2852
 8497SOL    HW137124   1.763   3.174   6.444  1.0502  0.1041  0.3888
 8497SOL    HW237125   1.739   3.224   6.305  0.3156 -1.3409 -0.5652
 8498SOL     OW37126   0.835   0.182  16.568 -0.1102 -0.3674  0.4278
 8498SOL    HW137127   0.834   0.252  16.503 -0.0383  1.3878  2.3224
 8498SOL    HW237128   0.833   0.105  16.511 -1.3488  0.8790 -1.2073
 8499SOL     OW37129   0.227   3.753   2.859  0.1668  0.3303  0.0699
 8499SOL    HW137130   0.304   3.742   2.803  0.2800 -1.3790  0.5774
 8499SOL    HW237131   0.248   3.709   2.941 -2.4402  0.9018  1.0595
 8500SOL     OW37132   3.080   2.597   7.661  0.1966  0.3110  0.3793
 8500SOL    HW137133   3.060   2.643   7.743 -0.7001 -0.6766  0.7208
 8500SOL    HW237134   3.019   2.638   7.600  0.8744 -0.0457 -0.5237
 8501SOL     OW37135   3.315   1.838   9.777 -0.0233  0.0525  0.7105
 8501SOL    HW137136   3.411   1.831   9.774  0.1039  2.4146 -0.9963
 8501SOL    HW237137   3.319   1.875   9.865  0.4968 -1.1267  1.1790
 8502SOL     OW37138   3.027   0.938  12.046  0.1318  0.2693  0.4960
 8502SOL    HW137139   3.013   1.024  12.005 -1.2797  0.0288  0.4977
 8502SOL    HW237140   3.105   0.903  12.004  0.0195  2.3099 -1.4345
 8503SOL     OW37141   1.754   0.043   3.973  0.7485  0.4719  0.0148
 8503SOL    HW137142   1.787   4.714   4.030 -0.0231  0.1538  0.0650
 8503SOL    HW237143   1.820   0.109   3.994  1.0524  1.1422 -3.0949
 8504SOL     OW37144   3.313   0.490  11.522  0.6817  0.1402  0.4602
 8504SOL    HW137145   3.267   0.437  11.456  1.5793  1.0144 -0.8846
 8504SOL    HW237146   3.299   0.427  11.592 -1.3993  0.9221  0.7415
 8505SOL     OW37147   2.007   4.457   6.831 -0.5295  0.5546  0.0195
 8505SOL    HW137148   1.988   4.468   6.924 -0.8427  0.6267 -0.0542
 8505SOL    HW237149   1.985   4.544   6.800  1.8903  0.2615 -2.5729
 8506SOL     OW37150   2.360   0.814   7.478  0.4898  0.1051 -0.5290
 8506SOL    HW137151   2.281   0.801   7.531 -0.7372  2.2125 -1.8256
 8506SOL    HW237152   2.387   0.723   7.466 -2.1021 -0.4910 -1.7968
 8507SOL     OW37153   0.814   4.331   9.811  0.2458 -0.3604  0.0585
 8507SOL    HW137154   0.891   4.385   9.829 -1.6953  2.9241 -1.5469
 8507SOL    HW237155   0.843   4.247   9.845  1.6380  0.0025 -0.2545
 8508SOL     OW37156   4.580   1.675   3.827 -0.4041  0.5519 -0.5869
 8508SOL    HW137157   4.634   1.747   3.794 -0.2617  1.3496  1.3568
 8508SOL    HW237158   4.639   1.652   3.900  0.0193 -0.2592 -1.1888
 8509SOL     OW37159   2.873   4.064   6.196 -0.3722  0.5420  0.2144
 8509SOL    HW137160   2.931   3.988   6.185 -0.2799  0.8718 -1.6036
 8509SOL    HW237161   2.820   4.053   6.116 -0.1302 -1.4660  0.3272
 8510SOL     OW37162   4.612   0.784  14.119  0.3557 -0.3046 -0.1442
 8510SOL    HW137163   4.645   0.873  14.132  0.7354 -0.7847  2.0631
 8510SOL    HW237164   4.520   0.801  14.100  1.2810  0.7821 -3.6410
 8511SOL     OW37165   3.215   1.927   3.901 -0.6646  0.5089  0.6213
 8511SOL    HW137166   3.139   1.971   3.862 -1.0834 -1.8346 -1.2390
 8511SOL    HW237167   3.269   1.937   3.822 -2.0789  2.6924 -0.0550
 8512SOL     OW37168   4.196   3.496  13.751  0.4264  0.0733 -0.0256
 8512SOL    HW137169   4.119   3.507  13.807  0.4163 -0.4927  0.0729
 8512SOL    HW237170   4.260   3.537  13.809 -0.8350 -0.0712  1.4623
 8513SOL     OW37171   3.495   1.107   5.757 -0.6762  0.0388 -0.4994
 8513SOL    HW137172   3.538   1.178   5.709 -1.7001 -0.0758 -1.5774
 8513SOL    HW237173   3.534   1.127   5.842  1.2728 -0.2522 -1.3210
 8514SOL     OW37174   4.515   2.317  12.147 -0.1355 -0.4558 -0.2612
 8514SOL    HW137175   4.466   2.388  12.189  0.5469 -0.2166  0.1297
 8514SOL    HW237176   4.497   2.335  12.055 -1.1224  1.2696  0.2567
 8515SOL     OW37177   2.163   1.768  11.102  0.1784 -0.1313  0.5292
 8515SOL    HW137178   2.192   1.772  11.010  0.0024  0.4809  0.5015
 8515SOL    HW237179   2.209   1.842  11.142 -0.7099  0.6230  0.1655
 8516SOL     OW37180   4.206   3.271   5.101 -0.3194  0.4538  0.9487
 8516SOL    HW137181   4.142   3.203   5.080 -0.3608  0.2410  1.7382
 8516SOL    HW237182   4.159   3.328   5.162  1.8366  2.1274  1.0348
 8517SOL     OW37183   4.701   2.078   6.266  0.2431  0.5319 -0.4065
 8517SOL    HW137184   4.650   2.134   6.324  0.6856  2.3584 -1.7662
 8517SOL    HW237185   0.020   2.148   6.238  0.6502 -1.0317 -3.5372
 8518SOL     OW37186   2.596   1.721  13.488 -0.1199  0.5858 -0.1586
 8518SOL    HW137187   2.670   1.689  13.540 -1.3630 -3.7437 -1.0136
 8518SOL    HW237188   2.635   1.692  13.406 -0.0206 -0.4506  0.2492
 8519SOL     OW37189   0.632   1.929   0.907  0.6750 -0.5472 -0.2820
 8519SOL    HW137190   0.623   1.918   0.813  0.5766 -1.2410 -0.1956
 8519SOL    HW237191   0.688   2.007   0.912 -2.7327  1.8207  0.2842
 8520SOL     OW37192   0.509   3.057   4.617  0.6135  0.4058 -0.6230
 8520SOL    HW137193   0.481   3.068   4.708 -2.0048 -0.9620 -1.2824
 8520SOL    HW237194   0.604   3.052   4.626  0.7065  0.5184 -1.5207
 8521SOL     OW37195   2.381   2.108  16.462 -0.4773  0.4368  0.0455
 8521SOL    HW137196   2.335   2.151  16.534 -1.0442  2.0137 -1.2754
 8521SOL    HW237197   2.419   2.177  16.408  0.9621 -0.8421 -0.5637
 8522SOL     OW37198   1.395   0.082   2.722 -0.1247  0.1130  0.6102
 8522SOL    HW137199   1.443   0.011   2.679  0.9549  1.8979 -1.1344
 8522SOL    HW237200   1.467   0.137   2.754  1.0947 -1.7007  0.9672
 8523SOL     OW37201   2.112   0.832   5.407  0.1670  0.0697 -0.0924
 8523SOL    HW137202   2.055   0.829   5.484  1.0027 -2.0199  0.4287
 8523SOL    HW237203   2.143   0.922   5.399 -0.6728  0.1343 -2.4783
 8524SOL     OW37204   4.047   2.617   2.936  0.1999  0.1217 -0.2430
 8524SOL    HW137205   4.132   2.628   2.894 -0.2959  0.4786 -1.1484
 8524SOL    HW237206   4.071   2.648   3.023  3.3510  2.3319 -1.8846
 8525SOL     OW37207   2.329   4.286   0.677  0.1374 -0.2377  0.1021
 8525SOL    HW137208   2.308   4.265   0.586 -0.7255 -1.2165  0.5319
 8525SOL    HW237209   2.383   4.209   0.697  2.0690  0.8725 -0.8518
 8526SOL     OW37210   2.971   1.810  11.016  0.2918 -0.6736  0.2923
 8526SOL    HW137211   2.936   1.888  11.060 -1.9976 -0.7485 -1.4596
 8526SOL    HW237212   2.932   1.823  10.930 -0.1579  2.6231  0.9950
 8527SOL     OW37213   0.902   0.144   8.372 -0.0307  0.7375 -0.1500
 8527SOL    HW137214   0.915   0.191   8.289 -2.4818  1.0163 -0.3870
 8527SOL    HW237215   0.847   0.206   8.420  0.0183  0.4617  0.2597
 8528SOL     OW37216   0.934   3.259  13.788  0.2500  0.2373 -0.6815
 8528SOL    HW137217   1.012   3.262  13.843 -1.2883 -0.8065  1.5335
 8528SOL    HW237218   0.972   3.262  13.700  1.0854  1.5505 -0.2630
 8529SOL     OW37219   4.276   0.634   4.723  0.0670 -0.1544 -0.9192
 8529SOL    HW137220   4.249   0.716   4.765 -3.5885 -1.0289 -1.5673
 8529SOL    HW237221   4.367   0.631   4.752 -0.7935  0.2031  1.7915
 8530SOL     OW37222   0.084   3.976   8.581 -0.1932  0.1158  0.1546
 8530SOL    HW137223   0.038   3.912   8.527  0.3811 -0.9314  0.9127
 8530SOL    HW237224   0.017   4.022   8.632  1.5094  1.1905  1.4271
 8531SOL     OW37225   0.571   1.824  14.443  0.5059 -0.3253 -0.1253
 8531SOL    HW137226   0.612   1.858  14.363 -0.2645  0.6950 -0.0837
 8531SOL    HW237227   0.546   1.740  14.404 -2.3177 -1.0576  3.2138
 8532SOL     OW37228   1.976   3.518   4.544  0.7443  0.2347 -0.2236
 8532SOL    HW137229   1.929   3.566   4.612  0.2403  0.1211 -0.4905
 8532SOL    HW237230   2.027   3.588   4.503  0.3020  1.1771  0.8350
 8533SOL     OW37231   2.073   0.915   6.168 -0.5971 -0.6512 -0.3274
 8533SOL    HW137232   1.978   0.911   6.175 -0.5347  0.9372  1.3243
 8533SOL    HW237233   2.095   1.003   6.138 -2.5483 -0.0931 -0.0991
 8534SOL     OW37234   2.948   3.690   9.526 -0.2644 -0.2874  0.5092
 8534SOL    HW137235   2.914   3.701   9.437 -0.7990  0.6005  0.8215
 8534SOL    HW237236   2.876   3.730   9.576 -0.4321  0.4665 -0.3320
 8535SOL     OW37237   0.697   4.310   6.372  0.3371  0.3183 -0.4839
 8535SOL    HW137238   0.756   4.302   6.447 -0.6430 -1.5078  0.0901
 8535SOL    HW237239   0.721   4.229   6.328 -0.7716 -0.1027 -0.3069
 8536SOL     OW37240   4.175   1.384  10.782  0.0442  0.5681 -0.1684
 8536SOL    HW137241   4.145   1.470  10.751 -0.9369 -0.1357 -1.1479
 8536SOL    HW237242   4.270   1.390  10.768 -0.4309  0.4068 -3.3838
 8537SOL     OW37243   3.514   4.076  14.707  0.8887  0.1033  1.0825
 8537SOL    HW137244   3.591   4.103  14.657  0.7545 -1.2840  0.1343
 8537SOL    HW237245   3.451   4.146  14.690 -0.4467 -0.6875  2.9389
 8538SOL     OW37246   3.435   3.313  13.362 -0.2382  0.2054  0.0508
 8538SOL    HW137247   3.346   3.281  13.346  0.1502 -1.5424  1.3828
 8538SOL    HW237248   3.454   3.252  13.433  0.9228 -0.4730 -0.8587
 8539SOL     OW37249   4.466   0.684   4.397  0.0940 -0.0713 -0.0661
 8539SOL    HW137250   4.553   0.719   4.415  0.6839 -1.3919 -0.3920
 8539SOL    HW237251   4.471   0.596   4.434 -0.0545 -0.1057 -0.1269
 8540SOL     OW37252   3.099   2.307   8.287 -0.2360  0.2815 -0.3096
 8540SOL    HW137253   3.155   2.338   8.215  0.0725  2.2743  0.8040
 8540SOL    HW237254   3.086   2.383   8.343  1.0371 -0.1850  0.6250
 8541SOL     OW37255   2.479   0.740   3.068  0.3701  0.1655  0.1833
 8541SOL    HW137256   2.457   0.652   3.037 -0.1376  0.6852 -0.9101
 8541SOL    HW237257   2.469   0.735   3.163  1.5900  0.4955  0.3251
 8542SOL     OW37258   3.531   1.401   9.113  0.2796 -0.4400  0.4871
 8542SOL    HW137259   3.541   1.410   9.018 -0.6205  1.1844  0.5457
 8542SOL    HW237260   3.597   1.333   9.125 -2.3430 -3.1652 -0.3339
 8543SOL     OW37261   0.327   0.380   8.225 -0.2374 -0.4213  0.2497
 8543SOL    HW137262   0.395   0.316   8.204  1.1563  1.1794 -0.1420
 8543SOL    HW237263   0.276   0.316   8.274  2.0294 -0.4416  2.5872
 8544SOL     OW37264   4.694   3.334   7.597  0.2277  0.2409  0.1864
 8544SOL    HW137265   4.653   3.249   7.582  1.0820  0.0819 -1.1878
 8544SOL    HW237266   4.691   3.375   7.511  0.8141 -0.4536 -0.1678
 8545SOL     OW37267   2.070   2.334   1.880  0.0862  0.4245  0.2846
 8545SOL    HW137268   2.013   2.274   1.928 -2.9344  2.0816 -1.2065
 8545SOL    HW237269   2.060   2.415   1.930 -0.4608 -0.8077  2.1768
 8546SOL     OW37270   2.549   4.235   7.133 -0.4795  0.0173 -0.4113
 8546SOL    HW137271   2.531   4.286   7.053  0.4934  0.3638 -0.4037
 8546SOL    HW237272   2.589   4.303   7.186 -0.5695 -1.5232  1.6041
 8547SOL     OW37273   2.669   2.615   2.685  0.2786  0.4482 -0.1406
 8547SOL    HW137274   2.729   2.638   2.756  1.8304  1.7858 -1.8571
 8547SOL    HW237275   2.595   2.673   2.702 -0.8067 -0.9839  0.0029
 8548SOL     OW37276   3.495   1.905   0.558 -0.1573 -0.1779 -0.4773
 8548SOL    HW137277   3.508   1.810   0.563 -0.2462 -0.3068 -2.5216
 8548SOL    HW237278   3.400   1.914   0.546 -0.0947 -1.6969 -2.1977
 8549SOL     OW37279   1.768   1.225   3.774 -0.5665 -0.2345  0.2565
 8549SOL    HW137280   1.773   1.234   3.679  1.2940  4.1424  0.7942
 8549SOL    HW237281   1.707   1.296   3.790  0.0779  0.2457  0.6012
 8550SOL     OW37282   0.201   1.915   3.083  0.4011  0.0144  0.2537
 8550SOL    HW137283   0.255   1.965   3.145 -0.2812  1.8559 -0.6258
 8550SOL    HW237284   0.114   1.954   3.088 -0.6907 -2.1588 -1.8126
 8551SOL     OW37285   0.830   4.137  13.157 -0.2817  0.6473  0.6430
 8551SOL    HW137286   0.831   4.042  13.160  1.6617  0.6441 -0.2143
 8551SOL    HW237287   0.819   4.149  13.251 -2.3303 -0.0261  0.4926
 8552SOL     OW37288   4.726   1.087   1.473 -0.5869  0.0297 -0.4787
 8552SOL    HW137289   4.740   1.165   1.527  0.5938  1.1716 -2.4077
 8552SOL    HW237290   0.038   1.020   1.515 -1.7372 -0.2675  0.4693
 8553SOL     OW37291   4.203   2.084   7.600  0.2767  0.4407  0.1581
 8553SOL    HW137292   4.126   2.074   7.544 -0.2174  0.3327  0.8570
 8553SOL    HW237293   4.182   2.035   7.679 -0.4285  0.4168 -0.0490
 8554SOL     OW37294   3.195   0.585   4.242  0.0344 -0.1960 -0.0072
 8554SOL    HW137295   3.140   0.507   4.247  0.2478 -0.2180  1.9820
 8554SOL    HW237296   3.238   0.591   4.327 -2.4690  1.4338  1.1599
 8555SOL     OW37297   1.021   1.492   2.528  0.6963 -0.5127  0.2300
 8555SOL    HW137298   0.998   1.487   2.620  1.4366 -4.1115  0.2396
 8555SOL    HW237299   0.942   1.456   2.487 -1.5420  5.2918 -0.5230
 8556SOL     OW37300   1.024   0.754   6.655  0.9434 -0.0029 -0.3850
 8556SOL    HW137301   1.000   0.700   6.730 -0.9534 -1.7681 -2.2570
 8556SOL    HW237302   1.047   0.839   6.694  0.3825 -0.0455  0.0335
 8557SOL     OW37303   2.070   1.936   8.654 -0.1886  0.0633  0.7668
 8557SOL    HW137304   1.978   1.944   8.677 -0.4144  1.0157 -0.4463
 8557SOL    HW237305   2.118   2.004   8.703  0.0220 -0.8865  1.8750
 8558SOL     OW37306   0.137   4.062  15.363  0.9581  0.0731  0.1892
 8558SOL    HW137307   0.052   4.104  15.350  1.3652  1.1573  0.9584
 8558SOL    HW237308   0.151   4.026  15.276 -1.0174 -0.5727  0.1424
 8559SOL     OW37309   0.160   1.622   4.464  0.4299  0.4305 -0.4393
 8559SOL    HW137310   0.213   1.693   4.428 -0.0289  1.5213  1.0799
 8559SOL    HW237311   0.152   1.571   4.383 -0.7184 -0.1503  0.0406
 8560SOL     OW37312   1.727   0.873  15.280  0.0188 -0.2289 -0.1136
 8560SOL    HW137313   1.756   0.873  15.189  0.4456 -1.0138  0.0187
 8560SOL    HW237314   1.706   0.780  15.275 -1.6691  0.2074 -1.3154
 8561SOL     OW37315   3.496   3.986  10.092 -0.1579 -0.3623  0.5031
 8561SOL    HW137316   3.467   3.952  10.177 -2.4390 -2.1760 -1.0093
 8561SOL    HW237317   3.544   4.065  10.117 -2.1814  1.1486 -0.4855
 8562SOL     OW37318   4.569   3.757   2.680  0.4069  0.2427  0.4471
 8562SOL    HW137319   4.558   3.813   2.757 -1.9497  0.5553 -0.1393
 8562SOL    HW237320   4.625   3.813   2.626  0.2460 -0.8596 -0.8614
 8563SOL     OW37321   0.686   0.275   6.519 -0.0860 -0.5175  0.4090
 8563SOL    HW137322   0.733   0.201   6.479 -1.6548 -0.2024 -1.9522
 8563SOL    HW237323   0.679   0.231   6.604 -1.0714  1.2315  1.2374
 8564SOL     OW37324   1.363   4.226   3.401 -0.0014  0.5280 -0.1551
 8564SOL    HW137325   1.326   4.293   3.459 -1.2630  1.0320 -1.5391
 8564SOL    HW237326   1.290   4.165   3.399  2.3840 -2.3039 -1.0981
 8565SOL     OW37327   4.454   1.501   8.520 -0.0875  0.0155  0.0471
 8565SOL    HW137328   4.453   1.408   8.539 -0.7472  0.0598  0.2564
 8565SOL    HW237329   4.393   1.535   8.586  1.2771 -0.0643  1.3271
 8566SOL     OW37330   2.630   1.779   1.548  0.1705 -0.0507 -0.4006
 8566SOL    HW137331   2.547   1.790   1.595  2.2532  0.8995  3.0429
 8566SOL    HW237332   2.645   1.863   1.506 -0.3142 -0.3346 -1.1465
 8567SOL     OW37333   4.548   1.570   9.292 -0.0725  0.0826 -0.2732
 8567SOL    HW137334   4.468   1.550   9.244 -1.3505  1.0384  1.4557
 8567SOL    HW237335   4.525   1.543   9.381  0.0091  0.9670  0.0143
 8568SOL     OW37336   2.293   3.816   7.581 -0.2857 -0.0557 -0.1225
 8568SOL    HW137337   2.250   3.899   7.604  2.7523  0.5118  3.6414
 8568SOL    HW237338   2.369   3.844   7.531  1.0310 -4.2753 -0.4928
 8569SOL     OW37339   2.669   0.747  17.755  0.1391  0.0520 -0.1145
 8569SOL    HW137340   2.762   0.761  17.738  0.3613  1.4068  2.2268
 8569SOL    HW237341   2.675   0.762   0.089 -2.3315 -0.2301  0.1082
 8570SOL     OW37342   0.599   3.718   9.917 -0.0351 -0.5051  0.7311
 8570SOL    HW137343   0.675   3.712   9.860 -1.4544  1.3406 -1.3277
 8570SOL    HW237344   0.532   3.727   9.849  0.8571  2.0272  0.2251
 8571SOL     OW37345   0.475   3.532  10.078  0.5002  0.6619 -0.4241
 8571SOL    HW137346   0.471   3.445  10.038  0.9827  1.2756 -1.8109
 8571SOL    HW237347   0.516   3.586  10.009  0.3714 -0.4038 -1.3293
 8572SOL     OW37348   1.724   3.089   2.782  0.2887  0.2433  0.2657
 8572SOL    HW137349   1.732   3.169   2.730  0.5446 -0.1533 -0.3071
 8572SOL    HW237350   1.803   3.101   2.835 -0.3745 -0.1532  1.3377
 8573SOL     OW37351   0.884   1.245  13.645 -0.0090  0.5902 -0.2042
 8573SOL    HW137352   0.875   1.337  13.670  1.1183  0.1282  1.9524
 8573SOL    HW237353   0.935   1.249  13.564 -0.5514  2.2198 -0.4556
 8574SOL     OW37354   0.879   2.652   3.798 -0.2240  0.1023  0.0703
 8574SOL    HW137355   0.939   2.647   3.724 -1.2034 -2.0920 -0.5884
 8574SOL    HW237356   0.844   2.563   3.804  1.1387 -0.4257  0.2477
 8575SOL     OW37357   0.745   0.976  12.524 -0.2889 -0.0939  0.1375
 8575SOL    HW137358   0.774   1.066  12.508 -1.3635 -0.0805 -1.8136
 8575SOL    HW237359   0.662   0.979  12.475  0.5358  0.7996 -1.2148
 8576SOL     OW37360   0.805   0.895   9.658  0.3498 -0.1980  0.2239
 8576SOL    HW137361   0.804   0.940   9.574 -1.3671  0.1678  0.4435
 8576SOL    HW237362   0.815   0.808   9.619 -0.0121  1.9444 -4.6940
 8577SOL     OW37363   3.826   0.054   9.465 -0.6256  0.6371  0.3650
 8577SOL    HW137364   3.749   0.089   9.510  0.0620  0.4513  1.6854
 8577SOL    HW237365   3.878   0.131   9.445  0.4556  0.3865  2.2432
 8578SOL     OW37366   3.863   1.513   2.431  0.3153  0.1407  0.0360
 8578SOL    HW137367   3.777   1.482   2.404 -0.4250  2.6116 -0.4783
 8578SOL    HW237368   3.842   1.600   2.466  1.1967  0.0321  0.8414
 8579SOL     OW37369   1.371   0.963   0.461  0.2672  0.1345 -0.3977
 8579SOL    HW137370   1.344   1.052   0.481  0.0732  0.1054 -0.5330
 8579SOL    HW237371   1.434   0.946   0.531  0.7377  0.0792 -0.8357
 8580SOL     OW37372   1.949   1.096   6.485 -0.0809 -0.3100  0.3164
 8580SOL    HW137373   1.874   1.130   6.436  0.4367 -0.2501 -0.4474
 8580SOL    HW237374   1.970   1.179   6.527 -0.1582 -0.1764  0.0925
 8581SOL     OW37375   3.737   4.602   9.304  0.1439  0.2329  0.0835
 8581SOL    HW137376   3.785   4.665   9.359  1.9706 -0.1406 -1.0633
 8581SOL    HW237377   3.765   4.614   9.213 -1.5830 -1.6396 -0.6671
 8582SOL     OW37378   0.023   2.826   8.899 -0.5392  0.0733  0.2669
 8582SOL    HW137379   0.118   2.830   8.889 -0.4763 -0.8170  0.4639
 8582SOL    HW237380   0.014   2.858   8.989  1.6073  0.2843  0.4229
 8583SOL     OW37381   4.641   1.076  14.146  0.1847 -0.1943 -0.5677
 8583SOL    HW137382   4.580   1.132  14.096  1.7770  0.2322 -2.0518
 8583SOL    HW237383   4.731   1.107  14.141 -0.2379  0.5729 -4.0807
 8584SOL     OW37384   2.080   0.699   0.602  0.9092 -0.1959 -0.0130
 8584SOL    HW137385   2.088   0.763   0.673 -2.1652  0.6983 -0.4451
 8584SOL    HW237386   2.047   0.619   0.643  2.1763 -0.8160 -0.1956
 8585SOL     OW37387   1.136   3.236   2.526  0.4819  0.2740  0.0508
 8585SOL    HW137388   1.198   3.308   2.518  0.3827  0.3443 -0.0806
 8585SOL    HW237389   1.137   3.208   2.435  2.1871 -1.1447  0.5020
 8586SOL     OW37390   4.445   4.340  11.877  0.1801  0.0133 -0.3968
 8586SOL    HW137391   4.361   4.351  11.921  0.1159  0.2954 -0.5880
 8586SOL    HW237392   4.434   4.257  11.830  0.6478 -0.7362  0.8374
 8587SOL     OW37393   0.017   3.073   4.615  0.3288  0.1229 -0.2301
 8587SOL    HW137394   4.689   3.007   4.609  2.0924 -1.6563 -0.9377
 8587SOL    HW237395   0.072   3.035   4.683 -1.8528  1.2275  2.1593
 8588SOL     OW37396   3.612   3.193   2.577 -0.2053 -0.1874 -0.1083
 8588SOL    HW137397   3.555   3.195   2.500  0.2501 -0.5540 -0.4585
 8588SOL    HW237398   3.690   3.231   2.536 -0.1106  0.1586  0.3877
 8589SOL     OW37399   3.385   1.865   6.579 -0.1673 -0.6507  0.1349
 8589SOL    HW137400   3.443   1.834   6.648 -1.6960  2.2504  2.7502
 8589SOL    HW237401   3.447   1.896   6.513  1.5833 -1.2062  1.5419
 8590SOL     OW37402   2.364   2.476   8.432 -0.2424 -0.2008  0.4005
 8590SOL    HW137403   2.358   2.560   8.387  0.3070 -1.0041 -1.1864
 8590SOL    HW237404   2.439   2.440   8.384  0.2181  0.2746  0.7665
 8591SOL     OW37405   4.235   2.831   8.824 -0.6371 -0.2795  0.7167
 8591SOL    HW137406   4.292   2.887   8.878 -0.2247 -0.9436  0.9674
 8591SOL    HW237407   4.284   2.823   8.743 -1.1762 -0.1068  0.3702
 8592SOL     OW37408   4.046   1.445   8.742  0.2964 -0.5284  0.7115
 8592SOL    HW137409   4.033   1.389   8.665  0.9073  0.4573 -0.1016
 8592SOL    HW237410   4.040   1.368   8.799  1.1660  0.5148  2.2113
 8593SOL     OW37411   1.570   0.773  12.545  0.0816  0.0816  0.2907
 8593SOL    HW137412   1.624   0.820  12.609 -1.5435  1.4335  0.6916
 8593SOL    HW237413   1.631   0.745  12.477  1.1820  1.8314  0.5633
 8594SOL     OW37414   2.934   2.019   4.644  0.1080 -0.5962 -0.0207
 8594SOL    HW137415   3.009   1.959   4.638  0.5408  0.2123 -2.3128
 8594SOL    HW237416   2.968   2.093   4.594 -0.2587 -1.0782 -0.9913
 8595SOL     OW37417   0.427   0.668   4.387 -0.1121  0.2758 -0.0323
 8595SOL    HW137418   0.479   0.641   4.312  1.0436  1.0683  0.4831
 8595SOL    HW237419   0.386   0.586   4.414 -0.0761 -0.3327 -1.8413
 8596SOL     OW37420   0.201   1.990   4.539  0.0318  0.2614 -0.5836
 8596SOL    HW137421   0.183   1.930   4.467 -1.1913  0.6974 -0.6289
 8596SOL    HW237422   0.264   1.940   4.592 -0.2878 -0.0831 -0.5313
 8597SOL     OW37423   3.546   4.163   9.016  0.0856  0.8036 -0.1573
 8597SOL    HW137424   3.488   4.096   9.049  2.2542 -0.1326  1.7411
 8597SOL    HW237425   3.610   4.164   9.087  0.4583  0.7776 -0.4859
 8598SOL     OW37426   0.480   0.705   4.910  0.0485 -0.5496 -0.7574
 8598SOL    HW137427   0.575   0.722   4.910  0.1423 -1.0171  1.4805
 8598SOL    HW237428   0.469   0.658   4.993  0.6485  1.0585  0.2304
 8599SOL     OW37429   4.310   4.533   1.704 -0.0757  0.1987 -0.2552
 8599SOL    HW137430   4.312   4.540   1.608 -0.9711  1.1884 -0.1922
 8599SOL    HW237431   4.221   4.564   1.716 -0.7747 -1.9175 -0.0613
 8600SOL     OW37432   0.091   1.717  16.515  0.2079  0.5787  0.2383
 8600SOL    HW137433   0.054   1.762  16.591 -1.7067  0.4521 -0.6318
 8600SOL    HW237434   0.080   1.623  16.531  2.3247  0.1446 -0.8838
 8601SOL     OW37435   4.451   0.150   4.306  0.2899  0.0640 -0.0047
 8601SOL    HW137436   4.435   0.106   4.223  1.7112  1.5799 -1.0711
 8601SOL    HW237437   4.387   0.219   4.292  3.2628  2.9208  0.5285
 8602SOL     OW37438   4.520   4.234   6.275 -0.5197 -0.3468 -0.5879
 8602SOL    HW137439   4.461   4.211   6.203 -0.0263  1.6462 -1.6439
 8602SOL    HW237440   4.602   4.258   6.231  0.5734  1.1992  2.3171
 8603SOL     OW37441   3.834   1.125  16.441 -0.1289  0.4814 -0.3353
 8603SOL    HW137442   3.762   1.080  16.486  0.4505  0.2597  0.3729
 8603SOL    HW237443   3.891   1.151  16.513 -0.1271  1.4214 -0.6716
 8604SOL     OW37444   0.690   3.985   5.908 -0.1822 -0.4045  0.5225
 8604SOL    HW137445   0.734   4.060   5.948 -0.5963 -1.8052  3.6593
 8604SOL    HW237446   0.729   3.907   5.947 -2.2422 -1.2347  0.9765
 8605SOL     OW37447   3.578   3.163   1.202 -0.5360 -0.3035 -0.0474
 8605SOL    HW137448   3.487   3.142   1.184 -0.6458  1.0394 -1.0807
 8605SOL    HW237449   3.560   3.244   1.249  1.3777 -0.2502  0.5844
 8606SOL     OW37450   3.168   3.970   6.323  0.0698  0.3826 -0.3142
 8606SOL    HW137451   3.101   3.941   6.261  0.8663  0.8611 -1.3797
 8606SOL    HW237452   3.245   3.985   6.269 -0.1064  0.6013 -0.5018
 8607SOL     OW37453   0.927   4.734   7.193 -0.0521 -0.4165 -0.2012
 8607SOL    HW137454   0.920   4.725   7.098  0.5468 -0.4165 -0.2427
 8607SOL    HW237455   1.021   0.009   7.200  0.3692 -2.8273 -0.6831
 8608SOL     OW37456   3.111   4.351   4.709 -0.3860  0.2149  0.0256
 8608SOL    HW137457   3.113   4.316   4.798 -0.1687  2.7472  1.0248
 8608SOL    HW237458   3.070   4.435   4.731  0.8096  0.6522  0.6142
 8609SOL     OW37459   0.720   1.575  10.063 -0.0711 -1.0236  0.2457
 8609SOL    HW137460   0.640   1.549  10.108  0.2474 -1.9800  0.2514
 8609SOL    HW237461   0.774   1.608  10.135 -1.5139 -0.4678  1.0719
 8610SOL     OW37462   4.570   0.867  10.570 -0.3773  0.5352 -0.0711
 8610SOL    HW137463   4.485   0.830  10.549 -0.3624 -1.0626  2.6762
 8610SOL    HW237464   4.582   0.841  10.661  2.1038 -0.6734 -0.7517
 8611SOL     OW37465   4.566   4.687   1.578 -0.2425 -0.5328  0.0847
 8611SOL    HW137466   4.622   4.634   1.634 -0.7960 -1.8474 -0.6188
 8611SOL    HW237467   4.578   0.027   1.628 -2.8119 -0.4585  0.5842
 8612SOL     OW37468   4.182   4.438   9.657 -0.5491  0.2362 -0.6134
 8612SOL    HW137469   4.120   4.504   9.686  0.3390  1.5447 -1.6709
 8612SOL    HW237470   4.180   4.465   9.565  1.1349  1.3194 -0.3486
 8613SOL     OW37471   0.762   4.733   2.677  0.1854 -0.0218 -0.3005
 8613SOL    HW137472   0.707   0.070   2.679 -3.1123 -2.3520  0.1214
 8613SOL    HW237473   0.842   0.024   2.635 -0.8539  0.2866 -2.0527
 8614SOL     OW37474   3.127   4.229   9.152  0.3278  0.3427  0.6910
 8614SOL    HW137475   3.164   4.296   9.209  1.2237  0.9060 -0.5463
 8614SOL    HW237476   3.082   4.285   9.089  2.7911 -0.7117 -2.0577
 8615SOL     OW37477   1.567   0.679   8.744  0.4102  0.1134  0.7619
 8615SOL    HW137478   1.640   0.653   8.800 -0.2305 -0.4396  1.3406
 8615SOL    HW237479   1.560   0.607   8.681  0.2187  0.7263  0.0677
 8616SOL     OW37480   3.594   0.814   1.606 -0.0114  0.2115  0.4161
 8616SOL    HW137481   3.535   0.740   1.594  1.1805 -0.6212 -0.2980
 8616SOL    HW237482   3.597   0.846   1.516  0.5758 -0.5842  0.1615
 8617SOL     OW37483   4.306   4.586   5.107 -0.0057 -0.6861 -0.1485
 8617SOL    HW137484   4.300   4.567   5.013  0.5609  1.0815 -0.5424
 8617SOL    HW237485   4.283   4.678   5.115 -0.9968 -1.0927  1.6593
 8618SOL     OW37486   2.371   0.312   6.464 -0.1512  0.1225  0.1258
 8618SOL    HW137487   2.447   0.262   6.434  0.9182  1.1536  1.1165
 8618SOL    HW237488   2.384   0.394   6.417 -1.6056 -0.0612 -0.5857
 8619SOL     OW37489   3.007   1.414  11.027  0.0710  0.2861 -0.6855
 8619SOL    HW137490   2.947   1.452  11.092  0.4374  1.4467 -1.0121
 8619SOL    HW237491   2.953   1.343  10.993 -0.0325  0.2244 -0.3956
 8620SOL     OW37492   2.115   1.517   5.469 -0.4083  0.3126 -0.0988
 8620SOL    HW137493   2.126   1.550   5.558  0.5892 -0.2131 -0.0220
 8620SOL    HW237494   2.082   1.595   5.425 -1.0055  1.5037  2.4991
 8621SOL     OW37495   0.588   3.918   6.530 -0.4289 -1.1575 -0.0354
 8621SOL    HW137496   0.565   3.963   6.611 -2.8362 -0.2010 -1.2651
 8621SOL    HW237497   0.502   3.899   6.493 -1.0804 -0.8471  1.3123
 8622SOL     OW37498   3.397   0.016   4.552 -0.3398  0.7287 -0.5581
 8622SOL    HW137499   3.402   4.670   4.593 -0.1500  1.2846  0.5866
 8622SOL    HW237500   3.356   0.062   4.626 -0.1570 -1.5202  0.9462
 8623SOL     OW37501   1.918   2.303  15.127 -0.0835 -0.2286  0.2395
 8623SOL    HW137502   1.841   2.259  15.164 -0.9563  0.8485 -0.2777
 8623SOL    HW237503   1.872   2.350  15.057 -2.8765  0.0616  2.2680
 8624SOL     OW37504   3.225   1.992  11.614 -0.8127 -0.0038  0.8455
 8624SOL    HW137505   3.214   1.976  11.520 -0.7091  0.9127  0.6771
 8624SOL    HW237506   3.159   2.060  11.627  1.5092  2.3083  0.6130
 8625SOL     OW37507   3.533   1.196   5.269  0.6019 -0.1470 -0.4032
 8625SOL    HW137508   3.607   1.156   5.314 -0.8562 -1.0632  1.1980
 8625SOL    HW237509   3.519   1.281   5.312 -0.0142 -0.1043 -0.6815
 8626SOL     OW37510   4.220   3.054   7.943  0.0688 -0.2280  0.6807
 8626SOL    HW137511   4.241   2.996   7.870  0.3862  0.6414  0.0728
 8626SOL    HW237512   4.151   3.003   7.984 -1.3465  1.8164  0.8453
 8627SOL     OW37513   0.299   4.256   7.673  0.3063 -0.1213  0.2235
 8627SOL    HW137514   0.215   4.289   7.704 -0.6645  0.3050 -2.8861
 8627SOL    HW237515   0.364   4.280   7.740 -0.2044 -0.4764  0.8523
 8628SOL     OW37516   3.755   2.831   4.154 -0.9474  0.4404  0.1941
 8628SOL    HW137517   3.708   2.904   4.115 -3.7356 -2.0901 -1.1529
 8628SOL    HW237518   3.675   2.792   4.191 -2.3829  1.8488 -1.4555
 8629SOL     OW37519   4.064   2.159   1.067 -0.4769  0.4865  0.0825
 8629SOL    HW137520   4.119   2.222   1.113 -0.2371  0.7677 -0.5901
 8629SOL    HW237521   4.083   2.172   0.974 -0.8564  1.1273  0.0967
 8630SOL     OW37522   1.086   2.170   1.416  0.2160 -0.2883  0.1494
 8630SOL    HW137523   0.991   2.162   1.426  0.2371  0.5488  1.0225
 8630SOL    HW237524   1.089   2.171   1.320 -1.1885 -1.8603  0.0833
 8631SOL     OW37525   1.813   1.044  16.350  0.0044 -0.2219 -0.3148
 8631SOL    HW137526   1.823   1.138  16.339  0.8780 -0.3843 -0.8523
 8631SOL    HW237527   1.774   1.038  16.437  1.1184  1.3077  0.2759
 8632SOL     OW37528   1.826   0.329   7.885 -0.6311  0.3530 -0.0394
 8632SOL    HW137529   1.778   0.286   7.956 -0.0207  0.1266  0.2374
 8632SOL    HW237530   1.760   0.392   7.857  0.5865  2.0876  0.9778
 8633SOL     OW37531   0.011   1.213  15.732  0.2812 -0.7138 -0.0340
 8633SOL    HW137532   4.732   1.301  15.764 -0.1230 -1.2926  1.3106
 8633SOL    HW237533   4.666   1.176  15.708  0.8035 -0.7837 -1.7916
 8634SOL     OW37534   4.043   3.061  16.418 -0.7572 -0.0280 -0.7400
 8634SOL    HW137535   4.079   3.123  16.481 -4.1969  0.9175  0.2878
 8634SOL    HW237536   3.956   3.098  16.408 -2.2216 -2.5835  2.4219
 8635SOL     OW37537   3.611   1.541   7.663 -0.3408 -0.3680 -0.2294
 8635SOL    HW137538   3.557   1.589   7.726  0.2845 -0.9674  0.7799
 8635SOL    HW237539   3.611   1.453   7.702 -2.0168 -0.0616  0.4285
 8636SOL     OW37540   3.924   4.015   5.850 -0.2470 -0.1387 -0.2266
 8636SOL    HW137541   3.957   3.926   5.843 -2.5572 -1.2318  2.9242
 8636SOL    HW237542   3.992   4.046   5.909 -0.1044 -0.9740  0.0403
 8637SOL     OW37543   4.115   2.834   3.824 -0.0944  0.2270 -0.2001
 8637SOL    HW137544   4.159   2.768   3.878 -1.7415 -1.7697 -1.2845
 8637SOL    HW237545   4.184   2.845   3.758  0.0999 -0.2183 -0.0720
 8638SOL     OW37546   0.044   0.394   7.577  0.0790  0.1857 -0.4094
 8638SOL    HW137547   4.699   0.394   7.533  0.9927  3.0936 -2.1649
 8638SOL    HW237548   0.068   0.304   7.556  0.5800  0.3349 -0.4670
 8639SOL     OW37549   0.303   3.574   5.276  0.3329 -0.0478 -0.2296
 8639SOL    HW137550   0.380   3.549   5.328 -0.1779  0.7214  0.8958
 8639SOL    HW237551   0.344   3.622   5.204 -0.3254 -0.9191 -1.1822
 8640SOL     OW37552   2.312   1.865  15.559 -0.5569  0.3862 -0.3544
 8640SOL    HW137553   2.271   1.920  15.626  0.5904 -0.8249  1.3245
 8640SOL    HW237554   2.380   1.814  15.602  1.8883  3.2822 -0.8300
 8641SOL     OW37555   0.652   3.852   4.042 -0.4606  0.0454  0.3589
 8641SOL    HW137556   0.566   3.874   4.005 -0.2710  0.5714  0.2342
 8641SOL    HW237557   0.707   3.858   3.964  0.6463 -1.5418  1.0141
 8642SOL     OW37558   2.670   0.816   6.025  0.5578  0.3073 -0.4147
 8642SOL    HW137559   2.609   0.770   5.967 -2.4628  0.9782  2.2456
 8642SOL    HW237560   2.612   0.866   6.082  0.1528  2.6599 -2.9037
 8643SOL     OW37561   4.218   2.352   0.063  0.8894 -0.3635 -0.1104
 8643SOL    HW137562   4.298   2.303   0.081 -0.0682 -1.7746  0.3627
 8643SOL    HW237563   4.150   2.285   0.069  0.0331  0.5701  0.5550
 8644SOL     OW37564   1.574   1.988   2.647 -0.1276  0.1078 -0.0915
 8644SOL    HW137565   1.574   1.894   2.630 -0.5780  0.4260 -1.9196
 8644SOL    HW237566   1.573   1.994   2.742  0.0456  1.0436 -0.1495
 8645SOL     OW37567   3.203   2.854   8.742 -0.4393  0.2158 -0.3748
 8645SOL    HW137568   3.156   2.773   8.764  0.4544 -0.3500 -0.5407
 8645SOL    HW237569   3.237   2.832   8.655  1.0204 -4.0546  1.2777
 8646SOL     OW37570   1.455   3.573   7.349  0.2929 -0.9885  0.2219
 8646SOL    HW137571   1.519   3.633   7.387  1.1320 -1.8197  0.1196
 8646SOL    HW237572   1.430   3.530   7.431  0.0787 -3.2159 -1.0127
 8647SOL     OW37573   4.595   1.897   7.788 -0.0259  0.5398  0.0336
 8647SOL    HW137574   4.547   1.816   7.803  2.2185 -0.5154  1.6045
 8647SOL    HW237575   4.582   1.938   7.873 -0.9857 -0.9444  0.5864
 8648SOL     OW37576   4.226   2.423   6.935  0.0636  0.0231  0.2105
 8648SOL    HW137577   4.319   2.442   6.950  0.2064 -0.1491 -0.4596
 8648SOL    HW237578   4.192   2.508   6.962  0.6081  0.7025 -1.2688
 8649SOL     OW37579   1.519   0.279  13.483 -0.7079 -0.4117  0.1909
 8649SOL    HW137580   1.511   0.339  13.557  0.4252 -0.1468  0.1006
 8649SOL    HW237581   1.450   0.314  13.427  0.0047  3.0947  1.5559
 8650SOL     OW37582   0.087   1.400   4.961  0.1753 -0.3408  0.1705
 8650SOL    HW137583   0.135   1.440   4.889  0.1475  1.9010  1.3962
 8650SOL    HW237584   0.007   1.365   4.921 -1.8747  1.2996  2.8283
 8651SOL     OW37585   2.900   3.444  10.033 -0.2248 -0.4016  0.1403
 8651SOL    HW137586   2.890   3.452   9.938 -0.8494  1.1659  0.3367
 8651SOL    HW237587   2.962   3.373  10.051 -0.3124 -0.0886  1.6656
 8652SOL     OW37588   0.112   1.001   9.261  0.1623  0.0215  0.3013
 8652SOL    HW137589   0.152   0.916   9.279  1.9214  0.8064  0.0790
 8652SOL    HW237590   0.193   1.043   9.234 -0.5828  1.6477  0.6160
 8653SOL     OW37591   2.362   3.354   7.470 -0.4741 -0.3513 -0.0963
 8653SOL    HW137592   2.284   3.304   7.496 -1.2696  0.9489  0.0067
 8653SOL    HW237593   2.331   3.421   7.410 -0.4239 -0.2171  0.0286
 8654SOL     OW37594   0.837   1.927   6.204 -0.4919  0.5858 -0.1427
 8654SOL    HW137595   0.768   1.888   6.150  0.7172 -0.3447 -1.0267
 8654SOL    HW237596   0.783   1.969   6.271 -0.1150 -0.8252  1.0487
 8655SOL     OW37597   3.499   1.655   0.607 -0.0709  0.0080 -0.4524
 8655SOL    HW137598   3.488   1.622   0.696  0.3637  0.8820 -0.0667
 8655SOL    HW237599   3.501   1.572   0.560 -0.3589  0.5310 -1.3994
 8656SOL     OW37600   0.344   1.899  17.667  0.0364  0.1627 -0.3312
 8656SOL    HW137601   0.274   1.843  17.635  0.4137 -0.8688  0.6638
 8656SOL    HW237602   0.392   1.832  17.716 -0.9067 -0.6368 -0.4955
 8657SOL     OW37603   1.246   0.101   4.912 -0.1185 -0.3301  0.4373
 8657SOL    HW137604   1.178   0.150   4.867  0.1789 -0.7972 -0.5272
 8657SOL    HW237605   1.264   0.153   4.990 -0.6437  1.2211 -0.4903
 8658SOL     OW37606   0.032   2.743   4.296 -0.4816 -0.2845  0.7777
 8658SOL    HW137607   4.731   2.798   4.362 -0.0467 -0.4745  1.2095
 8658SOL    HW237608   4.727   2.776   4.219 -0.0736 -2.0164 -0.2070
 8659SOL     OW37609   3.264   1.916   6.020 -0.6003  0.3342  0.5046
 8659SOL    HW137610   3.293   1.952   6.103  0.0557 -1.2371  0.9526
 8659SOL    HW237611   3.319   1.968   5.961 -0.8205 -0.5270 -0.4731
 8660SOL     OW37612   3.353   2.011   3.158  0.0693 -0.7051  0.0233
 8660SOL    HW137613   3.336   1.917   3.146  0.2022 -1.0273  2.4203
 8660SOL    HW237614   3.354   2.044   3.068 -0.5758 -0.1751  0.2021
 8661SOL     OW37615   4.468   0.404  10.218  0.7670 -0.3582  0.2328
 8661SOL    HW137616   4.537   0.467  10.240  1.8719 -2.1025  1.8398
 8661SOL    HW237617   4.460   0.358  10.302 -0.7210  0.4332  0.5251
 8662SOL     OW37618   1.728   3.740   0.715  0.2076  0.1415  0.3442
 8662SOL    HW137619   1.673   3.662   0.703 -0.6386  1.0004 -1.4236
 8662SOL    HW237620   1.771   3.736   0.800 -2.3549 -0.6811  1.6106
 8663SOL     OW37621   4.094   1.346   9.797 -0.5769  0.6472 -0.0608
 8663SOL    HW137622   4.012   1.373   9.755 -0.5017  0.5267 -0.2823
 8663SOL    HW237623   4.055   1.307   9.876 -0.3316  0.2353 -0.1456
 8664SOL     OW37624   1.398   2.751  11.621 -0.1225  0.1575 -0.0611
 8664SOL    HW137625   1.425   2.829  11.572  0.4316  1.0986  1.7097
 8664SOL    HW237626   1.448   2.679  11.583 -3.6532 -2.5681  0.4346
 8665SOL     OW37627   0.526   0.991  15.816  0.2036  0.2190  0.2864
 8665SOL    HW137628   0.565   0.963  15.899  0.3998  1.3712  0.5788
 8665SOL    HW237629   0.434   0.989  15.843 -0.1375  0.5193 -0.8643
 8666SOL     OW37630   2.229   4.092  11.642  0.0402 -0.1279 -0.1967
 8666SOL    HW137631   2.180   4.171  11.619  0.4410  0.9608  2.7535
 8666SOL    HW237632   2.157   4.030  11.655  1.5206 -1.8356 -0.1366
 8667SOL     OW37633   0.969   4.228   2.977  0.9068 -0.6659 -0.2999
 8667SOL    HW137634   1.034   4.297   2.991 -0.6648  1.0795 -1.6704
 8667SOL    HW237635   1.010   4.183   2.903  1.0098 -0.4929 -0.3507
 8668SOL     OW37636   0.951   3.511  10.268  0.4123  0.2786 -0.1947
 8668SOL    HW137637   0.961   3.526  10.362 -3.0618  0.2204  0.1790
 8668SOL    HW237638   0.862   3.544  10.256  0.1972 -1.2835 -2.8655
 8669SOL     OW37639   1.075   2.964   8.871  0.0670  0.6116  0.6267
 8669SOL    HW137640   1.067   3.013   8.789 -0.5103 -0.4501  0.0516
 8669SOL    HW237641   1.170   2.954   8.865 -0.1329  1.1516 -3.6414
 8670SOL     OW37642   0.672   2.411  15.799 -0.2130  0.6904  0.8655
 8670SOL    HW137643   0.618   2.354  15.855  0.6258  0.9331  1.9018
 8670SOL    HW237644   0.704   2.475  15.862  0.6171  0.1635  0.9802
 8671SOL     OW37645   2.613   2.344   5.002  0.1117 -0.4348 -0.1361
 8671SOL    HW137646   2.622   2.427   4.955  1.2008  2.4007  5.0494
 8671SOL    HW237647   2.624   2.281   4.931  0.2270  1.8216 -2.1059
 8672SOL     OW37648   0.425   3.875   5.960 -0.1544  0.3633 -0.5203
 8672SOL    HW137649   0.501   3.909   5.913  0.7013 -0.7926  0.0263
 8672SOL    HW237650   0.458   3.864   6.049 -0.3647  2.7929 -0.1430
 8673SOL     OW37651   4.217   3.278   7.433  0.4796 -0.0071  0.0324
 8673SOL    HW137652   4.162   3.322   7.497  0.6235 -2.5508  1.9273
 8673SOL    HW237653   4.156   3.237   7.372 -2.4346  1.2980  2.0901
 8674SOL     OW37654   3.450   3.911  10.342 -0.0064 -0.0352 -0.5042
 8674SOL    HW137655   3.531   3.869  10.372 -0.2326 -1.3320 -1.6885
 8674SOL    HW237656   3.430   3.958  10.423  1.3114 -0.3590  0.0086
 8675SOL     OW37657   4.684   0.698   3.173  0.2659 -0.0463  0.2127
 8675SOL    HW137658   4.709   0.658   3.256 -1.9424  0.0076  0.9082
 8675SOL    HW237659   0.007   0.769   3.175 -1.1456  1.2296  0.1375
 8676SOL     OW37660   2.776   0.377   5.671 -0.2352  0.5888 -0.0108
 8676SOL    HW137661   2.848   0.436   5.693 -1.3251  2.7207 -2.1926
 8676SOL    HW237662   2.710   0.442   5.646 -0.6551 -1.7206 -4.8027
 8677SOL     OW37663   2.125   3.462   4.197 -0.3123 -0.5069  0.2630
 8677SOL    HW137664   2.135   3.386   4.139 -1.2204 -0.8133  0.5060
 8677SOL    HW237665   2.112   3.418   4.282  0.2134 -1.5558 -0.2032
 8678SOL     OW37666   4.249   3.106   3.305 -0.2126 -0.1049 -0.0116
 8678SOL    HW137667   4.159   3.089   3.334  0.0162 -0.1728  0.6586
 8678SOL    HW237668   4.231   3.170   3.237 -1.4217  0.2229  0.6118
 8679SOL     OW37669   4.566   2.278   3.670  0.4447  0.4476 -0.2584
 8679SOL    HW137670   4.535   2.328   3.745 -1.6882 -2.9666  1.1087
 8679SOL    HW237671   4.547   2.335   3.595 -1.2606 -0.5747 -0.5824
 8680SOL     OW37672   3.368   2.308   3.492  0.1731 -0.2141 -0.3692
 8680SOL    HW137673   3.402   2.303   3.581  2.6805 -1.8024 -1.4176
 8680SOL    HW237674   3.413   2.382   3.451 -1.5524  0.5769 -0.8217
 8681SOL     OW37675   3.432   2.371   9.119 -0.2074  0.3716  0.4188
 8681SOL    HW137676   3.497   2.368   9.050 -0.5871 -4.2531  0.3168
 8681SOL    HW237677   3.360   2.416   9.073 -0.3139 -0.0859  0.1464
 8682SOL     OW37678   3.092   2.226   4.514 -0.1255 -0.2038 -0.0254
 8682SOL    HW137679   3.139   2.143   4.506 -0.3231 -0.2319 -0.9489
 8682SOL    HW237680   3.062   2.232   4.423 -1.5483 -0.1102  0.4461
 8683SOL     OW37681   1.762   2.954   3.956 -0.0194  0.3116 -0.0451
 8683SOL    HW137682   1.778   3.040   3.916 -3.0209  0.9950  0.1757
 8683SOL    HW237683   1.668   2.950   3.940 -0.6022  1.7559  2.8093
 8684SOL     OW37684   3.356   3.182   5.052 -1.3702  0.0448 -0.4559
 8684SOL    HW137685   3.390   3.271   5.051  0.1528 -0.5260 -0.5635
 8684SOL    HW237686   3.434   3.132   5.075  1.1246  3.0189 -2.3923
 8685SOL     OW37687   3.300   2.188   7.916 -0.5324 -0.5410  0.0937
 8685SOL    HW137688   3.223   2.139   7.886 -1.8434  1.8417 -0.4210
 8685SOL    HW237689   3.336   2.132   7.984 -0.4411  0.3806  0.8014
 8686SOL     OW37690   2.973   2.589   3.445 -0.1252  0.2630  0.0531
 8686SOL    HW137691   3.008   2.502   3.430  2.8583  1.5852 -0.6539
 8686SOL    HW237692   3.043   2.626   3.499 -0.6442  0.5967  0.5113
 8687SOL     OW37693   2.419   4.536  12.680 -0.1112  0.0862 -0.1636
 8687SOL    HW137694   2.330   4.536  12.716 -0.4989  0.4850 -1.1221
 8687SOL    HW237695   2.456   4.607  12.733  1.0407 -0.8215  0.2290
 8688SOL     OW37696   0.189   0.548   7.122  0.1203  0.0511  0.0712
 8688SOL    HW137697   0.216   0.612   7.188  0.8860 -1.0543  0.8361
 8688SOL    HW237698   0.140   0.605   7.064 -2.0429 -1.9358 -0.0404
 8689SOL     OW37699   3.814   4.002   9.342  0.6955  0.5758 -0.2534
 8689SOL    HW137700   3.737   4.054   9.364 -1.4010 -2.8796  0.5480
 8689SOL    HW237701   3.854   3.989   9.428  0.9787 -2.0723 -0.7918
 8690SOL     OW37702   2.027   4.316   4.577  0.2138  0.2248  0.4414
 8690SOL    HW137703   2.115   4.280   4.569  0.3293  0.2828  1.5270
 8690SOL    HW237704   2.032   4.411   4.568  0.7975 -0.0142 -1.8371
 8691SOL     OW37705   1.546   3.214  17.526 -0.6205  0.1229  0.0071
 8691SOL    HW137706   1.552   3.307  17.505 -2.9361  0.3308  0.2187
 8691SOL    HW237707   1.562   3.172  17.442 -0.3647 -1.1272  0.6840
 8692SOL     OW37708   3.508   1.836   7.343  0.2923  0.9059 -0.4972
 8692SOL    HW137709   3.510   1.931   7.346  1.6079  0.9560 -2.9544
 8692SOL    HW237710   3.413   1.821   7.340  0.4606 -0.2246 -0.0710
 8693SOL     OW37711   2.479   0.503   2.414  0.5864  0.2471 -0.1337
 8693SOL    HW137712   2.516   0.520   2.501 -0.5895 -2.0238  0.8226
 8693SOL    HW237713   2.467   0.408   2.420 -0.0203  0.2255 -1.8781
 8694SOL     OW37714   2.488   3.333   8.696  0.1673 -0.1829 -0.1699
 8694SOL    HW137715   2.462   3.416   8.657  1.7207 -0.1838 -1.2133
 8694SOL    HW237716   2.403   3.290   8.707  0.9248 -1.9675 -1.2354
 8695SOL     OW37717   0.804   0.537  10.659  0.0283 -0.7924  0.1806
 8695SOL    HW137718   0.748   0.504  10.589 -0.6043 -0.7702  0.6752
 8695SOL    HW237719   0.755   0.520  10.739 -0.9104  0.5750 -0.1058
 8696SOL     OW37720   2.832   4.276   4.602  0.2775 -0.0471 -0.2558
 8696SOL    HW137721   2.915   4.303   4.642 -0.9349  2.4014  0.6022
 8696SOL    HW237722   2.865   4.206   4.545  0.9599  0.7804 -0.8807
 8697SOL     OW37723   3.247   0.654   8.193 -0.4688  0.1020  0.1512
 8697SOL    HW137724   3.264   0.712   8.119  0.4458 -1.0137 -0.5175
 8697SOL    HW237725   3.162   0.690   8.217 -0.3915 -0.6838  1.5748
 8698SOL     OW37726   3.507   2.453  13.298 -0.0341  0.1424 -0.3594
 8698SOL    HW137727   3.463   2.516  13.241  0.1432 -0.0373 -0.6958
 8698SOL    HW237728   3.439   2.418  13.356  0.6758  0.7097  0.8229
 8699SOL     OW37729   2.578   1.897   8.789  0.3223 -0.3265 -0.2525
 8699SOL    HW137730   2.546   1.985   8.808 -0.2137 -0.6482  0.3870
 8699SOL    HW237731   2.526   1.835   8.841 -0.2790  0.3747 -0.0094
 8700SOL     OW37732   3.438   0.183   1.766 -0.3495  0.0829 -0.5753
 8700SOL    HW137733   3.420   0.113   1.703 -0.7569 -1.5389  1.3334
 8700SOL    HW237734   3.496   0.237   1.712 -1.1167  1.5092  0.0059
 8701SOL     OW37735   4.479   3.754   4.718  0.5359  0.6375 -0.0445
 8701SOL    HW137736   4.479   3.675   4.772 -1.6644  1.5213  1.2206
 8701SOL    HW237737   4.419   3.717   4.653  0.3259  0.2322  0.3792
 8702SOL     OW37738   3.722   4.717   2.817 -1.0639  0.3163 -0.4920
 8702SOL    HW137739   3.764   0.038   2.877  0.0158 -0.5087 -0.3927
 8702SOL    HW237740   3.795   4.675   2.771 -1.6815 -1.0868 -0.1925
 8703SOL     OW37741   4.098   1.824   0.217  0.8924  0.3002 -0.7284
 8703SOL    HW137742   4.024   1.838   0.276  0.7401 -2.1399 -0.3170
 8703SOL    HW237743   4.060   1.799   0.133  3.8571  1.5355 -2.4193
 8704SOL     OW37744   3.739   2.229   8.200  0.6111 -0.3846 -0.2503
 8704SOL    HW137745   3.779   2.187   8.276  1.1480  0.6087  0.0161
 8704SOL    HW237746   3.817   2.275   8.169  0.1274  0.3782 -0.3264
 8705SOL     OW37747   1.224   0.452   6.163 -0.0461 -0.1020  0.1552
 8705SOL    HW137748   1.158   0.498   6.111 -0.3036 -0.8508 -0.1849
 8705SOL    HW237749   1.178   0.378   6.202 -1.1521  1.1438  1.1898
 8706SOL     OW37750   3.293   0.064   3.762 -0.4819  0.1944 -0.6629
 8706SOL    HW137751   3.376   0.068   3.808 -0.3264 -2.1114 -0.7693
 8706SOL    HW237752   3.239   0.112   3.825 -0.8235  0.0982 -0.8828
 8707SOL     OW37753   0.233   2.634   2.840  0.2323  0.3141  0.1048
 8707SOL    HW137754   0.173   2.651   2.767  0.5331 -4.0190 -1.1180
 8707SOL    HW237755   0.305   2.694   2.823 -0.3761  0.9888 -0.1062
 8708SOL     OW37756   1.336   1.406   8.045 -0.3631  0.0349 -0.5908
 8708SOL    HW137757   1.430   1.387   8.046 -0.3857  0.1475  3.2528
 8708SOL    HW237758   1.321   1.381   8.137 -1.0475 -0.6900 -0.8975
 8709SOL     OW37759   1.764   1.491   7.607  0.3695 -0.2391  0.6723
 8709SOL    HW137760   1.772   1.397   7.586  2.1095  0.3263 -1.2512
 8709SOL    HW237761   1.670   1.501   7.615  0.2480 -0.6691 -0.2168
 8710SOL     OW37762   2.252   3.127   3.514 -0.0867  0.2449  0.0404
 8710SOL    HW137763   2.287   3.212   3.487  0.4574  0.1624  0.4880
 8710SOL    HW237764   2.157   3.136   3.505 -0.2645 -0.7661  0.9398
 8711SOL     OW37765   0.046   4.621   1.998  0.9646  0.0394 -0.5929
 8711SOL    HW137766   0.121   4.659   1.953  1.9509  0.5196  1.4763
 8711SOL    HW237767   0.005   4.694   2.045  0.0328 -0.8570  0.0027
 8712SOL     OW37768   0.102   4.116  14.211  0.4798  0.0436 -0.2964
 8712SOL    HW137769   0.100   4.025  14.180  0.4117  0.4735 -1.5475
 8712SOL    HW237770   0.122   4.107  14.304 -1.5767 -0.3566  0.1086
 8713SOL     OW37771   2.991   0.108   9.373 -0.7096 -0.2728  0.5366
 8713SOL    HW137772   3.038   0.053   9.435  1.5099  1.2290  0.1893
 8713SOL    HW237773   2.977   0.040   9.306 -2.2240 -1.0617  1.6639
 8714SOL     OW37774   2.970   0.905   8.173 -0.1338 -0.4316  0.1391
 8714SOL    HW137775   2.886   0.916   8.217 -0.9028  0.6147 -1.5890
 8714SOL    HW237776   2.950   0.843   8.102  2.0099  0.3371 -1.1282
 8715SOL     OW37777   1.400   2.722   5.771 -0.1796 -0.2738 -0.3814
 8715SOL    HW137778   1.460   2.795   5.787 -0.9398  0.2211  0.2464
 8715SOL    HW237779   1.321   2.769   5.746 -0.3014  0.4199  1.2761
 8716SOL     OW37780   0.382   2.836   2.717  0.0195 -0.7184 -0.3827
 8716SOL    HW137781   0.345   2.909   2.768  0.7485 -0.6614  0.0645
 8716SOL    HW237782   0.423   2.877   2.641 -1.0297  1.0102 -0.0200
 8717SOL     OW37783   0.379   2.184   7.145 -0.2825  0.0621  0.1070
 8717SOL    HW137784   0.374   2.151   7.234 -4.1842  1.2783  0.3317
 8717SOL    HW237785   0.310   2.130   7.107  1.9568 -0.6755 -2.8885
 8718SOL     OW37786   0.183   3.087  11.117  0.4197 -0.5686 -0.2418
 8718SOL    HW137787   0.168   2.993  11.110  0.1374 -0.8444  4.0511
 8718SOL    HW237788   0.276   3.093  11.097  0.2969  1.1428 -0.3299
 8719SOL     OW37789   3.721   0.363   5.901  0.0492  0.4031 -0.1974
 8719SOL    HW137790   3.736   0.328   5.813  0.7145 -0.4079  0.2322
 8719SOL    HW237791   3.796   0.324   5.946 -0.9710  0.4782  1.5631
 8720SOL     OW37792   0.795   2.327   7.850 -0.1935  0.4580 -0.0580
 8720SOL    HW137793   0.845   2.408   7.851  0.1558  0.2604 -2.0367
 8720SOL    HW237794   0.838   2.293   7.772 -0.8521  1.1975 -0.7399
 8721SOL     OW37795   1.361   3.850   1.088 -0.8808  0.0118 -0.1157
 8721SOL    HW137796   1.384   3.935   1.049  0.1430  0.0029  0.4715
 8721SOL    HW237797   1.357   3.800   1.007  0.0358  0.4309 -0.4302
 8722SOL     OW37798   1.598   0.437  13.254 -0.4435 -0.2465 -0.3649
 8722SOL    HW137799   1.596   0.518  13.305  0.9038 -1.7740  2.1301
 8722SOL    HW237800   1.504   0.422  13.243 -0.7452  2.0683 -0.9286
 8723SOL     OW37801   2.738   3.280  12.905  0.3551 -0.3092 -0.3412
 8723SOL    HW137802   2.822   3.293  12.862  1.3754  0.3368  1.8495
 8723SOL    HW237803   2.690   3.258  12.825 -1.2034 -1.2252  0.8547
 8724SOL     OW37804   0.461   3.448   4.007  0.0837  0.0805  0.1216
 8724SOL    HW137805   0.521   3.437   3.933 -0.5117 -1.0894 -0.1797
 8724SOL    HW237806   0.501   3.388   4.070 -0.3461 -0.8358 -0.4789
 8725SOL     OW37807   3.973   3.688   5.758 -0.3278 -0.5381  0.1021
 8725SOL    HW137808   3.970   3.622   5.690  1.6089 -1.5722  1.0193
 8725SOL    HW237809   4.037   3.750   5.725 -2.2419  1.5156  0.2398
 8726SOL     OW37810   4.675   1.787  10.670  0.4411 -0.1373 -0.3065
 8726SOL    HW137811   4.735   1.847  10.626  0.7645  0.1806  0.5586
 8726SOL    HW237812   4.668   1.838  10.751  1.4382  0.6491 -0.7281
 8727SOL     OW37813   2.053   3.783   7.895  0.1998  0.0348  0.1410
 8727SOL    HW137814   2.001   3.742   7.965  0.6154 -2.1310 -0.8202
 8727SOL    HW237815   2.090   3.857   7.944 -1.9954  0.8822  0.5316
 8728SOL     OW37816   3.508   4.300  17.112  0.1494  0.2606 -0.0843
 8728SOL    HW137817   3.479   4.390  17.102 -3.0724 -0.6687  0.8054
 8728SOL    HW237818   3.599   4.318  17.088  0.4115 -0.6372  0.2416
 8729SOL     OW37819   2.006   1.235  10.521  0.0905  0.7777 -0.1962
 8729SOL    HW137820   1.934   1.184  10.484  0.6119  0.5240 -0.8707
 8729SOL    HW237821   2.010   1.300  10.450  0.7590 -1.4472 -2.2096
 8730SOL     OW37822   0.154   2.729   3.081  0.0662 -0.3404 -0.3819
 8730SOL    HW137823   0.189   2.712   2.994  0.1308 -1.4301 -0.1430
 8730SOL    HW237824   0.171   2.651   3.133  1.8645  0.0803 -0.3427
 8731SOL     OW37825   4.734   1.290   1.664  0.1374 -0.3492  0.7759
 8731SOL    HW137826   4.656   1.243   1.694 -1.1762  2.7060  2.1034
 8731SOL    HW237827   4.711   1.371   1.709  3.0809  0.6581  0.5127
 8732SOL     OW37828   3.965   1.900   6.144  0.5260 -0.6310 -0.1190
 8732SOL    HW137829   4.000   1.832   6.201 -0.0219 -0.7519  0.0802
 8732SOL    HW237830   3.974   1.979   6.198 -0.2556 -0.0127 -0.8868
 8733SOL     OW37831   0.464   3.402   8.016  0.6113  0.4186 -0.1338
 8733SOL    HW137832   0.496   3.314   7.995 -0.6605  0.2990 -1.5936
 8733SOL    HW237833   0.537   3.443   8.062  1.5853 -2.9091  1.3019
 8734SOL     OW37834   2.236   1.224   4.273 -0.1379 -0.2375 -0.9281
 8734SOL    HW137835   2.203   1.138   4.300 -0.6370  0.3337  0.2437
 8734SOL    HW237836   2.308   1.233   4.335 -1.5705  2.6697  0.2989
 8735SOL     OW37837   4.646   3.451   1.830 -0.0209  0.1678 -0.2953
 8735SOL    HW137838   4.654   3.448   1.926 -1.4271  2.1892 -0.1143
 8735SOL    HW237839   4.552   3.454   1.812  0.2250  0.6573 -1.4964
 8736SOL     OW37840   1.015   0.066   2.574 -0.1435 -0.0570 -0.0940
 8736SOL    HW137841   1.043   0.001   2.509 -1.0268 -2.1718  1.6650
 8736SOL    HW237842   1.059   0.147   2.549  0.5831 -0.6461 -0.7112
 8737SOL     OW37843   1.811   3.650  12.619  0.4793 -0.0895  0.2337
 8737SOL    HW137844   1.843   3.740  12.627 -0.3451  0.2710 -0.4533
 8737SOL    HW237845   1.804   3.649  12.523 -2.7818  3.0632  0.4061
 8738SOL     OW37846   3.540   3.434   7.838 -0.0401  0.4013  0.2620
 8738SOL    HW137847   3.567   3.409   7.926  0.6217 -0.4950 -0.1917
 8738SOL    HW237848   3.615   3.391   7.797  0.1032  0.1459  0.7975
 8739SOL     OW37849   4.335   3.984   4.071 -0.1609  0.2897 -1.1000
 8739SOL    HW137850   4.270   4.054   4.072  0.4226  0.8121  2.4228
 8739SOL    HW237851   4.305   3.951   3.986 -0.3421  2.0587 -1.7112
 8740SOL     OW37852   0.900   3.842   6.716  0.3154  0.1335 -0.4349
 8740SOL    HW137853   0.895   3.747   6.722  0.8030  0.1693  0.4901
 8740SOL    HW237854   0.983   3.856   6.670  0.6881  0.5783  0.3771
 8741SOL     OW37855   2.457   0.743   1.799  0.0006  0.2991  0.0660
 8741SOL    HW137856   2.468   0.660   1.844 -0.5474 -0.0819 -0.4971
 8741SOL    HW237857   2.424   0.711   1.715  2.3696  0.9497 -1.1002
 8742SOL     OW37858   4.601   3.027  10.356  0.6261 -0.1553 -0.8697
 8742SOL    HW137859   4.669   3.090  10.332  0.7179  0.1510  0.1510
 8742SOL    HW237860   4.534   3.080  10.400  1.5156 -1.1193  1.6669
 8743SOL     OW37861   4.159   3.823   7.662 -0.4422  0.1265 -0.1017
 8743SOL    HW137862   4.196   3.882   7.727  0.7070 -0.6754 -0.0126
 8743SOL    HW237863   4.178   3.882   7.589 -0.3639 -1.4798 -1.3842
 8744SOL     OW37864   0.956   1.812   7.449  0.5374 -0.3533  0.1756
 8744SOL    HW137865   1.005   1.752   7.393 -1.6542 -1.4456 -0.5413
 8744SOL    HW237866   0.894   1.752   7.491 -0.1631  0.6614  0.5770
 8745SOL     OW37867   0.389   2.310  15.031 -0.3561  0.1014  0.4563
 8745SOL    HW137868   0.419   2.398  15.054  1.5531 -0.7911  1.3454
 8745SOL    HW237869   0.297   2.328  15.011 -0.7336  0.6824  2.7809
 8746SOL     OW37870   4.112   1.699   2.805 -0.1645 -0.2899 -0.0332
 8746SOL    HW137871   4.019   1.689   2.785 -0.1835  2.3390 -1.2652
 8746SOL    HW237872   4.127   1.613   2.845 -0.8316  1.0668  3.1881
 8747SOL     OW37873   3.234   3.664   6.148  0.6842  0.4063  0.4225
 8747SOL    HW137874   3.300   3.651   6.080  0.1384  0.3164 -0.0920
 8747SOL    HW237875   3.178   3.587   6.136 -0.7724  1.1630  2.4109
 8748SOL     OW37876   3.167   0.152   7.581  0.1384  0.6980  0.2451
 8748SOL    HW137877   3.130   0.076   7.626  0.5132  0.8813  0.8606
 8748SOL    HW237878   3.106   0.165   7.508  0.7777  1.2630 -0.1972
 8749SOL     OW37879   1.670   2.013  13.234 -0.0677  0.4814 -0.6214
 8749SOL    HW137880   1.664   2.069  13.311 -4.5179  0.0793 -0.6693
 8749SOL    HW237881   1.591   1.958  13.240 -0.3736  1.1721  1.5477
 8750SOL     OW37882   0.673   0.903   0.915 -0.0501  0.6006  0.2654
 8750SOL    HW137883   0.732   0.977   0.904 -1.2467  1.3762 -0.8808
 8750SOL    HW237884   0.620   0.922   0.838  0.3820  3.3125  0.6381
 8751SOL     OW37885   3.215   0.570   7.214  0.5312 -0.7778  0.0130
 8751SOL    HW137886   3.120   0.554   7.219  0.4476  0.1139  1.3225
 8751SOL    HW237887   3.211   0.597   7.122  0.6239 -0.7592  0.0147
 8752SOL     OW37888   2.712   2.610   4.066 -0.3634  0.6725  0.2513
 8752SOL    HW137889   2.702   2.638   3.975 -1.1247 -1.1215 -0.2126
 8752SOL    HW237890   2.763   2.686   4.094 -0.2436  0.8870 -0.5725
 8753SOL     OW37891   1.229   1.819   0.823  0.5375 -0.3310  0.0009
 8753SOL    HW137892   1.135   1.838   0.822  0.3896 -0.9954  1.1414
 8753SOL    HW237893   1.227   1.799   0.917 -0.2883  1.6801  0.4100
 8754SOL     OW37894   3.173   0.694   4.994 -0.2289 -0.4432  0.2636
 8754SOL    HW137895   3.096   0.673   5.047 -2.3539  1.6548 -1.9897
 8754SOL    HW237896   3.161   0.788   4.981  1.6783 -0.2088  0.1723
 8755SOL     OW37897   1.353   2.697   6.505  0.2405 -0.0218 -0.3823
 8755SOL    HW137898   1.292   2.626   6.525  1.5028 -1.1516 -0.5332
 8755SOL    HW237899   1.289   2.764   6.481  0.1119 -0.3950 -1.0991
 8756SOL     OW37900   2.200   2.413   4.363  0.0222 -0.4598 -0.5809
 8756SOL    HW137901   2.192   2.488   4.423  0.3262 -0.2096 -0.8560
 8756SOL    HW237902   2.110   2.384   4.347  0.7996 -2.1755 -1.7768
 8757SOL     OW37903   0.664   3.624   5.941 -0.1186 -0.0142 -0.1934
 8757SOL    HW137904   0.615   3.621   5.859  1.5780 -0.7378 -1.1858
 8757SOL    HW237905   0.596   3.588   5.997 -0.4007 -0.7723 -1.0256
 8758SOL     OW37906   1.531   2.879   6.586 -0.3048 -0.0857 -0.3057
 8758SOL    HW137907   1.506   2.872   6.678  0.6575 -2.2771 -0.2198
 8758SOL    HW237908   1.472   2.814   6.549  0.6511 -0.7107 -0.7359
 8759SOL     OW37909   4.451   0.538   5.004  0.7057  0.0352 -0.3029
 8759SOL    HW137910   4.455   0.622   4.958  0.2458 -0.1463 -0.6800
 8759SOL    HW237911   4.534   0.493   4.985  0.7652  1.8719 -4.4342
 8760SOL     OW37912   2.125   2.581   4.132  0.6193 -0.4894  0.4822
 8760SOL    HW137913   2.090   2.618   4.213 -0.5964 -1.1961  0.2741
 8760SOL    HW237914   2.210   2.555   4.170 -0.2801 -1.2171  2.0112
 8761SOL     OW37915   2.165   2.332   1.629 -0.0897 -0.4701 -0.4477
 8761SOL    HW137916   2.147   2.344   1.722 -3.0536 -1.3846 -0.8973
 8761SOL    HW237917   2.072   2.332   1.607  0.0730  2.8167 -1.1195
 8762SOL     OW37918   1.826   2.876   5.760 -0.0773  0.0444 -0.1085
 8762SOL    HW137919   1.905   2.865   5.813 -0.3481 -2.1268 -0.1650
 8762SOL    HW237920   1.859   2.944   5.703  1.3308 -0.3109  0.2868
 8763SOL     OW37921   3.697   3.718  11.058  0.0347  0.2747  0.1551
 8763SOL    HW137922   3.729   3.711  10.968  0.6163  0.7610  0.3240
 8763SOL    HW237923   3.771   3.700  11.116  1.8781  1.3832 -1.8903
 8764SOL     OW37924   4.616   2.337   3.363  0.3786 -0.2073  0.2238
 8764SOL    HW137925   4.535   2.286   3.356  0.6315 -0.5185 -0.4320
 8764SOL    HW237926   4.681   2.283   3.317 -0.5818 -0.3196 -1.0138
 8765SOL     OW37927   1.976   4.417   0.178  0.5660 -0.6706 -0.1946
 8765SOL    HW137928   1.945   4.459   0.098  2.3895 -0.9848 -1.0553
 8765SOL    HW237929   2.033   4.346   0.149  2.6157  1.0150 -0.3231
 8766SOL     OW37930   0.239   2.509   7.032 -0.1106  0.1959  0.4008
 8766SOL    HW137931   0.165   2.459   7.068 -0.6938 -0.2366 -1.3724
 8766SOL    HW237932   0.310   2.487   7.091 -0.8215  0.6799  1.4333
 8767SOL     OW37933   4.622   1.921  11.238 -0.2822 -0.1683 -0.1247
 8767SOL    HW137934   4.581   1.919  11.152  2.6880 -2.1237 -1.5091
 8767SOL    HW237935   4.604   1.834  11.273 -0.6315 -0.6140 -1.4232
 8768SOL     OW37936   0.116   1.274   7.086  0.1684  0.1667  0.8047
 8768SOL    HW137937   0.106   1.212   7.158 -0.0011  0.4340  1.0116
 8768SOL    HW237938   0.065   1.236   7.015  1.1212 -4.1730  2.4679
 8769SOL     OW37939   1.511   3.273  12.425  0.2460 -0.6318 -0.0506
 8769SOL    HW137940   1.460   3.208  12.473 -0.0412 -0.4192 -0.0667
 8769SOL    HW237941   1.523   3.338  12.495 -0.0767 -2.8515  2.0874
 8770SOL     OW37942   1.297   2.007   4.974  0.5482  0.0246 -0.2056
 8770SOL    HW137943   1.252   2.083   4.938  1.6110  1.0651  0.6975
 8770SOL    HW237944   1.273   1.936   4.914 -4.0236  0.8132  0.6812
 8771SOL     OW37945   2.462   4.588   1.593  0.0583  0.5178 -0.4516
 8771SOL    HW137946   2.553   4.572   1.569  0.1067 -0.6486  0.5151
 8771SOL    HW237947   2.422   4.504   1.614 -3.0521  2.3342  0.8678
 8772SOL     OW37948   2.570   4.045   8.124 -0.0575 -0.4490  0.4460
 8772SOL    HW137949   2.537   4.109   8.061  0.0189 -0.5681  0.2842
 8772SOL    HW237950   2.651   4.005   8.092  0.7436 -0.2788  2.2886
 8773SOL     OW37951   0.312   0.191   4.790 -0.3405 -0.1728 -0.0206
 8773SOL    HW137952   0.226   0.150   4.805 -0.7008 -0.0290 -1.7054
 8773SOL    HW237953   0.367   0.122   4.754  1.1618  1.6906 -1.2601
 8774SOL     OW37954   1.131   1.778  14.504  0.2222  0.5673 -0.5022
 8774SOL    HW137955   1.129   1.721  14.581 -0.8577  0.8517 -0.3171
 8774SOL    HW237956   1.159   1.720  14.434 -2.3678 -0.2029 -0.8883
 8775SOL     OW37957   4.218   3.241  11.620  0.0481  0.1548 -0.5656
 8775SOL    HW137958   4.269   3.185  11.563 -1.6378 -0.8304 -1.1100
 8775SOL    HW237959   4.280   3.245  11.693  2.1851 -0.1576 -2.3809
 8776SOL     OW37960   4.656   4.077   5.476 -0.3147 -0.1256 -0.2668
 8776SOL    HW137961   4.722   4.074   5.407  0.9864  4.0561  0.7917
 8776SOL    HW237962   4.645   3.986   5.501  0.1101 -0.0229  0.2960
 8777SOL     OW37963   1.253   1.582   6.615 -0.1443  0.2513 -0.1608
 8777SOL    HW137964   1.293   1.496   6.632 -2.3798 -0.2689  2.3926
 8777SOL    HW237965   1.186   1.562   6.549  0.6094  0.9833 -1.1414
 8778SOL     OW37966   4.416   3.704  11.672  0.2167 -0.6514 -0.6615
 8778SOL    HW137967   4.453   3.754  11.744  0.7849 -0.8857 -0.7947
 8778SOL    HW237968   4.484   3.638  11.658  2.5687  0.9974  3.0138
 8779SOL     OW37969   0.258   0.914   3.495  0.0773 -0.1815  0.0012
 8779SOL    HW137970   0.274   0.896   3.588 -1.9002  0.3269  0.4329
 8779SOL    HW237971   0.173   0.873   3.477 -0.6186  1.7730 -1.1412
 8780SOL     OW37972   0.875   2.781   8.848  0.1310 -0.4263  0.1342
 8780SOL    HW137973   0.829   2.850   8.802  0.9272  0.0666  0.0720
 8780SOL    HW237974   0.942   2.834   8.890 -0.8455  1.0615 -0.2073
 8781SOL     OW37975   0.466   1.912   3.776 -0.5882 -0.7230 -0.2521
 8781SOL    HW137976   0.428   1.830   3.809 -2.3566 -0.8986 -2.6595
 8781SOL    HW237977   0.396   1.943   3.718 -0.4409 -1.6847 -0.9488
 8782SOL     OW37978   2.606   0.254   8.954 -0.3440  0.2081  0.1799
 8782SOL    HW137979   2.516   0.252   8.985 -0.8302  0.8035 -1.1801
 8782SOL    HW237980   2.596   0.213   8.868  0.2991  1.5420 -0.5246
 8783SOL     OW37981   3.220   4.337   6.133 -0.0185  0.1531  0.1045
 8783SOL    HW137982   3.186   4.289   6.058  1.4746 -0.6953 -0.0232
 8783SOL    HW237983   3.308   4.300   6.140 -0.6282 -1.3337 -0.2900
 8784SOL     OW37984   0.302   3.906  10.339  0.0724 -0.0824 -0.1328
 8784SOL    HW137985   0.246   3.904  10.262  1.7486  0.1902 -1.3761
 8784SOL    HW237986   0.393   3.889  10.314  0.6403 -0.5263  2.2011
 8785SOL     OW37987   1.265   3.425   3.392  0.1207 -0.2859 -0.1265
 8785SOL    HW137988   1.323   3.389   3.325  0.6413  0.6823 -0.2028
 8785SOL    HW237989   1.180   3.409   3.351 -1.0258 -1.3532  2.6640
 8786SOL     OW37990   2.931   4.187   3.505  0.4497  0.3469 -0.1919
 8786SOL    HW137991   3.002   4.218   3.450  1.0647 -1.8116 -0.5915
 8786SOL    HW237992   2.953   4.094   3.501  0.7067  0.3450  1.2055
 8787SOL     OW37993   4.207   4.532   1.998 -0.2192  0.2488 -0.2919
 8787SOL    HW137994   4.150   4.602   1.966 -1.5775 -0.8378 -0.2383
 8787SOL    HW237995   4.293   4.573   1.998  0.1323 -0.4837  2.3662
 8788SOL     OW37996   4.185   1.135   1.947  0.0384  0.1888  0.0190
 8788SOL    HW137997   4.140   1.150   1.864  0.7470 -0.9474 -0.5683
 8788SOL    HW237998   4.125   1.161   2.016 -0.7321  0.7574 -0.8554
 8789SOL     OW37999   0.222   0.535  10.423 -0.1112  0.3253 -0.0714
 8789SOL    HW138000   0.145   0.572  10.467 -0.7677 -1.1869  0.0250
 8789SOL    HW238001   0.254   0.605  10.366  1.1977  0.4043  0.7546
 8790SOL     OW38002   3.678   1.535   2.008  0.4170 -0.4707 -0.2305
 8790SOL    HW138003   3.598   1.512   1.961 -1.5188  1.9217  1.9406
 8790SOL    HW238004   3.745   1.508   1.945  0.6767 -1.7070  0.5600
 8791SOL     OW38005   4.251   1.825   3.874 -0.7093 -0.4981 -0.4290
 8791SOL    HW138006   4.203   1.867   3.802  1.9790  1.8717 -0.8034
 8791SOL    HW238007   4.294   1.747   3.837  1.9024  1.0248 -0.5539
 8792SOL     OW38008   3.246   0.978   3.349 -0.0276  0.4234  0.5274
 8792SOL    HW138009   3.265   0.884   3.356 -0.9642  0.1825 -0.1787
 8792SOL    HW238010   3.154   0.971   3.324 -0.4174  1.3174  1.6692
 8793SOL     OW38011   4.635   1.450   6.907  0.1130 -0.3852 -0.1419
 8793SOL    HW138012   4.590   1.475   6.988 -0.4629  0.8471 -0.8435
 8793SOL    HW238013   4.694   1.384   6.944 -0.8042 -0.9631  0.2978
 8794SOL     OW38014   0.992   2.784   2.749  0.3214 -0.2508  0.5985
 8794SOL    HW138015   0.908   2.751   2.717  0.4716  0.0472 -0.0841
 8794SOL    HW238016   1.038   2.816   2.671 -0.6412  0.7894  0.4573
 8795SOL     OW38017   2.002   4.315   5.322 -0.6912 -0.1827  0.1381
 8795SOL    HW138018   1.998   4.368   5.402 -1.9561 -0.9945  0.6100
 8795SOL    HW238019   1.918   4.272   5.329 -0.5248 -0.8197 -1.8018
 8796SOL     OW38020   3.075   4.123   8.463  0.3102 -0.0195  0.9939
 8796SOL    HW138021   3.152   4.087   8.418 -0.0940 -3.0323  2.6667
 8796SOL    HW238022   3.037   4.040   8.492  0.6793 -0.1954  0.9798
 8797SOL     OW38023   1.983   3.047  14.620 -0.3070 -0.6439  0.4773
 8797SOL    HW138024   1.928   3.103  14.675 -0.2072 -0.9277  0.8731
 8797SOL    HW238025   1.991   2.971  14.679 -0.1157  0.6974  2.1842
 8798SOL     OW38026   2.300   2.583   9.090 -0.1783 -0.5635 -0.1675
 8798SOL    HW138027   2.388   2.602   9.123 -0.4203 -0.1246  0.2095
 8798SOL    HW238028   2.298   2.641   9.014  1.1815 -1.4364 -0.8835
 8799SOL     OW38029   3.107   4.204  12.368 -0.0907  0.1780  0.3173
 8799SOL    HW138030   3.121   4.112  12.342  0.2152  0.5864 -0.9820
 8799SOL    HW238031   3.078   4.262  12.298  1.0597  0.8336  0.3755
 8800SOL     OW38032   3.991   1.089   6.702 -0.3855  0.0469  0.0708
 8800SOL    HW138033   4.009   1.010   6.755 -1.2372  0.4194  0.9149
 8800SOL    HW238034   4.068   1.112   6.650  0.8300 -1.5484  1.1539
 8801SOL     OW38035   3.639   2.118  17.181 -0.0944  0.7128  0.0551
 8801SOL    HW138036   3.706   2.114  17.113  1.7584  0.7315  1.8497
 8801SOL    HW238037   3.596   2.199  17.155 -1.4792  0.0375  0.2673
 8802SOL     OW38038   1.055   2.467   7.804 -0.1519 -0.2881 -0.0895
 8802SOL    HW138039   1.047   2.547   7.855  0.2904  0.7343 -1.6051
 8802SOL    HW238040   1.029   2.496   7.716 -0.0051  2.6305  0.8344
 8803SOL     OW38041   3.822   0.897   3.553  0.3001  0.0813 -0.1038
 8803SOL    HW138042   3.784   0.984   3.564  2.1071  0.8016  0.5240
 8803SOL    HW238043   3.755   0.855   3.499  1.0937 -0.8213 -0.3837
 8804SOL     OW38044   1.901   4.135   4.766  0.3007  0.0093  0.0651
 8804SOL    HW138045   1.924   4.204   4.704  0.2540 -0.3845 -0.3834
 8804SOL    HW238046   1.933   4.065   4.710  0.2907  1.3459 -1.5956
 8805SOL     OW38047   0.001   2.639   4.817 -0.7871 -0.1407 -0.3085
 8805SOL    HW138048   4.688   2.578   4.767 -1.3834  0.7931 -0.8150
 8805SOL    HW238049   0.038   2.578   4.881 -2.3344 -2.3612 -1.5649
 8806SOL     OW38050   2.498   2.267  15.201  0.2730  0.1849 -0.4447
 8806SOL    HW138051   2.537   2.321  15.132  1.7461  1.3327  1.2976
 8806SOL    HW238052   2.507   2.182  15.159  0.9955 -0.7369  1.6022
 8807SOL     OW38053   1.161   1.269  16.568  0.5578  0.4260 -0.0505
 8807SOL    HW138054   1.190   1.183  16.596 -0.3274 -0.0357 -0.5647
 8807SOL    HW238055   1.073   1.275  16.607  0.2413 -1.5800 -0.4924
 8808SOL     OW38056   3.487   1.041   1.071 -1.0999 -0.2953  0.4039
 8808SOL    HW138057   3.440   1.093   1.006  0.6154 -1.3456 -1.6873
 8808SOL    HW238058   3.417   0.978   1.090  0.6292 -2.2466  0.2717
 8809SOL     OW38059   3.360   3.492  17.022  0.0640 -0.0889 -0.4627
 8809SOL    HW138060   3.419   3.432  17.068  0.0762  0.1542 -0.1587
 8809SOL    HW238061   3.302   3.518  17.094 -0.7800 -0.4890 -0.9866
 8810SOL     OW38062   0.049   4.337   7.742  0.0623  0.0295  0.0780
 8810SOL    HW138063   4.730   4.409   7.721  1.6490  1.2532 -0.2369
 8810SOL    HW238064   0.003   4.298   7.816  0.9661  0.7065  0.9950
 8811SOL     OW38065   0.907   3.584   6.736 -0.0775 -0.1831  0.1658
 8811SOL    HW138066   0.955   3.503   6.719 -3.5938 -2.3926  0.6657
 8811SOL    HW238067   0.865   3.559   6.818  1.5089  0.5375  1.1993
 8812SOL     OW38068   0.826   0.703  13.584 -0.3188  0.1527  0.9689
 8812SOL    HW138069   0.895   0.639  13.567 -1.1413 -0.1165 -1.3012
 8812SOL    HW238070   0.884   0.780  13.589 -0.2856  0.2114 -0.3862
 8813SOL     OW38071   3.870   2.612   4.502 -0.6792  0.0118  0.5285
 8813SOL    HW138072   3.836   2.531   4.463 -1.7004  1.5513 -1.7518
 8813SOL    HW238073   3.889   2.661   4.422 -3.1648  0.9082  0.4857
 8814SOL     OW38074   1.717   4.530   1.225 -0.0254  0.9738 -0.2372
 8814SOL    HW138075   1.677   4.445   1.246 -1.0339  1.9570  1.7680
 8814SOL    HW238076   1.756   4.507   1.140 -0.7295  0.4271 -0.4111
 8815SOL     OW38077   1.179   4.349  16.356  1.2142  0.1712 -0.0296
 8815SOL    HW138078   1.125   4.299  16.296 -0.7200  2.7711 -0.4437
 8815SOL    HW238079   1.121   4.426  16.358  1.6495  0.5570 -2.2604
 8816SOL     OW38080   1.528   4.068  10.556  0.2108  0.5372  0.3736
 8816SOL    HW138081   1.601   4.072  10.494 -0.6602 -0.0889 -0.6728
 8816SOL    HW238082   1.560   4.134  10.618 -1.0398  0.4295  1.1187
 8817SOL     OW38083   4.629   4.362  15.279 -0.0487  0.2787  0.1864
 8817SOL    HW138084   4.684   4.385  15.204 -1.2161  0.7773 -0.5243
 8817SOL    HW238085   4.636   4.267  15.288  0.0235  0.0581 -2.1059
 8818SOL     OW38086   3.466   0.626   4.110 -0.2623 -0.5078 -0.3687
 8818SOL    HW138087   3.558   0.621   4.138 -0.5467  1.7113  0.9475
 8818SOL    HW238088   3.415   0.608   4.189  0.2806  0.4535  0.2120
 8819SOL     OW38089   0.913   2.032  15.252 -0.4870  0.0547  0.0560
 8819SOL    HW138090   0.955   1.946  15.242 -1.0232 -0.0499 -1.2197
 8819SOL    HW238091   0.993   2.084  15.261  0.7598 -2.0014  0.9600
 8820SOL     OW38092   0.046   2.529   3.783 -0.7848 -0.2143 -0.0703
 8820SOL    HW138093   0.100   2.579   3.844 -1.3251 -1.7059  1.6155
 8820SOL    HW238094   4.737   2.471   3.841 -1.7974 -0.1997 -0.9115
 8821SOL     OW38095   1.585   0.658  13.488  0.0864 -0.0981  0.1086
 8821SOL    HW138096   1.670   0.623  13.514 -0.6880 -1.2481  1.0622
 8821SOL    HW238097   1.531   0.598  13.540  0.6088 -1.4382 -0.9044
 8822SOL     OW38098   3.641   3.156  13.811  0.1878  0.1229 -0.1668
 8822SOL    HW138099   3.604   3.233  13.854  0.6048 -0.1030  0.5917
 8822SOL    HW238100   3.667   3.108  13.889  0.3506 -0.3673 -0.5220
 8823SOL     OW38101   1.514   1.250   6.413 -0.3358  0.3888 -0.0801
 8823SOL    HW138102   1.499   1.273   6.505 -1.5849  3.7891 -1.1381
 8823SOL    HW238103   1.513   1.154   6.413  1.4832  0.3566 -3.2716
 8824SOL     OW38104   1.998   4.492  13.336 -0.3626 -0.4067 -0.1233
 8824SOL    HW138105   1.950   4.573  13.315  2.0292  1.1113  0.2209
 8824SOL    HW238106   2.022   4.521  13.424  0.0827  1.6121 -0.8857
 8825SOL     OW38107   4.437   0.284   9.531 -0.7696  0.1112  0.4392
 8825SOL    HW138108   4.502   0.214   9.532  1.2343  1.9788  3.0528
 8825SOL    HW238109   4.475   0.360   9.576 -1.0461  0.3740  0.2227
 8826SOL     OW38110   2.496   3.341  12.073  0.6446  0.2481  0.9155
 8826SOL    HW138111   2.532   3.369  11.989 -1.5176  2.2301  0.6535
 8826SOL    HW238112   2.486   3.429  12.108 -1.1328 -0.3880  2.0032
 8827SOL     OW38113   2.335   1.757   4.126 -0.0691  0.2674 -0.0282
 8827SOL    HW138114   2.374   1.713   4.201  0.5278  0.8674  0.0144
 8827SOL    HW238115   2.300   1.681   4.079 -1.4370  0.3740  0.8284
 8828SOL     OW38116   3.958   0.870   4.318  0.5713 -0.4014  0.3255
 8828SOL    HW138117   4.022   0.801   4.300 -0.9119 -1.0372 -2.5644
 8828SOL    HW238118   3.933   0.902   4.231  0.1935 -0.8135  0.2835
 8829SOL     OW38119   0.817   1.264   0.654  0.1638 -0.3128 -0.4611
 8829SOL    HW138120   0.813   1.223   0.567 -0.6249  0.2005 -0.6678
 8829SOL    HW238121   0.808   1.190   0.714  0.8159 -0.7114 -0.8481
 8830SOL     OW38122   4.586   2.002  17.554  0.1451 -0.7478 -0.2850
 8830SOL    HW138123   4.512   1.998  17.615  0.7682 -2.8348  0.3446
 8830SOL    HW238124   4.590   1.911  17.525  0.2543 -0.1827 -2.0349
 8831SOL     OW38125   0.003   4.606  11.668 -0.0365  0.3340 -0.0710
 8831SOL    HW138126   4.706   4.671  11.609 -0.5597 -0.6241 -0.8033
 8831SOL    HW238127   4.673   4.588  11.731 -1.2593 -1.2180 -1.8740
 8832SOL     OW38128   1.415   1.341   7.171 -0.9049 -0.2975  0.1249
 8832SOL    HW138129   1.485   1.341   7.236 -2.2763  1.5322  1.6069
 8832SOL    HW238130   1.360   1.417   7.191 -0.6501 -0.9524  3.3062
 8833SOL     OW38131   0.055   2.505  11.388  0.1852  0.0546  0.0674
 8833SOL    HW138132   0.089   2.498  11.299 -1.6559 -0.6413 -0.5856
 8833SOL    HW238133   0.097   2.583  11.424  1.7495 -0.4816 -0.5569
 8834SOL     OW38134   0.610   0.873   7.737 -0.0962  0.2273 -0.2800
 8834SOL    HW138135   0.636   0.962   7.717  0.8188 -0.2740 -1.3111
 8834SOL    HW238136   0.594   0.886   7.831  0.3349 -1.6784  0.0679
 8835SOL     OW38137   0.135   2.538   7.538  0.2781 -0.5596 -0.2135
 8835SOL    HW138138   0.154   2.447   7.515  1.2238 -0.8496  1.6845
 8835SOL    HW238139   0.055   2.527   7.590 -1.5473 -0.8412 -3.0648
 8836SOL     OW38140   4.217   1.349   3.624 -0.1993 -0.0730 -0.3175
 8836SOL    HW138141   4.265   1.274   3.589  0.9690  0.7273 -0.4221
 8836SOL    HW238142   4.254   1.407   3.558  2.3331  0.1292  1.2524
 8837SOL     OW38143   4.691   3.086   4.272 -0.3420 -0.1339 -0.4255
 8837SOL    HW138144   0.032   3.091   4.321  0.3441  2.8863 -1.8797
 8837SOL    HW238145   4.717   3.051   4.187 -2.1495  0.6929 -1.3045
 8838SOL     OW38146   3.396   0.628  12.032  0.5512  0.1586  0.0291
 8838SOL    HW138147   3.334   0.686  11.987  1.9240 -0.0822 -2.1723
 8838SOL    HW238148   3.361   0.544  12.003 -0.8580  0.6558  0.3149
 8839SOL     OW38149   3.072   0.049   8.455  0.0236  0.1291  0.2548
 8839SOL    HW138150   3.020   4.712   8.476 -2.1708  1.0253 -1.8473
 8839SOL    HW238151   3.016   0.101   8.398  0.5954  0.6657  0.1794
 8840SOL     OW38152   2.335   1.091   2.243  0.4407  0.0040  0.1060
 8840SOL    HW138153   2.353   1.179   2.212 -0.4644  0.8353  1.9151
 8840SOL    HW238154   2.420   1.046   2.239  1.0581  1.1292  0.3670
 8841SOL     OW38155   3.951   2.595  13.470  0.2181  0.6960  0.1916
 8841SOL    HW138156   3.889   2.665  13.492 -1.2967 -0.4924 -0.3245
 8841SOL    HW238157   3.887   2.529  13.443  0.8785 -0.2520  0.9389
 8842SOL     OW38158   0.198   0.733   2.619  0.1011 -0.8148  0.1570
 8842SOL    HW138159   0.269   0.795   2.599  1.9429 -2.0701  2.6568
 8842SOL    HW238160   0.171   0.710   2.531 -1.6065  0.2295  0.4161
 8843SOL     OW38161   3.833   2.591   1.826 -0.3090 -0.0213 -0.0377
 8843SOL    HW138162   3.801   2.681   1.834  0.9403  0.2265  2.0921
 8843SOL    HW238163   3.755   2.556   1.870 -0.4706 -0.3274 -0.5731
 8844SOL     OW38164   1.272   1.976   1.277 -0.0574  0.0172 -0.2618
 8844SOL    HW138165   1.182   1.947   1.290 -0.3210 -0.2681 -2.6228
 8844SOL    HW238166   1.248   2.066   1.253  0.5943  0.0054 -0.9751
 8845SOL     OW38167   0.316   0.486   6.007  0.4939  0.0680  0.0596
 8845SOL    HW138168   0.381   0.441   5.953  0.0955  0.5712 -0.8358
 8845SOL    HW238169   0.280   0.554   5.950 -1.3505 -1.3611 -0.4984
 8846SOL     OW38170   1.123   4.496   2.742 -0.1840  0.4424  0.4715
 8846SOL    HW138171   1.039   4.513   2.699 -0.2877 -1.5198 -0.1254
 8846SOL    HW238172   1.144   4.584   2.773  1.0826  0.8355 -1.4775
 8847SOL     OW38173   3.835   4.341   9.309 -0.2676 -0.2848 -0.2819
 8847SOL    HW138174   3.747   4.305   9.306  0.5927 -2.4569  1.0406
 8847SOL    HW238175   3.814   4.434   9.303 -1.1715 -0.4337  0.7494
 8848SOL     OW38176   0.725   0.049   0.755  0.9196  0.4012  0.0945
 8848SOL    HW138177   0.818   0.068   0.764  0.8191  1.4201 -0.8971
 8848SOL    HW238178   0.717   0.007   0.840  0.4789  1.1091  0.4093
 8849SOL     OW38179   2.391   3.781   0.284  0.5724 -0.6486  0.0623
 8849SOL    HW138180   2.406   3.807   0.194 -0.1789 -1.1688 -0.2109
 8849SOL    HW238181   2.395   3.687   0.264 -1.4531 -1.3815  3.0160
 8850SOL     OW38182   4.060   0.330   4.491  0.1171  0.0033 -0.0690
 8850SOL    HW138183   4.005   0.341   4.413 -0.4803  1.0356  0.4993
 8850SOL    HW238184   4.105   0.247   4.473  0.2882 -0.1784  1.1848
 8851SOL     OW38185   4.288   2.314  10.325 -0.0186 -0.0243  0.1780
 8851SOL    HW138186   4.200   2.346  10.309 -0.5126 -1.3104  0.3296
 8851SOL    HW238187   4.266   2.221  10.327  0.8481 -0.2281  0.6042
 8852SOL     OW38188   2.679   2.571  16.981  0.2047  0.5972 -0.6494
 8852SOL    HW138189   2.657   2.603  16.893  1.2078 -1.3650 -1.5987
 8852SOL    HW238190   2.606   2.608  17.032  0.6495  2.5797 -1.4528
 8853SOL     OW38191   1.322   3.045   3.307 -0.3370  0.3673 -0.3024
 8853SOL    HW138192   1.283   3.061   3.393 -0.5166  4.6623 -1.1680
 8853SOL    HW238193   1.362   2.959   3.314  0.2309  0.6724  0.1753
 8854SOL     OW38194   3.956   3.241   2.983  0.0588 -0.1411  0.3834
 8854SOL    HW138195   3.931   3.319   2.933 -0.4395 -1.2282 -1.0612
 8854SOL    HW238196   3.876   3.190   2.986  0.4090 -0.7162 -0.1251
 8855SOL     OW38197   0.464   3.266   9.151 -0.1408  0.2658 -0.3145
 8855SOL    HW138198   0.385   3.290   9.201  0.5438 -0.8805  1.3208
 8855SOL    HW238199   0.523   3.243   9.223  0.4116  0.0501 -0.8345
 8856SOL     OW38200   0.806   0.854  15.247 -0.0460  0.1861  0.1969
 8856SOL    HW138201   0.872   0.848  15.178  0.8094  2.3287  0.8206
 8856SOL    HW238202   0.725   0.876  15.202 -0.5062 -0.2703  0.7893
 8857SOL     OW38203   1.179   2.071   2.067 -0.4781  0.3391  0.4755
 8857SOL    HW138204   1.202   1.989   2.023 -3.0473 -0.1378  0.0382
 8857SOL    HW238205   1.270   2.102   2.073  1.0921 -3.6616 -2.6590
 8858SOL     OW38206   3.877   0.837   2.676  0.2949  0.4780 -0.0766
 8858SOL    HW138207   3.782   0.835   2.666  0.0322  0.7301  2.1681
 8858SOL    HW238208   3.900   0.745   2.665  1.3814  0.5411  1.5985
 8859SOL     OW38209   0.072   2.380  12.119 -0.1558  0.4459  0.3210
 8859SOL    HW138210   4.719   2.390  12.136 -0.2291 -0.4165  0.4049
 8859SOL    HW238211   0.102   2.443  12.184 -0.1102  1.5338 -0.7409
 8860SOL     OW38212   0.503   0.296  14.815  0.2438  0.1632 -0.9330
 8860SOL    HW138213   0.485   0.234  14.744 -0.9025  0.7779 -1.1684
 8860SOL    HW238214   0.425   0.351  14.813  0.9865  1.2828  0.6232
 8861SOL     OW38215   1.996   1.932   5.837 -0.0918  0.5214  0.0049
 8861SOL    HW138216   1.913   1.940   5.789  0.0882 -1.2626 -0.6153
 8861SOL    HW238217   2.057   1.987   5.789 -0.5501  2.3826  1.5732
 8862SOL     OW38218   4.511   1.886   9.974 -0.1901 -0.1552 -0.4248
 8862SOL    HW138219   4.444   1.925   9.918 -1.4788 -0.6945  0.7430
 8862SOL    HW238220   4.566   1.960   9.999  1.2651 -0.7883 -1.7981
 8863SOL     OW38221   1.998   0.538  12.345 -0.4370 -0.1488  0.0593
 8863SOL    HW138222   2.047   0.457  12.361  0.6760  0.2544 -1.3633
 8863SOL    HW238223   2.049   0.568  12.270  0.3448  1.2850  1.1652
 8864SOL     OW38224   2.810   0.391   2.531  0.0584 -0.1338  0.0406
 8864SOL    HW138225   2.837   0.452   2.600  1.2170 -1.2542  0.5645
 8864SOL    HW238226   2.745   0.331   2.567  0.7455 -0.5401  0.5853
 8865SOL     OW38227   1.761   3.179   3.590 -0.0059 -0.2268 -1.1463
 8865SOL    HW138228   1.710   3.259   3.578 -0.8350 -0.7267 -0.9511
 8865SOL    HW238229   1.699   3.115   3.557 -0.3758 -0.9412  0.9405
 8866SOL     OW38230   1.268   1.016  16.599  0.1630 -0.2588 -0.3288
 8866SOL    HW138231   1.303   0.927  16.604 -0.4754 -0.5190 -0.4054
 8866SOL    HW238232   1.288   1.035  16.507  2.3550 -2.5415 -0.3131
 8867SOL     OW38233   2.984   2.333   5.396 -0.3955 -0.0954 -0.4510
 8867SOL    HW138234   2.913   2.269   5.399 -0.4666  0.0382  0.6324
 8867SOL    HW238235   2.947   2.395   5.333  0.1855  1.2442  0.5344
 8868SOL     OW38236   4.054   3.946   3.401 -0.5424  0.0427 -0.2562
 8868SOL    HW138237   3.982   3.959   3.463  0.1525 -0.5242  0.6659
 8868SOL    HW238238   4.026   3.862   3.365  1.7463 -0.3581 -1.0959
 8869SOL     OW38239   3.871   3.632  14.531  0.2704  0.9098 -0.2688
 8869SOL    HW138240   3.799   3.574  14.505 -2.2633  3.5587  0.8319
 8869SOL    HW238241   3.831   3.664  14.612  0.5882  2.6976 -0.8072
 8870SOL     OW38242   1.987   3.684  14.664 -0.0439  0.0410  0.6379
 8870SOL    HW138243   2.007   3.655  14.753  2.6492  1.2478  0.4316
 8870SOL    HW238244   1.916   3.622  14.646 -1.6279  2.5291 -1.7180
 8871SOL     OW38245   3.909   1.472   5.514  0.3979 -0.0724 -0.3630
 8871SOL    HW138246   4.002   1.477   5.539 -0.1183  0.7717  1.3604
 8871SOL    HW238247   3.879   1.415   5.585  0.6357  0.7804  0.4140
 8872SOL     OW38248   4.227   2.277   4.233 -0.3523  0.4493  0.4382
 8872SOL    HW138249   4.311   2.300   4.272  0.1237 -2.4647  1.1966
 8872SOL    HW238250   4.222   2.188   4.268 -1.6573  0.5297  0.4473
 8873SOL     OW38251   3.030   3.405  17.297  0.6558  0.0716 -0.5442
 8873SOL    HW138252   2.941   3.368  17.293  0.4860  0.4919 -0.6817
 8873SOL    HW238253   3.058   3.385  17.208  1.9915  2.3061 -0.6181
 8874SOL     OW38254   4.478   0.944   9.110  0.1462  0.4374  0.2545
 8874SOL    HW138255   4.459   1.030   9.149  1.3465  1.6655 -1.8628
 8874SOL    HW238256   4.400   0.888   9.117 -0.2279  1.0042  0.6576
 8875SOL     OW38257   0.834   2.215  14.328 -0.1244  0.2221 -0.1722
 8875SOL    HW138258   0.892   2.273  14.279 -1.2084  0.6733 -0.9400
 8875SOL    HW238259   0.827   2.140  14.269  1.0857  0.6519 -0.8628
 8876SOL     OW38260   3.510   0.815  13.716  0.3510 -0.3068  0.1916
 8876SOL    HW138261   3.507   0.723  13.743 -3.0820 -0.5311 -0.8644
 8876SOL    HW238262   3.513   0.853  13.804 -1.6258  2.3332 -0.8680
 8877SOL     OW38263   2.959   0.591   7.147  0.6433 -0.1164 -0.1439
 8877SOL    HW138264   2.984   0.679   7.122  3.2876 -0.4721  1.2530
 8877SOL    HW238265   2.871   0.588   7.108 -0.5269  0.7766  2.3877
 8878SOL     OW38266   2.841   0.066   1.303 -0.1026 -0.0735  0.1034
 8878SOL    HW138267   2.790   0.072   1.222  0.3200  1.5221 -0.0338
 8878SOL    HW238268   2.777   0.104   1.364  0.7401  2.0594 -0.3524
 8879SOL     OW38269   3.980   0.362   8.765 -0.3596 -0.2905 -0.1907
 8879SOL    HW138270   3.971   0.457   8.769  0.6729 -0.2095  0.3644
 8879SOL    HW238271   4.048   0.346   8.700  0.5093  1.4909  0.2811
 8880SOL     OW38272   1.667   3.235   4.154  0.0048  0.4521 -0.1461
 8880SOL    HW138273   1.582   3.203   4.186  1.7384 -2.4934  1.5667
 8880SOL    HW238274   1.709   3.271   4.232  2.4705 -2.2964 -0.1793
 8881SOL     OW38275   2.708   1.006   8.612 -0.4406  0.2053 -0.1228
 8881SOL    HW138276   2.624   0.971   8.641  0.1303 -0.2634  0.9260
 8881SOL    HW238277   2.698   1.098   8.635 -1.8696 -0.5276  2.2295
 8882SOL     OW38278   4.194   1.959   8.642 -0.7887  0.0527  0.5012
 8882SOL    HW138279   4.178   2.038   8.590 -1.5656  0.8112  1.8816
 8882SOL    HW238280   4.197   1.896   8.570 -0.7762  1.1393 -0.4516
 8883SOL     OW38281   0.198   2.145  15.959  0.0223 -0.2149  0.7604
 8883SOL    HW138282   0.191   2.177  15.869 -3.8848  1.8914  1.7983
 8883SOL    HW238283   0.284   2.178  15.984  0.1752  2.6513 -3.4856
 8884SOL     OW38284   0.477   3.480  15.036 -0.4590  0.1117 -0.4365
 8884SOL    HW138285   0.382   3.486  15.042 -0.4976 -0.3676 -0.5495
 8884SOL    HW238286   0.488   3.385  15.044 -0.2043  0.2961  1.4486
 8885SOL     OW38287   0.286   1.196  14.966  0.3222  0.4588  0.2533
 8885SOL    HW138288   0.347   1.269  14.971  0.6366  0.2802 -1.0382
 8885SOL    HW238289   0.212   1.256  14.962 -0.9392 -1.1211 -0.1665
 8886SOL     OW38290   1.104   1.018  12.238 -0.4262 -0.6181  0.6235
 8886SOL    HW138291   1.139   0.965  12.167 -0.3261  0.7110 -0.3195
 8886SOL    HW238292   1.013   1.024  12.209 -0.7812  1.4022  2.0878
 8887SOL     OW38293   2.281   3.649   3.329  0.6004 -0.2115 -0.3207
 8887SOL    HW138294   2.317   3.702   3.259 -0.5724 -1.5923 -1.9540
 8887SOL    HW238295   2.203   3.698   3.352  1.7575  1.6014 -0.2422
 8888SOL     OW38296   0.680   1.352  17.099 -0.2193 -0.0800  0.1651
 8888SOL    HW138297   0.774   1.340  17.085 -0.4518  0.2268 -1.6957
 8888SOL    HW238298   0.665   1.332  17.191 -1.4177  0.5942  0.1198
 8889SOL     OW38299   0.974   2.259   8.394  0.0796 -0.3446  0.5585
 8889SOL    HW138300   0.925   2.216   8.323  1.0881  0.3395 -0.5535
 8889SOL    HW238301   1.024   2.324   8.345  0.5782 -1.9849 -1.1677
 8890SOL     OW38302   4.478   2.513   1.343  0.0931 -0.4730  0.1733
 8890SOL    HW138303   4.499   2.490   1.253  0.1768  0.5219 -0.0608
 8890SOL    HW238304   4.464   2.607   1.337 -0.7351 -0.6592 -0.7400
 8891SOL     OW38305   4.624   1.074   6.500 -0.3091  0.0618 -0.1947
 8891SOL    HW138306   4.562   1.025   6.554 -0.6456 -1.5720 -2.0530
 8891SOL    HW238307   4.660   1.136   6.563  0.4219 -0.5238 -0.0385
 8892SOL     OW38308   1.266   1.747   6.922 -0.4001 -0.2852  0.0324
 8892SOL    HW138309   1.205   1.684   6.883  0.4314 -1.0072 -0.0912
 8892SOL    HW238310   1.261   1.808   6.849  0.0206 -0.6677 -0.3114
 8893SOL     OW38311   0.450   4.503   1.865 -0.1867  0.3035 -0.2756
 8893SOL    HW138312   0.503   4.504   1.786 -0.3925  0.4668 -0.4129
 8893SOL    HW238313   0.369   4.492   1.814 -1.0363 -0.8766  1.3110
 8894SOL     OW38314   2.950   3.364  13.111 -0.1038  0.0608  0.0516
 8894SOL    HW138315   2.955   3.413  13.029 -0.3759  0.3450  0.2000
 8894SOL    HW238316   2.982   3.283  13.072  0.2882 -0.2489  1.0124
 8895SOL     OW38317   3.890   3.819   5.388 -0.3277 -0.0616  0.6265
 8895SOL    HW138318   3.883   3.724   5.384 -1.0518  0.0359 -0.4218
 8895SOL    HW238319   3.803   3.838   5.423  0.0572 -0.0812  1.6115
 8896SOL     OW38320   1.706   2.735   6.074 -0.5020 -0.1571  0.1333
 8896SOL    HW138321   1.691   2.763   6.164  0.3672 -2.1881  0.9134
 8896SOL    HW238322   1.771   2.665   6.082 -1.6600 -1.5294 -2.3934
 8897SOL     OW38323   1.641   2.305  10.311  0.3839 -0.4975 -0.3180
 8897SOL    HW138324   1.718   2.253  10.333  0.7054  0.6281  1.1721
 8897SOL    HW238325   1.637   2.365  10.386 -1.2946 -1.1075  0.0920
 8898SOL     OW38326   1.136   0.214  11.387  0.1950  0.0767 -0.6094
 8898SOL    HW138327   1.170   0.151  11.324 -0.0135  0.9224 -1.5565
 8898SOL    HW238328   1.209   0.275  11.389  0.7044 -0.5803  1.2058
 8899SOL     OW38329   2.546   0.508   5.629  0.0081 -0.3099 -0.0498
 8899SOL    HW138330   2.462   0.464   5.620  0.3267 -0.6700 -1.3016
 8899SOL    HW238331   2.530   0.557   5.709  0.7985 -0.7412  0.3775
 8900SOL     OW38332   3.255   4.628  10.171 -0.1814 -0.1494  0.7658
 8900SOL    HW138333   3.327   4.614  10.233 -1.4745 -0.2520  2.2525
 8900SOL    HW238334   3.220   4.539  10.166 -1.8734  0.7247 -2.4502
 8901SOL     OW38335   3.405   4.308  13.137  0.4015  0.4667  0.3183
 8901SOL    HW138336   3.406   4.244  13.066 -0.8764  0.8403 -0.0208
 8901SOL    HW238337   3.494   4.287  13.167  0.5545  0.5731 -0.0517
 8902SOL     OW38338   0.975   4.599   8.832  0.7881  0.1673  0.4871
 8902SOL    HW138339   0.980   4.694   8.835 -0.0072  0.2214  0.0776
 8902SOL    HW238340   0.904   4.582   8.771  0.6352  3.0770 -0.1427
 8903SOL     OW38341   1.240   0.433   4.730 -0.5863  0.2292  0.1415
 8903SOL    HW138342   1.211   0.449   4.820  0.3279  0.9770  0.2960
 8903SOL    HW238343   1.222   0.525   4.710  0.8004 -0.0674 -2.5365
 8904SOL     OW38344   3.726   0.375   3.859 -0.2646  0.2538  0.2217
 8904SOL    HW138345   3.796   0.312   3.873 -1.0383 -0.7756 -0.4914
 8904SOL    HW238346   3.748   0.395   3.768 -0.2525  1.0096  0.3864
 8905SOL     OW38347   1.589   1.371   8.062  0.0680 -0.1086 -0.0655
 8905SOL    HW138348   1.646   1.359   7.986  2.2469  0.8595  1.4217
 8905SOL    HW238349   1.606   1.461   8.090 -0.8332 -0.3243  1.1496
 8906SOL     OW38350   1.640   1.111  13.296 -0.1727 -0.2330 -0.4703
 8906SOL    HW138351   1.602   1.033  13.335 -1.0723 -0.0995 -1.0758
 8906SOL    HW238352   1.680   1.153  13.372 -0.9605  0.7722 -0.5988
 8907SOL     OW38353   1.689   3.423   5.461  0.2742 -0.2174 -0.0666
 8907SOL    HW138354   1.746   3.392   5.532 -0.7018 -0.4943  0.5952
 8907SOL    HW238355   1.750   3.449   5.392  0.9409 -1.8766 -0.1015
 8908SOL     OW38356   3.572   2.843   6.551  0.2903 -1.1494  0.4086
 8908SOL    HW138357   3.578   2.754   6.515  0.5926 -1.2919  0.8143
 8908SOL    HW238358   3.664   2.866   6.550  0.1777 -0.6640  1.1964
 8909SOL     OW38359   3.349   3.893   6.786  0.5781  0.0664 -0.0914
 8909SOL    HW138360   3.436   3.930   6.793  1.1834 -1.1424 -1.1909
 8909SOL    HW238361   3.310   3.959   6.729  1.0152 -0.3060 -0.8327
 8910SOL     OW38362   3.629   2.918   4.610  0.5620 -0.0285 -0.0293
 8910SOL    HW138363   3.553   2.974   4.595  1.9632  1.5169 -1.3898
 8910SOL    HW238364   3.604   2.836   4.567  2.2116 -0.9258  0.7307
 8911SOL     OW38365   1.714   4.671  10.818 -0.2432 -0.5106 -0.6683
 8911SOL    HW138366   1.689   0.021  10.796  1.1092  0.1913  0.7232
 8911SOL    HW238367   1.626   4.636  10.801  0.5296 -2.4613 -0.5891
 8912SOL     OW38368   3.346   3.460  13.672 -0.6160 -0.4239 -0.6797
 8912SOL    HW138369   3.266   3.450  13.725 -0.4707  2.1730  0.0137
 8912SOL    HW238370   3.320   3.534  13.618 -0.1187 -0.8349 -1.4706
 8913SOL     OW38371   0.943   0.811   4.319  0.1865 -0.4401 -0.0977
 8913SOL    HW138372   1.030   0.789   4.287  0.7561 -0.8169  1.7257
 8913SOL    HW238373   0.959   0.830   4.411 -0.3917  0.8932 -0.2673
 8914SOL     OW38374   2.554   1.642   8.025 -0.0552 -0.3519 -0.5311
 8914SOL    HW138375   2.616   1.689   8.082 -0.6709  0.8057 -0.8160
 8914SOL    HW238376   2.518   1.582   8.091 -1.4782 -0.9122 -1.8410
 8915SOL     OW38377   1.774   2.420  12.584 -0.1002  0.5570  0.3385
 8915SOL    HW138378   1.788   2.390  12.495  1.0548 -0.9064  0.9980
 8915SOL    HW238379   1.688   2.461  12.586 -0.2530  0.2435  0.0839
 8916SOL     OW38380   4.623   0.136   5.076  0.4971 -0.0874 -0.5538
 8916SOL    HW138381   4.574   0.132   5.158 -0.7467  1.4426 -1.2368
 8916SOL    HW238382   4.701   0.085   5.100 -0.1947 -1.3977 -1.0954
 8917SOL     OW38383   3.762   3.882   7.629 -0.1743 -0.1192 -0.0658
 8917SOL    HW138384   3.824   3.918   7.693  0.3230 -0.4244 -0.3770
 8917SOL    HW238385   3.758   3.792   7.661 -1.3948  0.2265  0.7290
 8918SOL     OW38386   1.909   4.015   3.382 -0.0313 -0.3181 -0.6590
 8918SOL    HW138387   1.876   4.005   3.293 -0.7176  0.0198 -0.4429
 8918SOL    HW238388   1.845   3.962   3.429 -1.0855  2.3113  0.8665
 8919SOL     OW38389   3.110   3.761   5.315  0.3227 -0.5606 -0.2640
 8919SOL    HW138390   3.038   3.740   5.375  0.2654  0.8651  0.1696
 8919SOL    HW238391   3.156   3.831   5.361 -0.9951 -0.0725  0.3367
 8920SOL     OW38392   3.847   1.696   9.475  0.7808  0.2618  0.0011
 8920SOL    HW138393   3.889   1.763   9.528  2.7501  0.1632 -1.4033
 8920SOL    HW238394   3.924   1.655   9.434 -0.3927 -0.7692 -1.1477
 8921SOL     OW38395   0.134   2.731   7.329 -0.3345 -0.0064 -0.3321
 8921SOL    HW138396   0.079   2.660   7.362  0.8467 -0.5442  0.5037
 8921SOL    HW238397   0.064   2.791   7.302  1.9331  3.2073  0.9459
 8922SOL     OW38398   2.026   1.779  16.657 -0.5242 -0.5618 -0.0783
 8922SOL    HW138399   2.097   1.721  16.629 -0.2623  0.1233 -0.8288
 8922SOL    HW238400   2.020   1.764  16.752 -1.1740 -0.7699 -0.1511
 8923SOL     OW38401   4.275   0.857   4.226  0.0082  0.1525  0.3405
 8923SOL    HW138402   4.356   0.898   4.258 -0.8517  1.6505  0.6122
 8923SOL    HW238403   4.245   0.808   4.302  1.6420 -0.6424  0.4696
 8924SOL     OW38404   1.230   3.133  13.634 -0.2632 -0.1424  0.7036
 8924SOL    HW138405   1.203   3.048  13.667 -0.1225 -0.6565 -0.4948
 8924SOL    HW238406   1.323   3.115  13.620 -0.0470  1.9005 -0.5263
 8925SOL     OW38407   4.016   0.497   2.472 -0.0258 -0.2072 -0.1273
 8925SOL    HW138408   4.099   0.532   2.439 -1.1853  3.3330  0.7686
 8925SOL    HW238409   4.021   0.407   2.439 -0.4469  0.3513 -1.7159
 8926SOL     OW38410   3.377   0.374   2.965 -0.0912  0.2002  0.3196
 8926SOL    HW138411   3.344   0.387   2.876  1.5262  2.8574  0.0880
 8926SOL    HW238412   3.300   0.369   3.020 -0.1281  2.0905  0.4601
 8927SOL     OW38413   4.172   2.016   8.246 -0.3361  0.1277 -0.1744
 8927SOL    HW138414   4.229   2.028   8.171  1.4457  0.5443  1.2418
 8927SOL    HW238415   4.115   1.954   8.201 -0.3284  0.7646 -1.0583
 8928SOL     OW38416   4.248   1.395   7.391 -0.1332  0.5686  0.2164
 8928SOL    HW138417   4.210   1.412   7.305 -0.1530  0.1919  0.1485
 8928SOL    HW238418   4.305   1.471   7.388 -0.2252  0.5318 -3.1899
 8929SOL     OW38419   4.556   1.458  16.038  0.2263 -0.0529  0.0450
 8929SOL    HW138420   4.577   1.451  15.945 -0.1751  1.0450 -0.1315
 8929SOL    HW238421   4.566   1.552  16.054 -0.0753  0.0756 -0.5222
 8930SOL     OW38422   0.461   1.062   6.351  0.1641 -0.1496 -0.0057
 8930SOL    HW138423   0.513   1.126   6.304  0.4360 -0.7177 -0.4626
 8930SOL    HW238424   0.521   1.020   6.413  1.3625  0.2253 -0.9227
 8931SOL     OW38425   4.054   2.377  17.397 -0.0640 -0.4320 -0.4306
 8931SOL    HW138426   4.013   2.410  17.317 -1.3462  2.3958  1.3872
 8931SOL    HW238427   4.069   2.459  17.445 -1.2781  0.4634 -1.5643
 8932SOL     OW38428   3.496   3.623   2.500  0.0299  0.2555 -0.2435
 8932SOL    HW138429   3.460   3.701   2.459  0.7991  1.4974  1.4410
 8932SOL    HW238430   3.420   3.573   2.528 -0.3735 -0.1599 -2.1184
 8933SOL     OW38431   0.198   4.687  16.314 -0.2378  0.0571 -0.0726
 8933SOL    HW138432   0.217   0.016  16.376 -0.5734 -0.5646  0.7215
 8933SOL    HW238433   0.145   4.740  16.255  0.2707  3.1212  2.2169
 8934SOL     OW38434   0.286   0.281   8.662 -0.2024 -0.8935 -0.3246
 8934SOL    HW138435   0.226   0.249   8.594  0.8259 -1.7568 -0.8221
 8934SOL    HW238436   0.232   0.358   8.681  2.5447  0.5983  1.3763
 8935SOL     OW38437   2.380   1.606   8.272 -0.3935 -0.0645  0.1953
 8935SOL    HW138438   2.335   1.608   8.356  0.9959  2.0827  0.8932
 8935SOL    HW238439   2.321   1.649   8.211 -4.0137 -2.0997  2.2872
 8936SOL     OW38440   2.917   3.941   1.787 -0.4070 -0.4656 -0.0730
 8936SOL    HW138441   2.963   4.015   1.746 -3.9714  1.2497 -1.0073
 8936SOL    HW238442   2.981   3.911   1.852  0.7221  3.7635  0.8051
 8937SOL     OW38443   4.432   1.048  16.256 -0.2987  0.6591  0.0897
 8937SOL    HW138444   4.371   1.106  16.302  0.5370 -0.2928  2.4194
 8937SOL    HW238445   4.464   0.988  16.323  1.7148 -0.0421 -1.5088
 8938SOL     OW38446   4.058   2.715   8.245  0.5816 -0.8807 -0.2038
 8938SOL    HW138447   4.020   2.672   8.321 -2.8685 -1.3401 -2.1711
 8938SOL    HW238448   4.152   2.725   8.263  0.5440 -1.8037  0.5053
 8939SOL     OW38449   1.883   2.946   4.207  0.5352 -0.7413 -0.0057
 8939SOL    HW138450   1.901   3.024   4.260  2.7337 -0.9931 -0.3843
 8939SOL    HW238451   1.853   2.987   4.125  1.3486  2.0314  1.0797
 8940SOL     OW38452   3.009   2.732   6.983 -0.1406  0.1689 -0.5394
 8940SOL    HW138453   3.018   2.651   6.933  1.2162 -0.6300  1.0185
 8940SOL    HW238454   2.919   2.726   7.015  0.2969  0.2972  0.7144
 8941SOL     OW38455   3.859   1.394  12.149 -0.3700 -0.1594  0.5311
 8941SOL    HW138456   3.896   1.310  12.121 -0.6400 -0.4409  1.0268
 8941SOL    HW238457   3.931   1.455  12.129  2.2280 -3.7527 -1.0822
 8942SOL     OW38458   0.774   1.293   7.024  0.2211  0.0937  0.4804
 8942SOL    HW138459   0.867   1.316   7.030  0.7596 -1.7567 -0.6872
 8942SOL    HW238460   0.769   1.203   7.055  0.7387  0.6630  2.2257
 8943SOL     OW38461   4.726   4.247   0.600 -0.2232  0.1443  0.3049
 8943SOL    HW138462   4.700   4.240   0.508  0.8498  2.8984 -0.1869
 8943SOL    HW238463   0.007   4.154   0.611  0.2802  0.3233  0.8452
 8944SOL     OW38464   3.809   1.748   4.218 -0.5711 -0.2579 -0.0122
 8944SOL    HW138465   3.894   1.707   4.202  0.8376  2.1702  1.2796
 8944SOL    HW238466   3.805   1.747   4.314 -0.0725  0.2414  0.0152
 8945SOL     OW38467   2.155   2.927   7.398  0.2515  0.2152  0.1141
 8945SOL    HW138468   2.094   2.864   7.361  0.5940 -0.9141  1.4428
 8945SOL    HW238469   2.099   2.978   7.457 -1.8117 -2.7477  0.6845
 8946SOL     OW38470   3.636   3.236   4.880 -0.8134 -0.0137  0.2308
 8946SOL    HW138471   3.649   3.223   4.974  0.9638  0.8180  0.0780
 8946SOL    HW238472   3.722   3.210   4.848 -0.5917  0.1217  0.7079
 8947SOL     OW38473   3.355   1.048   7.842  0.0559 -0.1277  0.6798
 8947SOL    HW138474   3.333   1.132   7.884  1.5585  0.2376  0.7526
 8947SOL    HW238475   3.431   1.017   7.891 -1.2354 -0.2270  2.6075
 8948SOL     OW38476   0.534   2.469   5.352  0.0052 -0.5617  0.4046
 8948SOL    HW138477   0.455   2.498   5.305 -0.2023  0.7092  1.5362
 8948SOL    HW238478   0.587   2.548   5.339 -1.8238  0.6295  0.0622
 8949SOL     OW38479   0.518   2.821   7.430 -0.0168  0.0091  0.1474
 8949SOL    HW138480   0.455   2.781   7.490 -0.1233  1.6024  1.1293
 8949SOL    HW238481   0.595   2.772   7.458  0.0518 -0.3157 -0.6163
 8950SOL     OW38482   2.175   0.826   0.074 -0.3585 -0.4480 -0.2034
 8950SOL    HW138483   2.093   0.802   0.116  0.8221 -1.3661  1.5712
 8950SOL    HW238484   2.181   0.918   0.102 -0.9443 -0.1509 -1.0507
 8951SOL     OW38485   4.637   2.439   5.317 -0.0092 -0.0430  0.1774
 8951SOL    HW138486   4.660   2.362   5.368 -0.4121 -0.7219 -0.6720
 8951SOL    HW238487   4.664   2.511   5.374  0.4529 -0.2537  0.2162
 8952SOL     OW38488   0.222   2.600   5.365 -0.2074 -0.5532  0.3522
 8952SOL    HW138489   0.199   2.516   5.324 -3.2341 -0.4207  1.7724
 8952SOL    HW238490   0.149   2.651   5.331 -0.2395 -1.6980 -1.3318
 8953SOL     OW38491   2.028   2.743  14.583 -0.1095 -0.4717 -0.1755
 8953SOL    HW138492   2.014   2.781  14.669 -1.6059  0.7915 -0.9750
 8953SOL    HW238493   2.086   2.672  14.610  1.8119  0.7691 -1.0048
 8954SOL     OW38494   3.694   3.999   5.999  0.3307 -0.4308  0.0888
 8954SOL    HW138495   3.767   4.023   5.942 -1.2609  1.5029 -1.1368
 8954SOL    HW238496   3.678   4.082   6.046  0.6828  0.3647 -1.1994
 8955SOL     OW38497   3.181   0.758   1.895  0.1779 -0.3326  0.4357
 8955SOL    HW138498   3.136   0.826   1.944  0.7105 -0.0937  0.5945
 8955SOL    HW238499   3.171   0.796   1.808 -0.2838 -1.6804 -0.1029
 8956SOL     OW38500   0.294   1.880   8.116 -0.4480 -0.2619 -0.0155
 8956SOL    HW138501   0.356   1.946   8.147 -0.8435  0.8836 -1.6264
 8956SOL    HW238502   0.339   1.802   8.147  1.8282  1.2757  0.5922
 8957SOL     OW38503   4.361   3.425   0.487  0.2033  0.5091 -0.6319
 8957SOL    HW138504   4.380   3.333   0.475 -2.0112 -0.0447 -0.0118
 8957SOL    HW238505   4.265   3.422   0.487  0.2271 -0.7271  3.1332
 8958SOL     OW38506   2.393   4.214   3.565  0.3683  0.4255  0.9374
 8958SOL    HW138507   2.479   4.251   3.582  0.0223  1.6653 -0.0107
 8958SOL    HW238508   2.385   4.249   3.476 -0.4378  0.7469  1.1340
 8959SOL     OW38509   4.702   4.442   3.969  0.2289  0.1107  0.3720
 8959SOL    HW138510   0.025   4.399   4.026 -0.0473  1.3575  1.6328
 8959SOL    HW238511   4.653   4.490   4.036  0.9189  0.4005  0.6638
 8960SOL     OW38512   2.046   4.038  11.323 -0.0896 -0.1227  0.4235
 8960SOL    HW138513   2.021   4.130  11.320  1.4153  0.3331  2.2077
 8960SOL    HW238514   2.142   4.041  11.319 -0.0992 -0.8765 -0.7941
 8961SOL     OW38515   2.701   1.496   2.481 -0.3521  0.1625 -0.8272
 8961SOL    HW138516   2.614   1.484   2.444  0.1074 -2.4803 -1.0498
 8961SOL    HW238517   2.745   1.559   2.424 -0.4557  0.9754  0.0062
 8962SOL     OW38518   3.782   2.588   8.920  0.1106  0.0493 -1.0932
 8962SOL    HW138519   3.793   2.671   8.968  3.6061  0.8982 -3.4165
 8962SOL    HW238520   3.859   2.592   8.864 -0.0577  1.3930 -1.2427
 8963SOL     OW38521   1.014   2.679   8.555 -0.2847 -0.6239  0.0269
 8963SOL    HW138522   0.958   2.727   8.615  1.5987  0.5901  0.8332
 8963SOL    HW238523   0.982   2.592   8.577 -0.3491  0.0286  2.4578
 8964SOL     OW38524   2.441   3.115   3.190 -0.1338 -0.4206 -0.4127
 8964SOL    HW138525   2.461   3.196   3.238 -0.2858 -0.8203  0.3331
 8964SOL    HW238526   2.378   3.150   3.127 -1.6481 -1.1669  0.6869
 8965SOL     OW38527   1.367   2.111   5.718 -0.4338  0.1977 -0.2806
 8965SOL    HW138528   1.306   2.093   5.790 -1.1499  0.8900 -0.7135
 8965SOL    HW238529   1.321   2.063   5.649 -0.1730  1.0950 -1.0761
 8966SOL     OW38530   3.531   2.124  12.222 -0.7249 -0.1181  0.3218
 8966SOL    HW138531   3.616   2.146  12.184 -0.4506 -2.4171 -0.3970
 8966SOL    HW238532   3.547   2.099  12.313  0.2449 -0.3575  0.0877
 8967SOL     OW38533   4.036   0.631   1.008  0.0666  0.4028  0.4311
 8967SOL    HW138534   3.971   0.698   0.988 -0.8464 -0.1220  1.6682
 8967SOL    HW238535   3.984   0.551   1.003  0.4424  0.1682  0.3048
 8968SOL     OW38536   3.592   3.510   2.782  1.5176 -0.2257 -0.3886
 8968SOL    HW138537   3.536   3.503   2.704  0.4910 -2.7793  0.6035
 8968SOL    HW238538   3.651   3.578   2.749  2.0956  0.3442  1.8543
 8969SOL     OW38539   4.221   3.555   2.479  0.7323 -0.0773  0.2906
 8969SOL    HW138540   4.191   3.470   2.448  0.3913 -1.8943  5.6274
 8969SOL    HW238541   4.165   3.574   2.555 -2.5351  0.4015 -2.2280
 8970SOL     OW38542   1.274   1.038   8.379 -0.2111 -0.3505  0.1373
 8970SOL    HW138543   1.244   1.052   8.469 -0.9912 -0.9613 -0.0238
 8970SOL    HW238544   1.351   0.981   8.383 -0.2675 -0.4788 -0.6022
 8971SOL     OW38545   1.956   1.380  13.548  0.0367 -0.1981 -0.0197
 8971SOL    HW138546   1.968   1.471  13.576 -1.8778  0.1695 -0.4018
 8971SOL    HW238547   2.031   1.368  13.489  1.5135  2.5348  1.2714
 8972SOL     OW38548   3.758   2.989  15.404  0.6750 -0.1165 -0.2716
 8972SOL    HW138549   3.694   2.926  15.373  0.0638  1.3908 -2.0869
 8972SOL    HW238550   3.794   3.023  15.322  0.1857  3.4035  0.9592
 8973SOL     OW38551   2.616   1.800  15.494  0.2678 -0.1918 -0.6304
 8973SOL    HW138552   2.701   1.791  15.537  0.6233  0.9443 -1.0988
 8973SOL    HW238553   2.557   1.752  15.552  2.6363 -0.1555  1.8163
 8974SOL     OW38554   4.552   0.969   4.239 -0.5256 -0.2551 -0.5806
 8974SOL    HW138555   4.623   0.919   4.279 -1.1418  0.8648  1.8643
 8974SOL    HW238556   4.556   0.940   4.147  0.5617 -1.6556 -0.0904
 8975SOL     OW38557   0.659   2.700   2.931  0.0898  0.1455 -0.3092
 8975SOL    HW138558   0.628   2.790   2.935  1.9171  0.6831  2.2176
 8975SOL    HW238559   0.590   2.642   2.964 -0.8778  1.5482  0.1624
 8976SOL     OW38560   4.216   0.421   5.539 -0.6246  0.1451  0.4159
 8976SOL    HW138561   4.295   0.413   5.486 -1.8940 -0.2786 -1.4129
 8976SOL    HW238562   4.251   0.462   5.618  0.6741 -1.1578  0.5168
 8977SOL     OW38563   2.032   1.321   3.762  0.2896  0.4480 -0.3422
 8977SOL    HW138564   2.085   1.300   3.839  0.2069  1.0439 -0.1246
 8977SOL    HW238565   1.945   1.327   3.802 -0.4025 -2.2853 -1.4082
 8978SOL     OW38566   2.785   1.325   3.729 -0.0175  0.2268  0.3265
 8978SOL    HW138567   2.815   1.291   3.814 -1.0084 -0.3606  0.4365
 8978SOL    HW238568   2.867   1.313   3.681 -0.2572  1.9911 -0.5231
 8979SOL     OW38569   1.335   2.715  11.895  0.3318 -0.0632 -0.1155
 8979SOL    HW138570   1.413   2.670  11.862 -0.2760 -2.1949  1.2991
 8979SOL    HW238571   1.287   2.717  11.812  0.2037 -3.8259 -0.1368
 8980SOL     OW38572   0.648   2.082  16.912 -0.0387 -0.0344  0.2775
 8980SOL    HW138573   0.734   2.055  16.880 -0.2369  1.2776 -1.3173
 8980SOL    HW238574   0.675   2.077  17.004  0.1187  1.0889  0.2915
 8981SOL     OW38575   2.687   4.645   6.270  0.0301  0.3950 -0.1386
 8981SOL    HW138576   2.705   4.639   6.176  0.2211 -0.6514 -0.0326
 8981SOL    HW238577   2.734   4.571   6.310 -1.6919  0.3152  1.7476
 8982SOL     OW38578   3.171   0.919  12.354  0.0387 -0.2516 -0.2382
 8982SOL    HW138579   3.165   1.007  12.392 -1.2310 -0.2920 -0.3596
 8982SOL    HW238580   3.121   0.938  12.275  0.8074 -0.2422 -0.7237
 8983SOL     OW38581   1.750   0.563   8.914  0.1155 -0.6660  0.0826
 8983SOL    HW138582   1.753   0.546   9.008 -1.2179  0.0512  0.2544
 8983SOL    HW238583   1.774   0.477   8.881 -1.3566 -1.3766  0.8640
 8984SOL     OW38584   1.115   1.590  13.306  0.6870  0.6117 -0.4303
 8984SOL    HW138585   1.023   1.570  13.326  1.0070  1.8040  2.2777
 8984SOL    HW238586   1.160   1.559  13.384  0.4061  0.6507 -0.2515
 8985SOL     OW38587   4.172   2.609   7.136  0.0650  0.7117  0.1484
 8985SOL    HW138588   4.257   2.644   7.164  0.1555  0.4128  0.2467
 8985SOL    HW238589   4.183   2.521   7.173  1.2147  0.8589  0.1672
 8986SOL     OW38590   1.565   3.471  17.388 -0.3852  0.0572 -0.1061
 8986SOL    HW138591   1.619   3.550  17.384 -0.8464  0.4168  0.6579
 8986SOL    HW238592   1.572   3.435  17.300  0.3177  0.8798 -0.3968
 8987SOL     OW38593   4.473   2.216   0.133 -0.8047 -0.3625 -0.3242
 8987SOL    HW138594   4.465   2.127   0.098 -1.2811 -0.9534  1.2950
 8987SOL    HW238595   4.521   2.209   0.216 -0.7223 -0.1779 -0.3566
 8988SOL     OW38596   0.236   0.218  15.710 -0.1820 -0.2312 -0.4932
 8988SOL    HW138597   0.224   0.200  15.803 -2.3720  2.5837 -0.2491
 8988SOL    HW238598   0.332   0.211  15.710 -0.0249  1.8423  3.0901
 8989SOL     OW38599   1.395   1.225  13.130  0.2312 -0.2087 -0.0560
 8989SOL    HW138600   1.345   1.164  13.183 -0.7390  1.3154  0.7800
 8989SOL    HW238601   1.458   1.242  13.200  0.2413 -0.0674 -0.0995
 8990SOL     OW38602   1.820   0.164   5.407  0.0138 -0.1207  0.2441
 8990SOL    HW138603   1.871   0.178   5.328  0.2561 -0.5936  0.3114
 8990SOL    HW238604   1.769   0.086   5.382 -0.0784 -0.1354  0.4761
 8991SOL     OW38605   3.980   2.869  16.611  0.1097 -0.0223  0.1569
 8991SOL    HW138606   3.982   2.871  16.515 -1.6426 -1.3089  0.1055
 8991SOL    HW238607   4.069   2.900  16.630  0.1722 -1.3934  2.1475
 8992SOL     OW38608   3.281   3.525   2.866  0.4693  0.4703 -0.3990
 8992SOL    HW138609   3.197   3.492   2.898  0.5139  0.5561 -0.1961
 8992SOL    HW238610   3.349   3.516   2.933  1.2128 -0.3510 -1.2638
 8993SOL     OW38611   1.255   1.738   5.335 -0.1578 -0.2848  0.2369
 8993SOL    HW138612   1.245   1.815   5.391  0.0697  0.2028 -0.3923
 8993SOL    HW238613   1.201   1.765   5.261  2.1197  0.7821 -1.0384
 8994SOL     OW38614   4.691   1.772   1.709 -0.4799  0.4226 -0.1609
 8994SOL    HW138615   4.731   1.790   1.794 -0.4948 -2.5864  0.4706
 8994SOL    HW238616   4.695   1.677   1.700  1.1897  0.5916 -1.3257
 8995SOL     OW38617   3.187   0.565  13.256 -0.3308 -0.2573  0.8298
 8995SOL    HW138618   3.092   0.576  13.256 -0.5052 -1.7175 -0.4249
 8995SOL    HW238619   3.203   0.554  13.163  2.1155 -0.7018  1.2980
 8996SOL     OW38620   0.677   2.943  13.304  0.1189  0.1772 -0.1192
 8996SOL    HW138621   0.708   2.852  13.309 -1.4250 -0.2782  1.2340
 8996SOL    HW238622   0.759   2.990  13.293  0.4941 -0.7944 -1.4460
 8997SOL     OW38623   0.683   2.459  14.671 -0.5111  0.0958 -0.3303
 8997SOL    HW138624   0.628   2.467  14.749  2.7029  3.1610  1.6244
 8997SOL    HW238625   0.624   2.451  14.596  0.1833 -1.4047 -0.7273
 8998SOL     OW38626   1.396   1.756   9.594  0.2335 -0.5123 -0.1944
 8998SOL    HW138627   1.361   1.711   9.671  2.2999  0.1127  1.1082
 8998SOL    HW238628   1.467   1.811   9.627 -0.7939  1.2513 -0.8967
 8999SOL     OW38629   1.466   2.470   1.941 -0.1340  0.0544  0.1105
 8999SOL    HW138630   1.479   2.387   1.895  0.9755  1.7561 -2.6542
 8999SOL    HW238631   1.538   2.472   2.005 -0.5103 -0.4008  0.5448
 9000SOL     OW38632   2.818   1.169  17.425  0.3086  0.9765  0.0534
 9000SOL    HW138633   2.854   1.254  17.448  0.4133  0.3248  2.2685
 9000SOL    HW238634   2.780   1.186  17.338  0.6455 -1.0655 -0.4977
 9001SOL     OW38635   1.781   0.387  17.692  0.3114 -0.0215 -0.3434
 9001SOL    HW138636   1.753   0.363   0.021  1.1581  1.6334  0.3795
 9001SOL    HW238637   1.713   0.350  17.636 -2.2293  0.7882  2.1396
 9002SOL     OW38638   0.789   1.677   0.443  0.4845  1.3863 -0.1648
 9002SOL    HW138639   0.776   1.587   0.414  1.4126  0.9385  0.7836
 9002SOL    HW238640   0.759   1.725   0.366 -3.6360 -1.1572 -0.1067
 9003SOL     OW38641   0.520   0.184   2.302 -0.3048 -0.5641  0.0281
 9003SOL    HW138642   0.613   0.202   2.289  0.1371 -2.7754  0.1706
 9003SOL    HW238643   0.474   0.268   2.300 -1.6126 -1.2271  1.9642
 9004SOL     OW38644   0.741   0.286   8.539  0.4609  0.0343 -0.3212
 9004SOL    HW138645   0.713   0.243   8.619  0.5876  0.1147 -0.2335
 9004SOL    HW238646   0.798   0.349   8.583  0.1201  1.4143 -1.8409
 9005SOL     OW38647   2.301   1.862   5.078 -0.7571 -0.8734 -0.0810
 9005SOL    HW138648   2.287   1.955   5.095  0.0428 -1.1747  2.1730
 9005SOL    HW238649   2.362   1.865   5.003 -0.3961 -1.1565  0.1992
 9006SOL     OW38650   3.831   1.554   2.750  0.0601 -0.1038 -0.4205
 9006SOL    HW138651   3.752   1.597   2.717 -0.1439 -0.4850 -0.4263
 9006SOL    HW238652   3.838   1.479   2.691 -3.5469 -0.1333 -0.8397
 9007SOL     OW38653   0.274   0.287  10.505  0.5623 -0.6011  0.7251
 9007SOL    HW138654   0.273   0.377  10.471 -0.9638  0.1299  2.7243
 9007SOL    HW238655   0.333   0.252  10.439 -0.6030 -1.1761 -0.0018
 9008SOL     OW38656   0.039   2.867  17.389 -0.0813  0.4646  0.0620
 9008SOL    HW138657   4.687   2.842  17.391  0.6211 -2.1073  0.8459
 9008SOL    HW238658   0.031   2.955  17.353  0.0189  0.3952 -0.1251
 9009SOL     OW38659   2.841   1.613   3.207 -0.1204 -0.2011  0.4310
 9009SOL    HW138660   2.772   1.602   3.272  2.4245 -2.4078  2.7521
 9009SOL    HW238661   2.905   1.654   3.266 -0.0794 -0.6033  0.6644
 9010SOL     OW38662   3.282   2.567   6.702  0.5420  0.0895  0.2062
 9010SOL    HW138663   3.245   2.652   6.724  1.2611  0.8756 -1.5745
 9010SOL    HW238664   3.318   2.585   6.615 -3.0083  1.9050 -0.8955
 9011SOL     OW38665   4.247   1.230   0.919 -0.4534  0.0875  0.4578
 9011SOL    HW138666   4.321   1.232   0.858 -0.0765 -0.7003  0.8944
 9011SOL    HW238667   4.292   1.292   0.977  0.4401  0.3953 -0.5650
 9012SOL     OW38668   1.761   3.520   6.193  0.2632 -0.1471  0.3641
 9012SOL    HW138669   1.755   3.565   6.277 -2.3698 -1.1560  0.7402
 9012SOL    HW238670   1.667   3.503   6.191 -0.0364  1.6902 -1.6505
 9013SOL     OW38671   2.248   1.149   1.994  0.4023 -0.0551  0.1744
 9013SOL    HW138672   2.264   1.155   2.088  0.0765 -0.9907  0.2862
 9013SOL    HW238673   2.295   1.069   1.970 -0.8597 -0.0467 -2.3395
 9014SOL     OW38674   2.846   4.107   2.746 -0.1003  0.8355 -0.4724
 9014SOL    HW138675   2.875   4.019   2.721  1.4846  1.4164 -0.7187
 9014SOL    HW238676   2.817   4.144   2.663 -0.1167  1.7421 -0.0632
 9015SOL     OW38677   0.081   1.212  17.276  0.6192  0.3513  0.8761
 9015SOL    HW138678   4.739   1.236  17.235 -0.1465 -1.3474  1.4516
 9015SOL    HW238679   0.147   1.215  17.206  0.2241 -1.4510  0.4266
 9016SOL     OW38680   2.101   2.405   7.557 -0.2029 -0.1186 -0.9196
 9016SOL    HW138681   2.151   2.458   7.495 -1.3363  0.5865 -1.2311
 9016SOL    HW238682   2.096   2.331   7.496 -0.6466 -1.5590  0.8565
 9017SOL     OW38683   0.457   4.653   0.747 -0.2246  0.8145  0.4237
 9017SOL    HW138684   0.510   4.583   0.786 -3.7093 -1.6971  0.7082
 9017SOL    HW238685   0.374   4.616   0.777 -0.0920  0.3890  0.2720
 9018SOL     OW38686   4.618   0.654   8.042 -0.0563  0.1433 -0.1695
 9018SOL    HW138687   4.668   0.614   7.972 -0.4256  0.0925 -0.4040
 9018SOL    HW238688   4.675   0.627   8.114  0.5111 -0.2632 -0.7786
 9019SOL     OW38689   4.483   1.329   2.447  0.1414 -0.0401 -0.3586
 9019SOL    HW138690   4.395   1.300   2.421  0.5567 -1.3024 -0.3362
 9019SOL    HW238691   4.527   1.245   2.456  1.5180  0.8558  1.4070
 9020SOL     OW38692   2.851   1.871   8.746  0.1677  0.5781 -0.2730
 9020SOL    HW138693   2.760   1.872   8.774 -1.0405 -2.1206 -3.9784
 9020SOL    HW238694   2.878   1.810   8.815 -2.4345  1.6191  1.6404
 9021SOL     OW38695   1.621   2.725   1.931 -0.2569  0.2579  0.5290
 9021SOL    HW138696   1.551   2.790   1.938 -0.5946 -0.0764  0.2590
 9021SOL    HW238697   1.568   2.647   1.914 -0.7498  0.4581  1.1585
 9022SOL     OW38698   3.246   1.414   8.926 -0.4653  0.1313  0.6963
 9022SOL    HW138699   3.258   1.392   9.019 -1.8859 -1.6538  0.4573
 9022SOL    HW238700   3.175   1.354   8.907 -0.7592  0.7491 -0.1430
 9023SOL     OW38701   3.118   3.206   6.036  0.1248 -0.3557  0.2426
 9023SOL    HW138702   3.117   3.171   5.947  0.6387  0.4661 -0.0861
 9023SOL    HW238703   3.092   3.125   6.080  0.3740 -0.4996  0.1258
 9024SOL     OW38704   1.010   4.621   4.057 -0.5299  0.6055 -0.1212
 9024SOL    HW138705   1.092   4.573   4.054 -0.1403  1.3213 -0.7503
 9024SOL    HW238706   0.982   4.582   4.140 -2.8689  0.0942 -1.1425
 9025SOL     OW38707   1.093   0.590  15.044 -0.7689  0.4603 -0.1070
 9025SOL    HW138708   1.011   0.546  15.021 -0.9062  0.5670  0.1709
 9025SOL    HW238709   1.089   0.681  15.015 -0.8520  0.4469 -0.1373
 9026SOL     OW38710   2.515   1.168  13.049 -0.1553  0.1466 -0.5993
 9026SOL    HW138711   2.478   1.189  12.964  1.3199  2.8165 -0.5832
 9026SOL    HW238712   2.452   1.106  13.086 -0.7217  0.7068 -0.6157
 9027SOL     OW38713   3.641   3.142  17.555  0.2298 -0.4014 -0.2768
 9027SOL    HW138714   3.703   3.073  17.579 -0.7019 -2.0608 -2.6948
 9027SOL    HW238715   3.661   3.140  17.461  2.0792 -0.5698  0.1083
 9028SOL     OW38716   0.319   3.713  16.824  0.3961 -0.6179 -0.2800
 9028SOL    HW138717   0.362   3.692  16.907 -0.7395  0.1456  0.4929
 9028SOL    HW238718   0.238   3.663  16.833 -0.3785  0.7169  0.1866
 9029SOL     OW38719   1.972   2.718   4.355 -0.3210  0.2599  0.0240
 9029SOL    HW138720   1.893   2.664   4.349 -1.4517  1.7729  1.3815
 9029SOL    HW238721   1.939   2.788   4.298  0.9959  2.5335  2.0719
 9030SOL     OW38722   0.028   0.264   1.243  0.0552  0.3283  0.4131
 9030SOL    HW138723   0.060   0.201   1.179  1.0351  0.6571  0.5705
 9030SOL    HW238724   0.037   0.210   1.321  0.0677 -0.9696 -0.5013
 9031SOL     OW38725   0.180   0.796   7.280  0.3641 -0.7200 -0.1261
 9031SOL    HW138726   0.246   0.836   7.336  1.6101  1.1269 -2.9240
 9031SOL    HW238727   0.145   0.729   7.339 -1.3371  0.3355  0.0342
 9032SOL     OW38728   0.755   3.062   4.923 -0.3612 -0.1693  0.2716
 9032SOL    HW138729   0.707   3.116   4.985  1.3479  0.0841  1.3761
 9032SOL    HW238730   0.690   2.997   4.898 -0.2925 -0.4350  0.7931
 9033SOL     OW38731   0.049   0.504   7.906 -0.2861  0.2240  0.4181
 9033SOL    HW138732   0.043   0.441   7.834  0.5892 -0.9772  1.3954
 9033SOL    HW238733   0.141   0.513   7.930 -0.1821 -0.8995  0.4143
 9034SOL     OW38734   3.585   2.326   1.385  0.3884  0.0963 -0.4457
 9034SOL    HW138735   3.640   2.399   1.411 -0.2376 -0.3423  2.1178
 9034SOL    HW238736   3.652   2.262   1.361  2.0929  1.5298  0.4925
 9035SOL     OW38737   0.037   3.391   4.455 -0.5577 -0.4537 -0.6845
 9035SOL    HW138738   4.698   3.371   4.406 -1.1904 -2.8548  1.2769
 9035SOL    HW238739   0.016   3.473   4.500  1.1464  0.4833 -1.6190
 9036SOL     OW38740   3.108   3.356   7.892 -0.3552 -0.1537 -0.3027
 9036SOL    HW138741   3.031   3.328   7.843 -1.9958  0.8364  1.6768
 9036SOL    HW238742   3.162   3.383   7.818 -2.4693  1.7048 -1.1669
 9037SOL     OW38743   1.443   0.585   8.109 -0.0782 -0.2833  0.4005
 9037SOL    HW138744   1.422   0.493   8.129 -0.0554 -0.1928  0.8411
 9037SOL    HW238745   1.535   0.577   8.137  0.2361  2.4227  0.1088
 9038SOL     OW38746   4.062   4.486  12.527  0.9888 -0.0390  1.0516
 9038SOL    HW138747   4.100   4.554  12.472  1.2999 -0.2101  1.0559
 9038SOL    HW238748   3.997   4.531  12.581  0.7609  0.5731  0.2536
 9039SOL     OW38749   3.633   2.547   0.343  0.0165 -0.2124 -0.0081
 9039SOL    HW138750   3.621   2.472   0.402  2.5072 -0.7428 -0.1710
 9039SOL    HW238751   3.631   2.615   0.410 -0.7084  0.9663 -1.2292
 9040SOL     OW38752   4.584   1.760   4.956  0.1734  0.5194  0.2912
 9040SOL    HW138753   4.496   1.770   4.992  0.3809  0.0806  0.9188
 9040SOL    HW238754   4.568   1.679   4.908 -1.1369  1.1401 -0.3309
 9041SOL     OW38755   1.056   0.179   9.519  0.4418 -0.1430  0.7842
 9041SOL    HW138756   0.979   0.133   9.484  0.7826  0.7133 -1.0492
 9041SOL    HW238757   1.067   0.141   9.607 -0.3990 -0.3744  0.7955
 9042SOL     OW38758   4.150   4.018   7.480  0.6382 -0.9156  0.4976
 9042SOL    HW138759   4.141   3.975   7.395 -0.5572 -1.8640  1.1061
 9042SOL    HW238760   4.186   4.104   7.456 -0.3185 -1.1822 -1.8844
 9043SOL     OW38761   4.631   2.715   8.341 -0.4164 -0.4205 -0.2942
 9043SOL    HW138762   4.630   2.619   8.342  1.3743 -0.4311 -0.3133
 9043SOL    HW238763   4.650   2.726   8.435  2.4441 -2.0909 -0.6867
 9044SOL     OW38764   1.516   4.154   3.191  0.2349  0.0168 -0.0912
 9044SOL    HW138765   1.540   4.242   3.163  3.7627 -1.1993 -0.9566
 9044SOL    HW238766   1.460   4.175   3.265 -0.2890 -1.3945 -0.0745
 9045SOL     OW38767   1.252   4.062   4.248  0.2304 -0.0723  0.3645
 9045SOL    HW138768   1.198   3.987   4.271 -1.5414  1.2632  0.5838
 9045SOL    HW238769   1.220   4.132   4.304 -0.5128 -0.4516  0.4073
 9046SOL     OW38770   4.299   2.953   1.828  0.1847 -0.4755 -0.1685
 9046SOL    HW138771   4.251   3.005   1.891  0.7282  1.6204 -1.4686
 9046SOL    HW238772   4.226   2.908   1.786  0.9697 -0.8081 -1.1990
 9047SOL     OW38773   2.951   0.663   3.052  0.4564 -0.6545 -0.6313
 9047SOL    HW138774   2.924   0.581   3.010 -0.0750 -2.9860  4.2651
 9047SOL    HW238775   2.875   0.718   3.033 -0.2392 -1.1743  0.6393
 9048SOL     OW38776   2.738   1.458   8.104  0.1951  0.5608 -0.4954
 9048SOL    HW138777   2.692   1.399   8.164 -0.4781 -0.3135 -1.8524
 9048SOL    HW238778   2.780   1.520   8.164  0.5161  0.5311 -0.6911
 9049SOL     OW38779   2.405   1.375   2.705  0.1644 -0.2030 -0.0847
 9049SOL    HW138780   2.424   1.467   2.722 -0.4922 -0.9989  4.8544
 9049SOL    HW238781   2.331   1.359   2.765  1.0499  1.8142  1.5236
 9050SOL     OW38782   2.656   2.499   7.172  0.2388  0.0649  0.1217
 9050SOL    HW138783   2.679   2.422   7.120 -3.3670 -0.6858 -0.3370
 9050SOL    HW238784   2.703   2.476   7.253 -0.7196  2.3610  1.3313
 9051SOL     OW38785   1.646   1.881   7.055  0.3488  0.1461 -0.6653
 9051SOL    HW138786   1.595   1.867   7.134 -0.2109  0.7551 -0.9192
 9051SOL    HW238787   1.707   1.941   7.097  1.4201 -0.4135 -1.4235
 9052SOL     OW38788   2.112   4.272   3.635  0.2389 -0.2485 -0.0071
 9052SOL    HW138789   2.190   4.227   3.601 -0.4571 -0.1777 -1.6834
 9052SOL    HW238790   2.073   4.294   3.550 -2.2378  0.5365  1.3529
 9053SOL     OW38791   4.445   2.413   7.194 -0.0448 -0.0061 -0.1799
 9053SOL    HW138792   4.435   2.335   7.248  0.0182  1.0198  1.3257
 9053SOL    HW238793   4.414   2.481   7.255  1.1985  0.4915 -0.1187
 9054SOL     OW38794   4.711   4.644   7.990 -0.7839  0.0037 -0.3625
 9054SOL    HW138795   4.674   4.624   8.076 -1.0973  0.8958 -0.2883
 9054SOL    HW238796   4.734   4.736   7.980  1.4038 -0.5765 -0.7213
 9055SOL     OW38797   1.570   2.218   8.716  0.9927 -0.0327  0.1100
 9055SOL    HW138798   1.649   2.173   8.746  0.3733 -0.4644  1.0878
 9055SOL    HW238799   1.594   2.244   8.627  1.1961 -0.9963 -0.1162
 9056SOL     OW38800   3.615   1.466   2.261 -0.1455  0.4519 -0.2329
 9056SOL    HW138801   3.633   1.485   2.169  0.4559 -0.0921 -0.2276
 9056SOL    HW238802   3.639   1.374   2.269 -2.1071  0.0712  1.3574
 9057SOL     OW38803   3.766   0.984   6.265 -0.6749  0.1254 -0.4665
 9057SOL    HW138804   3.826   0.978   6.191  0.5311 -0.3353  0.5544
 9057SOL    HW238805   3.831   0.999   6.334 -1.1428  1.8488 -0.3934
 9058SOL     OW38806   4.165   3.976   9.355  0.5571  0.3446 -1.0141
 9058SOL    HW138807   4.224   3.945   9.286 -1.0618  0.7085 -2.5538
 9058SOL    HW238808   4.172   4.068   9.332 -0.7416  0.4302 -1.0326
 9059SOL     OW38809   2.351   1.691   6.234  0.1042 -0.0101 -0.0118
 9059SOL    HW138810   2.264   1.685   6.194 -0.3904  0.0271  1.0584
 9059SOL    HW238811   2.403   1.666   6.158  0.1757 -0.8364  0.3152
 9060SOL     OW38812   0.433   2.174   2.283 -0.2597 -0.7888  0.4106
 9060SOL    HW138813   0.525   2.183   2.307  0.0874  0.4876 -1.3934
 9060SOL    HW238814   0.424   2.079   2.277  1.4006 -0.7958 -1.9344
 9061SOL     OW38815   0.921   1.749   8.086 -0.5772 -0.0224 -0.4475
 9061SOL    HW138816   0.875   1.665   8.082 -0.7567  0.2745 -4.2985
 9061SOL    HW238817   1.012   1.719   8.088 -0.8730 -0.9231 -0.4175
 9062SOL     OW38818   4.521   0.016   8.297 -0.2549  0.2682  0.1628
 9062SOL    HW138819   4.527   4.671   8.254 -0.9956  1.3257 -2.0458
 9062SOL    HW238820   4.442   0.061   8.266 -1.4828 -0.8241  1.6571
 9063SOL     OW38821   3.816   2.117  14.425  0.1730 -0.3611  0.2121
 9063SOL    HW138822   3.801   2.023  14.436 -1.8726 -0.0617 -0.0435
 9063SOL    HW238823   3.888   2.111  14.363  1.0486 -1.5080  1.3403
 9064SOL     OW38824   3.362   0.656   3.388  0.1436  0.0178 -0.1772
 9064SOL    HW138825   3.278   0.674   3.346  0.4120  0.3766 -0.5584
 9064SOL    HW238826   3.354   0.561   3.393  0.2842  0.0835  1.2651
 9065SOL     OW38827   4.725   4.462   6.910 -0.3986 -0.3289 -0.4183
 9065SOL    HW138828   4.659   4.521   6.948  1.2678  0.4755  1.2540
 9065SOL    HW238829   0.011   4.428   6.995  0.8264  0.8497 -0.3259
 9066SOL     OW38830   1.282   0.093  12.422 -0.2914  0.1452 -0.7274
 9066SOL    HW138831   1.250   0.125  12.337  0.2639  0.9011 -0.6535
 9066SOL    HW238832   1.338   0.168  12.444 -0.9185  0.8580 -1.5500
 9067SOL     OW38833   1.735   2.334  12.287 -0.0766 -0.0419 -0.1586
 9067SOL    HW138834   1.724   2.239  12.292  1.6765 -0.1991  0.6533
 9067SOL    HW238835   1.653   2.360  12.244 -0.4029 -0.2519  0.3435
 9068SOL     OW38836   2.131   1.030  10.294  0.0878  0.0935  0.6405
 9068SOL    HW138837   2.038   1.006  10.290  0.5145 -1.9544  2.7363
 9068SOL    HW238838   2.146   1.065  10.382  0.6249  1.5222 -0.0195
 9069SOL     OW38839   0.214   2.321  17.555  0.2791 -0.0066  0.2876
 9069SOL    HW138840   0.167   2.401  17.534 -0.1335 -0.5706 -0.9543
 9069SOL    HW238841   0.165   2.253  17.508 -2.2189  0.2293  2.5844
 9070SOL     OW38842   4.653   0.729   9.161  0.0850 -0.8763  0.3786
 9070SOL    HW138843   4.618   0.818   9.153  1.8291 -0.2379 -0.0535
 9070SOL    HW238844   4.703   0.743   9.241 -1.5296 -0.2495  1.2872
 9071SOL     OW38845   1.419   0.592   1.277 -0.6373  0.3061 -0.6269
 9071SOL    HW138846   1.364   0.519   1.308 -1.4146  0.2634 -2.1083
 9071SOL    HW238847   1.447   0.553   1.194  0.8300 -1.1113  0.5176
 9072SOL     OW38848   1.233   1.051   8.073  0.4027 -0.0357  0.1246
 9072SOL    HW138849   1.249   1.057   8.167 -0.6203 -1.8201  0.4004
 9072SOL    HW238850   1.234   0.955   8.070 -2.8647 -0.0120 -1.0213
 9073SOL     OW38851   1.793   3.909   4.391 -0.3144 -0.6179  0.7929
 9073SOL    HW138852   1.864   3.972   4.384 -1.2936  0.5404  1.3348
 9073SOL    HW238853   1.708   3.952   4.384 -0.1573 -0.2703  1.0322
 9074SOL     OW38854   2.382   3.556   8.595 -0.5324  0.9920  0.0947
 9074SOL    HW138855   2.301   3.562   8.544 -0.5090 -1.0694 -0.2080
 9074SOL    HW238856   2.438   3.605   8.535 -1.1047 -0.9615 -2.0159
 9075SOL     OW38857   0.986   1.885   2.803 -0.4198 -0.7462  0.2974
 9075SOL    HW138858   0.893   1.896   2.822 -0.4583 -0.5229 -0.0220
 9075SOL    HW238859   0.987   1.790   2.800 -1.9848 -0.7953  1.3606
 9076SOL     OW38860   1.451   3.934   3.052  0.0052 -0.2938 -0.1658
 9076SOL    HW138861   1.511   3.928   2.978  0.0327  0.0850 -0.1718
 9076SOL    HW238862   1.461   4.023   3.085  1.6086 -0.5290  0.0012
 9077SOL     OW38863   1.821   4.516   7.059 -0.3917  0.4812 -0.0370
 9077SOL    HW138864   1.733   4.478   7.050 -0.5656  0.7612  0.4592
 9077SOL    HW238865   1.870   4.445   7.101 -0.8178 -0.3186 -0.8954
 9078SOL     OW38866   0.783   3.304   2.896 -0.0707 -0.6193 -0.3687
 9078SOL    HW138867   0.868   3.286   2.937 -0.6144 -0.8363  0.6730
 9078SOL    HW238868   0.792   3.259   2.813  1.3161  0.8457 -1.0210
 9079SOL     OW38869   3.771   2.118   1.390  0.7242  0.1515 -0.3669
 9079SOL    HW138870   3.852   2.120   1.440  1.0814  0.2311 -0.9410
 9079SOL    HW238871   3.785   2.037   1.342 -0.7255 -0.9811  1.1549
 9080SOL     OW38872   3.861   2.577   6.089 -0.3579 -0.2141  0.3070
 9080SOL    HW138873   3.952   2.550   6.099 -0.4723 -1.0582 -0.9640
 9080SOL    HW238874   3.819   2.509   6.036 -0.3010 -1.9234  2.4490
 9081SOL     OW38875   1.014   0.863   3.987  0.1481 -0.1048  0.6472
 9081SOL    HW138876   0.923   0.876   4.013 -0.2166 -0.8539 -0.2860
 9081SOL    HW238877   1.036   0.790   4.046 -0.0715 -0.5459  0.1810
 9082SOL     OW38878   4.167   3.282  14.819 -0.0128 -0.1027 -0.1812
 9082SOL    HW138879   4.204   3.255  14.903 -3.0517 -0.5401  1.0048
 9082SOL    HW238880   4.113   3.356  14.844  1.1421  1.1283 -1.3294
 9083SOL     OW38881   4.298   2.490   8.896  0.2043  0.0336  0.0832
 9083SOL    HW138882   4.282   2.539   8.816  2.3534  2.7113  1.2728
 9083SOL    HW238883   4.290   2.399   8.867 -0.6879  0.2953 -0.4971
 9084SOL     OW38884   2.572   3.000  17.385  0.1568  0.1862 -0.2257
 9084SOL    HW138885   2.482   3.018  17.412  0.1282  1.1460 -0.9597
 9084SOL    HW238886   2.625   3.069  17.425  0.3293  0.4223 -0.8638
 9085SOL     OW38887   1.634   3.851   9.378  0.6139 -0.1904  0.0553
 9085SOL    HW138888   1.641   3.934   9.331 -0.7364 -0.0560  0.1047
 9085SOL    HW238889   1.551   3.813   9.350 -0.6162  2.6363 -0.0672
 9086SOL     OW38890   1.443   2.487  14.275  0.1651 -0.1700 -0.3931
 9086SOL    HW138891   1.358   2.528  14.254 -0.0180 -3.0506 -5.4115
 9086SOL    HW238892   1.460   2.527  14.360  3.4527 -1.6242 -0.3802
 9087SOL     OW38893   3.387   4.507   7.966 -0.2296 -0.3245 -0.2424
 9087SOL    HW138894   3.352   4.491   8.053 -0.3296  1.0466 -0.0363
 9087SOL    HW238895   3.352   4.428   7.926  1.1488 -1.6831  1.2440
 9088SOL     OW38896   1.984   3.441   4.981  0.0231 -0.0420  0.6203
 9088SOL    HW138897   1.919   3.382   5.020 -0.2776  0.5883  1.0668
 9088SOL    HW238898   2.059   3.382   4.974 -1.3815 -1.7463 -0.1169
 9089SOL     OW38899   0.400   1.160  17.098  0.1846 -0.8474  0.2767
 9089SOL    HW138900   0.325   1.133  17.045 -0.6210  1.7079  0.1029
 9089SOL    HW238901   0.469   1.098  17.076  0.2541 -0.3807 -0.8148
 9090SOL     OW38902   4.038   0.651   9.783 -0.8683  0.2185  0.4552
 9090SOL    HW138903   4.037   0.747   9.778 -3.2097  0.0639 -1.8028
 9090SOL    HW238904   4.033   0.636   9.877  1.0543  1.5722  0.7804
 9091SOL     OW38905   2.234   3.960   3.638 -0.1756  0.4746 -0.1481
 9091SOL    HW138906   2.254   3.947   3.731  0.3050 -1.0134 -0.4644
 9091SOL    HW238907   2.304   4.015   3.603  0.1877 -0.0644 -0.2607
 9092SOL     OW38908   3.800   1.842   6.691 -1.3417  0.3812 -0.4381
 9092SOL    HW138909   3.829   1.929   6.717 -0.9988  0.4916 -1.2060
 9092SOL    HW238910   3.714   1.834   6.733 -0.7938  0.7793  0.7722
 9093SOL     OW38911   1.188   0.374   5.349  0.0415 -0.2346 -0.1118
 9093SOL    HW138912   1.094   0.360   5.365 -0.3580 -0.2968 -2.5497
 9093SOL    HW238913   1.239   0.312   5.402 -3.1202 -0.6162  2.5219
 9094SOL     OW38914   3.601   3.380   8.641  0.0339  0.2360  0.6071
 9094SOL    HW138915   3.584   3.456   8.698 -3.0188 -0.8398  1.1117
 9094SOL    HW238916   3.643   3.329   8.710 -1.0260  1.9598  2.5502
 9095SOL     OW38917   3.192   2.606  14.685 -0.6564 -0.1606 -0.1102
 9095SOL    HW138918   3.181   2.640  14.774  2.3443  0.4600  0.0225
 9095SOL    HW238919   3.255   2.534  14.690  0.2397  0.5437 -1.4068
 9096SOL     OW38920   3.873   2.516   4.131  0.0163 -0.3369  0.2752
 9096SOL    HW138921   3.854   2.488   4.042 -0.1660 -0.4639  0.3531
 9096SOL    HW238922   3.881   2.611   4.130  0.1653 -0.3350  1.1169
 9097SOL     OW38923   3.666   3.307   9.025  0.3049 -0.0367  0.2521
 9097SOL    HW138924   3.588   3.338   9.071 -1.2318 -0.4871 -2.0568
 9097SOL    HW238925   3.720   3.380   9.054 -0.8921  0.5244  1.0615
 9098SOL     OW38926   1.358   0.394  11.333 -0.2450 -0.9040  0.0160
 9098SOL    HW138927   1.445   0.374  11.297 -1.5221 -3.6364 -1.5556
 9098SOL    HW238928   1.369   0.382  11.427 -1.5530  2.2005  0.5415
 9099SOL     OW38929   0.018   2.643   1.497  0.0137  0.4816 -0.2000
 9099SOL    HW138930   0.052   2.567   1.546  0.7326 -0.7793 -2.6215
 9099SOL    HW238931   4.669   2.650   1.528  0.2838  0.3205  0.6353
 9100SOL     OW38932   3.218   0.583   5.853  0.0079 -0.1801  0.1027
 9100SOL    HW138933   3.269   0.641   5.908  0.9813  0.5833 -1.6038
 9100SOL    HW238934   3.283   0.524   5.815  0.1871  0.4094 -0.5136
 9101SOL     OW38935   2.606   0.138   6.367  0.0380 -0.3784  0.5052
 9101SOL    HW138936   2.643   0.053   6.342 -0.2942 -0.1096 -0.8506
 9101SOL    HW238937   2.689   0.185   6.376 -0.0259 -0.4019  1.2543
 9102SOL     OW38938   3.120   3.644   3.340 -0.4411  0.2455 -0.0528
 9102SOL    HW138939   3.144   3.574   3.279  1.1713 -1.0108  2.0206
 9102SOL    HW238940   3.035   3.606   3.360 -0.5893  0.9619  0.6999
 9103SOL     OW38941   0.617   0.763   6.995  0.0038 -0.3171  0.0977
 9103SOL    HW138942   0.656   0.676   6.999  0.1867 -0.2243  0.2905
 9103SOL    HW238943   0.530   0.739   6.963 -0.3956 -0.7397  1.5373
 9104SOL     OW38944   1.808   0.081   2.664 -0.2415 -0.2069 -0.2931
 9104SOL    HW138945   1.752   0.080   2.741  0.8068  2.6443  0.4962
 9104SOL    HW238946   1.886   0.128   2.695 -0.3270  0.9760 -1.8344
 9105SOL     OW38947   1.578   1.148   5.952 -0.2739 -0.0408 -0.0031
 9105SOL    HW138948   1.539   1.077   5.901 -1.1891 -0.1432  0.8429
 9105SOL    HW238949   1.610   1.199   5.878 -2.4861 -0.5427 -1.3188
 9106SOL     OW38950   2.808   3.174   5.157 -0.3656  0.3548 -0.2240
 9106SOL    HW138951   2.830   3.206   5.069  3.8656  0.5274  0.9281
 9106SOL    HW238952   2.713   3.185   5.146 -0.6164  1.1644  2.8136
 9107SOL     OW38953   0.249   1.221  10.948  0.5439  0.1524  0.3296
 9107SOL    HW138954   0.205   1.300  10.979  1.4896  0.4444  0.9045
 9107SOL    HW238955   0.194   1.161  10.997  0.3060 -0.8644 -1.1837
 9108SOL     OW38956   3.209   1.592   1.499 -0.3588  0.3787 -0.3128
 9108SOL    HW138957   3.180   1.683   1.495 -2.7091 -0.3178  1.2466
 9108SOL    HW238958   3.126   1.545   1.505  0.8136 -1.5213  0.9314
 9109SOL     OW38959   1.980   0.797   8.640 -0.1877 -0.7590  0.2434
 9109SOL    HW138960   2.042   0.830   8.575 -0.4813  1.4585  1.1175
 9109SOL    HW238961   1.955   0.881   8.678 -1.4607 -0.8746 -0.3451
 9110SOL     OW38962   0.225   1.088  13.346  0.1963  0.1223  0.1979
 9110SOL    HW138963   0.255   1.175  13.323 -0.0540 -0.5632 -2.6723
 9110SOL    HW238964   0.299   1.060  13.400 -0.6783  0.6164  1.6458
 9111SOL     OW38965   4.734   0.393   5.069 -0.1597 -0.0626  0.0228
 9111SOL    HW138966   0.055   0.391   5.141  0.5910  1.6119 -0.5918
 9111SOL    HW238967   4.698   0.304   5.078 -2.3055  0.7920 -0.1264
 9112SOL     OW38968   0.080   0.268   2.390 -0.3254 -0.0952 -0.6129
 9112SOL    HW138969   0.104   0.213   2.464 -0.9036  2.3822  1.4368
 9112SOL    HW238970   0.032   0.336   2.438 -0.9262 -1.0469  0.1286
 9113SOL     OW38971   2.600   3.288   6.721  0.3298  0.2326  0.1346
 9113SOL    HW138972   2.567   3.376   6.702  1.7483  0.8622  0.5654
 9113SOL    HW238973   2.561   3.244   6.646 -0.3242  0.9509  0.0536
 9114SOL     OW38974   2.163   0.100   7.408  0.1937  0.2756 -0.0304
 9114SOL    HW138975   2.194   0.011   7.392 -3.6149 -0.7200 -1.6777
 9114SOL    HW238976   2.080   0.079   7.451  0.7612  0.3167  1.0923
 9115SOL     OW38977   1.816   2.725   0.533 -0.1753  0.0721 -0.0898
 9115SOL    HW138978   1.895   2.764   0.570 -0.1961  0.0012  0.0302
 9115SOL    HW238979   1.763   2.744   0.611  0.2953  0.9220  0.0263
 9116SOL     OW38980   0.955   3.683   5.725  0.7620  0.0237 -0.1623
 9116SOL    HW138981   1.014   3.608   5.732  0.4394 -0.3479 -1.3728
 9116SOL    HW238982   0.890   3.658   5.791  0.7325  0.3526 -0.0678
 9117SOL     OW38983   3.877   2.223   4.675  0.0925  0.3515  0.0571
 9117SOL    HW138984   3.804   2.191   4.621  1.5339  0.1745 -1.7840
 9117SOL    HW238985   3.837   2.296   4.722  1.2820  2.6994 -2.5234
 9118SOL     OW38986   0.544   0.115   4.500  0.3015  0.3751 -0.2773
 9118SOL    HW138987   0.611   0.070   4.552 -1.1227  2.0417  3.0144
 9118SOL    HW238988   0.462   0.104   4.548 -0.6696  3.2893 -1.2712
 9119SOL     OW38989   2.766   0.937  15.468  0.0943 -0.2608 -0.2203
 9119SOL    HW138990   2.812   0.858  15.438 -2.2263 -1.4339 -0.6904
 9119SOL    HW238991   2.674   0.915  15.454 -0.7252  2.5443  0.7308
 9120SOL     OW38992   1.149   2.621  12.098 -0.4554  0.3651  0.0604
 9120SOL    HW138993   1.219   2.605  12.161  3.3311  1.5981 -3.8918
 9120SOL    HW238994   1.197   2.686  12.047 -0.3036 -0.7690 -1.2349
 9121SOL     OW38995   3.136   3.853   2.523  0.6374  0.4589 -0.1041
 9121SOL    HW138996   3.189   3.832   2.445  0.1222  2.9387 -1.1106
 9121SOL    HW238997   3.169   3.784   2.581 -0.4032 -1.1551 -1.4316
 9122SOL     OW38998   3.322   3.169   4.688 -0.3666  0.2786  0.0928
 9122SOL    HW138999   3.398   3.141   4.637  0.0102 -0.9492  1.3356
 9122SOL    HW239000   3.319   3.101   4.755  0.9763 -0.9226 -1.0661
 9123SOL     OW39001   1.525   1.511   9.465  0.1769 -0.5864  0.4318
 9123SOL    HW139002   1.443   1.477   9.430  0.3281 -1.0257  0.5077
 9123SOL    HW239003   1.497   1.600   9.488 -2.8411 -1.4757  0.1780
 9124SOL     OW39004   2.014   2.878   0.677 -0.1829  0.3093  0.3839
 9124SOL    HW139005   1.994   2.940   0.747 -1.2949  0.5432 -0.1322
 9124SOL    HW239006   2.092   2.915   0.637  0.6231 -4.3413 -2.3897
 9125SOL     OW39007   0.794   1.784   6.790 -0.2331 -0.1741  0.2051
 9125SOL    HW139008   0.744   1.707   6.815  2.4180 -2.4279 -1.5643
 9125SOL    HW239009   0.781   1.828   6.875 -2.5560  2.5406 -1.5231
 9126SOL     OW39010   3.531   2.514   7.237 -0.5512  0.2059  0.0172
 9126SOL    HW139011   3.465   2.444   7.237 -0.4860  0.1477 -1.2506
 9126SOL    HW239012   3.565   2.508   7.326  0.1950  0.6829 -0.2391
 9127SOL     OW39013   1.729   2.202   4.569  0.5229 -0.0210 -0.1304
 9127SOL    HW139014   1.782   2.170   4.496  1.5468 -0.1941  0.6750
 9127SOL    HW239015   1.762   2.138   4.633 -0.3669 -1.0880 -0.7409
 9128SOL     OW39016   1.501   4.122  15.806 -0.1415 -0.1268  0.1223
 9128SOL    HW139017   1.526   4.214  15.794 -1.3387  0.4635  2.1484
 9128SOL    HW239018   1.565   4.075  15.753  0.6739  0.5438  0.5119
 9129SOL     OW39019   1.300   0.318   5.097 -0.4320 -0.6053  0.3891
 9129SOL    HW139020   1.237   0.317   5.169 -1.1435  2.4286 -0.2079
 9129SOL    HW239021   1.384   0.296   5.140 -1.5693 -0.9798  2.4414
 9130SOL     OW39022   3.684   2.528   8.099  0.5715  0.0868  0.1369
 9130SOL    HW139023   3.685   2.601   8.161  1.7013  1.1979 -1.1815
 9130SOL    HW239024   3.633   2.458   8.139  3.0515 -0.6583  1.9239
 9131SOL     OW39025   2.852   2.353   3.920  0.0274 -0.1123  0.2973
 9131SOL    HW139026   2.777   2.385   3.871 -1.1190 -0.7877  1.6062
 9131SOL    HW239027   2.850   2.402   4.002 -1.9805  1.2657 -0.5966
 9132SOL     OW39028   2.210   3.201   3.029 -0.0952 -0.1560 -0.1348
 9132SOL    HW139029   2.137   3.141   3.014 -0.4261  0.7591 -2.0901
 9132SOL    HW239030   2.175   3.282   2.991 -1.7407 -0.7680  0.0627
 9133SOL     OW39031   3.617   3.188   0.830  0.1210  0.6517 -0.0709
 9133SOL    HW139032   3.646   3.250   0.896  0.9497  1.9586 -1.6751
 9133SOL    HW239033   3.696   3.141   0.804 -0.8275 -0.9946 -0.0269
 9134SOL     OW39034   4.335   3.271  17.459  0.2715  0.2630 -0.4096
 9134SOL    HW139035   4.403   3.326  17.419 -0.6879  2.5991  1.1543
 9134SOL    HW239036   4.376   3.185  17.451  0.5049  0.3151  0.2188
 9135SOL     OW39037   3.219   0.222  14.246  0.2223 -0.1566  0.2862
 9135SOL    HW139038   3.275   0.180  14.311 -0.2076 -0.0585  0.7189
 9135SOL    HW239039   3.277   0.290  14.212 -0.7880  0.0128 -1.1344
 9136SOL     OW39040   1.038   1.308   7.120  0.3218  0.1461  0.4383
 9136SOL    HW139041   1.056   1.295   7.213  3.5387 -0.5486 -0.2764
 9136SOL    HW239042   1.091   1.236   7.086 -0.8970  0.0367 -1.2358
 9137SOL     OW39043   3.890   2.177   5.529 -0.5366  0.3645 -0.2258
 9137SOL    HW139044   3.881   2.188   5.435 -2.9571 -2.1303 -0.2953
 9137SOL    HW239045   3.915   2.267   5.550 -2.7660  0.8595  0.3044
 9138SOL     OW39046   3.859   3.179   7.998 -0.4208  0.0070 -0.3228
 9138SOL    HW139047   3.831   3.114   7.934 -1.5464  0.0963  0.0687
 9138SOL    HW239048   3.881   3.122   8.072 -1.8717  0.0565  0.1548
 9139SOL     OW39049   1.730   1.869   7.936  0.1222  0.2173 -0.0059
 9139SOL    HW139050   1.670   1.804   7.898  1.3987 -1.7299  1.2892
 9139SOL    HW239051   1.812   1.820   7.940 -0.3899 -0.4365  2.4331
 9140SOL     OW39052   1.711   4.089   1.774 -0.1425  0.5522  0.7701
 9140SOL    HW139053   1.688   4.135   1.854 -0.0564  1.3615  0.3272
 9140SOL    HW239054   1.726   4.160   1.711  0.4191 -0.4659 -0.2569
 9141SOL     OW39055   2.432   3.934   3.359  0.5405  0.1374  0.0630
 9141SOL    HW139056   2.406   3.902   3.272 -1.2092 -0.7471  0.8974
 9141SOL    HW239057   2.350   3.969   3.393  1.2663  2.0945 -0.2234
 9142SOL     OW39058   0.735   0.510   3.352 -0.1365 -0.2483 -0.9278
 9142SOL    HW139059   0.792   0.452   3.301 -0.3625 -1.0759 -0.2424
 9142SOL    HW239060   0.708   0.452   3.424 -2.0976 -2.1001 -3.1334
 9143SOL     OW39061   2.704   3.173   9.321  0.0849  0.1863 -0.2927
 9143SOL    HW139062   2.778   3.112   9.309  0.8027  0.9483  0.2609
 9143SOL    HW239063   2.655   3.183   9.240 -2.8762 -0.8297  1.3914
 9144SOL     OW39064   2.813   0.051   7.687  0.1150  0.4870  0.2475
 9144SOL    HW139065   2.731   0.065   7.639  0.8419  0.3855 -1.0527
 9144SOL    HW239066   2.844   0.137   7.657  0.3271  0.5198  0.5674
 9145SOL     OW39067   0.407   0.783   1.423  0.2389 -0.1500  0.0348
 9145SOL    HW139068   0.412   0.876   1.402  0.0964  0.1085  1.1093
 9145SOL    HW239069   0.396   0.786   1.518  2.5674  1.3860  0.2505
 9146SOL     OW39070   3.476   2.266  12.930  0.1400 -0.0167  0.2775
 9146SOL    HW139071   3.504   2.251  12.840  0.2204  0.6528  0.1926
 9146SOL    HW239072   3.529   2.345  12.937 -1.3631  0.9078  0.9599
 9147SOL     OW39073   2.589   4.567   0.748 -0.1319 -0.3127  0.1769
 9147SOL    HW139074   2.574   4.479   0.784 -0.0327 -1.1767 -1.8871
 9147SOL    HW239075   2.683   4.570   0.762  0.2218 -0.6040 -2.0824
 9148SOL     OW39076   4.064   0.599   7.558 -0.4568 -0.1951 -0.6302
 9148SOL    HW139077   4.002   0.604   7.630  0.8792  2.7103  0.3218
 9148SOL    HW239078   4.046   0.512   7.523 -1.2640 -0.1293 -0.3729
 9149SOL     OW39079   3.077   4.292   4.170  0.1450  0.2087  0.2978
 9149SOL    HW139080   2.985   4.287   4.196  0.6169  1.4041  2.1882
 9149SOL    HW239081   3.086   4.369   4.114 -0.7432  0.9476  1.1669
 9150SOL     OW39082   3.514   1.815   4.396  0.3094  0.3556  0.1407
 9150SOL    HW139083   3.424   1.784   4.386 -0.2164  0.7372  3.6905
 9150SOL    HW239084   3.552   1.752   4.334 -1.7667 -1.6485  0.9091
 9151SOL     OW39085   3.939   4.619   2.667  0.1479  0.2629  0.2500
 9151SOL    HW139086   4.008   4.683   2.689 -0.2378  1.3286 -1.6472
 9151SOL    HW239087   3.962   4.592   2.578 -1.0774 -0.7879  0.2600
 9152SOL     OW39088   2.814   2.675   2.399 -0.4795  0.0842 -0.2654
 9152SOL    HW139089   2.900   2.632   2.392 -0.2543  0.7928 -1.8120
 9152SOL    HW239090   2.794   2.673   2.493  0.6343  0.6488 -0.0137
 9153SOL     OW39091   4.019   3.697   6.541  0.9112 -0.4369  0.2468
 9153SOL    HW139092   3.967   3.632   6.589 -2.5478  1.2037 -1.2265
 9153SOL    HW239093   3.940   3.731   6.498  0.6724 -0.5321  0.6115
 9154SOL     OW39094   1.145   2.208   6.629  0.5109  0.0422 -0.1651
 9154SOL    HW139095   1.222   2.260   6.603  1.7527 -1.5615  0.2718
 9154SOL    HW239096   1.085   2.281   6.646  0.7684  0.5617 -1.4552
 9155SOL     OW39097   2.244   4.014   1.345  0.6914 -0.6423  0.4125
 9155SOL    HW139098   2.231   4.107   1.326 -0.2029 -0.5602  1.4024
 9155SOL    HW239099   2.326   3.986   1.305 -0.5259 -2.2326 -0.9963
 9156SOL     OW39100   3.555   1.333   5.618  0.1329  0.0687 -0.5520
 9156SOL    HW139101   3.462   1.344   5.636 -0.0158 -1.0266 -0.6519
 9156SOL    HW239102   3.597   1.404   5.667 -1.1298 -0.9486  2.0093
 9157SOL     OW39103   2.156   0.177   6.328 -0.2641 -0.0513  0.2159
 9157SOL    HW139104   2.098   0.251   6.349  2.8496  1.9697  1.6446
 9157SOL    HW239105   2.228   0.221   6.283  0.2267 -1.6568 -0.5568
 9158SOL     OW39106   3.412   0.239   2.036 -0.0718  0.5304 -0.4589
 9158SOL    HW139107   3.498   0.259   2.072  0.0346 -0.9584  0.1081
 9158SOL    HW239108   3.423   0.252   1.942  5.0314 -0.7632 -0.0162
 9159SOL     OW39109   3.432   0.594   6.277 -0.0448  0.1922 -0.1180
 9159SOL    HW139110   3.468   0.628   6.195  0.2582 -1.8229 -0.8290
 9159SOL    HW239111   3.463   0.504   6.272  2.4092  1.0264  0.1034
 9160SOL     OW39112   2.642   0.807   2.686  0.3717 -0.5415  0.0534
 9160SOL    HW139113   2.569   0.852   2.728  1.3394  0.5400  0.5795
 9160SOL    HW239114   2.691   0.885   2.658  3.4959 -3.0724 -1.5508
 9161SOL     OW39115   2.284   2.327   1.391  0.3281  0.4813  0.5168
 9161SOL    HW139116   2.238   2.303   1.471 -0.2704 -1.0659 -0.2754
 9161SOL    HW239117   2.233   2.276   1.327  1.3249 -1.4149  1.2252
 9162SOL     OW39118   0.806   4.723   3.511 -0.5022  0.3520 -0.1982
 9162SOL    HW139119   0.870   4.704   3.580  1.1836  2.5931 -1.1575
 9162SOL    HW239120   0.722   4.700   3.551  0.2245 -1.2704  0.3581
 9163SOL     OW39121   3.942   0.260   6.000 -0.2084  0.6092  0.5306
 9163SOL    HW139122   3.989   0.177   5.999 -0.5759  0.3916  1.1851
 9163SOL    HW239123   4.003   0.321   6.041  1.1768 -0.3329 -0.1363
 9164SOL     OW39124   2.692   2.490   8.400 -0.2730 -0.4993  0.0023
 9164SOL    HW139125   2.756   2.546   8.356  0.3419 -0.0711  1.4421
 9164SOL    HW239126   2.753   2.417   8.413 -1.8501 -1.6040  1.2985
 9165SOL     OW39127   1.246   3.767   9.581  0.0626  0.1875  0.3462
 9165SOL    HW139128   1.335   3.761   9.617  0.2745 -4.6256 -0.9020
 9165SOL    HW239129   1.204   3.726   9.657  0.8741  0.3666  0.8966
 9166SOL     OW39130   1.335   4.358  14.390 -0.0018  0.1787  0.1236
 9166SOL    HW139131   1.268   4.382  14.454 -0.0798  1.6129 -0.4868
 9166SOL    HW239132   1.401   4.427  14.398  1.8083 -1.5482  0.1942
 9167SOL     OW39133   2.824   4.165  15.025 -0.1690 -0.0993  0.2555
 9167SOL    HW139134   2.898   4.212  14.986 -1.1929  1.9523  0.7867
 9167SOL    HW239135   2.830   4.199  15.115 -0.2884 -0.4258  0.3882
 9168SOL     OW39136   3.132   3.421  14.283  0.4054 -0.4630  0.3153
 9168SOL    HW139137   3.070   3.370  14.231 -1.3126  0.3079  1.6071
 9168SOL    HW239138   3.079   3.433  14.362 -1.6002  0.8395 -1.2212
 9169SOL     OW39139   2.818   0.107   5.553  0.1734 -0.5097  0.3423
 9169SOL    HW139140   2.836   0.088   5.645  0.5082  0.3994  0.4728
 9169SOL    HW239141   2.822   0.203   5.561  0.4201 -0.6058  1.4383
 9170SOL     OW39142   1.131   4.194   7.442  0.1253  0.4808 -0.3807
 9170SOL    HW139143   1.177   4.274   7.467  1.0275  0.3066 -1.4595
 9170SOL    HW239144   1.163   4.173   7.354 -0.6599 -2.0309 -0.0753
 9171SOL     OW39145   1.774   1.487   5.985 -0.2101  0.2404 -0.4708
 9171SOL    HW139146   1.732   1.537   6.056  0.5926  0.6295 -0.2725
 9171SOL    HW239147   1.854   1.538   5.975  2.5932 -4.3095 -0.9685
 9172SOL     OW39148   2.920   4.010   8.788  0.3747 -0.1296  0.0431
 9172SOL    HW139149   3.003   4.009   8.836 -1.5668  0.2332  3.3351
 9172SOL    HW239150   2.940   3.972   8.702 -2.6267 -1.7656  0.0792
 9173SOL     OW39151   1.730   1.026  11.530 -0.3964  0.1384 -0.1013
 9173SOL    HW139152   1.819   1.001  11.554 -0.7270 -2.0077 -1.1107
 9173SOL    HW239153   1.709   0.941  11.491 -0.9406  0.1988  0.0612
 9174SOL     OW39154   4.274   4.378   4.170  0.0054  0.1295  0.3604
 9174SOL    HW139155   4.216   4.339   4.105 -1.5072 -0.4814  2.0864
 9174SOL    HW239156   4.230   4.463   4.170  1.8215  1.0900 -1.5335
 9175SOL     OW39157   4.287   1.165   6.325 -0.4643 -0.0726 -0.0685
 9175SOL    HW139158   4.379   1.142   6.318  0.0933  2.4635 -1.2196
 9175SOL    HW239159   4.302   1.259   6.315  0.7200 -0.1285  1.3536
 9176SOL     OW39160   1.317   4.353   1.661 -0.1613  0.3111  0.3622
 9176SOL    HW139161   1.250   4.291   1.690  0.5042 -0.8679 -0.6005
 9176SOL    HW239162   1.346   4.309   1.581 -0.8509 -2.3373  1.5555
 9177SOL     OW39163   2.929   1.774   7.423  1.0103 -0.2172  0.3668
 9177SOL    HW139164   2.935   1.775   7.328 -0.2408 -0.2827  0.2903
 9177SOL    HW239165   2.933   1.679   7.436 -4.6722 -0.2752  1.6357
 9178SOL     OW39166   1.687   2.805  11.765 -0.9684 -0.4682  0.3153
 9178SOL    HW139167   1.638   2.874  11.810  2.0177  1.4562  0.6357
 9178SOL    HW239168   1.630   2.793  11.688  0.5974 -0.9127 -0.7732
 9179SOL     OW39169   0.212   0.361   9.340 -0.1486 -0.4432 -0.1484
 9179SOL    HW139170   0.304   0.389   9.338  0.0474 -0.7318  3.6675
 9179SOL    HW239171   0.183   0.371   9.250 -0.0341  0.1245 -0.1231
 9180SOL     OW39172   1.367   2.044   8.797  0.4335 -0.3188  0.7330
 9180SOL    HW139173   1.415   2.097   8.734  0.3475 -0.5860  0.4445
 9180SOL    HW239174   1.317   2.105   8.850  0.4009  0.6647 -0.4342
 9181SOL     OW39175   4.436   2.267  10.069  0.0880 -0.7396  0.8438
 9181SOL    HW139176   4.486   2.259   9.988  1.5598  1.2255  1.5678
 9181SOL    HW239177   4.346   2.246  10.042  0.6146  1.6694 -2.8681
 9182SOL     OW39178   1.813   0.833   6.040 -0.2811  0.1258 -0.1183
 9182SOL    HW139179   1.734   0.841   6.095 -0.4047 -2.5450  0.0728
 9182SOL    HW239180   1.820   0.929   6.031  1.9201 -0.0451 -0.2639
 9183SOL     OW39181   0.104   0.116   9.390  0.0453  0.4493  0.3162
 9183SOL    HW139182   0.120   0.094   9.298  1.0964  2.4989  0.0074
 9183SOL    HW239183   0.148   0.200   9.400  1.0518 -0.2255  1.4795
 9184SOL     OW39184   4.299   1.440   9.981 -0.0184  0.1699  0.1422
 9184SOL    HW139185   4.304   1.404  10.070  0.5093  1.1323  0.5002
 9184SOL    HW239186   4.231   1.387   9.939 -0.4091  1.0369 -0.3185
 9185SOL     OW39187   0.405   3.215  15.329 -0.3467  0.2453  0.3474
 9185SOL    HW139188   0.410   3.203  15.234  1.0897  0.8026  0.3390
 9185SOL    HW239189   0.497   3.211  15.356 -0.1170  0.0489 -0.4708
 9186SOL     OW39190   0.734   4.631   4.008  0.0949  0.6272 -0.0813
 9186SOL    HW139191   0.707   4.663   4.094 -0.4836 -1.3750  0.4738
 9186SOL    HW239192   0.827   4.614   4.026 -0.1575  0.4381  1.0294
 9187SOL     OW39193   1.705   0.030   9.167  0.3955 -0.1062  0.1157
 9187SOL    HW139194   1.612   0.041   9.190  0.7445 -1.9242  2.3413
 9187SOL    HW239195   1.703   4.730   9.081  0.9413  3.3222 -1.5230
 9188SOL     OW39196   3.867   3.820   2.347  0.0126 -0.2556  0.1236
 9188SOL    HW139197   3.854   3.727   2.363  0.0460 -0.5616 -1.6859
 9188SOL    HW239198   3.961   3.823   2.333  0.1751  1.0782  1.4715
 9189SOL     OW39199   3.116   1.537   3.809 -0.1782 -0.0398  0.0870
 9189SOL    HW139200   3.044   1.570   3.862 -0.2926 -0.4132  0.1656
 9189SOL    HW239201   3.191   1.567   3.860 -0.6843 -0.8643  1.3184
 9190SOL     OW39202   3.521   3.374  13.870  0.0638 -0.1046 -0.3909
 9190SOL    HW139203   3.485   3.437  13.933 -0.5599 -2.2741  1.4512
 9190SOL    HW239204   3.491   3.414  13.788  0.7937 -0.4121 -0.8055
 9191SOL     OW39205   3.764   0.155  16.302  0.8012  1.1217 -1.1736
 9191SOL    HW139206   3.713   0.080  16.272  3.5586 -1.5552  0.7947
 9191SOL    HW239207   3.748   0.161  16.396 -0.0343 -2.3534 -1.1186
 9192SOL     OW39208   0.789   2.917   7.144 -0.0222 -0.7267 -0.1127
 9192SOL    HW139209   0.767   2.849   7.207  1.0974 -2.6890 -1.8751
 9192SOL    HW239210   0.838   2.862   7.083  0.3709 -0.4475 -0.0505
 9193SOL     OW39211   1.043   2.622   5.957  0.6611  0.1283  0.1015
 9193SOL    HW139212   1.018   2.530   5.968  2.3101 -0.2974  0.2655
 9193SOL    HW239213   1.136   2.598   5.948  1.3607  3.2591 -0.7552
 9194SOL     OW39214   3.129   0.429   1.305  0.3378 -0.0215 -0.3957
 9194SOL    HW139215   3.171   0.501   1.353  0.3743 -0.3882  0.1278
 9194SOL    HW239216   3.080   0.376   1.368  0.4741  1.1924  0.7414
 9195SOL     OW39217   4.530   1.613   9.944  0.0974 -0.2716 -0.1143
 9195SOL    HW139218   4.446   1.573   9.968  0.5789 -1.1195  0.1227
 9195SOL    HW239219   4.508   1.703   9.967  1.5584  0.1173 -0.2891
 9196SOL     OW39220   1.792   1.069   7.360  0.3385 -0.1251  0.4870
 9196SOL    HW139221   1.840   0.986   7.367 -0.5317 -0.7572 -0.8529
 9196SOL    HW239222   1.834   1.112   7.285  1.1126 -2.3212 -0.3604
 9197SOL     OW39223   2.830   1.962  14.218 -0.3776 -0.4396  0.5229
 9197SOL    HW139224   2.847   1.946  14.125 -2.0405 -0.0928  0.1552
 9197SOL    HW239225   2.819   2.057  14.217 -1.4225 -0.5480  1.6604
 9198SOL     OW39226   3.149   0.390   5.015  0.8811  0.2911  0.1646
 9198SOL    HW139227   3.147   0.371   5.109  0.0567 -1.9663 -0.3271
 9198SOL    HW239228   3.244   0.382   5.009  0.6069 -2.0589 -0.8141
 9199SOL     OW39229   0.328   0.827   9.740  0.4312  0.5580  0.0379
 9199SOL    HW139230   0.360   0.767   9.807  0.4148 -0.0091 -0.4586
 9199SOL    HW239231   0.391   0.899   9.736  2.2204 -1.0990 -1.3587
 9200SOL     OW39232   3.444   2.435   4.636  0.5906 -0.4358 -0.2342
 9200SOL    HW139233   3.368   2.405   4.686 -0.2489  2.0627 -0.0340
 9200SOL    HW239234   3.422   2.389   4.555  1.2738  0.1654 -0.7554
 9201SOL     OW39235   3.160   0.406   6.461  0.0512  0.2590  0.1357
 9201SOL    HW139236   3.250   0.414   6.491  0.3871  0.9608 -1.0744
 9201SOL    HW239237   3.112   0.371   6.536 -0.4105 -2.5734 -1.4797
 9202SOL     OW39238   3.381   4.618   5.137 -0.2045 -0.2319  0.3249
 9202SOL    HW139239   3.335   4.696   5.166  1.5334  2.2858 -3.7219
 9202SOL    HW239240   3.313   4.577   5.082  0.7155 -0.6376 -0.5124
 9203SOL     OW39241   1.923   1.830   2.564  0.2834  0.8694 -0.0448
 9203SOL    HW139242   2.000   1.843   2.619  0.3528  1.6391 -0.3286
 9203SOL    HW239243   1.856   1.828   2.632  1.3974 -0.4868  1.0045
 9204SOL     OW39244   1.103   3.301   8.702  0.1814 -0.0310  0.3474
 9204SOL    HW139245   1.140   3.231   8.649 -1.8480 -0.8244 -0.0161
 9204SOL    HW239246   1.177   3.330   8.755  0.7755  3.0485 -2.2243
 9205SOL     OW39247   3.768   3.605  15.627 -0.0407  0.3243  0.9282
 9205SOL    HW139248   3.731   3.565  15.706  0.2699 -0.6287  0.5904
 9205SOL    HW239249   3.853   3.561  15.635 -0.3127 -0.4325 -0.3309
 9206SOL     OW39250   0.717   2.407   3.536 -0.3118 -0.3370  0.2144
 9206SOL    HW139251   0.728   2.342   3.467  1.5280 -1.3714  1.4893
 9206SOL    HW239252   0.747   2.484   3.488  1.8652 -1.3712 -0.0788
 9207SOL     OW39253   0.955   3.819  12.328  0.1559  0.0946  0.1412
 9207SOL    HW139254   0.871   3.777  12.310  1.1961 -1.2519 -1.5409
 9207SOL    HW239255   0.996   3.751  12.381 -1.4503 -0.8794  0.1383
 9208SOL     OW39256   3.896   2.403   7.249  0.4585 -0.4056 -0.1231
 9208SOL    HW139257   3.928   2.330   7.195 -0.5608 -0.6178 -0.4405
 9208SOL    HW239258   3.905   2.375   7.340 -0.8892  0.4663  0.2744
 9209SOL     OW39259   1.025   1.207   7.940 -0.6998 -0.7287  0.3735
 9209SOL    HW139260   1.085   1.150   7.987  0.3559 -1.1038 -1.4569
 9209SOL    HW239261   1.032   1.288   7.989  0.2634 -0.0177 -0.9348
 9210SOL     OW39262   1.301   1.863   3.260 -0.4168 -0.3533 -0.0488
 9210SOL    HW139263   1.316   1.905   3.175 -0.3888 -0.7643 -0.2506
 9210SOL    HW239264   1.393   1.878   3.283 -1.0947  1.5808  1.3702
 9211SOL     OW39265   4.193   0.616   8.040  0.0433  0.2468  0.5999
 9211SOL    HW139266   4.151   0.580   8.118 -1.6767  2.8540  0.8814
 9211SOL    HW239267   4.272   0.657   8.075  1.8347  0.0597 -3.2129
 9212SOL     OW39268   2.610   4.557   8.477  0.1046 -0.0756  0.1759
 9212SOL    HW139269   2.620   4.648   8.505 -1.2586 -0.8258  3.0974
 9212SOL    HW239270   2.556   4.550   8.398  0.5823 -0.7394 -0.0958
 9213SOL     OW39271   0.581   2.109  15.031 -0.0835 -0.1449  0.4412
 9213SOL    HW139272   0.508   2.170  15.024 -0.3559 -0.8544 -2.6342
 9213SOL    HW239273   0.650   2.155  14.983 -1.7173 -0.7779 -2.4845
 9214SOL     OW39274   0.155   2.297   8.542 -0.0592  0.3802  0.1812
 9214SOL    HW139275   0.236   2.337   8.510 -1.3025  1.3990 -1.7073
 9214SOL    HW239276   0.150   2.329   8.632 -1.3436  0.4250  0.1010
 9215SOL     OW39277   3.341   1.113   4.526  0.3274  0.5569 -0.1197
 9215SOL    HW139278   3.426   1.077   4.499 -0.7966 -0.3912 -2.4213
 9215SOL    HW239279   3.286   1.042   4.493  0.8959  1.2962 -2.7376
 9216SOL     OW39280   2.468   3.359   4.614 -0.4061 -0.2354  0.2219
 9216SOL    HW139281   2.553   3.327   4.643  0.3105  0.4436 -1.1023
 9216SOL    HW239282   2.485   3.390   4.525 -1.6784 -3.3304 -1.0734
 9217SOL     OW39283   0.340   4.735  14.663 -0.6726 -0.1382  0.3628
 9217SOL    HW139284   0.271   4.692  14.611 -1.9068  0.3332  1.6047
 9217SOL    HW239285   0.351   0.075  14.614 -1.7175 -1.4927 -2.1007
 9218SOL     OW39286   1.161   2.551   5.339 -0.1894  0.0209  0.0281
 9218SOL    HW139287   1.189   2.482   5.280  2.4126 -0.4706  1.8453
 9218SOL    HW239288   1.200   2.529   5.423  2.2533 -2.1778 -1.6989
 9219SOL     OW39289   3.906   0.817   6.057 -0.5676 -0.2538 -0.3176
 9219SOL    HW139290   3.945   0.788   5.975  2.3429 -1.2123  1.3993
 9219SOL    HW239291   3.987   0.837   6.103 -0.4318  1.1224 -1.1537
 9220SOL     OW39292   1.362   0.675   6.279 -0.9103 -0.1447  0.6050
 9220SOL    HW139293   1.350   0.671   6.374  0.1959 -2.0718  0.6692
 9220SOL    HW239294   1.319   0.593   6.258  2.2186 -1.2759 -1.3436
 9221SOL     OW39295   2.438   2.292   5.716 -0.1777  0.3281  0.4025
 9221SOL    HW139296   2.486   2.302   5.798  0.9711 -1.3590 -0.0510
 9221SOL    HW239297   2.450   2.377   5.675 -2.0361  0.6788  0.5967
 9222SOL     OW39298   1.484   3.327   3.731  0.1217  0.3836  0.0193
 9222SOL    HW139299   1.410   3.276   3.697  0.4295  0.8700 -1.4076
 9222SOL    HW239300   1.519   3.365   3.650  0.2992 -0.8140 -0.4583
 9223SOL     OW39301   3.475   3.576  12.242 -0.1070  0.1871  0.1349
 9223SOL    HW139302   3.552   3.528  12.274  0.3923  1.0168  0.1630
 9223SOL    HW239303   3.414   3.560  12.315 -0.7698  1.1566 -0.2102
 9224SOL     OW39304   0.082   1.062  15.257 -0.2112 -0.7578  0.1202
 9224SOL    HW139305   0.067   1.134  15.318 -0.3606 -1.4133  0.8617
 9224SOL    HW239306   0.011   1.072  15.193 -0.8329 -0.6854  0.8067
 9225SOL     OW39307   3.238   1.573   1.815  0.0906 -0.3869 -0.2599
 9225SOL    HW139308   3.197   1.658   1.795  0.3737 -0.3685 -0.7637
 9225SOL    HW239309   3.163   1.524   1.849  0.2722  0.2908  1.1468
 9226SOL     OW39310   3.545   2.785  14.462 -0.8885  0.1421 -0.1371
 9226SOL    HW139311   3.536   2.840  14.384 -1.6818  1.9177  1.2098
 9226SOL    HW239312   3.602   2.844  14.510 -3.4333  0.6815  2.2296
 9227SOL     OW39313   4.053   3.951   8.133  0.0018  0.8257 -0.1935
 9227SOL    HW139314   4.008   3.900   8.066  0.4029  0.7338 -0.3889
 9227SOL    HW239315   4.025   3.909   8.215  2.8810 -2.4309 -0.9127
 9228SOL     OW39316   0.334   2.513   7.317 -0.2038  0.6004 -0.5506
 9228SOL    HW139317   0.310   2.423   7.340 -0.2602  0.9941  0.9310
 9228SOL    HW239318   0.276   2.567   7.371  0.7847  0.6940  0.4210
 9229SOL     OW39319   0.471   2.973  11.719 -0.1934 -0.3999  0.0221
 9229SOL    HW139320   0.470   2.911  11.647  0.4178  1.9079 -1.9638
 9229SOL    HW239321   0.548   3.028  11.708  0.4755 -2.0305 -3.1377
 9230SOL     OW39322   3.959   3.226  13.442 -0.1451  0.0564 -0.5112
 9230SOL    HW139323   3.879   3.182  13.471  0.9449 -2.1525 -0.8075
 9230SOL    HW239324   3.914   3.307  13.420  0.4670  0.3725 -0.5975
 9231SOL     OW39325   3.431   1.564  13.204 -0.9171 -0.0296 -0.3919
 9231SOL    HW139326   3.449   1.474  13.177 -1.4542 -0.0309 -0.7364
 9231SOL    HW239327   3.481   1.604  13.133  0.0088 -1.9900 -0.8404
 9232SOL     OW39328   1.674   2.480  14.131 -0.2958  0.2536  0.1534
 9232SOL    HW139329   1.700   2.565  14.166 -0.6620  0.5449 -0.2776
 9232SOL    HW239330   1.583   2.474  14.158 -0.8875 -2.4620 -2.4201
 9233SOL     OW39331   3.574   0.866   3.802 -0.1748 -0.2790 -0.1761
 9233SOL    HW139332   3.493   0.828   3.769 -0.3306  0.8098 -1.0327
 9233SOL    HW239333   3.556   0.959   3.796 -0.8125 -0.3233  0.9482
 9234SOL     OW39334   1.837   3.437   7.459 -0.3515  0.6762  0.4478
 9234SOL    HW139335   1.871   3.525   7.445  2.6376 -0.3856  1.1675
 9234SOL    HW239336   1.858   3.389   7.379  2.5826 -0.3351  1.8470
 9235SOL     OW39337   0.058   0.152   7.734  0.0573  0.7076 -0.6924
 9235SOL    HW139338   0.099   0.143   7.820 -0.1502  2.0519 -0.4655
 9235SOL    HW239339   4.706   0.152   7.755  0.0189  0.2823 -0.8527
 9236SOL     OW39340   3.712   0.913   1.381  0.4572 -0.6662  0.2149
 9236SOL    HW139341   3.698   1.007   1.370 -1.9969 -1.2592 -1.7087
 9236SOL    HW239342   3.807   0.903   1.380  0.5541  0.3293 -0.8662
 9237SOL     OW39343   3.999   2.734   7.949 -0.2372 -0.5943  0.4527
 9237SOL    HW139344   4.012   2.665   7.884 -3.0471 -0.6019 -0.1177
 9237SOL    HW239345   4.009   2.690   8.033 -0.7095 -1.0133  0.2881
 9238SOL     OW39346   0.166   0.881  15.476  0.1948  0.1530 -0.4055
 9238SOL    HW139347   0.224   0.955  15.491  2.0347 -1.2976 -0.3053
 9238SOL    HW239348   0.104   0.912  15.410  0.4171  2.5537  0.5400
 9239SOL     OW39349   0.591   1.607   6.845 -0.0607  0.1537  0.5735
 9239SOL    HW139350   0.580   1.626   6.938 -0.1189 -0.0803  0.6127
 9239SOL    HW239351   0.507   1.638   6.810 -0.1561 -0.6011  0.1310
 9240SOL     OW39352   0.808   3.312   5.203 -0.0901  0.2905 -0.4964
 9240SOL    HW139353   0.739   3.309   5.136  0.6500  0.8000 -1.2770
 9240SOL    HW239354   0.775   3.246   5.264 -0.1449  2.2502  1.6194
 9241SOL     OW39355   1.981   4.060   2.346  0.5675 -0.0960  0.0872
 9241SOL    HW139356   1.899   4.086   2.386  1.0210  1.2716  0.1299
 9241SOL    HW239357   1.982   4.119   2.270  0.7900  0.8578  0.8328
 9242SOL     OW39358   1.786   3.968   3.154 -0.1116  0.3136  0.4509
 9242SOL    HW139359   1.775   3.993   3.063  1.3832  1.1925  0.5113
 9242SOL    HW239360   1.699   3.946   3.187 -1.1462 -1.1106 -3.2896
 9243SOL     OW39361   2.569   0.951   3.636 -0.0994  0.2702  0.3576
 9243SOL    HW139362   2.503   1.008   3.596  0.8817  1.5453  0.5468
 9243SOL    HW239363   2.575   0.975   3.729 -0.0783  0.1294  0.3925
 9244SOL     OW39364   3.758   1.575  13.922  0.8519 -1.0942 -0.0087
 9244SOL    HW139365   3.778   1.515  13.993  1.4527  0.1207  0.8550
 9244SOL    HW239366   3.687   1.530  13.875  0.0980  1.0567 -0.9490
 9245SOL     OW39367   2.772   0.395  16.987 -0.3685  0.2712 -0.0602
 9245SOL    HW139368   2.845   0.419  17.044 -0.6059 -0.3220  0.4935
 9245SOL    HW239369   2.739   0.319  17.033  1.0088 -0.7011 -0.6804
 9246SOL     OW39370   4.215   3.941   6.564  0.7687  0.0299  0.3225
 9246SOL    HW139371   4.204   4.001   6.638  0.7568  0.7664 -0.2725
 9246SOL    HW239372   4.165   3.863   6.586 -0.5975  1.1428  1.2050
 9247SOL     OW39373   3.603   0.443   7.751 -0.8807 -0.6007 -0.0032
 9247SOL    HW139374   3.538   0.377   7.725  0.4767 -1.0732 -2.2202
 9247SOL    HW239375   3.560   0.483   7.826  0.5638 -0.9652  1.0144
 9248SOL     OW39376   1.949   3.806   6.015 -0.1282 -0.6246 -0.0519
 9248SOL    HW139377   2.006   3.730   6.030 -1.8206 -1.9358 -0.1954
 9248SOL    HW239378   1.957   3.856   6.096 -3.1552  2.1991 -1.5074
 9249SOL     OW39379   2.510   1.597   8.661 -0.0862 -0.0264  0.1246
 9249SOL    HW139380   2.527   1.589   8.755  1.2671 -0.1146 -0.1328
 9249SOL    HW239381   2.425   1.641   8.651  0.3797  1.0363  0.8422
 9250SOL     OW39382   2.690   0.353  11.729 -0.0600  0.3056 -0.3462
 9250SOL    HW139383   2.729   0.268  11.714 -0.0555 -0.1044  1.8795
 9250SOL    HW239384   2.597   0.332  11.731 -0.1767  0.7372 -1.0895
 9251SOL     OW39385   1.218   2.052   8.234 -0.0045  0.2015 -0.1860
 9251SOL    HW139386   1.239   2.105   8.311 -2.1023  1.5874 -0.5703
 9251SOL    HW239387   1.124   2.038   8.243  0.0738  0.6266  1.3910
 9252SOL     OW39388   1.096   4.600   1.745 -0.0340 -0.6767 -0.6014
 9252SOL    HW139389   1.117   4.558   1.828 -2.1254  0.7685  0.6464
 9252SOL    HW239390   1.187   4.626   1.730  0.6008 -2.6209 -0.1000
 9253SOL     OW39391   3.112   2.368   3.332 -0.1935 -0.1778  0.4450
 9253SOL    HW139392   3.160   2.339   3.410  0.8446 -1.6878 -0.7615
 9253SOL    HW239393   3.110   2.298   3.267  1.8446 -0.1317  0.3436
 9254SOL     OW39394   0.888   2.556   1.709  0.3310  0.0198 -0.5616
 9254SOL    HW139395   0.813   2.563   1.650 -0.2953  1.9260  0.4577
 9254SOL    HW239396   0.952   2.489   1.682  0.8668 -0.0182  0.8026
 9255SOL     OW39397   3.565   4.739   2.229  0.0816 -0.1623  0.0201
 9255SOL    HW139398   3.490   0.050   2.260  0.5958 -0.0679  1.1130
 9255SOL    HW239399   3.603   4.707   2.310  3.2797  2.3212 -0.4985
 9256SOL     OW39400   4.424   4.570   5.641  0.3437 -0.0779  0.4695
 9256SOL    HW139401   4.473   4.488   5.638 -2.2809 -1.6681  1.8321
 9256SOL    HW239402   4.357   4.564   5.573  0.1224 -1.8287  0.8415
 9257SOL     OW39403   2.572   3.456  17.721 -0.8808  0.1971 -0.6094
 9257SOL    HW139404   2.647   3.447  17.662  0.0021  1.2801  0.3333
 9257SOL    HW239405   2.620   3.452   0.044 -0.6414 -1.3317 -0.8324
 9258SOL     OW39406   2.811   4.331  14.017  0.0384  0.7570  0.1689
 9258SOL    HW139407   2.785   4.422  14.002 -4.1489 -0.5364 -0.1966
 9258SOL    HW239408   2.758   4.308  14.093  2.0446 -0.0818  1.3223
 9259SOL     OW39409   1.000   3.126   2.711 -0.3128 -0.3869  0.3249
 9259SOL    HW139410   1.048   3.149   2.633 -0.0401  1.6377  1.1095
 9259SOL    HW239411   0.911   3.133   2.676  0.3528  1.8137 -0.9189
 9260SOL     OW39412   1.989   2.700   4.660 -0.2728 -0.0105  0.1133
 9260SOL    HW139413   1.948   2.768   4.607  0.9347  1.9005  1.6402
 9260SOL    HW239414   2.045   2.655   4.597 -0.8476 -0.7535  0.1346
 9261SOL     OW39415   0.417   1.377  15.186  0.0975  0.2959 -0.2496
 9261SOL    HW139416   0.485   1.310  15.196  0.4577  0.5554 -0.9239
 9261SOL    HW239417   0.426   1.402  15.094 -0.8868 -0.4469 -0.5477
 9262SOL     OW39418   4.565   1.082   8.119  0.5579  0.1663 -0.2624
 9262SOL    HW139419   4.509   1.103   8.194 -0.5561  0.0951 -1.0737
 9262SOL    HW239420   4.501   1.081   8.048  0.7349 -0.9849 -0.4005
 9263SOL     OW39421   3.306   0.494   2.727  0.6715  0.4420 -0.3164
 9263SOL    HW139422   3.251   0.561   2.687 -1.8767 -1.1363  0.5055
 9263SOL    HW239423   3.359   0.485   2.648 -0.8551  2.4578 -1.5599
 9264SOL     OW39424   2.462   2.719   8.256  0.9698 -0.2716  0.1381
 9264SOL    HW139425   2.417   2.704   8.174  1.3292  1.5586 -0.3902
 9264SOL    HW239426   2.553   2.713   8.226  0.8099  2.7442 -0.8849
 9265SOL     OW39427   3.133   3.728   2.021  0.0537  0.1244 -0.1759
 9265SOL    HW139428   3.066   3.664   2.047 -0.0333  0.1459 -0.3426
 9265SOL    HW239429   3.209   3.677   1.993 -0.5739 -1.3135  0.6909
 9266SOL     OW39430   1.951   2.672   3.276 -0.1344 -0.8590  0.4094
 9266SOL    HW139431   2.045   2.671   3.255 -0.5269  0.2997 -1.3465
 9266SOL    HW239432   1.941   2.766   3.262  2.6272 -0.3616  1.6452
 9267SOL     OW39433   4.421   3.427  11.977  0.2432  0.2828  0.2267
 9267SOL    HW139434   4.467   3.506  12.007  0.2344  0.4133 -0.1039
 9267SOL    HW239435   4.414   3.380  12.060 -1.7105  1.3509  0.6853
 9268SOL     OW39436   1.629   2.958   3.470  0.0672  0.6193  0.5981
 9268SOL    HW139437   1.578   2.917   3.400  2.6809 -1.8662  0.1704
 9268SOL    HW239438   1.713   2.939   3.429 -1.8473 -2.8491 -1.7866
 9269SOL     OW39439   1.006   0.416   5.080 -0.4788 -0.6933  0.0610
 9269SOL    HW139440   1.041   0.503   5.064  0.4967 -1.1464 -0.3208
 9269SOL    HW239441   1.024   0.365   5.000 -0.3627  4.2256 -3.0602
 9270SOL     OW39442   2.348   4.111   5.278  0.1264  0.0419 -0.0636
 9270SOL    HW139443   2.256   4.120   5.252  0.0980  1.7340  0.6108
 9270SOL    HW239444   2.348   4.146   5.367 -1.0533 -1.1812  0.4179
 9271SOL     OW39445   4.192   4.358   3.220  0.2790  0.5759  0.1848
 9271SOL    HW139446   4.131   4.405   3.162 -1.1637 -0.0984  1.1584
 9271SOL    HW239447   4.132   4.288   3.245 -0.0904  0.5074 -0.8977
 9272SOL     OW39448   1.563   2.178   3.141 -0.3032  0.1361 -0.5093
 9272SOL    HW139449   1.506   2.208   3.212 -1.1809 -0.4013 -0.9883
 9272SOL    HW239450   1.648   2.168   3.186  0.5747  1.5642 -1.8448
 9273SOL     OW39451   4.700   2.195   7.396  0.2073 -0.8141 -0.5147
 9273SOL    HW139452   4.648   2.233   7.467  0.3185 -1.8498  0.1101
 9273SOL    HW239453   4.714   2.112   7.442  0.7640 -0.3738  0.1180
 9274SOL     OW39454   4.436   0.151   8.866  0.5098 -0.1977 -0.3216
 9274SOL    HW139455   4.399   0.163   8.953  1.1988  0.0203 -0.0567
 9274SOL    HW239456   4.459   0.059   8.873 -0.6028 -0.6127 -2.3435
 9275SOL     OW39457   2.682   0.619   6.477 -0.2161 -0.7621  0.1322
 9275SOL    HW139458   2.608   0.669   6.444 -0.4969 -1.5611 -0.4538
 9275SOL    HW239459   2.731   0.609   6.395 -1.9711 -1.4528 -0.8262
 9276SOL     OW39460   0.489   3.814   6.209 -0.3617 -0.0767 -0.2492
 9276SOL    HW139461   0.437   3.734   6.218 -0.6234  0.5042  3.5873
 9276SOL    HW239462   0.441   3.883   6.256  0.8799 -0.6383  1.8305
 9277SOL     OW39463   2.597   4.618   9.011  0.5807  0.4980 -0.0556
 9277SOL    HW139464   2.585   4.671   9.090 -1.2904 -2.4023  1.6321
 9277SOL    HW239465   2.515   4.572   8.994  1.8810 -1.1187 -1.8790
 9278SOL     OW39466   4.031   1.373   7.619  0.0394  0.2884 -0.0370
 9278SOL    HW139467   4.048   1.289   7.661  2.1265  1.9562  2.4671
 9278SOL    HW239468   4.108   1.384   7.564  0.8196 -3.0742  0.3650
 9279SOL     OW39469   3.813   2.966   8.634 -0.0186 -0.1842  0.2888
 9279SOL    HW139470   3.808   2.998   8.724  2.3244  0.2464  0.2758
 9279SOL    HW239471   3.760   3.029   8.586 -0.0790 -0.4737 -0.0215
 9280SOL     OW39472   4.199   0.119   9.587  0.3220  0.0065 -0.3317
 9280SOL    HW139473   4.291   0.143   9.576  0.7515 -1.1384  0.7861
 9280SOL    HW239474   4.162   0.162   9.510  2.6167 -0.2123 -1.5293
 9281SOL     OW39475   4.107   0.346   7.743 -0.1852  0.0749  0.6011
 9281SOL    HW139476   4.020   0.306   7.747 -1.3368  2.5634  0.0542
 9281SOL    HW239477   4.113   0.398   7.663 -1.4008 -2.2547 -1.0013
 9282SOL     OW39478   1.313   4.579   4.254 -0.4654  0.1479 -0.2222
 9282SOL    HW139479   1.358   4.661   4.236  0.2020 -0.0278  0.6852
 9282SOL    HW239480   1.305   4.576   4.349 -1.3453 -1.4892 -0.3320
 9283SOL     OW39481   0.777   2.431   8.251 -0.0987  0.3484 -0.2705
 9283SOL    HW139482   0.864   2.402   8.222  0.2253  1.5350 -0.5030
 9283SOL    HW239483   0.754   2.360   8.311  1.9900  1.7646  2.1994
 9284SOL     OW39484   2.816   3.442   4.029 -0.1599  0.0316 -0.1666
 9284SOL    HW139485   2.880   3.377   4.001  0.7760  0.1709  1.6471
 9284SOL    HW239486   2.802   3.407   4.117  0.3469  1.6456  0.5543
 9285SOL     OW39487   3.004   3.459   0.001 -0.6058 -0.3748 -0.3521
 9285SOL    HW139488   3.026   3.433   0.091  2.3891  0.8117 -0.7475
 9285SOL    HW239489   3.071   3.415  17.709 -0.3300 -0.1738 -0.1693
 9286SOL     OW39490   0.538   1.324   6.901  0.3359  0.2690 -0.2595
 9286SOL    HW139491   0.570   1.414   6.896  0.9287  0.1451  1.4494
 9286SOL    HW239492   0.612   1.274   6.936 -0.7385 -0.1536  1.4224
 9287SOL     OW39493   3.762   3.953   2.122  0.1403 -0.3745  0.3912
 9287SOL    HW139494   3.823   3.975   2.051 -0.1306  0.8694  0.5372
 9287SOL    HW239495   3.809   3.900   2.186  4.6324 -0.2857 -2.7788
 9288SOL     OW39496   0.382   1.390   9.959 -0.2817  0.5008 -0.1317
 9288SOL    HW139497   0.310   1.333   9.934 -0.6427  0.4004  1.1174
 9288SOL    HW239498   0.454   1.331   9.979 -2.3225 -2.1680 -0.6604
 9289SOL     OW39499   1.707   2.681  13.613  0.1400 -0.0283  0.0330
 9289SOL    HW139500   1.769   2.660  13.543 -0.7965  0.4328 -0.9293
 9289SOL    HW239501   1.728   2.622  13.685 -0.8550  0.1400  0.4606
 9290SOL     OW39502   2.568   2.972   7.345 -0.2549 -0.2198  0.3399
 9290SOL    HW139503   2.595   2.975   7.253  0.1498  2.7541  0.5553
 9290SOL    HW239504   2.593   3.058   7.377  1.9123 -0.6027 -0.2812
 9291SOL     OW39505   1.244   3.020   7.445 -0.4922  0.7378  0.2049
 9291SOL    HW139506   1.190   3.082   7.396  2.1687  1.1903 -2.1527
 9291SOL    HW239507   1.284   2.987   7.365 -4.0831 -3.1543 -0.0148
 9292SOL     OW39508   2.778   2.591   4.450 -0.3468  0.1708 -0.0249
 9292SOL    HW139509   2.835   2.562   4.379 -1.7784  1.1204 -1.5611
 9292SOL    HW239510   2.845   2.619   4.513 -0.0278  0.9312 -0.7024
 9293SOL     OW39511   1.592   3.814   5.377  0.3585 -0.1310  0.4117
 9293SOL    HW139512   1.639   3.885   5.332  0.0458 -1.4390 -1.9458
 9293SOL    HW239513   1.515   3.862   5.407 -0.2878 -2.9918  3.2884
 9294SOL     OW39514   3.913   2.436   8.618 -0.0561 -0.1560  0.2928
 9294SOL    HW139515   3.950   2.423   8.531  0.8698 -2.1600  0.9837
 9294SOL    HW239516   3.871   2.519   8.596 -2.2480 -1.0484  1.1444
 9295SOL     OW39517   2.383   4.670   4.190  0.1533  0.7339  0.6276
 9295SOL    HW139518   2.444   4.642   4.122 -1.2166 -0.1418 -0.2495
 9295SOL    HW239519   2.379   0.025   4.185 -1.5906  0.7319  1.8834
 9296SOL     OW39520   1.607   2.708  12.339  0.4023 -0.0682  0.1801
 9296SOL    HW139521   1.615   2.796  12.303 -0.2033  0.6873  1.8550
 9296SOL    HW239522   1.618   2.729  12.432 -0.9351  1.9318 -0.0988
 9297SOL     OW39523   3.595   2.213   9.794  0.1461  0.1881 -0.1541
 9297SOL    HW139524   3.576   2.208   9.700 -0.2363  0.0163 -0.0652
 9297SOL    HW239525   3.508   2.204   9.832  0.5229 -2.2227  0.0990
 9298SOL     OW39526   0.636   3.598   8.072  0.5625  0.4294  0.0323
 9298SOL    HW139527   0.709   3.599   8.011  0.2427  1.4091 -0.3361
 9298SOL    HW239528   0.572   3.658   8.033  0.9725 -0.5300 -2.1081
 9299SOL     OW39529   2.184   2.895   9.389  0.0831 -0.7521 -0.1476
 9299SOL    HW139530   2.135   2.858   9.316 -4.2152  0.8597  1.8721
 9299SOL    HW239531   2.187   2.825   9.454  0.0061 -0.9753 -0.3887
 9300SOL     OW39532   3.719   2.586   3.237 -0.3220 -0.4121  0.2260
 9300SOL    HW139533   3.795   2.535   3.210  1.3497  2.0010  0.3762
 9300SOL    HW239534   3.682   2.609   3.152 -0.2491  2.4376  0.9467
 9301SOL     OW39535   2.220   2.097  15.456 -0.5298  0.6795  0.4106
 9301SOL    HW139536   2.171   2.072  15.377  0.7639 -0.6467  0.0176
 9301SOL    HW239537   2.285   2.027  15.466 -0.8967 -0.0443 -2.2752
 9302SOL     OW39538   0.284   0.334   3.189 -0.2147 -0.0575  0.5196
 9302SOL    HW139539   0.278   0.289   3.105  3.4527 -0.0886  0.2710
 9302SOL    HW239540   0.369   0.303   3.221  0.6135  0.1171 -1.4827
 9303SOL     OW39541   4.527   4.372   8.933 -0.0417  0.1722  0.2608
 9303SOL    HW139542   4.483   4.376   8.849  1.1696 -1.1263 -0.4275
 9303SOL    HW239543   4.497   4.287   8.964  0.3944 -0.0020  0.2070
 9304SOL     OW39544   2.725   2.046   3.883 -0.4060  0.2669 -0.0318
 9304SOL    HW139545   2.666   2.000   3.943 -1.4936  0.4294 -0.9756
 9304SOL    HW239546   2.673   2.057   3.803 -0.2172 -0.4805 -0.2587
 9305SOL     OW39547   4.040   0.369   6.439  0.2961 -0.2564 -0.1946
 9305SOL    HW139548   3.962   0.424   6.442 -1.0067 -2.1703  0.6272
 9305SOL    HW239549   4.105   0.433   6.468 -0.4399 -0.1193  1.1392
 9306SOL     OW39550   4.507   3.131   2.987 -0.2589 -0.3789 -0.4455
 9306SOL    HW139551   4.557   3.198   3.033 -0.6894 -0.6918  0.4752
 9306SOL    HW239552   4.568   3.057   2.978 -0.0727 -0.1455 -1.1136
 9307SOL     OW39553   0.706   0.102   3.852 -0.3908 -0.2155  0.2165
 9307SOL    HW139554   0.793   0.133   3.828  0.2120 -0.2884  2.2816
 9307SOL    HW239555   0.724   0.017   3.893 -0.4737  1.0778  2.9884
 9308SOL     OW39556   0.735   3.689   5.388  0.1405  0.0447 -0.7316
 9308SOL    HW139557   0.779   3.760   5.435 -0.8341  1.2606 -1.6619
 9308SOL    HW239558   0.810   3.641   5.352  2.1573  4.0355 -1.8019
 9309SOL     OW39559   0.690   4.523  16.286  0.0127 -0.2568 -0.2253
 9309SOL    HW139560   0.752   4.559  16.349  2.0762 -0.3208 -2.1913
 9309SOL    HW239561   0.608   4.556  16.323 -1.0641 -0.2943 -2.5686
 9310SOL     OW39562   3.618   4.377   5.458 -0.1780  0.2901 -0.0941
 9310SOL    HW139563   3.628   4.376   5.553  0.7464  1.1146 -0.1817
 9310SOL    HW239564   3.543   4.320   5.443 -0.5678  0.8343 -0.2422
 9311SOL     OW39565   3.050   0.574   3.559  0.1144  0.3265 -0.5614
 9311SOL    HW139566   3.091   0.629   3.626  1.2757  1.4400 -2.1977
 9311SOL    HW239567   2.966   0.542   3.593  0.7227 -1.3510 -0.6435
 9312SOL     OW39568   4.087   2.294   4.001 -0.8300 -0.0255 -0.0435
 9312SOL    HW139569   4.132   2.258   4.077 -0.6578  2.2837  0.9429
 9312SOL    HW239570   4.045   2.364   4.050 -0.7477  0.5264 -0.7605
 9313SOL     OW39571   2.180   4.324   4.904  0.0243 -0.0532 -0.3047
 9313SOL    HW139572   2.185   4.240   4.858  0.0715  0.0975 -0.5715
 9313SOL    HW239573   2.251   4.369   4.859  1.3030  0.4329  2.1948
 9314SOL     OW39574   2.672   0.364   1.017 -0.3199 -0.0083  0.7662
 9314SOL    HW139575   2.607   0.413   1.068  0.3387  0.8879  0.7316
 9314SOL    HW239576   2.693   0.433   0.955  0.6762 -1.3462 -0.3984
 9315SOL     OW39577   2.076   0.040  12.140 -0.0789 -0.2353  0.5171
 9315SOL    HW139578   2.103   4.691  12.120  1.7643  0.6957 -1.0697
 9315SOL    HW239579   2.140   0.091  12.091 -0.1629  1.3202  2.0603
 9316SOL     OW39580   3.935   0.993   8.115 -0.3997 -0.1808  0.3435
 9316SOL    HW139581   3.927   0.902   8.086 -2.7859  0.5966 -1.3950
 9316SOL    HW239582   3.893   1.037   8.042  0.4303 -1.4421 -0.8933
 9317SOL     OW39583   0.410   2.194   2.824  0.0337 -0.1980 -0.3231
 9317SOL    HW139584   0.425   2.273   2.875 -3.2123 -0.7825  1.5288
 9317SOL    HW239585   0.458   2.229   2.748 -0.1865  0.0852 -0.3326
 9318SOL     OW39586   0.387   1.954  13.885  0.0969  0.0469  0.3056
 9318SOL    HW139587   0.395   1.961  13.790  1.4646  1.2316  0.5118
 9318SOL    HW239588   0.307   2.003  13.904  0.3123  0.9208 -0.9971
 9319SOL     OW39589   0.787   0.098   9.455 -0.9431 -0.2306 -0.3024
 9319SOL    HW139590   0.815   0.122   9.367  0.6179  0.8216  0.4820
 9319SOL    HW239591   0.696   0.079   9.432 -0.8411 -0.1792 -0.7430
 9320SOL     OW39592   2.650   2.361  11.775  0.0230  0.9137  0.0964
 9320SOL    HW139593   2.565   2.404  11.785 -0.8572 -0.4932 -1.2352
 9320SOL    HW239594   2.687   2.418  11.708  1.6606 -1.1425 -0.7548
 9321SOL     OW39595   1.479   0.469   0.189 -0.5553  0.3966 -0.7644
 9321SOL    HW139596   1.410   0.406   0.209 -0.6950  1.1871  1.2319
 9321SOL    HW239597   1.465   0.485   0.095  3.4833 -1.9682 -1.7759
 9322SOL     OW39598   4.726   2.282  11.152 -0.1536 -0.0578 -0.2352
 9322SOL    HW139599   4.647   2.235  11.177  1.0685 -0.7161  2.4334
 9322SOL    HW239600   4.685   2.361  11.118  1.8305  1.0170 -0.1584
 9323SOL     OW39601   0.639   3.744  11.103  0.5070  0.4104 -0.1955
 9323SOL    HW139602   0.623   3.839  11.100  0.7961  0.3998 -2.2700
 9323SOL    HW239603   0.734   3.736  11.111  0.4844  1.2837  1.0014
 9324SOL     OW39604   4.024   0.229   1.784 -0.4475 -0.1742  0.5388
 9324SOL    HW139605   4.064   0.315   1.777 -0.2986 -0.2666  0.2578
 9324SOL    HW239606   3.987   0.226   1.695  1.9933  0.5408 -0.4980
 9325SOL     OW39607   1.488   2.929   7.844  0.7331  0.1570 -0.4155
 9325SOL    HW139608   1.511   2.869   7.774  1.7310 -1.4661  1.2970
 9325SOL    HW239609   1.571   2.944   7.890  0.9125  0.0703 -0.7136
 9326SOL     OW39610   4.104   2.714   3.196  0.1514 -0.0137 -0.3813
 9326SOL    HW139611   4.191   2.675   3.205 -0.2674 -1.1516 -1.2906
 9326SOL    HW239612   4.085   2.722   3.289 -1.5651  1.5594 -0.8555
 9327SOL     OW39613   1.268   3.903   2.116  0.3802  0.1471  0.5240
 9327SOL    HW139614   1.176   3.903   2.144 -0.6570  1.8253 -2.8730
 9327SOL    HW239615   1.275   3.989   2.074  0.5028  0.4304  1.1210
 9328SOL     OW39616   2.720   4.288  11.472  0.9402 -0.2288  0.1267
 9328SOL    HW139617   2.650   4.340  11.433  1.8125 -0.2000 -1.4168
 9328SOL    HW239618   2.792   4.351  11.473  1.6533 -1.0587  1.1237
 9329SOL     OW39619   1.629   1.632   2.423  0.6781  0.3951  0.0272
 9329SOL    HW139620   1.547   1.610   2.380  0.1118  1.6153  0.4799
 9329SOL    HW239621   1.638   1.725   2.398 -0.1978  0.4044 -0.2342
 9330SOL     OW39622   3.988   3.037   9.608  0.0225 -0.0478 -0.0000
 9330SOL    HW139623   3.907   3.015   9.653  0.0276  1.7633  0.8945
 9330SOL    HW239624   4.054   3.037   9.677 -1.8993  0.8402  1.8478
 9331SOL     OW39625   1.537   1.859  12.391 -0.6712  0.4417 -0.1404
 9331SOL    HW139626   1.531   1.763  12.396  1.6470  0.3621  1.2422
 9331SOL    HW239627   1.617   1.871  12.441 -0.7739 -1.1896  0.4377
 9332SOL     OW39628   3.153   0.203   1.859  0.1269  0.5141  0.6238
 9332SOL    HW139629   3.246   0.222   1.863  0.4992 -1.4129  0.8412
 9332SOL    HW239630   3.144   0.124   1.805 -0.8400  0.3581  1.0084
 9333SOL     OW39631   4.412   0.060   6.706  0.3605 -0.5611 -0.1637
 9333SOL    HW139632   4.461   0.137   6.678  1.3459 -1.4885 -0.9914
 9333SOL    HW239633   4.366   0.101   6.779  0.2181 -2.0651  0.6055
 9334SOL     OW39634   4.606   0.225   3.972 -0.5709 -0.2678 -0.0575
 9334SOL    HW139635   4.634   0.292   4.035 -0.3418  0.2662 -0.7258
 9334SOL    HW239636   4.570   0.280   3.903  2.6013  0.4003 -1.1691
 9335SOL     OW39637   3.232   1.513   8.050 -0.3632 -0.3876 -0.2036
 9335SOL    HW139638   3.230   1.478   8.139  1.3793  0.8202  0.3066
 9335SOL    HW239639   3.280   1.596   8.052  0.8207 -1.0860 -0.0580
 9336SOL     OW39640   0.261   0.263   0.762 -0.1845 -0.8654 -0.9306
 9336SOL    HW139641   0.325   0.260   0.833 -1.3938  1.6372  0.2888
 9336SOL    HW239642   0.175   0.284   0.799  0.8050 -2.0017  2.0068
 9337SOL     OW39643   4.453   0.989   2.189 -0.3832  0.1972  0.5563
 9337SOL    HW139644   4.536   1.036   2.179 -1.1052  1.1149 -1.1050
 9337SOL    HW239645   4.480   0.930   2.259  2.7381 -0.7474 -1.4475
 9338SOL     OW39646   3.803   2.481   1.453 -0.8028  0.2285  0.0325
 9338SOL    HW139647   3.874   2.484   1.516  1.5173  3.5140 -2.7195
 9338SOL    HW239648   3.776   2.573   1.450  0.6369  0.6316 -0.3664
 9339SOL     OW39649   1.517   1.142   8.500 -0.2053 -0.1784 -0.1180
 9339SOL    HW139650   1.433   1.157   8.456  0.8891  0.1509 -2.0407
 9339SOL    HW239651   1.582   1.134   8.431  1.3361 -2.6028  1.6271
 9340SOL     OW39652   0.883   0.815  15.669 -1.3177 -0.3979 -0.6451
 9340SOL    HW139653   0.960   0.761  15.691 -0.9990  0.9719  1.5250
 9340SOL    HW239654   0.924   0.898  15.692  0.2001 -0.8841 -1.5384
 9341SOL     OW39655   3.612   0.292   1.034 -0.0308 -0.0231 -0.0013
 9341SOL    HW139656   3.544   0.358   1.050 -0.5615 -0.1729 -1.7286
 9341SOL    HW239657   3.565   0.217   1.069  0.6752  0.0846  1.1907
 9342SOL     OW39658   4.692   1.763   9.165 -0.3011 -0.2622  0.3195
 9342SOL    HW139659   4.641   1.712   9.228 -0.6178 -1.2025 -0.7018
 9342SOL    HW239660   4.614   1.789   9.115  1.5474  0.8767 -1.9959
 9343SOL     OW39661   2.887   4.450   1.649  0.2848 -0.0114  0.2939
 9343SOL    HW139662   2.944   4.451   1.572  2.3023 -0.3253  1.7872
 9343SOL    HW239663   2.842   4.534   1.644 -2.4531 -1.5536 -1.2149
 9344SOL     OW39664   0.537   0.081   2.031 -0.0297  0.3885 -0.1025
 9344SOL    HW139665   0.612   0.029   2.002  0.4355  0.2042  1.4252
 9344SOL    HW239666   0.550   0.085   2.126  2.9931  2.0825 -0.5807
 9345SOL     OW39667   3.224   4.149   2.238  0.0493  0.4435 -0.0735
 9345SOL    HW139668   3.308   4.193   2.223  0.0038  0.2687 -0.8309
 9345SOL    HW239669   3.212   4.165   2.332 -0.2540 -1.2902  0.1843
 9346SOL     OW39670   4.507   4.344   3.162 -0.6150  0.5552 -0.4931
 9346SOL    HW139671   4.568   4.411   3.195 -1.3305  2.1804 -2.4961
 9346SOL    HW239672   4.450   4.321   3.235  0.8964  2.2130  1.2397
 9347SOL     OW39673   3.991   4.509  11.114 -0.2244 -0.1795 -0.0260
 9347SOL    HW139674   4.056   4.544  11.175 -0.7723  0.6271  0.0939
 9347SOL    HW239675   3.971   4.426  11.156  2.1634 -1.6401 -1.7253
 9348SOL     OW39676   0.281   0.915   5.729  0.1626 -0.9959  0.4236
 9348SOL    HW139677   0.375   0.912   5.746  0.4845 -1.1577 -1.3773
 9348SOL    HW239678   0.270   1.010   5.734 -0.9200 -1.0596 -0.5190
 9349SOL     OW39679   3.613   0.716  12.165 -0.0617 -0.6083  0.3031
 9349SOL    HW139680   3.557   0.760  12.229 -0.0712 -1.3730  0.8221
 9349SOL    HW239681   3.550   0.662  12.117  1.5758 -2.2585  0.0139
 9350SOL     OW39682   2.626   2.777  11.512 -0.2060  0.0731  0.6454
 9350SOL    HW139683   2.612   2.784  11.607 -1.6952 -0.2857  0.4582
 9350SOL    HW239684   2.717   2.750  11.503 -0.5453 -0.2896 -1.6657
 9351SOL     OW39685   1.445   3.134   5.105 -0.5516 -0.0619 -0.1143
 9351SOL    HW139686   1.516   3.198   5.103  0.1892 -0.9366 -1.4204
 9351SOL    HW239687   1.502   3.058   5.100 -0.0543  0.2065  1.5082
 9352SOL     OW39688   2.085   3.178   6.339  0.1357  0.0195 -0.4759
 9352SOL    HW139689   2.085   3.236   6.264 -0.7202  0.9534  0.2411
 9352SOL    HW239690   1.991   3.181   6.359  0.3174  0.1207  0.3946
 9353SOL     OW39691   3.055   2.312   9.105 -0.6312  0.3201 -0.2534
 9353SOL    HW139692   3.111   2.385   9.079 -1.4109  0.0562 -2.6700
 9353SOL    HW239693   3.088   2.240   9.051 -2.2419  0.1400 -1.0147
 9354SOL     OW39694   3.962   2.708   6.968 -0.2327 -0.1168  0.0402
 9354SOL    HW139695   3.899   2.681   7.036  0.3456  2.5021  1.5872
 9354SOL    HW239696   4.041   2.677   7.011 -0.0665  0.1203 -0.0963
 9355SOL     OW39697   3.273   4.640   4.329  0.3343  0.6350 -0.4784
 9355SOL    HW139698   3.293   4.659   4.420 -2.2574 -0.8120  0.3913
 9355SOL    HW239699   3.362   4.646   4.291  1.0418 -3.1795  0.5597
 9356SOL     OW39700   1.256   0.887  12.399 -0.7038  0.2621 -0.3756
 9356SOL    HW139701   1.344   0.908  12.366  0.5567 -2.3807  1.2439
 9356SOL    HW239702   1.200   0.936  12.339  0.4311  3.2785  1.0383
 9357SOL     OW39703   2.698   0.595   0.866  0.6514 -0.7178 -0.2645
 9357SOL    HW139704   2.713   0.683   0.899  0.7063 -1.0787  0.6920
 9357SOL    HW239705   2.643   0.620   0.792 -1.4686  1.3096  1.9718
 9358SOL     OW39706   3.630   3.003   8.185 -0.0210 -0.6453  0.9524
 9358SOL    HW139707   3.543   3.008   8.143 -0.1332 -0.3500  1.2209
 9358SOL    HW239708   3.611   3.046   8.268  0.3183 -1.1696  1.3004
 9359SOL     OW39709   3.651   3.247   2.832 -0.4330  0.1576  0.6499
 9359SOL    HW139710   3.643   3.343   2.830  0.7967  0.2624  0.9628
 9359SOL    HW239711   3.632   3.228   2.740 -0.5575 -2.6395  1.2677
 9360SOL     OW39712   0.290   1.185   5.744  0.9151  0.0900  0.4506
 9360SOL    HW139713   0.272   1.247   5.673  1.2981 -0.2398  0.0639
 9360SOL    HW239714   0.376   1.220   5.766  0.6613 -0.0096  1.5728
 9361SOL     OW39715   1.148   2.889   2.549  0.1674 -0.1514 -0.8152
 9361SOL    HW139716   1.078   2.876   2.485 -1.2019 -0.0547  0.6527
 9361SOL    HW239717   1.195   2.960   2.506 -0.7443  1.2041  0.4088
 9362SOL     OW39718   1.634   3.963   7.041  0.6319 -0.2676 -0.3566
 9362SOL    HW139719   1.591   4.047   7.022 -0.5128 -0.5635  0.9332
 9362SOL    HW239720   1.700   3.989   7.106 -0.3499  1.5688 -0.0676
 9363SOL     OW39721   4.094   1.774   7.291 -0.1983  0.4067 -0.1236
 9363SOL    HW139722   4.007   1.782   7.253 -1.4794 -0.5416  2.5789
 9363SOL    HW239723   4.081   1.729   7.374  1.3893  0.5748  0.2183
 9364SOL     OW39724   0.464   1.429  17.547 -0.2524 -0.4650  0.7281
 9364SOL    HW139725   0.472   1.374  17.469 -1.8695  0.6594 -0.2059
 9364SOL    HW239726   0.398   1.374  17.589 -1.9779 -0.6049 -2.1730
 9365SOL     OW39727   2.293   0.155   7.829 -0.1300 -0.7296 -0.2350
 9365SOL    HW139728   2.208   0.188   7.798  1.2122  3.2571  0.3605
 9365SOL    HW239729   2.281   0.061   7.815 -2.1773 -0.5348  0.1196
 9366SOL     OW39730   2.723   2.676   8.090 -0.7789 -0.0045 -0.5127
 9366SOL    HW139731   2.754   2.759   8.054  0.5946  0.1448  1.0480
 9366SOL    HW239732   2.804   2.625   8.085  1.3625  3.1672  2.6134
 9367SOL     OW39733   2.578   1.602   2.714  0.5477  0.6459  0.5929
 9367SOL    HW139734   2.628   1.660   2.771  0.5729  0.6912  0.5257
 9367SOL    HW239735   2.651   1.562   2.667  0.1113 -0.9469  1.2849
 9368SOL     OW39736   2.832   2.918   4.370 -0.2601 -0.6120 -0.1418
 9368SOL    HW139737   2.737   2.924   4.357 -0.4665 -1.6485  0.8888
 9368SOL    HW239738   2.855   2.901   4.279 -2.3970 -1.0622 -0.5943
 9369SOL     OW39739   4.327   4.453   2.915 -0.0935 -0.1929 -0.4352
 9369SOL    HW139740   4.393   4.521   2.929  0.0715 -0.9260  2.3974
 9369SOL    HW239741   4.353   4.407   2.995 -0.9582  0.9963  0.5242
 9370SOL     OW39742   4.496   4.248   4.603 -0.5595  0.4530  0.0620
 9370SOL    HW139743   4.518   4.272   4.693 -0.5357  1.0431 -0.1011
 9370SOL    HW239744   4.506   4.329   4.552 -2.1894  0.9841  0.5760
 9371SOL     OW39745   0.485   3.175   6.151  0.2438  0.4676  0.5330
 9371SOL    HW139746   0.562   3.207   6.104  0.1945  1.6238  1.2253
 9371SOL    HW239747   0.456   3.111   6.086 -0.7731  1.5719 -0.1027
 9372SOL     OW39748   0.518   4.680  14.865 -0.0113 -0.4789  0.0998
 9372SOL    HW139749   0.481   4.722  14.788 -0.9670  0.2622  0.9661
 9372SOL    HW239750   0.492   4.730  14.942  2.3286 -3.0697  2.5587
 9373SOL     OW39751   1.764   0.866   8.054  0.4426  0.5282  0.5227
 9373SOL    HW139752   1.818   0.894   8.128  1.5694 -2.5769  0.8686
 9373SOL    HW239753   1.734   0.955   8.034  1.2299  0.8290  0.6647
 9374SOL     OW39754   1.004   2.703  16.947 -0.0929  0.0319  0.0868
 9374SOL    HW139755   0.968   2.725  17.033  1.3155  1.4105  0.2966
 9374SOL    HW239756   0.972   2.775  16.894 -1.8128  0.3208  1.4755
 9375SOL     OW39757   3.814   0.488   1.244 -0.6073  0.0959  0.3324
 9375SOL    HW139758   3.843   0.437   1.168  0.1980  0.7435  0.1948
 9375SOL    HW239759   3.897   0.494   1.291  0.1748 -0.4859 -0.9876
 9376SOL     OW39760   1.806   0.947  12.514  0.1109  0.1768 -0.1407
 9376SOL    HW139761   1.800   0.854  12.491 -0.0646 -0.0944  1.0047
 9376SOL    HW239762   1.781   0.992  12.434  1.8152  0.7980 -0.3297
 9377SOL     OW39763   0.201   1.773   4.843 -0.4974  0.0360 -0.1200
 9377SOL    HW139764   0.250   1.790   4.762  0.1123  1.2130  0.5037
 9377SOL    HW239765   0.174   1.682   4.832 -0.3069 -0.2118  1.5841
 9378SOL     OW39766   1.827   3.874  13.161 -0.2397 -0.1572  0.8859
 9378SOL    HW139767   1.897   3.861  13.225  1.6565 -2.6338 -1.7368
 9378SOL    HW239768   1.809   3.966  13.183 -1.3666 -0.3787  0.9061
 9379SOL     OW39769   0.985   3.427   5.464 -0.1427  0.6237  0.2124
 9379SOL    HW139770   0.928   3.407   5.538  0.4875 -0.4254  0.4226
 9379SOL    HW239771   0.999   3.339   5.427 -2.0092 -0.1145  1.2298
 9380SOL     OW39772   1.240   3.533  14.891  0.2668 -0.2709 -0.6446
 9380SOL    HW139773   1.284   3.518  14.808 -1.7793 -1.5304 -1.5116
 9380SOL    HW239774   1.166   3.472  14.898 -0.0423  0.2459  0.6458
 9381SOL     OW39775   3.810   2.783  13.827 -0.3920  0.4459 -0.0505
 9381SOL    HW139776   3.812   2.789  13.731  3.2187 -1.2652 -0.0658
 9381SOL    HW239777   3.798   2.689  13.838  0.8254  0.0684 -1.9766
 9382SOL     OW39778   1.940   2.320   8.230  0.2993  0.8042  0.0922
 9382SOL    HW139779   1.970   2.386   8.293 -3.3712 -0.2722  2.9517
 9382SOL    HW239780   2.023   2.278   8.207  0.9560  1.9522  0.3375
 9383SOL     OW39781   0.358   3.728  13.362 -0.5331  0.3369  0.1591
 9383SOL    HW139782   0.390   3.758  13.277 -0.0486  0.4356  0.3788
 9383SOL    HW239783   0.385   3.638  13.349  0.8151  0.9346 -1.1710
 9384SOL     OW39784   4.066   2.948   0.089 -0.1604 -0.2701 -0.0241
 9384SOL    HW139785   4.004   3.021   0.086 -3.7935 -3.3723  0.6544
 9384SOL    HW239786   4.002   2.879   0.074 -1.2819  0.3905  1.7423
 9385SOL     OW39787   2.610   2.814   8.848  0.0918 -0.1007  0.7952
 9385SOL    HW139788   2.665   2.850   8.778 -0.8260  1.1148  0.7103
 9385SOL    HW239789   2.657   2.734   8.871 -1.2832 -1.0534  0.2539
 9386SOL     OW39790   1.701   0.984   9.529 -0.3024 -0.5654 -0.2023
 9386SOL    HW139791   1.746   1.066   9.510 -0.1062 -0.8200 -0.8646
 9386SOL    HW239792   1.679   0.957   9.439 -0.2753 -1.2252 -0.0120
 9387SOL     OW39793   3.597   0.221   2.685  0.6961 -0.5507 -0.0778
 9387SOL    HW139794   3.528   0.272   2.642  0.8843 -0.0017  0.2821
 9387SOL    HW239795   3.553   0.183   2.761  0.4548  2.2974  1.1690
 9388SOL     OW39796   0.236   3.717  11.551 -0.6923  0.8169 -0.1718
 9388SOL    HW139797   0.163   3.724  11.489  1.7242 -0.4095 -3.1501
 9388SOL    HW239798   0.236   3.623  11.570  0.5448  0.8624  0.0313
 9389SOL     OW39799   4.294   2.607   1.800 -0.2697  0.2028 -0.0041
 9389SOL    HW139800   4.288   2.529   1.745  4.7416 -0.9521  1.0552
 9389SOL    HW239801   4.319   2.568   1.884  2.8577  1.5926 -0.3062
 9390SOL     OW39802   2.012   0.194   9.050  0.4075  0.1351 -0.5200
 9390SOL    HW139803   1.955   0.171   9.123 -0.0953 -0.8704 -1.2236
 9390SOL    HW239804   2.019   0.287   9.073  1.1102 -0.3533  1.2344
 9391SOL     OW39805   2.891   3.676   2.365 -0.3723 -0.7175  0.4704
 9391SOL    HW139806   2.848   3.731   2.430 -1.6098 -0.3811 -0.6215
 9391SOL    HW239807   2.980   3.712   2.366 -1.1674  1.2783 -0.8675
 9392SOL     OW39808   0.138   0.137   7.978  0.2039  0.1696 -0.0328
 9392SOL    HW139809   0.101   0.169   8.060  0.6317 -1.3306  0.7316
 9392SOL    HW239810   0.225   0.111   8.007 -0.4203 -0.1120  1.5960
 9393SOL     OW39811   4.007   3.356  15.244  0.2852 -0.4125 -0.2765
 9393SOL    HW139812   4.009   3.320  15.332 -1.3019  0.8210  0.2709
 9393SOL    HW239813   4.016   3.450  15.263  1.0498 -0.5234 -0.0811
 9394SOL     OW39814   2.844   0.102  16.807 -0.5966  0.5365  0.5819
 9394SOL    HW139815   2.781   0.143  16.748 -0.3390 -0.8719 -0.6762
 9394SOL    HW239816   2.907   0.172  16.824  1.1510 -0.7657 -0.4501
 9395SOL     OW39817   1.388   1.233   3.640  0.0305 -0.0661 -0.0488
 9395SOL    HW139818   1.299   1.263   3.660  0.0389  0.7650 -1.2395
 9395SOL    HW239819   1.374   1.145   3.674  1.5939  0.0046  0.7975
 9396SOL     OW39820   3.112   4.284   8.751 -0.0394  0.1425 -0.0588
 9396SOL    HW139821   3.126   4.304   8.658  1.5645  0.7693  0.3154
 9396SOL    HW239822   3.141   4.193   8.759 -0.9025 -0.2155 -0.9621
 9397SOL     OW39823   0.163   2.212  15.673  0.4926 -0.1573  0.3039
 9397SOL    HW139824   0.140   2.269  15.599  3.5577  0.1543 -0.4138
 9397SOL    HW239825   0.194   2.134  15.627  1.5135  0.5257 -0.1696
 9398SOL     OW39826   2.938   0.362  16.774  0.1836  0.2617  1.0048
 9398SOL    HW139827   2.959   0.449  16.738 -0.0720 -0.3084 -0.5313
 9398SOL    HW239828   2.868   0.385  16.834 -1.0720 -0.9135  0.0025
 9399SOL     OW39829   0.517   3.731   2.737  0.5522 -0.2260  0.3601
 9399SOL    HW139830   0.567   3.652   2.758  0.1577  0.2065  2.9148
 9399SOL    HW239831   0.568   3.763   2.662 -3.2611  1.6089 -1.4743
 9400SOL     OW39832   1.401   4.450   4.853  0.1526 -0.0426  0.3692
 9400SOL    HW139833   1.307   4.466   4.860 -0.1124 -1.3153 -0.2625
 9400SOL    HW239834   1.419   4.389   4.924  0.3424  0.8788  1.1037
 9401SOL     OW39835   2.311   3.253  14.117  0.1599 -0.5384 -0.3184
 9401SOL    HW139836   2.290   3.207  14.036  0.5692  0.1844 -0.8340
 9401SOL    HW239837   2.354   3.334  14.090  2.0981 -1.9057 -1.3677
 9402SOL     OW39838   3.297   3.768  11.389  0.1031 -0.2681  0.3812
 9402SOL    HW139839   3.331   3.793  11.304 -0.6766  2.3861  0.8380
 9402SOL    HW239840   3.222   3.827  11.386  0.6592  0.4947  1.3728
 9403SOL     OW39841   1.680   2.880   6.325  0.0661 -0.1683  0.2067
 9403SOL    HW139842   1.646   2.792   6.336 -1.2481  0.3194 -0.0040
 9403SOL    HW239843   1.655   2.919   6.408 -0.6037 -0.0373 -0.0588
 9404SOL     OW39844   3.481   2.525   3.324  0.4448 -0.8217 -0.3158
 9404SOL    HW139845   3.567   2.561   3.302  0.6405 -1.8329 -1.1882
 9404SOL    HW239846   3.440   2.527   3.238  0.2620  2.1034 -0.1526
 9405SOL     OW39847   4.319   2.583  10.982  0.1757  0.3254  0.0046
 9405SOL    HW139848   4.252   2.543  10.927 -1.2339  1.1490  1.1330
 9405SOL    HW239849   4.347   2.521  11.050 -1.1047  0.5346  0.7219
 9406SOL     OW39850   3.959   4.416   5.997  0.0808 -0.5010  0.4206
 9406SOL    HW139851   3.981   4.458   5.914 -0.6846  1.3077  1.1344
 9406SOL    HW239852   4.022   4.460   6.054 -0.5963 -0.3599  1.0705
 9407SOL     OW39853   2.688   0.231  15.281  0.1382 -0.4805  0.7755
 9407SOL    HW139854   2.727   0.173  15.346 -1.7218 -0.0315  2.2727
 9407SOL    HW239855   2.682   0.179  15.200 -0.0216 -0.4438  0.7638
 9408SOL     OW39856   4.153   2.141   0.281 -0.1380 -0.3962  0.0550
 9408SOL    HW139857   4.117   2.090   0.209  0.9206 -0.0830 -0.7104
 9408SOL    HW239858   4.204   2.080   0.333  1.2326  0.6470 -0.0576
 9409SOL     OW39859   0.326   2.920   8.283 -0.9273 -0.3648  0.0339
 9409SOL    HW139860   0.356   3.005   8.250  1.7073  0.5479  4.6552
 9409SOL    HW239861   0.386   2.861   8.237 -1.4416 -0.1456 -0.9009
 9410SOL     OW39862   4.430   4.721   4.799 -0.1411  0.6659 -0.9180
 9410SOL    HW139863   4.451   4.708   4.706 -2.9272  0.1910 -1.4823
 9410SOL    HW239864   4.343   4.680   4.804  0.5474 -0.7579 -0.5995
 9411SOL     OW39865   3.059   2.728  15.190  0.2916 -0.4089 -0.2257
 9411SOL    HW139866   3.099   2.794  15.247 -1.4983 -1.7562  2.5949
 9411SOL    HW239867   3.047   2.665  15.261  1.1812 -0.8442 -0.4623
 9412SOL     OW39868   4.656   4.135   2.241  0.2022 -0.4133  0.5859
 9412SOL    HW139869   4.719   4.069   2.211 -0.0898 -2.1662  3.8950
 9412SOL    HW239870   4.688   4.216   2.201  0.3202 -2.0562 -2.6189
 9413SOL     OW39871   2.536   2.583   7.936 -0.7718  0.3799 -0.1720
 9413SOL    HW139872   2.586   2.625   8.006  0.3467 -1.2705  0.0324
 9413SOL    HW239873   2.603   2.532   7.890 -2.2114 -0.1621 -1.6750
 9414SOL     OW39874   1.474   1.371  17.367 -0.0279  0.5129  0.2513
 9414SOL    HW139875   1.387   1.411  17.366  0.5612  1.7405 -1.6795
 9414SOL    HW239876   1.450   1.283  17.336 -2.4941  0.6752  1.6361
 9415SOL     OW39877   4.178   3.739   2.082 -0.7876 -0.4709  0.2817
 9415SOL    HW139878   4.177   3.784   1.998 -1.4513  1.6458  1.3959
 9415SOL    HW239879   4.149   3.651   2.058 -2.2570  0.5436 -1.6946
 9416SOL     OW39880   4.538   2.864   3.813  0.0142 -0.1057  0.1284
 9416SOL    HW139881   4.455   2.826   3.783 -0.0764 -0.4589  0.8188
 9416SOL    HW239882   4.602   2.820   3.757 -0.7583 -1.1927  0.0820
 9417SOL     OW39883   3.007   1.279   8.842  0.0463  0.5322 -0.0957
 9417SOL    HW139884   2.960   1.315   8.767  0.5665  1.7573  0.1663
 9417SOL    HW239885   2.936   1.266   8.904 -0.2369 -0.5205 -0.6543
 9418SOL     OW39886   1.000   1.611   5.480 -0.0946  0.4055  0.1621
 9418SOL    HW139887   1.083   1.565   5.496 -0.4694 -0.1804  0.4052
 9418SOL    HW239888   0.953   1.611   5.563 -0.6858  0.5585 -0.1733
 9419SOL     OW39889   4.672   4.197  16.225  0.1664  0.2333 -0.3589
 9419SOL    HW139890   4.604   4.178  16.160 -1.0477 -0.1004  1.0129
 9419SOL    HW239891   4.622   4.257  16.281 -2.8530 -1.2457 -1.4434
 9420SOL     OW39892   4.331   3.997  11.040  0.0138 -1.0371  0.8151
 9420SOL    HW139893   4.304   4.052  10.967  0.5278 -1.2477  0.4626
 9420SOL    HW239894   4.250   3.948  11.054 -0.6763 -0.5187 -1.3972
 9421SOL     OW39895   2.420   3.779   2.855  0.3517 -0.4896 -0.1517
 9421SOL    HW139896   2.471   3.705   2.889  0.3880 -1.2392 -1.8490
 9421SOL    HW239897   2.443   3.779   2.762 -1.4084  1.8430 -0.5800
 9422SOL     OW39898   0.595   1.947  16.278  0.3525  0.5541  0.0887
 9422SOL    HW139899   0.675   1.906  16.313 -0.6492 -0.7399  0.8707
 9422SOL    HW239900   0.525   1.930  16.342  0.8165 -0.8339  0.2358
 9423SOL     OW39901   1.877   3.796  10.530  0.0607  0.0231  0.0682
 9423SOL    HW139902   1.906   3.884  10.555  4.0407 -1.3693  0.2878
 9423SOL    HW239903   1.866   3.815  10.437  0.2424 -1.0281 -0.1644
 9424SOL     OW39904   3.874   1.271   6.233 -0.1234 -0.1420 -0.6066
 9424SOL    HW139905   3.930   1.232   6.300 -1.0827 -0.4531  0.0178
 9424SOL    HW239906   3.815   1.319   6.291  0.3385 -1.2306  0.7777
 9425SOL     OW39907   3.228   3.277   3.606 -1.2383  0.2621 -0.2463
 9425SOL    HW139908   3.244   3.232   3.522  0.8372 -1.2730  0.9646
 9425SOL    HW239909   3.149   3.230   3.631 -0.5448  0.9726  3.1871
 9426SOL     OW39910   2.236   0.744   0.884  0.5608  0.3416  0.3427
 9426SOL    HW139911   2.237   0.771   0.975 -1.0905  1.6839 -0.0353
 9426SOL    HW239912   2.192   0.817   0.840 -2.4113 -0.7008  1.5967
 9427SOL     OW39913   3.831   0.843  10.809 -0.4846  0.5006  0.3472
 9427SOL    HW139914   3.821   0.762  10.860  1.1312  1.7656  2.6590
 9427SOL    HW239915   3.753   0.888  10.843 -1.5480  0.3759 -1.9318
 9428SOL     OW39916   0.013   1.034  13.521  0.0107  0.0240 -0.0456
 9428SOL    HW139917   4.729   0.954  13.474  2.5127 -1.2237  0.7420
 9428SOL    HW239918   0.081   1.063  13.459 -0.5718  1.0132 -0.2264
 9429SOL     OW39919   2.557   3.895   6.440  0.0465  0.6795  0.0202
 9429SOL    HW139920   2.583   3.836   6.369 -2.0630 -0.2888  0.0534
 9429SOL    HW239921   2.490   3.940   6.389  1.3848  0.6089 -1.8015
 9430SOL     OW39922   3.008   3.020  15.736 -0.5973  0.7615  0.3141
 9430SOL    HW139923   2.931   3.049  15.687 -0.6573  0.0711  0.0106
 9430SOL    HW239924   3.073   3.085  15.710  1.7143 -1.1120  1.4413
 9431SOL     OW39925   3.578   2.076   7.821 -0.3085  0.3007  0.5617
 9431SOL    HW139926   3.489   2.107   7.838  0.2272  1.3117  1.5331
 9431SOL    HW239927   3.564   1.985   7.795 -1.2344  0.7831 -0.6175
 9432SOL     OW39928   2.521   2.885   2.591 -0.4228 -0.1640  0.3020
 9432SOL    HW139929   2.456   2.827   2.553  1.8375 -1.8826 -0.9450
 9432SOL    HW239930   2.472   2.915   2.667 -1.2668  0.2504 -0.4076
 9433SOL     OW39931   0.287   2.854   2.067  0.4099  0.1597  0.2692
 9433SOL    HW139932   0.210   2.810   2.031  0.4833  0.8094 -0.6619
 9433SOL    HW239933   0.300   2.931   2.011 -1.2450  0.8709  0.8748
 9434SOL     OW39934   2.781   0.464  12.769 -0.2721 -0.5679  0.4720
 9434SOL    HW139935   2.797   0.491  12.859  2.5593  0.9032 -0.4699
 9434SOL    HW239936   2.736   0.544  12.741  1.8829  0.5539  0.1717
 9435SOL     OW39937   3.386   4.322   5.805  0.4621 -0.2787 -0.8226
 9435SOL    HW139938   3.379   4.247   5.746 -1.3053 -0.2347 -0.6602
 9435SOL    HW239939   3.323   4.288   5.869  0.8757  0.3195 -0.1074
 9436SOL     OW39940   3.720   4.030   0.736 -0.2717 -0.2163  0.5013
 9436SOL    HW139941   3.804   3.993   0.709  0.2726  0.1904  1.6465
 9436SOL    HW239942   3.680   4.024   0.649  1.8244 -1.3706 -0.3799
 9437SOL     OW39943   3.652   1.192   4.003 -0.1115  0.4244 -0.3825
 9437SOL    HW139944   3.695   1.275   4.025  2.8014 -1.0085 -0.6488
 9437SOL    HW239945   3.724   1.132   4.023  0.7600  1.7455  0.4692
 9438SOL     OW39946   2.612   1.932  10.404 -0.1995 -0.4817 -0.3798
 9438SOL    HW139947   2.620   1.912  10.311 -0.5761  1.5669 -0.8567
 9438SOL    HW239948   2.532   1.985  10.405 -0.5969 -1.0637 -1.3604
 9439SOL     OW39949   3.215   3.661  16.544 -1.0472  0.1414 -0.0735
 9439SOL    HW139950   3.187   3.733  16.488 -1.1009  0.1942  0.0209
 9439SOL    HW239951   3.311   3.669  16.544 -0.9977 -0.4546 -1.6806
 9440SOL     OW39952   0.391   0.521   5.164 -0.2470 -0.1862  0.1986
 9440SOL    HW139953   0.311   0.468   5.156 -2.5758  3.1824  1.3020
 9440SOL    HW239954   0.392   0.542   5.257 -1.2263  0.0026  0.1717
 9441SOL     OW39955   0.231   3.925  12.920 -0.2719 -0.2725 -0.0615
 9441SOL    HW139956   0.307   3.886  12.963 -2.3781 -2.5976  1.5397
 9441SOL    HW239957   0.274   3.988  12.862 -0.5236 -1.4383 -1.5014
 9442SOL     OW39958   2.196   4.050   3.343  0.3047  0.3073 -0.0683
 9442SOL    HW139959   2.112   4.033   3.385 -0.7316  2.3712 -1.3091
 9442SOL    HW239960   2.186   4.140   3.311 -0.6407 -0.1290 -0.9835
 9443SOL     OW39961   1.606   3.569  14.228 -0.6853 -0.7003  0.4264
 9443SOL    HW139962   1.610   3.506  14.155  2.9250 -1.1919  1.0436
 9443SOL    HW239963   1.656   3.636  14.182 -1.5973  0.2562  0.8458
 9444SOL     OW39964   1.793   4.445  10.631  0.4699 -0.6077  0.1507
 9444SOL    HW139965   1.825   4.388  10.561  0.9935 -0.9454  0.6715
 9444SOL    HW239966   1.810   4.532  10.594  2.7903 -0.0961  2.4343
 9445SOL     OW39967   0.777   4.088   3.892 -0.2430  1.0819  0.5037
 9445SOL    HW139968   0.723   4.166   3.902  0.5691  1.7816 -0.6182
 9445SOL    HW239969   0.731   4.044   3.820 -0.6640  1.2745  0.6555
 9446SOL     OW39970   2.282   2.081   2.990 -0.0321 -0.4763 -0.6532
 9446SOL    HW139971   2.217   2.091   2.921 -1.8295 -0.4892  1.0486
 9446SOL    HW239972   2.358   2.085   2.932 -0.4901 -0.0324 -1.2292
 9447SOL     OW39973   2.909   0.862   6.401 -0.0641  0.6951 -0.3763
 9447SOL    HW139974   2.934   0.902   6.485 -0.9553  0.1393  0.1506
 9447SOL    HW239975   2.816   0.882   6.398 -0.1542 -0.2018 -2.7811
 9448SOL     OW39976   2.374   0.915   7.986  0.2561  0.0094 -0.1937
 9448SOL    HW139977   2.360   0.841   7.928 -0.3205  1.6499 -2.1424
 9448SOL    HW239978   2.467   0.928   7.967  0.1483 -1.1328 -1.4219
 9449SOL     OW39979   4.238   1.307   8.262  0.0396  0.1273  0.0664
 9449SOL    HW139980   4.258   1.317   8.169 -1.6480  1.4024 -0.1557
 9449SOL    HW239981   4.145   1.329   8.261  0.1432  0.6200  1.7242
 9450SOL     OW39982   0.684   4.704   7.308  0.0518 -0.0476 -0.2082
 9450SOL    HW139983   0.696   4.629   7.366 -3.8511  0.6207  1.4604
 9450SOL    HW239984   0.762   4.705   7.251  0.8575  0.0830  0.9103
 9451SOL     OW39985   2.401   4.544   9.186 -0.2381  0.1753 -0.1466
 9451SOL    HW139986   2.470   4.608   9.203  1.4423 -1.6671  0.0780
 9451SOL    HW239987   2.334   4.582   9.242  0.2645  2.0510 -0.8140
 9452SOL     OW39988   1.542   1.789  15.497  0.2210  0.0713  0.3485
 9452SOL    HW139989   1.447   1.782  15.489  0.1009 -0.6565  2.4954
 9452SOL    HW239990   1.542   1.853  15.569 -1.8259 -0.4583  0.8327
 9453SOL     OW39991   4.299   0.289  16.972 -0.0845 -0.0200  0.4059
 9453SOL    HW139992   4.276   0.242  17.052 -0.2622  0.6088  0.7182
 9453SOL    HW239993   4.245   0.242  16.908 -0.4891  1.1930 -0.1440
 9454SOL     OW39994   4.214   1.486   1.555 -0.1407  0.2151  0.4232
 9454SOL    HW139995   4.276   1.414   1.566 -0.3254 -0.3275 -2.0903
 9454SOL    HW239996   4.259   1.535   1.487 -2.1874  2.3151  0.5698
 9455SOL     OW39997   1.142   4.577   6.034  0.2519 -0.1829  0.4922
 9455SOL    HW139998   1.204   4.539   6.096  0.5057 -0.6789 -0.0614
 9455SOL    HW239999   1.180   4.537   5.956 -0.4901 -0.9911  0.5427
 9456SOL     OW40000   4.503   1.283   7.794  0.1724 -0.2451 -0.5952
 9456SOL    HW140001   4.575   1.219   7.797 -0.2602 -0.5558  3.3463
 9456SOL    HW240002   4.531   1.335   7.869 -1.5220 -0.3528  0.0952
 9457SOL     OW40003   1.137   4.377   8.362  0.4540  0.9241 -0.3693
 9457SOL    HW140004   1.158   4.292   8.324 -1.3038  0.7942 -1.0441
 9457SOL    HW240005   1.061   4.360   8.417  1.3423  2.9139  1.4769
 9458SOL     OW40006   2.742   0.535   3.423 -0.4330  0.0679  0.2672
 9458SOL    HW140007   2.748   0.611   3.366 -1.1289 -2.2732 -2.9561
 9458SOL    HW240008   2.723   0.575   3.508  2.3084  0.2832  0.7683
 9459SOL     OW40009   1.494   2.775   7.592 -0.3062 -0.1269 -0.0035
 9459SOL    HW140010   1.422   2.796   7.533 -0.3976  0.6316  0.3730
 9459SOL    HW240011   1.529   2.690   7.566 -0.7248 -0.4738  0.5938
 9460SOL     OW40012   1.990   1.936   3.252 -0.3815  0.3356  0.5682
 9460SOL    HW140013   1.986   1.845   3.282  1.3012  0.0795  0.0425
 9460SOL    HW240014   2.081   1.962   3.263 -0.6566  2.0900 -1.2375
 9461SOL     OW40015   3.014   0.492   7.980  0.8811  0.0081 -0.3224
 9461SOL    HW140016   2.941   0.437   7.952  0.2657 -0.0609  1.3738
 9461SOL    HW240017   2.989   0.520   8.068  1.7820 -1.4562  0.3970
 9462SOL     OW40018   0.951   4.658   3.735 -0.2561  0.0221  0.5458
 9462SOL    HW140019   0.982   4.724   3.797 -1.1166  1.6825 -0.7705
 9462SOL    HW240020   0.945   4.577   3.785  0.0829  0.9564  2.1037
 9463SOL     OW40021   0.035   1.810   1.969  0.2329 -0.3074  0.0061
 9463SOL    HW140022   0.090   1.772   2.037 -0.1729 -1.6598 -0.4128
 9463SOL    HW240023   4.695   1.830   2.016  0.7420 -1.2714  1.3041
 9464SOL     OW40024   3.526   3.338   1.799  0.6531  0.3202 -0.6388
 9464SOL    HW140025   3.485   3.423   1.811  1.1062  0.1250  2.4243
 9464SOL    HW240026   3.509   3.296   1.884 -0.4201 -1.4833 -1.7396
 9465SOL     OW40027   2.071   2.894   2.710  0.1901  0.1518 -0.5468
 9465SOL    HW140028   2.096   2.916   2.620 -1.1432 -0.5640 -1.1045
 9465SOL    HW240029   2.013   2.823   2.684 -0.8229  0.5759  0.5555
 9466SOL     OW40030   4.533   4.091   3.780 -0.4135  0.0122 -0.3587
 9466SOL    HW140031   4.459   4.077   3.721  1.1448 -0.8045 -2.1158
 9466SOL    HW240032   4.567   4.178   3.758 -1.2558  0.5602  0.5156
 9467SOL     OW40033   4.434   0.904  16.991 -0.4548  0.5400  0.8562
 9467SOL    HW140034   4.356   0.850  17.001  0.9473 -1.5254  0.4770
 9467SOL    HW240035   4.403   0.967  16.926 -0.8113 -0.7554 -0.2113
 9468SOL     OW40036   4.025   3.952  15.996  0.0475 -1.1199  0.2047
 9468SOL    HW140037   3.931   3.960  16.013 -0.3257 -0.0658 -2.4282
 9468SOL    HW240038   4.032   3.862  15.966 -0.2064 -1.2250  0.4592
 9469SOL     OW40039   2.947   1.693   5.613 -0.5115  0.1626  0.8657
 9469SOL    HW140040   2.935   1.613   5.561  1.4039  0.6025 -0.2595
 9469SOL    HW240041   2.949   1.751   5.537 -0.1932 -0.2007  0.5938
 9470SOL     OW40042   3.090   1.837  15.505  0.1357 -0.5610  0.2325
 9470SOL    HW140043   3.139   1.754  15.510  2.0570  0.3687 -2.8261
 9470SOL    HW240044   3.102   1.875  15.592  0.2090 -1.0435  0.4373
 9471SOL     OW40045   1.891   4.716   6.785  0.3017 -0.2570 -0.1604
 9471SOL    HW140046   1.802   4.682   6.792  0.4038 -0.4880  0.0091
 9471SOL    HW240047   1.878   0.029   6.707  1.3362 -0.3007 -0.3587
 9472SOL     OW40048   0.716   0.853  12.943 -0.0184  0.2766 -0.0544
 9472SOL    HW140049   0.748   0.850  12.853  0.6702  1.3905  0.1631
 9472SOL    HW240050   0.774   0.920  12.978  1.6254 -0.6525 -1.0117
 9473SOL     OW40051   4.246   4.182  13.920  0.2383 -0.0774  0.2933
 9473SOL    HW140052   4.278   4.152  14.006  0.0251 -1.1017  0.0226
 9473SOL    HW240053   4.161   4.138  13.919  0.2046  0.0185 -0.9160
 9474SOL     OW40054   0.798   1.664   8.458 -0.0461  0.1130  0.3282
 9474SOL    HW140055   0.834   1.693   8.542  2.1882  0.2987 -0.6853
 9474SOL    HW240056   0.703   1.671   8.467  0.0420  1.0815  0.5973
 9475SOL     OW40057   0.935   3.503   3.684  0.7817  0.1282 -0.2044
 9475SOL    HW140058   1.029   3.507   3.664  0.4865  1.8314 -1.2601
 9475SOL    HW240059   0.944   3.447   3.761  1.2067 -2.3292 -2.0573
 9476SOL     OW40060   4.096   1.367   2.120 -0.5831 -0.3863 -0.0902
 9476SOL    HW140061   4.098   1.390   2.212 -1.3127  0.5247 -0.3016
 9476SOL    HW240062   4.148   1.442   2.091  1.6072 -1.4675  1.0337
 9477SOL     OW40063   3.275   4.143  17.111  0.0648 -0.3158 -0.1398
 9477SOL    HW140064   3.244   4.176  17.026 -1.5280  0.5067  0.7589
 9477SOL    HW240065   3.356   4.194  17.109 -0.1550  0.0762  1.2068
 9478SOL     OW40066   1.338   0.083   8.670 -0.2658 -0.3611 -0.2215
 9478SOL    HW140067   1.275   0.146   8.635  2.2805  1.4783 -1.4445
 9478SOL    HW240068   1.320   4.739   8.628 -1.8811 -0.6962  1.1236
 9479SOL     OW40069   0.406   1.130   1.820  0.0351 -0.2775  0.0400
 9479SOL    HW140070   0.439   1.187   1.888 -1.8656 -0.8551  1.4260
 9479SOL    HW240071   0.488   1.126   1.771 -0.4518  1.1427 -0.8974
 9480SOL     OW40072   4.451   1.818   9.057 -0.4576 -0.5444 -0.4764
 9480SOL    HW140073   4.377   1.874   9.076  0.1889 -0.5638  2.0670
 9480SOL    HW240074   4.409   1.732   9.066 -0.8964 -0.4231 -1.3774
 9481SOL     OW40075   0.038   2.177  17.432 -0.3537 -0.5853 -0.1819
 9481SOL    HW140076   4.736   2.115  17.491 -3.4524 -0.4121 -2.2989
 9481SOL    HW240077   0.038   2.132  17.348 -1.8336 -0.1090 -0.4359
 9482SOL     OW40078   0.689   0.902  12.164  0.5151  0.6068  0.5553
 9482SOL    HW140079   0.706   0.924  12.255 -2.9069  0.3446  1.2777
 9482SOL    HW240080   0.775   0.925  12.130 -0.0215  0.6103 -0.8062
 9483SOL     OW40081   3.327   2.453   7.697 -0.6441  0.8448  0.2702
 9483SOL    HW140082   3.241   2.494   7.700 -0.1351  2.0443 -1.3040
 9483SOL    HW240083   3.375   2.487   7.773  0.0043  2.4276 -0.8534
 9484SOL     OW40084   3.010   2.359   3.672 -0.2217  0.6453  0.0944
 9484SOL    HW140085   3.068   2.432   3.649 -0.6978  0.5374 -1.4543
 9484SOL    HW240086   2.972   2.385   3.756 -1.1018 -0.5980  0.0829
 9485SOL     OW40087   3.996   2.424   4.864 -0.5358  0.2336  0.0501
 9485SOL    HW140088   4.026   2.376   4.787 -0.5804  2.4897 -1.3778
 9485SOL    HW240089   3.955   2.498   4.819 -0.9253 -0.6230 -1.0133
 9486SOL     OW40090   1.004   0.818   3.480 -0.4616  0.3055  0.2239
 9486SOL    HW140091   1.095   0.814   3.450 -0.6806  0.9781 -0.5337
 9486SOL    HW240092   0.970   0.782   3.398  2.7408  2.2875 -1.9791
 9487SOL     OW40093   3.420   2.454   8.754 -0.0013 -0.1355  0.4112
 9487SOL    HW140094   3.467   2.497   8.683 -0.8632  0.0877 -0.0323
 9487SOL    HW240095   3.495   2.426   8.806 -0.5110 -2.2775 -0.0414
 9488SOL     OW40096   0.087   2.223   3.189  0.4238 -0.2402 -0.0503
 9488SOL    HW140097   0.037   2.142   3.202 -1.1953  0.9306  1.0757
 9488SOL    HW240098   0.177   2.201   3.211  1.4210  4.4857  0.5919
 9489SOL     OW40099   1.581   1.681   7.803  0.2296 -0.3034 -0.0303
 9489SOL    HW140100   1.505   1.628   7.829  0.3653 -0.9083 -0.8803
 9489SOL    HW240101   1.587   1.674   7.708 -0.3881 -3.9624  0.1988
 9490SOL     OW40102   2.311   2.918   3.315 -0.5033  0.5193  0.6095
 9490SOL    HW140103   2.282   2.982   3.380 -1.3136 -0.9140  1.6522
 9490SOL    HW240104   2.356   2.979   3.257 -1.5188  1.0443  0.3663
 9491SOL     OW40105   0.582   0.753   4.025 -0.5602 -0.2723 -0.2484
 9491SOL    HW140106   0.634   0.711   4.094 -0.6427 -1.1652 -0.7250
 9491SOL    HW240107   0.557   0.676   3.973 -0.1781 -1.4344  1.2839
 9492SOL     OW40108   2.393   2.408   6.192 -0.0409  0.3674 -0.0120
 9492SOL    HW140109   2.348   2.390   6.274 -1.9075 -0.0541 -1.1389
 9492SOL    HW240110   2.479   2.374   6.216 -0.5555  0.4552  1.9892
 9493SOL     OW40111   1.852   2.032   7.150 -0.1585 -0.7586  0.6823
 9493SOL    HW140112   1.937   1.995   7.173 -0.1118 -0.6657  0.6625
 9493SOL    HW240113   1.862   2.122   7.182 -0.4415 -0.0119 -1.3659
 9494SOL     OW40114   3.894   1.283  16.843  0.0039  0.0322  0.3395
 9494SOL    HW140115   3.905   1.374  16.813 -1.3233  0.3556  0.8531
 9494SOL    HW240116   3.814   1.290  16.894  0.0484  1.1025  0.2750
 9495SOL     OW40117   3.428   1.388   3.949 -0.2427  0.7828  0.2766
 9495SOL    HW140118   3.381   1.358   4.027  0.4571 -1.1773 -0.0531
 9495SOL    HW240119   3.518   1.400   3.977  0.1674 -0.0111 -0.7004
 9496SOL     OW40120   2.077   2.036   6.136 -0.3411 -0.1103  0.3673
 9496SOL    HW140121   1.990   2.041   6.176 -0.9200 -1.7944 -0.6855
 9496SOL    HW240122   2.064   2.016   6.043 -0.5102 -0.0977  0.3892
 9497SOL     OW40123   1.953   3.121   6.697 -0.7604 -0.3321 -0.1234
 9497SOL    HW140124   1.995   3.203   6.671 -1.7497  0.6313  1.3172
 9497SOL    HW240125   2.026   3.060   6.706 -0.7870 -0.4711 -0.8497
 9498SOL     OW40126   4.687   3.973  13.135 -0.2236  0.2139  0.0901
 9498SOL    HW140127   4.657   3.928  13.056  0.3308  1.6873 -0.9414
 9498SOL    HW240128   4.709   4.059  13.100  2.0629  0.3879  1.9929
 9499SOL     OW40129   4.589   2.305   1.028  0.1100  0.4602 -0.4991
 9499SOL    HW140130   4.684   2.307   1.040  0.0631 -1.1004  0.1997
 9499SOL    HW240131   4.567   2.225   1.076 -0.3897  1.8865  1.6851
 9500SOL     OW40132   3.042   2.948   6.069 -0.6613 -0.1667 -0.1752
 9500SOL    HW140133   3.093   2.869   6.089 -1.1199 -0.5834 -0.6652
 9500SOL    HW240134   2.983   2.910   6.004  0.6397 -0.4980 -1.1816
 9501SOL     OW40135   3.120   0.693   3.259  0.4816  0.4692  0.0201
 9501SOL    HW140136   3.043   0.730   3.302 -0.7061 -2.2914  0.3039
 9501SOL    HW240137   3.083   0.674   3.173 -0.7389 -1.1581  0.9012
 9502SOL     OW40138   2.878   0.168  15.907  0.3882 -0.0858  0.4159
 9502SOL    HW140139   2.801   0.192  15.855  0.0076  0.4666  1.2250
 9502SOL    HW240140   2.862   0.206  15.994  1.4577 -1.1191  1.0694
 9503SOL     OW40141   2.191   2.791   3.741 -0.6337  0.4261 -0.1972
 9503SOL    HW140142   2.133   2.729   3.697  0.5155  0.4357 -1.7232
 9503SOL    HW240143   2.140   2.796   3.822  0.6469  0.4043  0.6201
 9504SOL     OW40144   3.671   3.183   5.138  0.6608  0.2039 -0.2385
 9504SOL    HW140145   3.621   3.167   5.219 -0.0249 -1.5354 -1.0110
 9504SOL    HW240146   3.737   3.115   5.149  1.4390  0.8200 -1.1485
 9505SOL     OW40147   2.521   3.096   2.421 -0.4401  0.3178  0.2829
 9505SOL    HW140148   2.540   3.022   2.478  0.8835  0.2505 -0.2425
 9505SOL    HW240149   2.608   3.136   2.420  0.5607 -1.8857 -0.2374
 9506SOL     OW40150   0.868   2.479  10.117 -0.6856 -0.0580 -0.3636
 9506SOL    HW140151   0.951   2.453  10.076 -0.0662  0.5236  0.5408
 9506SOL    HW240152   0.818   2.475  10.035 -0.8117 -2.6300 -0.1709
 9507SOL     OW40153   0.653   2.936  16.879  0.3998  0.2576  0.1920
 9507SOL    HW140154   0.746   2.934  16.898  0.5358  1.7483 -0.3149
 9507SOL    HW240155   0.610   2.875  16.939  2.1758 -0.1648  1.0333
 9508SOL     OW40156   0.055   1.001   6.323 -0.2197 -0.4631 -0.3778
 9508SOL    HW140157   0.002   1.044   6.390  0.6995 -1.8484  1.2517
 9508SOL    HW240158   0.093   0.936   6.383  1.1432  1.0765  0.4377
 9509SOL     OW40159   0.509   3.510   5.456 -0.1119 -0.7302 -0.3261
 9509SOL    HW140160   0.487   3.522   5.548 -2.7797 -0.0436 -1.0622
 9509SOL    HW240161   0.596   3.551   5.450 -0.1644 -0.3978  1.1521
 9510SOL     OW40162   3.647   3.341   5.989 -0.2466 -0.2765 -0.8970
 9510SOL    HW140163   3.605   3.389   6.060 -1.6949  1.7990 -3.1814
 9510SOL    HW240164   3.618   3.250   5.995 -0.4026  0.0160  2.6838
 9511SOL     OW40165   4.284   0.529   2.391  0.1252  0.2631 -0.1502
 9511SOL    HW140166   4.345   0.567   2.328 -0.5513  0.3912 -0.7401
 9511SOL    HW240167   4.325   0.467   2.451  0.2835 -0.4361 -0.9931
 9512SOL     OW40168   0.209   4.039   2.126  0.0655 -0.0765 -0.1283
 9512SOL    HW140169   0.290   4.070   2.087  0.2685 -1.4961 -0.8095
 9512SOL    HW240170   0.146   4.072   2.062 -1.7663 -1.6247  0.8586
 9513SOL     OW40171   2.387   2.451  11.751 -0.0948  0.6538  0.1233
 9513SOL    HW140172   2.331   2.415  11.820  1.2375  0.9546  1.3604
 9513SOL    HW240173   2.347   2.413  11.673  0.2207  0.4069  0.0798
 9514SOL     OW40174   4.141   0.257   2.689  0.5087 -0.0119  0.0758
 9514SOL    HW140175   4.163   0.323   2.754 -2.7000  2.2292 -1.1317
 9514SOL    HW240176   4.197   0.286   2.617 -1.3086  1.0879 -0.8899
 9515SOL     OW40177   1.569   2.231  11.775  0.2288  0.6528  0.1568
 9515SOL    HW140178   1.598   2.158  11.830  0.7857  0.1440 -0.8163
 9515SOL    HW240179   1.605   2.202  11.691 -1.0289  1.0229 -0.5043
 9516SOL     OW40180   2.208   3.051   5.773  0.3147 -1.0283  0.1091
 9516SOL    HW140181   2.123   3.066   5.733  0.8293  2.5782  0.4181
 9516SOL    HW240182   2.249   3.137   5.774  0.5151 -1.1305  1.0362
 9517SOL     OW40183   3.718   0.999   7.399  0.2356 -0.6212  0.1883
 9517SOL    HW140184   3.670   1.021   7.479 -2.7235 -3.2598 -0.8748
 9517SOL    HW240185   3.634   1.010   7.354  0.3093 -2.0275 -0.2893
 9518SOL     OW40186   3.264   4.511  17.105  0.4463  0.2824  0.0429
 9518SOL    HW140187   3.214   4.589  17.128  2.3043  1.7645 -0.8816
 9518SOL    HW240188   3.271   4.526  17.011 -0.8215  2.5515  0.3109
 9519SOL     OW40189   3.467   0.110   2.959  0.7527 -0.0077  0.2074
 9519SOL    HW140190   3.424   0.195   2.944  0.2087 -0.1727  0.8753
 9519SOL    HW240191   3.515   0.128   3.040  1.6107 -0.9406 -0.0886
 9520SOL     OW40192   0.472   1.242   5.971  0.2220 -0.1831  0.1239
 9520SOL    HW140193   0.509   1.158   5.999  2.3728  0.4765 -0.7651
 9520SOL    HW240194   0.483   1.292   6.052 -0.6553 -0.3272  0.3319
 9521SOL     OW40195   3.731   0.230   0.781 -0.2224  0.7038  0.1082
 9521SOL    HW140196   3.718   0.245   0.874 -1.9826  0.0663 -0.0432
 9521SOL    HW240197   3.642   0.214   0.751 -0.5435  1.9895  0.3639
 9522SOL     OW40198   3.064   0.710   2.422 -0.1634  0.2154 -0.2809
 9522SOL    HW140199   3.095   0.621   2.439 -2.5166 -0.6903 -0.7959
 9522SOL    HW240200   3.064   0.712   2.326 -0.9200  3.2511 -0.2104
 9523SOL     OW40201   2.831   2.562   8.922 -0.5395 -0.3960 -0.5480
 9523SOL    HW140202   2.766   2.499   8.891  0.9517 -1.4917 -1.4078
 9523SOL    HW240203   2.820   2.557   9.018 -0.7095 -0.3248 -0.5631
 9524SOL     OW40204   3.573   4.631   3.997  0.0819  0.6581 -0.1227
 9524SOL    HW140205   3.595   4.635   4.090  3.2625 -0.1540 -0.8094
 9524SOL    HW240206   3.513   4.559   3.979  2.5493 -1.7353  1.1134
 9525SOL     OW40207   0.149   0.898  11.063 -0.0546  0.0677  0.7194
 9525SOL    HW140208   0.058   0.921  11.045  0.5511  1.4129 -0.6232
 9525SOL    HW240209   0.158   0.932  11.152 -1.7839  1.5583  0.3230
 9526SOL     OW40210   3.552   0.520   8.777 -0.1858 -0.3387  0.0736
 9526SOL    HW140211   3.508   0.605   8.785  0.8311  0.3248 -1.4153
 9526SOL    HW240212   3.557   0.486   8.866 -2.3629  0.1145  0.3875
 9527SOL     OW40213   0.122   2.199   2.579  0.0917  0.1044 -0.7022
 9527SOL    HW140214   0.095   2.161   2.662  0.5394 -0.2396 -0.7138
 9527SOL    HW240215   0.181   2.132   2.545  1.8036  1.2044  0.1226
 9528SOL     OW40216   2.364   0.615  12.179 -0.0002  0.0296  0.5039
 9528SOL    HW140217   2.428   0.664  12.232 -0.7802  2.2738 -0.6128
 9528SOL    HW240218   2.299   0.683  12.159  0.7966 -0.6757 -4.4226
 9529SOL     OW40219   4.437   2.577  12.288  0.3653 -0.2749 -0.0278
 9529SOL    HW140220   4.501   2.640  12.255 -0.5445  1.8574  2.2610
 9529SOL    HW240221   4.359   2.632  12.280  1.9574  2.2245  1.7234
 9530SOL     OW40222   3.578   1.293   8.194 -0.5699 -0.0543 -0.4914
 9530SOL    HW140223   3.636   1.337   8.257 -0.2160  0.0813 -0.9083
 9530SOL    HW240224   3.610   1.343   8.119 -1.2442  0.3172 -0.5339
 9531SOL     OW40225   3.314   1.301   6.081  0.1365  0.4173 -0.1887
 9531SOL    HW140226   3.386   1.365   6.085  0.3323  0.3825 -3.6395
 9531SOL    HW240227   3.360   1.217   6.081 -1.6960 -0.5983 -0.2648
 9532SOL     OW40228   1.086   2.349   9.704 -0.7712 -0.7113 -0.2832
 9532SOL    HW140229   1.141   2.405   9.649 -0.1367  0.5044  1.5965
 9532SOL    HW240230   1.002   2.361   9.661 -0.0339 -1.7597 -2.0540
 9533SOL     OW40231   0.495   1.618   7.092  0.2560  0.1369 -0.0324
 9533SOL    HW140232   0.465   1.660   7.173 -2.0428  1.1939 -1.4390
 9533SOL    HW240233   0.409   1.580   7.076  0.6038  0.4134 -2.4533
 9534SOL     OW40234   2.228   2.979   8.276  0.2295  0.2111 -0.2352
 9534SOL    HW140235   2.318   3.005   8.258  1.2851 -2.3506  1.2975
 9534SOL    HW240236   2.221   3.025   8.360 -1.4678 -2.3208  1.0274
 9535SOL     OW40237   4.350   1.504  15.464  0.2032 -0.4300  0.0820
 9535SOL    HW140238   4.374   1.594  15.488  0.2217  0.0016 -1.5692
 9535SOL    HW240239   4.317   1.521  15.376 -0.6808  2.6077  0.9680
 9536SOL     OW40240   4.257   0.980   7.395  0.0165  0.8518 -0.0453
 9536SOL    HW140241   4.236   1.055   7.340 -0.7842  1.3842  0.9816
 9536SOL    HW240242   4.178   0.927   7.404  0.8922 -0.4727 -0.1626
 9537SOL     OW40243   4.121   0.568  10.042 -0.2517 -0.6131 -0.8728
 9537SOL    HW140244   4.203   0.617  10.035 -0.9616  0.6864 -0.0944
 9537SOL    HW240245   4.160   0.481  10.044 -2.7716 -1.7595 -2.1414
 9538SOL     OW40246   3.262   3.066   3.879 -0.4388 -0.4677 -0.2287
 9538SOL    HW140247   3.270   3.160   3.896 -0.5530 -0.6814  1.0305
 9538SOL    HW240248   3.319   3.045   3.805  0.2429 -0.3890  0.2734
 9539SOL     OW40249   0.066   0.326   4.382 -0.4123 -0.1534  0.0068
 9539SOL    HW140250   0.023   0.241   4.388 -0.6593 -0.1427 -1.6752
 9539SOL    HW240251   0.010   0.373   4.320 -2.3862 -0.7174  1.4016
 9540SOL     OW40252   1.505   1.709   0.447  0.2747 -0.0601  0.4571
 9540SOL    HW140253   1.503   1.695   0.542 -1.1293 -0.2078  0.4047
 9540SOL    HW240254   1.416   1.742   0.437  0.5379  0.2253 -0.9164
 9541SOL     OW40255   1.731   3.702   2.667  0.3455  0.4810 -0.2722
 9541SOL    HW140256   1.716   3.621   2.618  1.1589  0.4306 -0.4376
 9541SOL    HW240257   1.688   3.761   2.605 -1.1194 -0.8325 -0.5173
 9542SOL     OW40258   1.248   4.135   1.967 -0.1429  0.1545 -0.1719
 9542SOL    HW140259   1.309   4.208   1.960  1.0749 -0.9101 -0.8794
 9542SOL    HW240260   1.231   4.124   1.873  0.7796  0.3686 -0.3628
 9543SOL     OW40261   3.329   3.432   0.171  0.3238  0.1077 -0.0541
 9543SOL    HW140262   3.349   3.354   0.118 -0.3703  0.1802 -0.4319
 9543SOL    HW240263   3.336   3.405   0.262 -0.6537  0.4252  0.1113
 9544SOL     OW40264   0.311   3.185  13.380  0.6136  0.0320  0.0128
 9544SOL    HW140265   0.338   3.276  13.389 -2.5696  0.9243  0.7618
 9544SOL    HW240266   0.365   3.141  13.446  1.1610 -0.1782 -0.5736
 9545SOL     OW40267   3.720   1.353   8.608  0.7504  0.1425 -0.8476
 9545SOL    HW140268   3.672   1.378   8.687  1.1102 -0.6764 -0.3762
 9545SOL    HW240269   3.679   1.412   8.544  0.2001 -1.1386 -1.6697
 9546SOL     OW40270   1.286   0.522   5.871  0.1780  0.4793 -0.1517
 9546SOL    HW140271   1.291   0.466   5.948 -0.6147 -0.1183 -0.5306
 9546SOL    HW240272   1.251   0.457   5.809 -1.3680  1.6063 -0.4592
 9547SOL     OW40273   1.041   4.132   6.230  0.2777 -0.0999  0.0234
 9547SOL    HW140274   1.070   4.223   6.226 -1.1137  0.2317 -2.6748
 9547SOL    HW240275   1.098   4.099   6.160 -0.1092 -0.6140 -0.0529
 9548SOL     OW40276   1.888   0.175   0.745  0.5789  0.0837  1.2340
 9548SOL    HW140277   1.821   0.201   0.682  1.4029 -0.3673  0.1640
 9548SOL    HW240278   1.856   0.201   0.831  2.0218 -0.6259  1.9882
 9549SOL     OW40279   2.903   3.026   0.870  0.1254  0.3985  0.4914
 9549SOL    HW140280   2.957   3.040   0.793 -0.6244 -0.3617 -0.1740
 9549SOL    HW240281   2.848   2.953   0.842  0.9078 -0.6275  1.6611
 9550SOL     OW40282   4.125   1.385  17.032  0.2640 -0.2011  0.0403
 9550SOL    HW140283   4.132   1.295  17.001 -0.8152  0.1058 -1.1050
 9550SOL    HW240284   4.110   1.424  16.946  0.5343  0.0484  0.1077
 9551SOL     OW40285   0.316   0.421   4.354 -0.3942  0.2879 -0.5802
 9551SOL    HW140286   0.226   0.392   4.369 -0.9686  0.8136 -3.0466
 9551SOL    HW240287   0.351   0.332   4.360 -3.5971 -1.0286 -1.5281
 9552SOL     OW40288   4.666   2.791   6.029 -0.5016 -0.3785  0.1334
 9552SOL    HW140289   0.013   2.756   6.016 -1.3932 -1.2511 -3.4455
 9552SOL    HW240290   4.659   2.867   5.971 -1.6375  0.6384  1.5839
 9553SOL     OW40291   0.906   0.844   2.350  0.0108  0.2461  0.5971
 9553SOL    HW140292   0.863   0.759   2.358  0.0814 -0.0244 -2.0593
 9553SOL    HW240293   0.901   0.859   2.256  1.5444 -2.2060  0.1423
 9554SOL     OW40294   4.130   3.783   2.335  0.3023  0.2258  0.5981
 9554SOL    HW140295   4.163   3.712   2.390  0.3525 -0.4312 -0.2773
 9554SOL    HW240296   4.178   3.765   2.254  0.1498  0.9550  0.3450
 9555SOL     OW40297   1.502   3.461   6.239 -0.5293 -0.2090  0.2264
 9555SOL    HW140298   1.451   3.381   6.241  1.0133 -1.2207 -0.5932
 9555SOL    HW240299   1.451   3.528   6.284 -1.2740  0.7108 -1.9968
 9556SOL     OW40300   0.076   3.710   6.405  0.2464 -0.7651  0.8538
 9556SOL    HW140301   0.004   3.744   6.353  0.2401 -1.0999  0.6412
 9556SOL    HW240302   0.081   3.792   6.453  1.3281 -0.4129  0.1460
 9557SOL     OW40303   1.881   0.744   2.477 -0.1290  0.7078 -0.1234
 9557SOL    HW140304   1.934   0.675   2.518 -0.7330  0.6218  0.5014
 9557SOL    HW240305   1.844   0.782   2.556  0.2762  0.9362 -0.0437
 9558SOL     OW40306   3.570   1.462   6.734  0.0090 -0.2442 -0.4493
 9558SOL    HW140307   3.588   1.369   6.748  3.2134  0.3682 -0.5252
 9558SOL    HW240308   3.490   1.475   6.786 -1.4680 -3.2708 -1.9640
 9559SOL     OW40309   0.056   0.069   6.123  0.2580  0.4929  0.1042
 9559SOL    HW140310   0.065   0.030   6.210 -1.0584 -1.6087 -0.7096
 9559SOL    HW240311   0.142   0.046   6.087 -0.3979 -0.8690 -0.5719
 9560SOL     OW40312   3.450   4.040   1.751  0.3351 -0.3632  0.1246
 9560SOL    HW140313   3.515   4.110   1.763  0.2684 -0.3270  0.2811
 9560SOL    HW240314   3.486   3.965   1.799  1.2397  0.3653  0.5908
 9561SOL     OW40315   0.662   3.156   8.517 -0.1004  0.0540 -0.1749
 9561SOL    HW140316   0.661   3.199   8.432  4.9865  2.7225  1.0921
 9561SOL    HW240317   0.703   3.218   8.578 -0.4462  0.8948 -0.8009
 9562SOL     OW40318   1.642   1.530   2.912  0.3267  0.4720 -0.2193
 9562SOL    HW140319   1.597   1.605   2.952 -0.9134 -0.1414 -0.4368
 9562SOL    HW240320   1.573   1.463   2.910  0.2380  0.6299 -2.4313
 9563SOL     OW40321   0.995   3.794   9.116 -0.4193  0.4682 -0.2496
 9563SOL    HW140322   1.080   3.776   9.076  0.4695  2.1017  0.9267
 9563SOL    HW240323   1.017   3.815   9.206 -0.5889  0.3225 -0.1746
 9564SOL     OW40324   0.745   4.474   7.018 -0.0036 -0.2430 -0.1992
 9564SOL    HW140325   0.683   4.411   7.055 -2.3475  2.3978  0.3606
 9564SOL    HW240326   0.701   4.557   7.036 -1.6498 -0.9324 -1.1152
 9565SOL     OW40327   0.982   2.996   8.345 -0.6826  0.1549  0.3313
 9565SOL    HW140328   0.996   3.040   8.260 -1.7039  1.8449  1.0395
 9565SOL    HW240329   0.900   2.950   8.327 -1.8304  2.0738  0.6052
 9566SOL     OW40330   2.523   2.447   8.822  0.2665 -0.7630 -0.3864
 9566SOL    HW140331   2.562   2.512   8.764 -1.9819  0.8312 -0.0948
 9566SOL    HW240332   2.436   2.433   8.786  0.0372 -0.3386 -0.0053
 9567SOL     OW40333   0.089   1.494   5.852  0.1787  0.0220 -0.0790
 9567SOL    HW140334   0.018   1.521   5.911  1.1610  2.4117  0.0096
 9567SOL    HW240335   0.043   1.468   5.771  0.4783 -0.3780 -0.1203
 9568SOL     OW40336   3.898   1.259   4.214 -0.4478 -0.0316 -0.2672
 9568SOL    HW140337   3.900   1.340   4.265  0.6125 -0.2036 -0.0470
 9568SOL    HW240338   3.813   1.219   4.234 -0.6771  0.1740 -0.8164
 9569SOL     OW40339   3.680   0.782   8.514  0.4680 -0.4241 -0.4524
 9569SOL    HW140340   3.653   0.872   8.529 -0.1505 -0.5119 -1.0457
 9569SOL    HW240341   3.601   0.757   8.465  0.2593  1.1924 -0.9464
 9570SOL     OW40342   2.217   2.040  11.761 -0.4702 -0.2771 -0.5357
 9570SOL    HW140343   2.201   2.121  11.808  1.7049 -0.8087  1.0781
 9570SOL    HW240344   2.281   2.070  11.697  1.9448 -1.7396  1.1951
 9571SOL     OW40345   4.585   1.141   8.748 -0.6113 -0.6361  0.5778
 9571SOL    HW140346   4.625   1.221   8.781  0.3525 -0.4436 -1.0354
 9571SOL    HW240347   4.650   1.118   8.681 -0.5160 -1.8313  1.0756
   4.74065   4.74065  17.76007
